      -----------------------------------------------------------      
     |                   =====================                   |     
     |                           x T B                           |     
     |                   =====================                   |     
     |                         S. Grimme                         |     
     |          Mulliken Center for Theoretical Chemistry        |     
     |                    University of Bonn                     |     
     |                 Version 6.0.1 (SAW181210)                 |     
      -----------------------------------------------------------      

   This program is distributed in the hope that it will be useful,
   but WITHOUT ANY WARRANTY; without even the implied warranty of
   MERCHANTABILITY or FITNESS FOR A PARTICULAR PURPOSE.
   
   FOR NON-COMMERCIAL, ACADEMIA USE ONLY.
   
   Cite this work as:
   S. Grimme, C. Bannwarth, P. Shushkov, J. Comput. Theory Chem., 2017,
   13, 1989-2009.
   C. Bannwarth, S. Ehlert and S. Grimme., ChemRxiv, 2018, preprint.
   http://doi.org/10.26434/chemrxiv.7246238.v1
   
   for sTDA-xTB:
   S. Grimme and C. Bannwarth, J. Chem. Phys., 2016, 145, 054103.
   
   in the mass-spec context:
   V. Asgeirsson, C. Bauer and S. Grimme, Chem. Sci., 2017, 8, 4879.
   
   if GBSA is used:
   P. Shushkov, F. März and S. Grimme, unpublished.
   
   for ANC optimizer:
   S. Grimme, unpublished.
   Rational Function algorithm used in ANCopt:
   F. Eckert, P. Pulay, H.-J. Werner, J. Comput. Chem., 1997, 18, 1473.
   
   with help from (in alphabetical order)
   C. Bannwarth, F. Bohle, G. Brandenburg, E. Caldeweyher, M. Checinski,
   S. Dohm, S. Ehlert, S. Ehrlich, F. März, H. Neugebauer, J. Pisarek,
   P. Pracht, P. Shushkov, and S. Spicher.
   
 * started run on 2019/05/06 at 07:35:29.553     
========================================================================
 # omp threads = 2
========================================================================
number of atoms            : 363
number of electrons        : 952
charge                     : -1
spin                       : .0
first test random number   : .9475

########################################################################
# WARNING! Please study the warnings concerning your input carefully
#  - Process number higher than OMP_NUM_THREADS, I hope you know what you are doing.
########################################################################

           ------------------------------------------------- 
          |                 G F N 2 - x T B                 |
          | Geometry, Frequencies, Noncovalent interactions |
          |            JCTC 2018 parametrisation            |
           ------------------------------------------------- 
 
      method parameters     
 k(s)        :  1.8500
 k(p)        :  2.2300
 k(d)        :  2.2300
 k(f)        :  2.0000
 kEN (H0ij)  : -2.0000
 D4 a1       :  0.5200
 D4 a2       :  5.0000
 D4 s6       :  1.0000
 D4 s8       :  2.7000
 D4 s9       :  5.0000
 alphaj      :  2.0000

 Solvent             : h2o
 Using internal parameter file: .param_gbsa2_h2o
 Gsolv ref. state (COSMO-RS): gsolv [1 M gas/solution]
 temperature (mdtemp)       :    298.150000000000     
 dielectric constant        :    80.2000000000000     
 rho                        :    1.00000000000000     
 mass                       :    18.0000000000000     
 surface tension            :    15.5689454083859     
 probe radius               :   0.975313790000000     
 vdW radii scaling          :    1.00000000000000     
 Gshift (Eh)                :   1.857443126794793E-003
 c1                         :    1.55243817000000     
 soset                      :   0.130326360000000     
 HB correction              :  T

            Z     q(EN)     CN     RAES       Cart. coordinates
     1  N   5.0   -0.22    3.27    1.97   103.35482    29.58901    12.13130
     2  C   4.0    0.03    4.41    4.40   103.96227    28.88710    14.68612
     3  C   4.0    0.14    3.46    3.10   106.65943    28.01194    15.04457
     4  O   6.0   -0.33    1.30    1.80   107.68990    28.72026    16.98373
     5  C   4.0   -0.02    4.25    4.09   101.93873    27.22538    15.91874
     6  C   4.0   -0.08    4.18    3.96   100.46976    25.83276    13.90629
     7  C   4.0   -0.07    4.12    3.85   102.98068    25.43642    17.93504
     8  H   1.0    0.08    1.04    1.43   102.44105    28.34981    10.99775
     9  H   1.0    0.04    1.07    1.44   103.99182    30.69827    15.74385
    10  H   1.0    0.04    1.05    1.44   100.59902    28.49350    16.88668
    11  H   1.0    0.04    1.00    1.43    99.24107    24.41605    14.78787
    12  H   1.0    0.04    1.01    1.43    99.27658    27.08355    12.82195
    13  H   1.0    0.04    1.00    1.43   101.76077    24.82193    12.66567
    14  H   1.0    0.04    1.00    1.43   101.43938    24.34981    18.75157
    15  H   1.0    0.05    1.00    1.43   104.33744    24.11550    17.12578
    16  H   1.0    0.05    1.00    1.43   103.91923    26.47976    19.43091
    17  N   5.0   -0.15    3.37    2.01   107.89409    26.81034    13.20885
    18  C   4.0    0.04    4.29    4.18   110.61484    26.52677    13.47147
    19  C   4.0    0.08    3.19    3.03   112.15318    28.98484    12.90046
    20  O   6.0   -0.30    1.13    1.80   114.35978    29.05020    13.56971
    21  C   4.0   -0.04    4.21    4.01   111.93339    24.43247    11.89460
    22  C   4.0   -0.03    4.06    3.72   111.20285    21.65099    12.21914
    23  C   4.0    0.24    3.03    3.02   110.30583    20.33586     9.59240
    24  O   6.0   -0.29    1.15    1.80   110.32232    21.58183     7.56325
    25  O   6.0   -0.29    1.15    1.80   109.56438    18.09449     9.78191
    26  H   1.0    0.08    1.05    1.44   107.06109    26.24139    11.57807
    27  H   1.0    0.06    1.06    1.44   110.97519    26.15190    15.48131
    28  H   1.0    0.06    1.04    1.43   111.60993    24.88892     9.88087
    29  H   1.0    0.06    1.04    1.43   113.95178    24.65638    12.25542
    30  H   1.0    0.05    1.02    1.43   112.75409    20.51229    12.93677
    31  H   1.0    0.05    1.02    1.43   109.59874    21.40634    13.48939
    32  N   5.0   -0.21    3.26    1.97   110.03759    36.09326    12.30369
    33  C   4.0    0.02    4.50    4.54   109.03325    38.23789    13.64139
    34  C   4.0    0.14    3.46    3.10   108.43478    37.65372    16.40681
    35  O   6.0   -0.33    1.34    1.80   109.88294    38.44030    18.05559
    36  C   4.0   -0.03    4.41    4.40   106.82468    39.22134    12.13883
    37  C   4.0   -0.05    4.30    4.19   108.09108    40.60158     9.97553
    38  C   4.0   -0.08    4.17    3.95   105.19468    40.94231    13.68762
    39  C   4.0   -0.09    4.01    3.64   106.40362    40.95448     7.67306
    40  H   1.0    0.08    1.03    1.43   108.78042    34.66235    12.07310
    41  H   1.0    0.04    1.07    1.44   110.54954    39.65114    13.72183
    42  H   1.0    0.03    1.06    1.44   105.72533    37.62874    11.42517
    43  H   1.0    0.03    1.03    1.43   108.72181    42.45303    10.62451
    44  H   1.0    0.03    1.05    1.44   109.74344    39.52971     9.35228
    45  H   1.0    0.03    1.00    1.43   103.83446    41.90043    12.47338
    46  H   1.0    0.04    1.01    1.43   104.12416    39.93590    15.11894
    47  H   1.0    0.04    1.00    1.43   106.33986    42.37911    14.61803
    48  H   1.0    0.03    1.00    1.43   107.46437    41.78792     6.12594
    49  H   1.0    0.03    1.00    1.43   105.66078    39.13702     7.04935
    50  H   1.0    0.03    1.00    1.43   104.80554    42.17680     8.09254
    51  N   5.0   -0.15    3.49    2.07   106.33865    36.38706    17.00198
    52  C   4.0    0.03    4.56    4.62   105.43768    36.33813    19.61181
    53  C   4.0    0.15    3.58    3.15   107.18993    35.20343    21.53777
    54  O   6.0   -0.33    1.29    1.80   107.21532    35.90103    23.74264
    55  C   4.0   -0.03    4.38    4.35   103.02656    34.80120    19.71738
    56  C   4.0   -0.06    4.18    3.96   100.94936    36.34486    18.36054
    57  C   4.0   -0.07    4.17    3.93   102.41628    33.98259    22.42289
    58  C   4.0   -0.08    3.99    3.61    98.59137    34.82531    17.61859
    59  H   1.0    0.07    1.06    1.44   105.37056    35.46811    15.62704
    60  H   1.0    0.04    1.06    1.44   105.06372    38.29119    20.19952
    61  H   1.0    0.04    1.06    1.44   103.35729    33.06435    18.61966
    62  H   1.0    0.03    1.02    1.43   100.39360    37.92643    19.56082
    63  H   1.0    0.03    1.04    1.43   101.74144    37.12011    16.62598
    64  H   1.0    0.04    1.00    1.43   100.53929    33.14375    22.47894
    65  H   1.0    0.05    1.01    1.43   103.74727    32.56833    23.07729
    66  H   1.0    0.05    1.00    1.43   102.45345    35.57604    23.71487
    67  H   1.0    0.04    1.00    1.43    97.33944    36.00515    16.50543
    68  H   1.0    0.04    1.00    1.43    99.13196    33.18979    16.50568
    69  H   1.0    0.04    1.00    1.43    97.56661    34.18193    19.27241
    70  N   5.0   -0.14    3.50    2.08   108.66875    33.34999    20.73115
    71  C   4.0    0.04    4.52    4.57   110.38907    32.24835    22.50385
    72  C   4.0    0.14    3.66    3.21   112.93142    33.51680    22.69232
    73  O   6.0   -0.31    1.30    1.80   114.20653    32.92837    24.53801
    74  C   4.0   -0.03    4.46    4.47   111.12012    29.54908    21.88176
    75  C   4.0   -0.04    4.09    3.79   108.97302    27.82233    22.51525
    76  S   6.0   -0.02    2.44    3.10   109.92484    24.51858    21.95559
    77  C   4.0   -0.05    3.84    3.38   111.26288    23.59621    25.10321
    78  H   1.0    0.09    1.06    1.44   108.40454    32.44706    19.04162
    79  H   1.0    0.06    1.07    1.44   109.54797    32.30821    24.40498
    80  H   1.0    0.06    1.04    1.43   111.55565    29.35034    19.87438
    81  H   1.0    0.05    1.06    1.44   112.77784    29.01837    22.98428
    82  H   1.0    0.04    1.06    1.44   108.40647    27.98004    24.48905
    83  H   1.0    0.06    1.08    1.44   107.38374    28.12737    21.25465
    84  H   1.0    0.05    1.03    1.43   112.77071    22.26209    24.71386
    85  H   1.0    0.05    1.03    1.43   111.98051    25.26763    26.04693
    86  H   1.0    0.07    1.03    1.43   109.77229    22.68681    26.19564
    87  N   5.0   -0.10    3.78    2.38   113.68166    35.22864    20.96718
    88  C   4.0    0.04    4.75    4.80   115.66370    36.80916    21.88038
    89  C   4.0    0.15    3.52    3.12   114.43782    38.54808    23.80269
    90  O   6.0   -0.31    1.35    1.80   115.62652    39.36402    25.63700
    91  C   4.0   -0.04    4.39    4.36   116.71551    38.11609    19.58408
    92  C   4.0   -0.04    4.30    4.20   116.47855    36.08505    17.60824
    93  C   4.0    0.00    4.43    4.43   113.88071    35.01048    18.25639
    94  H   1.0    0.06    1.06    1.44   117.11664    35.70218    22.86279
    95  H   1.0    0.05    1.03    1.43   115.47956    39.68857    19.05990
    96  H   1.0    0.04    1.02    1.43   118.65756    38.75221    19.86267
    97  H   1.0    0.05    1.02    1.43   116.51748    36.78706    15.67346
    98  H   1.0    0.05    1.02    1.43   117.93260    34.63398    17.82015
    99  H   1.0    0.07    1.09    1.44   112.45878    36.13653    17.32144
   100  H   1.0    0.05    1.01    1.43   113.66971    33.02857    17.63542
   101  N   5.0   -0.14    3.48    2.07   112.06502    39.37303    23.38381
   102  C   4.0    0.03    4.54    4.59   111.18478    41.51507    25.02211
   103  C   4.0    0.16    3.64    3.19   111.44857    40.71806    27.71428
   104  O   6.0   -0.33    1.42    1.80   112.86596    41.78909    29.18905
   105  C   4.0   -0.05    4.37    4.32   108.51217    42.44451    24.49317
   106  C   4.0   -0.02    4.22    4.04   108.36527    43.14212    21.68882
   107  C   4.0   -0.08    4.08    3.77   105.58197    43.56058    20.99708
   108  C   4.0   -0.08    4.11    3.82   110.16058    45.31495    21.08887
   109  H   1.0    0.10    1.07    1.44   110.96840    38.69157    21.96893
   110  H   1.0    0.05    1.07    1.44   112.58430    43.02605    24.79563
   111  H   1.0    0.05    1.03    1.43   107.15819    40.95761    24.92838
   112  H   1.0    0.03    1.03    1.43   108.12892    44.07306    25.68850
   113  H   1.0    0.06    1.08    1.44   108.97659    41.49558    20.59338
   114  H   1.0    0.03    1.00    1.43   105.37677    43.98953    18.99729
   115  H   1.0    0.04    1.00    1.43   104.48211    41.88744    21.43453
   116  H   1.0    0.03    1.00    1.43   104.80263    45.13067    22.07462
   117  H   1.0    0.03    1.00    1.43   110.43356    45.44605    19.06595
   118  H   1.0    0.03    1.00    1.43   109.31891    47.08885    21.73590
   119  H   1.0    0.03    1.02    1.43   111.91807    45.08553    22.07527
   120  N   5.0   -0.15    3.62    2.18   109.97983    38.79182    28.29162
   121  C   4.0    0.04    4.60    4.67   109.92390    37.99271    30.83913
   122  C   4.0    0.16    3.47    3.10   112.47355    37.24647    32.00576
   123  O   6.0   -0.29    1.35    1.80   112.60134    36.75579    34.25866
   124  C   4.0   -0.02    4.41    4.40   107.88761    36.01276    31.04181
   125  C   4.0   -0.05    4.24    4.08   105.35546    37.24666    30.43102
   126  C   4.0   -0.06    4.20    4.00   107.89846    34.91713    33.67361
   127  C   4.0   -0.08    4.02    3.66   103.37997    35.22678    29.84060
   128  H   1.0    0.10    1.09    1.44   109.08769    37.76264    26.94362
   129  H   1.0    0.05    1.07    1.44   109.35107    39.61972    32.02012
   130  H   1.0    0.05    1.06    1.44   108.27510    34.49450    29.68276
   131  H   1.0    0.04    1.03    1.43   104.72902    38.36830    32.04655
   132  H   1.0    0.04    1.04    1.43   105.51374    38.47175    28.78608
   133  H   1.0    0.04    1.00    1.43   106.23485    33.74245    34.00712
   134  H   1.0    0.06    1.01    1.43   109.53755    33.72457    34.02164
   135  H   1.0    0.05    1.00    1.43   107.90804    36.41066    35.08596
   136  H   1.0    0.04    1.00    1.43   101.54792    36.06073    29.41189
   137  H   1.0    0.04    1.00    1.43   103.98629    34.11464    28.21907
   138  H   1.0    0.04    1.00    1.43   103.13784    33.93194    31.41712
   139  N   5.0   -0.13    3.49    2.07   114.55764    37.30495    30.58838
   140  C   4.0    0.03    4.30    4.19   116.95190    36.79649    31.74939
   141  C   4.0    0.16    3.30    3.05   118.76183    39.04842    31.70685
   142  O   6.0   -0.29    1.20    1.80   120.97137    38.74118    32.38550
   143  H   1.0    0.12    1.10    1.44   114.56114    37.54771    28.69296
   144  H   1.0    0.08    1.06    1.44   116.59035    36.38170    33.74161
   145  H   1.0    0.05    1.02    1.43   117.87744    35.16773    30.85802
   146  N   5.0   -0.13    3.53    2.10   117.77903    41.21265    30.80652
   147  C   4.0    0.04    4.45    4.46   118.96448    43.67034    31.09709
   148  C   4.0    0.15    3.37    3.07   117.53263    45.31282    32.95466
   149  O   6.0   -0.29    1.21    1.80   118.76433    46.93110    34.04285
   150  C   4.0   -0.05    4.25    4.10   119.41609    45.12160    28.62826
   151  C   4.0   -0.04    4.20    4.01   121.17783    43.54148    26.96560
   152  C   4.0   -0.06    4.14    3.88   122.19496    45.00441    24.70255
   153  C   4.0   -0.04    4.09    3.79   123.21326    43.24725    22.61848
   154  N   5.0   -0.12    3.98    2.82   126.02684    42.75874    22.72567
   155  H   1.0    0.12    1.15    1.45   116.04700    41.13437    29.99932
   156  H   1.0    0.07    1.07    1.44   120.80377    43.30420    31.99168
   157  H   1.0    0.04    1.02    1.43   117.60644    45.43745    27.69865
   158  H   1.0    0.05    1.03    1.43   120.26430    46.92423    29.14018
   159  H   1.0    0.05    1.03    1.43   122.72112    42.85306    28.14239
   160  H   1.0    0.06    1.03    1.43   120.10220    41.88747    26.35533
   161  H   1.0    0.03    1.03    1.43   120.66720    46.15480    23.96642
   162  H   1.0    0.04    1.03    1.43   123.66896    46.28706    25.34966
   163  H   1.0    0.04    1.02    1.43   122.28239    41.41258    22.80099
   164  H   1.0    0.04    1.02    1.43   122.87031    43.99508    20.72517
   165  H   1.0    0.06    1.02    1.43   126.50327    41.34512    21.47763
   166  H   1.0    0.06    1.02    1.43   127.06206    44.34785    22.27527
   167  H   1.0    0.05    1.02    1.43   126.51842    42.16691    24.51858
   168  N   5.0   -0.13    3.46    2.06   115.03461    44.84282    33.10271
   169  C   4.0    0.03    4.33    4.26   113.05269    46.12039    34.56455
   170  C   4.0    0.15    3.30    3.05   112.12921    44.48027    36.85262
   171  O   6.0   -0.28    1.38    1.80   113.76741    43.56921    38.21512
   172  C   4.0   -0.03    4.24    4.08   111.08932    47.44799    32.77142
   173  C   4.0   -0.05    4.15    3.89   109.08010    45.77443    31.48338
   174  C   4.0   -0.08    4.11    3.81   112.53082    48.98058    30.71661
   175  C   4.0   -0.09    4.02    3.65   106.68768    47.25187    30.74596
   176  H   1.0    0.11    1.13    1.45   114.35938    43.39951    32.05436
   177  H   1.0    0.06    1.06    1.44   114.05732    47.66991    35.53638
   178  H   1.0    0.03    1.05    1.44   110.10609    48.80226    33.99050
   179  H   1.0    0.05    1.04    1.43   109.91628    44.99051    29.76541
   180  H   1.0    0.04    1.03    1.43   108.64332    44.14882    32.66720
   181  H   1.0    0.03    1.00    1.43   111.21472    50.20942    29.74015
   182  H   1.0    0.04    1.00    1.43   113.98918    50.12732    31.59455
   183  H   1.0    0.05    1.00    1.43   113.40616    47.68228    29.39476
   184  H   1.0    0.03    1.00    1.43   105.26976    45.98410    29.97923
   185  H   1.0    0.04    1.00    1.43   105.90168    48.24815    32.35879
   186  H   1.0    0.03    1.00    1.43   107.15056    48.64966    29.31440
   187  N   5.0   -0.15    3.40    2.02   109.65544    44.27328    37.33919
   188  C   4.0    0.03    4.38    4.34   108.23934    42.97082    39.32055
   189  C   4.0    0.15    3.45    3.09   109.27953    40.81579    40.94051
   190  O   6.0   -0.30    1.25    1.80   107.86736    39.93735    42.56911
   191  C   4.0   -0.03    4.49    4.53   106.14282    41.50161    37.97573
   192  C   4.0   -0.02    3.56    3.14   103.85829    42.98383    37.32831
   193  C   4.0   -0.05    3.48    3.11   103.71752    44.33734    35.08550
   194  C   4.0   -0.04    3.46    3.10   101.75259    42.79419    38.88550
   195  C   4.0   -0.05    3.36    3.07   101.49313    45.53520    34.38132
   196  C   4.0   -0.05    3.36    3.07    99.50858    43.94677    38.16511
   197  C   4.0   -0.05    3.36    3.07    99.37290    45.32320    35.91912
   198  H   1.0    0.07    1.09    1.44   108.46246    45.32467    36.27719
   199  H   1.0    0.05    1.05    1.44   107.42104    44.38300    40.59798
   200  H   1.0    0.04    1.03    1.43   106.98778    40.65652    36.27462
   201  H   1.0    0.06    1.07    1.44   105.53502    39.94015    39.17684
   202  H   1.0    0.04    1.06    1.44   105.31026    44.34154    33.84708
   203  H   1.0    0.05    1.03    1.43   101.86609    41.71542    40.61201
   204  H   1.0    0.04    1.03    1.43   101.39443    46.60842    32.65435
   205  H   1.0    0.04    1.03    1.43    97.85325    43.76278    39.34587
   206  H   1.0    0.04    1.03    1.43    97.61844    46.21617    35.38760
   207  N   5.0   -0.12    3.46    2.05   111.44614    39.82818    40.18771
   208  C   4.0    0.02    4.22    4.05   112.51879    37.44603    40.89682
   209  C   4.0    0.16    3.30    3.05   114.79264    36.96955    39.13553
   210  O   6.0   -0.26    1.27    1.80   115.51999    38.60027    37.69759
   211  H   1.0    0.14    1.23    1.47   112.68209    40.91707    39.14657
   212  H   1.0    0.05    1.02    1.43   113.21694    37.45263    42.85192
   213  H   1.0    0.05    1.02    1.43   111.12112    35.92815    40.72162
   214  N   5.0   -0.14    3.37    2.01   115.90008    34.66158    39.49068
   215  C   4.0    0.04    4.27    4.15   118.27982    33.60916    38.47652
   216  C   4.0    0.16    3.36    3.07   117.85674    30.86068    37.38852
   217  O   6.0   -0.28    1.26    1.80   117.40019    29.04584    38.73440
   218  C   4.0    0.04    4.12    3.84   120.30403    33.54726    40.58356
   219  O   6.0   -0.25    2.06    1.83   122.65471    33.33737    39.39271
   220  H   1.0    0.08    1.07    1.44   115.02347    33.46566    40.69685
   221  H   1.0    0.06    1.05    1.44   118.94800    34.85811    36.97332
   222  H   1.0    0.05    1.01    1.43   120.19441    35.32123    41.65425
   223  H   1.0    0.05    1.01    1.43   119.88596    31.95046    41.83176
   224  H   1.0    0.12    1.02    1.43   123.85196    32.52640    40.50568
   225  N   5.0   -0.14    3.42    2.03   118.01697    30.66000    34.86023
   226  C   4.0    0.03    4.41    4.40   116.49447    28.91832    33.34707
   227  C   4.0    0.17    3.40    3.08   115.36005    26.71125    34.92845
   228  O   6.0   -0.27    1.21    1.80   113.12537    26.83910    35.50042
   229  C   4.0   -0.02    4.22    4.03   117.96965    28.43802    30.86131
   230  C   4.0   -0.07    4.09    3.78   120.49995    27.09043    31.24848
   231  C   4.0   -0.07    4.08    3.76   116.31987    27.11884    28.87778
   232  H   1.0    0.07    1.07    1.44   118.54170    32.22570    33.88886
   233  H   1.0    0.06    1.06    1.44   114.76272    29.95093    32.79679
   234  H   1.0    0.04    1.06    1.44   118.39213    30.33341    30.13053
   235  H   1.0    0.04    1.00    1.43   121.68350    27.35837    29.59299
   236  H   1.0    0.05    1.00    1.43   121.47586    27.83885    32.89290
   237  H   1.0    0.04    1.00    1.43   120.21863    25.06615    31.48545
   238  H   1.0    0.04    1.00    1.43   117.45716    26.56256    27.26162
   239  H   1.0    0.06    1.00    1.43   115.42706    25.43220    29.65634
   240  H   1.0    0.05    1.00    1.43   114.82322    28.37052    28.22977
   241  N   5.0   -0.12    3.41    2.02   116.90203    24.79105    35.56438
   242  C   4.0    0.04    4.30    4.20   116.06878    22.33810    36.45688
   243  C   4.0    0.08    3.18    3.03   117.85671    20.92667    38.28234
   244  O   6.0   -0.28    1.11    1.80   120.09485    21.36867    38.65501
   245  C   4.0   -0.03    4.27    4.14   115.54538    20.56539    34.20783
   246  C   4.0    0.26    3.15    3.03   112.73186    21.08454    33.54722
   247  O   6.0   -0.28    1.17    1.80   111.14505    20.01860    34.94139
   248  O   6.0   -0.28    1.17    1.80   112.37417    22.58021    31.76975
   249  H   1.0    0.09    1.07    1.44   118.74834    24.92538    35.10101
   250  H   1.0    0.07    1.07    1.44   114.27832    22.63787    37.45869
   251  H   1.0    0.05    1.02    1.43   116.77098    21.02599    32.62045
   252  H   1.0    0.05    1.02    1.43   115.76127    18.57538    34.70654
   253  N   5.0   -0.21    3.24    1.97   101.67121    15.99803    29.92414
   254  C   4.0    0.04    4.34    4.27   101.23795    16.92543    27.41197
   255  C   4.0    0.07    3.23    3.04    98.59519    16.44276    26.53471
   256  O   6.0   -0.30    1.15    1.80    97.61482    18.11820    25.28671
   257  C   4.0   -0.03    4.28    4.16   103.17973    15.91184    25.58933
   258  C   4.0    0.25    3.18    3.03   105.62544    17.34752    26.44697
   259  O   6.0   -0.30    1.18    1.80   105.89532    19.47044    25.50988
   260  O   6.0   -0.28    1.17    1.80   106.96734    16.30715    28.08424
   261  H   1.0    0.10    1.03    1.43   103.13935    14.78906    30.20121
   262  H   1.0    0.06    1.07    1.44   101.44043    19.00149    27.39896
   263  H   1.0    0.05    1.02    1.43   103.37282    13.86857    25.77369
   264  H   1.0    0.05    1.03    1.43   102.71373    16.46016    23.66185
   265  N   5.0   -0.20    3.18    1.95    96.47334    22.43226    28.40878
   266  C   4.0    0.03    4.25    4.10    97.06778    24.82861    27.17352
   267  C   4.0    0.07    3.21    3.04    96.32521    24.86053    24.27558
   268  O   6.0   -0.31    1.11    1.80    95.61191    26.79175    23.19035
   269  C   4.0   -0.02    4.34    4.28    99.75329    25.87581    27.63631
   270  C   4.0   -0.04    4.33    4.25   101.24580    25.42202    25.27223
   271  C   4.0   -0.07    4.21    4.03   101.16899    24.76222    29.82928
   272  C   4.0   -0.07    4.13    3.86   103.99014    25.94613    25.78177
   273  H   1.0    0.09    1.02    1.43    97.85556    21.31216    29.10906
   274  H   1.0    0.04    1.05    1.44    95.71146    26.19150    27.99242
   275  H   1.0    0.04    1.06    1.44    99.56306    27.91330    27.93170
   276  H   1.0    0.05    1.03    1.43   101.07330    23.44688    24.67025
   277  H   1.0    0.05    1.03    1.43   100.58482    26.62158    23.72432
   278  H   1.0    0.04    1.01    1.43   102.74565    25.95896    30.34980
   279  H   1.0    0.04    1.00    1.43    99.95929    24.60032    31.49713
   280  H   1.0    0.05    1.00    1.43   101.88748    22.88001    29.38942
   281  H   1.0    0.04    1.02    1.43   105.00111    25.83308    23.98924
   282  H   1.0    0.04    1.00    1.43   104.25806    27.82418    26.57828
   283  H   1.0    0.05    1.01    1.43   104.84837    24.53790    26.99653
   284  N   5.0   -0.20    3.21    1.96    89.62514    26.69229    24.47431
   285  C   4.0    0.03    4.23    4.07    89.54344    29.40740    24.46642
   286  C   4.0    0.09    3.30    3.05    90.04296    30.53689    21.85235
   287  O   6.0   -0.30    1.11    1.80    88.70656    32.20724    20.92679
   288  C   4.0   -0.04    4.37    4.33    91.58752    30.41696    26.19989
   289  C   4.0   -0.01    3.62    3.18    92.38453    33.06582    25.51986
   290  C   4.0   -0.04    3.48    3.10    91.12437    35.12924    26.54920
   291  C   4.0   -0.04    3.47    3.10    94.51130    33.49386    24.03666
   292  C   4.0   -0.04    3.36    3.07    92.05966    37.55820    26.32145
   293  C   4.0   -0.05    3.38    3.07    95.43921    35.92817    23.78847
   294  C   4.0   -0.05    3.38    3.07    94.27808    37.94093    25.00062
   295  H   1.0    0.08    1.03    1.43    90.68262    25.80563    25.80252
   296  H   1.0    0.04    1.05    1.44    87.65707    30.05215    25.04967
   297  H   1.0    0.03    1.03    1.43    90.94345    30.36019    28.15677
   298  H   1.0    0.06    1.05    1.44    93.23685    29.19014    26.01426
   299  H   1.0    0.05    1.03    1.43    89.42644    34.79316    27.63386
   300  H   1.0    0.06    1.03    1.43    95.52629    31.91572    23.23080
   301  H   1.0    0.04    1.03    1.43    91.10719    39.11093    27.22937
   302  H   1.0    0.04    1.03    1.43    97.15764    36.25380    22.74230
   303  H   1.0    0.04    1.03    1.43    95.12506    39.79184    24.89820
   304  N   5.0   -0.21    3.13    1.94   124.28736    51.60018    20.06393
   305  C   4.0   -0.00    4.15    3.90   124.40609    48.93531    20.70182
   306  C   4.0    0.14    3.25    3.04   125.31780    47.54228    18.25116
   307  O   6.0   -0.31    1.18    1.80   127.54813    47.01082    18.06570
   308  H   1.0    0.08    1.04    1.43   124.44415    51.88306    18.15285
   309  H   1.0    0.05    1.02    1.43   125.76893    48.64657    22.22247
   310  H   1.0    0.03    1.03    1.43   122.52486    48.34397    21.30528
   311  N   5.0   -0.15    3.30    1.98   123.37452    46.93221    16.63907
   312  C   4.0    0.02    4.34    4.27   123.19231    46.16544    13.90396
   313  C   4.0    0.14    3.42    3.08   120.97455    44.31867    13.26465
   314  O   6.0   -0.31    1.29    1.80   120.89703    42.06193    13.71833
   315  C   4.0   -0.01    4.29    4.18   125.69114    45.10609    12.79097
   316  C   4.0   -0.05    4.18    3.97   125.45438    44.85124     9.89636
   317  C   4.0   -0.06    4.10    3.80   126.45445    42.56086    13.99712
   318  C   4.0   -0.08    4.00    3.62   128.00909    44.95737     8.53697
   319  H   1.0    0.07    1.08    1.44   121.73881    47.81477    17.09563
   320  H   1.0    0.03    1.06    1.44   122.79726    47.90483    12.87850
   321  H   1.0    0.05    1.06    1.44   127.14091    46.51168    13.21402
   322  H   1.0    0.06    1.02    1.43   124.51854    43.07007     9.42491
   323  H   1.0    0.05    1.03    1.43   124.26343    46.32818     9.14018
   324  H   1.0    0.04    1.00    1.43   127.91710    41.71604    12.84025
   325  H   1.0    0.06    1.00    1.43   127.08793    42.89422    15.91615
   326  H   1.0    0.06    1.02    1.43   124.84744    41.28546    13.99685
   327  H   1.0    0.04    1.00    1.43   127.69675    45.14568     6.51717
   328  H   1.0    0.04    1.00    1.43   129.13181    46.55054     9.18033
   329  H   1.0    0.04    1.00    1.43   129.06607    43.21912     8.83259
   330  N   5.0   -0.14    3.52    2.10   118.98376    45.41768    12.12667
   331  C   4.0    0.03    4.39    4.36   117.10873    43.72533    11.11718
   332  C   4.0    0.07    3.19    3.03   117.64557    43.15137     8.32569
   333  O   6.0   -0.30    1.13    1.80   119.69512    43.44543     7.33967
   334  C   4.0   -0.06    4.26    4.11   114.41781    44.73411    11.62130
   335  C   4.0   -0.05    4.27    4.14   114.26948    46.34467    13.96730
   336  C   4.0   -0.05    4.21    4.02   114.95012    44.80406    16.27685
   337  C   4.0   -0.04    4.15    3.91   115.68952    46.64281    18.34196
   338  N   5.0   -0.13    4.00    2.85   116.58238    45.41004    20.72946
   339  H   1.0    0.07    1.06    1.44   119.11527    47.13661    11.30375
   340  H   1.0    0.06    1.09    1.44   117.37021    41.91067    12.08934
   341  H   1.0    0.03    1.03    1.43   113.78849    45.86178    10.00629
   342  H   1.0    0.03    1.03    1.43   113.13075    43.13701    11.82536
   343  H   1.0    0.04    1.04    1.43   115.53428    47.95531    13.76571
   344  H   1.0    0.03    1.03    1.43   112.35690    47.09483    14.12711
   345  H   1.0    0.04    1.03    1.43   113.34975    43.63430    16.83771
   346  H   1.0    0.05    1.04    1.43   116.52723    43.54819    15.85652
   347  H   1.0    0.03    1.03    1.43   117.21285    47.85385    17.65616
   348  H   1.0    0.03    1.02    1.43   114.07980    47.85242    18.80101
   349  H   1.0    0.05    1.02    1.43   116.81375    46.74070    22.13193
   350  H   1.0    0.05    1.02    1.43   115.27443    44.08465    21.32687
   351  H   1.0    0.05    1.02    1.43   118.24109    44.43007    20.40268
   352  H   1.0    0.08    1.08    1.44   102.34746    30.95928    12.14324
   353  H   1.0    0.05    1.04    1.43   111.32421    30.43403    12.01519
   354  H   1.0    0.09    1.09    1.44   110.53982    36.57618    10.75220
   355  H   1.0    0.06    1.05    1.44   117.20668    19.48251    39.31333
   356  H   1.0    0.10    1.08    1.44   101.97528    17.30616    30.96764
   357  H   1.0    0.05    1.04    1.43    97.73404    14.82008    26.97785
   358  H   1.0    0.09    1.07    1.44    95.47957    22.72050    29.75856
   359  H   1.0    0.06    1.04    1.43    96.42681    23.27232    23.25661
   360  H   1.0    0.09    1.08    1.44    88.05476    26.07770    24.69515
   361  H   1.0    0.06    1.05    1.44    91.50241    29.92278    20.82088
   362  H   1.0    0.08    1.07    1.44   122.79979    52.24206    20.58130
   363  H   1.0    0.05    1.05    1.44   116.26533    42.49683     7.21324

  Z AO/shell   Hii/eV     exponent
  1     Wed Apr 25 08:07:45 CEST 2018   EN: 2.200 GM2: 0.406  GM3: 0.0800  RAES: 1.40
     1s    -10.707211    1.230000
  6     Wed Apr 25 08:07:45 CEST 2018   EN: 2.550 GM2: 0.538  GM3: 0.1500  RAES: 3.00
     2s    -13.970922    2.096432
     2p    -10.063292    1.800000
  7     Wed Apr 25 08:07:45 CEST 2018   EN: 3.040 GM2: 0.461  GM3:-0.0640  RAES: 1.90
     2s    -16.686243    2.339881
     2p    -12.523956    2.014332
  8     Wed Apr 25 08:07:45 CEST 2018   EN: 3.440 GM2: 0.452  GM3:-0.0517  RAES: 1.80
     2s    -20.229985    2.439742
     2p    -15.503117    2.137023
 16     Tue Apr 24 11:44:34 CEST 2018   EN: 2.580 GM2: 0.340  GM3:-0.0502  RAES: 3.10
     3s    -20.029654    1.981333
     3p    -11.377694    2.025643
     3d     -0.420282    1.702555
 no old-style atom pair restraining (fixing) potential

molecular fragmentation (1/2 indicates fragments):
111111111111111111111111111111122222222222222222222222222222222222222222
222222222222222222222222222222222222222222222222222222222222222222222222
222222222222222222222222222222222222222222222222222222222222222222222222
222222222222222222222222222222222222222222222222222222222222222222222222
222222222222222222222222222222222222222222222222222222222222222112222222
222
# atoms in fragment 1/2:    33   330
 fragment masses (1/2) :      229.26     2168.74
CMA distance (Bohr)    :  16.924
constraining FC (au)   :  0.0500
           ------------------------------------------------- 
          |        Self-Consistent Charge Iterations        |
           ------------------------------------------------- 

 Ncao       : 873
 Nao        : 872
 Nshell     : 532
 Nel        : 952
 T(el)      :   500.0
 intcut     :    35.0
 scfconv/Eh :  0.100E-06
   qconv/e  :  0.100E-04
 intneglect :  0.100E-08
 broydamp   :      0.400
 iter      E             dE          RMSdq      gap      omega  full diag
   1   -540.4181578 -0.540418E+03  0.446E+00    3.23       0.0  T
   2   -541.7138120 -0.129565E+01  0.212E+00    1.66       1.0  T
   3   -541.8011193 -0.873074E-01  0.121E+00    1.89       1.0  T
   4   -541.8866871 -0.855678E-01  0.278E-01    1.52       1.0  T
   5   -541.8920108 -0.532364E-02  0.149E-01    1.70       1.0  T
   6   -541.8930830 -0.107229E-02  0.698E-02    1.73       1.0  T
   7   -541.8935162 -0.433197E-03  0.326E-02    1.73       1.0  T
   8   -541.8935757 -0.594819E-04  0.161E-02    1.73       1.0  T
   9   -541.8935978 -0.220703E-04  0.725E-03    1.72       1.0  T
  10   -541.8936009 -0.312177E-05  0.302E-03    1.72       1.7  T
  11   -541.8936016 -0.668383E-06  0.131E-03    1.72       4.0  T
  12   -541.8936017 -0.825586E-07  0.572E-04    1.73       9.2  T
  13   -541.8936017 -0.286872E-07  0.270E-04    1.73      19.4  T
  14   -541.8936017 -0.320233E-08  0.105E-04    1.73      49.9  T
  15   -541.8936017 -0.117439E-08  0.469E-05    1.73     111.9  T
  16   -541.8936017 -0.155751E-09  0.209E-05    1.73     251.4  T
speedup  1.92
cpu  time for SCC   11.17 s
wall time for SCC    5.83 s

   *** convergence criteria satisfied after 16 iterations ***

          eigenvalues
 #    :         464        465        466        467        468        469        470        471
 occ. :        2.000      2.000      2.000      2.000      2.000      2.000      2.000      2.000
 eps  :       -10.534    -10.445    -10.339    -10.327    -10.250    -10.135    -10.045     -9.995
 #    :         472        473        474        475        476        477        478        479
 occ. :        2.000      2.000      2.000      2.000      2.000      0.000      0.000      0.000
 eps  :        -9.974     -9.889     -9.834     -9.812     -9.741     -8.016     -7.930     -7.861
 #    :         480        481        482        483        484        485        486        487
 occ. :        0.000      0.000      0.000      0.000      0.000      0.000      0.000      0.000
 eps  :        -7.788     -7.670     -7.563     -6.858     -6.610     -6.520     -6.467     -6.390


   #   Z            q   n(s)   n(p)   n(d)      C6AA      α(0)
   1   7 N     -0.395  1.305  4.090  0.000    30.230     8.166
   2   6 C      0.033  1.060  2.907  0.000    20.028     6.374
   3   6 C      0.270  1.045  2.685  0.000    22.437     7.757
   4   8 O     -0.498  1.737  4.761  0.000    23.743     6.533
   5   6 C     -0.016  1.060  2.956  0.000    20.828     6.491
   6   6 C     -0.109  1.036  3.073  0.000    22.632     6.783
   7   6 C     -0.094  1.035  3.059  0.000    22.343     6.740
   8   1 H      0.161  0.839  0.000  0.000     1.326     1.804
   9   1 H      0.049  0.951  0.000  0.000     2.335     2.390
  10   1 H      0.042  0.958  0.000  0.000     2.429     2.437
  11   1 H      0.036  0.964  0.000  0.000     2.497     2.471
  12   1 H      0.060  0.940  0.000  0.000     2.198     2.318
  13   1 H      0.031  0.969  0.000  0.000     2.577     2.511
  14   1 H      0.029  0.971  0.000  0.000     2.599     2.521
  15   1 H      0.013  0.987  0.000  0.000     2.841     2.636
  16   1 H      0.032  0.968  0.000  0.000     2.561     2.502
  17   7 N     -0.167  1.240  3.927  0.000    24.607     7.367
  18   6 C      0.023  1.065  2.912  0.000    20.197     6.400
  19   6 C      0.198  1.092  2.710  0.000    23.782     7.986
  20   8 O     -0.343  1.747  4.596  0.000    20.583     6.083
  21   6 C     -0.059  1.055  3.004  0.000    21.632     6.622
  22   6 C     -0.096  1.069  3.027  0.000    22.344     6.734
  23   6 C      0.362  1.040  2.598  0.000    20.864     7.474
  24   8 O     -0.629  1.772  4.857  0.000    26.848     6.947
  25   8 O     -0.651  1.783  4.868  0.000    27.417     7.020
  26   1 H      0.202  0.798  0.000  0.000     1.096     1.640
  27   1 H      0.089  0.911  0.000  0.000     1.887     2.148
  28   1 H      0.056  0.944  0.000  0.000     2.251     2.346
  29   1 H      0.059  0.941  0.000  0.000     2.213     2.327
  30   1 H      0.019  0.981  0.000  0.000     2.742     2.590
  31   1 H      0.014  0.986  0.000  0.000     2.820     2.626
  32   7 N     -0.384  1.318  4.066  0.000    29.930     8.125
  33   6 C      0.016  1.064  2.920  0.000    20.287     6.410
  34   6 C      0.258  1.053  2.689  0.000    22.662     7.795
  35   8 O     -0.456  1.728  4.729  0.000    22.841     6.408
  36   6 C     -0.028  1.057  2.972  0.000    21.035     6.522
  37   6 C     -0.069  1.054  3.015  0.000    21.796     6.643
  38   6 C     -0.123  1.038  3.086  0.000    22.910     6.823
  39   6 C     -0.110  1.036  3.074  0.000    22.669     6.790
  40   1 H      0.126  0.874  0.000  0.000     1.576     1.967
  41   1 H      0.086  0.914  0.000  0.000     1.914     2.163
  42   1 H      0.024  0.976  0.000  0.000     2.679     2.560
  43   1 H      0.064  0.936  0.000  0.000     2.156     2.296
  44   1 H      0.038  0.962  0.000  0.000     2.476     2.461
  45   1 H      0.050  0.950  0.000  0.000     2.319     2.381
  46   1 H      0.032  0.968  0.000  0.000     2.560     2.502
  47   1 H      0.059  0.941  0.000  0.000     2.209     2.324
  48   1 H      0.039  0.961  0.000  0.000     2.457     2.451
  49   1 H      0.024  0.976  0.000  0.000     2.674     2.557
  50   1 H      0.040  0.960  0.000  0.000     2.455     2.450
  51   7 N     -0.174  1.242  3.932  0.000    24.768     7.391
  52   6 C      0.014  1.061  2.925  0.000    20.325     6.417
  53   6 C      0.284  1.033  2.683  0.000    22.191     7.716
  54   8 O     -0.490  1.734  4.756  0.000    23.565     6.508
  55   6 C     -0.021  1.065  2.955  0.000    20.898     6.501
  56   6 C     -0.069  1.056  3.013  0.000    21.825     6.651
  57   6 C     -0.104  1.034  3.071  0.000    22.551     6.772
  58   6 C     -0.112  1.036  3.076  0.000    22.705     6.796
  59   1 H      0.190  0.810  0.000  0.000     1.161     1.688
  60   1 H      0.099  0.901  0.000  0.000     1.792     2.093
  61   1 H      0.027  0.973  0.000  0.000     2.633     2.538
  62   1 H      0.058  0.942  0.000  0.000     2.223     2.331
  63   1 H      0.053  0.947  0.000  0.000     2.288     2.365
  64   1 H      0.045  0.955  0.000  0.000     2.377     2.411
  65   1 H      0.016  0.984  0.000  0.000     2.792     2.613
  66   1 H      0.062  0.938  0.000  0.000     2.175     2.306
  67   1 H      0.054  0.946  0.000  0.000     2.271     2.357
  68   1 H      0.026  0.974  0.000  0.000     2.643     2.542
  69   1 H      0.039  0.961  0.000  0.000     2.467     2.456
  70   7 N     -0.171  1.239  3.932  0.000    24.696     7.381
  71   6 C      0.035  1.046  2.919  0.000    19.971     6.359
  72   6 C      0.269  1.045  2.687  0.000    22.473     7.768
  73   8 O     -0.507  1.760  4.747  0.000    23.934     6.559
  74   6 C     -0.059  1.049  3.009  0.000    21.580     6.605
  75   6 C     -0.001  1.065  2.936  0.000    20.597     6.462
  76  16 S     -0.244  1.925  4.270  0.049   151.497    20.716
  77   6 C     -0.031  1.057  2.974  0.000    21.215     6.573
  78   1 H      0.208  0.792  0.000  0.000     1.065     1.617
  79   1 H      0.058  0.942  0.000  0.000     2.218     2.329
  80   1 H      0.070  0.930  0.000  0.000     2.085     2.258
  81   1 H      0.054  0.946  0.000  0.000     2.268     2.355
  82   1 H      0.037  0.963  0.000  0.000     2.483     2.464
  83   1 H      0.077  0.923  0.000  0.000     2.014     2.220
  84   1 H      0.037  0.963  0.000  0.000     2.496     2.470
  85   1 H      0.055  0.945  0.000  0.000     2.254     2.348
  86   1 H      0.020  0.980  0.000  0.000     2.733     2.585
  87   7 N     -0.108  1.238  3.870  0.000    23.360     7.178
  88   6 C      0.015  1.059  2.926  0.000    20.262     6.398
  89   6 C      0.253  1.054  2.693  0.000    22.747     7.811
  90   8 O     -0.481  1.741  4.741  0.000    23.376     6.482
  91   6 C     -0.092  1.058  3.034  0.000    22.209     6.702
  92   6 C     -0.075  1.052  3.023  0.000    21.899     6.656
  93   6 C     -0.018  1.053  2.965  0.000    20.898     6.508
  94   1 H      0.077  0.923  0.000  0.000     2.016     2.220
  95   1 H      0.100  0.900  0.000  0.000     1.784     2.089
  96   1 H      0.106  0.894  0.000  0.000     1.733     2.059
  97   1 H      0.092  0.908  0.000  0.000     1.864     2.135
  98   1 H      0.053  0.947  0.000  0.000     2.282     2.362
  99   1 H      0.106  0.894  0.000  0.000     1.732     2.058
 100   1 H      0.022  0.978  0.000  0.000     2.696     2.568
 101   7 N     -0.189  1.259  3.930  0.000    25.098     7.440
 102   6 C     -0.000  1.074  2.926  0.000    20.578     6.456
 103   6 C      0.277  1.031  2.693  0.000    22.322     7.739
 104   8 O     -0.476  1.723  4.753  0.000    23.253     6.465
 105   6 C     -0.086  1.060  3.026  0.000    22.127     6.695
 106   6 C     -0.033  1.060  2.973  0.000    21.127     6.537
 107   6 C     -0.117  1.041  3.076  0.000    22.790     6.807
 108   6 C     -0.153  1.047  3.107  0.000    23.522     6.915
 109   1 H      0.223  0.777  0.000  0.000     0.995     1.563
 110   1 H      0.106  0.894  0.000  0.000     1.728     2.056
 111   1 H      0.047  0.953  0.000  0.000     2.353     2.399
 112   1 H      0.081  0.919  0.000  0.000     1.967     2.193
 113   1 H      0.062  0.938  0.000  0.000     2.181     2.309
 114   1 H      0.051  0.949  0.000  0.000     2.310     2.377
 115   1 H      0.020  0.980  0.000  0.000     2.729     2.583
 116   1 H      0.048  0.952  0.000  0.000     2.341     2.393
 117   1 H      0.081  0.919  0.000  0.000     1.970     2.195
 118   1 H      0.069  0.931  0.000  0.000     2.099     2.266
 119   1 H      0.061  0.939  0.000  0.000     2.185     2.312
 120   7 N     -0.179  1.241  3.938  0.000    24.875     7.407
 121   6 C      0.029  1.053  2.919  0.000    20.067     6.373
 122   6 C      0.273  1.041  2.685  0.000    22.380     7.747
 123   8 O     -0.501  1.761  4.739  0.000    23.798     6.541
 124   6 C     -0.012  1.055  2.957  0.000    20.739     6.476
 125   6 C     -0.070  1.054  3.016  0.000    21.827     6.650
 126   6 C     -0.098  1.033  3.065  0.000    22.417     6.749
 127   6 C     -0.107  1.037  3.070  0.000    22.598     6.779
 128   1 H      0.223  0.777  0.000  0.000     0.994     1.562
 129   1 H      0.070  0.930  0.000  0.000     2.084     2.258
 130   1 H      0.024  0.976  0.000  0.000     2.670     2.556
 131   1 H      0.052  0.948  0.000  0.000     2.297     2.370
 132   1 H      0.067  0.933  0.000  0.000     2.122     2.278
 133   1 H      0.032  0.968  0.000  0.000     2.561     2.503
 134   1 H      0.019  0.981  0.000  0.000     2.751     2.594
 135   1 H      0.044  0.956  0.000  0.000     2.401     2.423
 136   1 H      0.055  0.945  0.000  0.000     2.264     2.353
 137   1 H      0.031  0.969  0.000  0.000     2.570     2.507
 138   1 H      0.022  0.978  0.000  0.000     2.704     2.572
 139   7 N     -0.177  1.235  3.941  0.000    24.826     7.400
 140   6 C     -0.025  1.047  2.977  0.000    21.070     6.545
 141   6 C      0.274  1.041  2.685  0.000    22.374     7.745
 142   8 O     -0.503  1.752  4.751  0.000    23.858     6.549
 143   1 H      0.218  0.782  0.000  0.000     1.018     1.581
 144   1 H      0.081  0.919  0.000  0.000     1.965     2.192
 145   1 H      0.056  0.944  0.000  0.000     2.252     2.347
 146   7 N     -0.186  1.246  3.940  0.000    25.029     7.430
 147   6 C      0.010  1.065  2.924  0.000    20.407     6.432
 148   6 C      0.277  1.040  2.683  0.000    22.313     7.735
 149   8 O     -0.493  1.749  4.745  0.000    23.630     6.517
 150   6 C     -0.087  1.059  3.028  0.000    22.164     6.702
 151   6 C     -0.092  1.055  3.037  0.000    22.249     6.715
 152   6 C     -0.111  1.060  3.051  0.000    22.619     6.771
 153   6 C     -0.070  1.068  3.002  0.000    21.943     6.688
 154   7 N     -0.140  1.226  3.914  0.000    24.021     7.279
 155   1 H      0.238  0.762  0.000  0.000     0.932     1.512
 156   1 H      0.083  0.917  0.000  0.000     1.952     2.185
 157   1 H      0.077  0.923  0.000  0.000     2.012     2.218
 158   1 H      0.086  0.914  0.000  0.000     1.914     2.163
 159   1 H      0.056  0.944  0.000  0.000     2.242     2.341
 160   1 H      0.074  0.926  0.000  0.000     2.045     2.236
 161   1 H      0.100  0.900  0.000  0.000     1.784     2.089
 162   1 H      0.103  0.897  0.000  0.000     1.754     2.071
 163   1 H      0.129  0.871  0.000  0.000     1.542     1.942
 164   1 H      0.122  0.878  0.000  0.000     1.597     1.976
 165   1 H      0.293  0.707  0.000  0.000     0.734     1.342
 166   1 H      0.284  0.716  0.000  0.000     0.763     1.369
 167   1 H      0.294  0.706  0.000  0.000     0.731     1.339
 168   7 N     -0.178  1.238  3.940  0.000    24.845     7.403
 169   6 C      0.007  1.079  2.915  0.000    20.498     6.451
 170   6 C      0.265  1.053  2.682  0.000    22.522     7.770
 171   8 O     -0.480  1.759  4.721  0.000    23.344     6.478
 172   6 C     -0.040  1.077  2.962  0.000    21.254     6.558
 173   6 C     -0.071  1.052  3.019  0.000    21.869     6.658
 174   6 C     -0.130  1.047  3.083  0.000    23.061     6.848
 175   6 C     -0.123  1.042  3.082  0.000    22.928     6.829
 176   1 H      0.221  0.779  0.000  0.000     1.006     1.571
 177   1 H      0.085  0.915  0.000  0.000     1.929     2.172
 178   1 H      0.049  0.951  0.000  0.000     2.327     2.385
 179   1 H      0.062  0.938  0.000  0.000     2.175     2.306
 180   1 H      0.012  0.988  0.000  0.000     2.852     2.641
 181   1 H      0.078  0.922  0.000  0.000     1.997     2.210
 182   1 H      0.048  0.952  0.000  0.000     2.347     2.396
 183   1 H      0.068  0.932  0.000  0.000     2.107     2.270
 184   1 H      0.050  0.950  0.000  0.000     2.319     2.382
 185   1 H      0.041  0.959  0.000  0.000     2.430     2.438
 186   1 H      0.066  0.934  0.000  0.000     2.126     2.280
 187   7 N     -0.186  1.249  3.938  0.000    25.033     7.431
 188   6 C      0.020  1.065  2.915  0.000    20.250     6.409
 189   6 C      0.279  1.036  2.685  0.000    22.287     7.733
 190   8 O     -0.529  1.757  4.772  0.000    24.440     6.628
 191   6 C     -0.062  1.052  3.011  0.000    21.651     6.617
 192   6 C      0.004  1.077  2.919  0.000    27.928     8.669
 193   6 C     -0.057  1.082  2.975  0.000    29.425     8.896
 194   6 C     -0.038  1.083  2.955  0.000    28.944     8.822
 195   6 C     -0.034  1.084  2.951  0.000    28.858     8.809
 196   6 C     -0.032  1.083  2.949  0.000    28.803     8.801
 197   6 C     -0.036  1.084  2.952  0.000    28.903     8.816
 198   1 H      0.232  0.768  0.000  0.000     0.955     1.531
 199   1 H      0.074  0.926  0.000  0.000     2.043     2.235
 200   1 H      0.039  0.961  0.000  0.000     2.464     2.455
 201   1 H      0.054  0.946  0.000  0.000     2.270     2.356
 202   1 H      0.068  0.932  0.000  0.000     2.108     2.270
 203   1 H      0.022  0.978  0.000  0.000     2.698     2.569
 204   1 H      0.063  0.937  0.000  0.000     2.163     2.300
 205   1 H      0.031  0.969  0.000  0.000     2.577     2.510
 206   1 H      0.044  0.956  0.000  0.000     2.392     2.419
 207   7 N     -0.198  1.252  3.946  0.000    25.310     7.472
 208   6 C     -0.018  1.048  2.970  0.000    20.971     6.534
 209   6 C      0.284  1.042  2.674  0.000    22.186     7.713
 210   8 O     -0.421  1.734  4.687  0.000    22.107     6.304
 211   1 H      0.263  0.737  0.000  0.000     0.836     1.432
 212   1 H      0.072  0.928  0.000  0.000     2.061     2.245
 213   1 H      0.065  0.935  0.000  0.000     2.146     2.291
 214   7 N     -0.199  1.248  3.951  0.000    25.313     7.472
 215   6 C      0.012  1.079  2.909  0.000    20.404     6.436
 216   6 C      0.277  1.048  2.675  0.000    22.318     7.735
 217   8 O     -0.468  1.756  4.712  0.000    23.083     6.442
 218   6 C      0.077  1.038  2.885  0.000    19.520     6.331
 219   8 O     -0.476  1.716  4.760  0.000    22.377     6.386
 220   1 H      0.191  0.809  0.000  0.000     1.151     1.681
 221   1 H      0.087  0.913  0.000  0.000     1.908     2.160
 222   1 H      0.050  0.950  0.000  0.000     2.318     2.381
 223   1 H      0.042  0.958  0.000  0.000     2.427     2.436
 224   1 H      0.360  0.640  0.000  0.000     0.566     1.181
 225   7 N     -0.185  1.263  3.922  0.000    25.012     7.428
 226   6 C      0.024  1.077  2.900  0.000    20.196     6.401
 227   6 C      0.303  1.039  2.657  0.000    21.850     7.654
 228   8 O     -0.509  1.762  4.747  0.000    23.985     6.566
 229   6 C     -0.020  1.069  2.951  0.000    20.895     6.502
 230   6 C     -0.128  1.041  3.087  0.000    23.019     6.842
 231   6 C     -0.104  1.035  3.068  0.000    22.544     6.771
 232   1 H      0.215  0.785  0.000  0.000     1.035     1.593
 233   1 H      0.047  0.953  0.000  0.000     2.359     2.402
 234   1 H      0.065  0.935  0.000  0.000     2.146     2.291
 235   1 H      0.080  0.920  0.000  0.000     1.975     2.198
 236   1 H      0.063  0.937  0.000  0.000     2.164     2.300
 237   1 H      0.034  0.966  0.000  0.000     2.532     2.488
 238   1 H      0.062  0.938  0.000  0.000     2.174     2.306
 239   1 H      0.018  0.982  0.000  0.000     2.758     2.597
 240   1 H      0.032  0.968  0.000  0.000     2.554     2.499
 241   7 N     -0.169  1.236  3.932  0.000    24.651     7.374
 242   6 C      0.048  1.054  2.897  0.000    19.775     6.332
 243   6 C      0.194  1.089  2.717  0.000    23.860     7.999
 244   8 O     -0.356  1.739  4.616  0.000    20.817     6.117
 245   6 C     -0.089  1.077  3.012  0.000    22.191     6.706
 246   6 C      0.381  1.018  2.601  0.000    20.554     7.420
 247   8 O     -0.651  1.777  4.874  0.000    27.414     7.020
 248   8 O     -0.629  1.772  4.858  0.000    26.846     6.947
 249   1 H      0.223  0.777  0.000  0.000     0.994     1.562
 250   1 H      0.064  0.936  0.000  0.000     2.153     2.295
 251   1 H      0.041  0.959  0.000  0.000     2.442     2.444
 252   1 H      0.035  0.965  0.000  0.000     2.516     2.480
 253   7 N     -0.384  1.294  4.089  0.000    29.920     8.124
 254   6 C      0.071  1.042  2.888  0.000    19.397     6.270
 255   6 C      0.191  1.086  2.723  0.000    23.916     8.009
 256   8 O     -0.362  1.745  4.617  0.000    20.930     6.134
 257   6 C     -0.086  1.072  3.014  0.000    22.137     6.698
 258   6 C      0.382  1.019  2.599  0.000    20.539     7.418
 259   8 O     -0.625  1.765  4.860  0.000    26.751     6.934
 260   8 O     -0.655  1.780  4.875  0.000    27.523     7.034
 261   1 H      0.158  0.842  0.000  0.000     1.351     1.821
 262   1 H      0.019  0.981  0.000  0.000     2.748     2.592
 263   1 H      0.026  0.974  0.000  0.000     2.651     2.546
 264   1 H      0.021  0.979  0.000  0.000     2.725     2.582
 265   7 N     -0.374  1.301  4.073  0.000    29.668     8.089
 266   6 C      0.033  1.072  2.895  0.000    20.043     6.378
 267   6 C      0.198  1.103  2.699  0.000    23.771     7.984
 268   8 O     -0.352  1.743  4.609  0.000    20.745     6.107
 269   6 C     -0.012  1.056  2.955  0.000    20.745     6.477
 270   6 C     -0.043  1.042  3.001  0.000    21.326     6.572
 271   6 C     -0.089  1.031  3.057  0.000    22.235     6.722
 272   6 C     -0.089  1.031  3.058  0.000    22.240     6.723
 273   1 H      0.135  0.865  0.000  0.000     1.509     1.924
 274   1 H      0.057  0.943  0.000  0.000     2.234     2.338
 275   1 H      0.052  0.948  0.000  0.000     2.291     2.367
 276   1 H      0.018  0.982  0.000  0.000     2.768     2.602
 277   1 H      0.036  0.964  0.000  0.000     2.502     2.473
 278   1 H      0.043  0.957  0.000  0.000     2.406     2.425
 279   1 H      0.040  0.960  0.000  0.000     2.446     2.446
 280   1 H      0.008  0.992  0.000  0.000     2.927     2.676
 281   1 H      0.034  0.966  0.000  0.000     2.535     2.490
 282   1 H      0.033  0.967  0.000  0.000     2.547     2.496
 283   1 H      0.016  0.984  0.000  0.000     2.799     2.616
 284   7 N     -0.388  1.309  4.079  0.000    30.027     8.138
 285   6 C      0.053  1.049  2.898  0.000    19.704     6.323
 286   6 C      0.207  1.094  2.699  0.000    23.605     7.957
 287   8 O     -0.385  1.758  4.627  0.000    21.391     6.201
 288   6 C     -0.073  1.054  3.019  0.000    21.874     6.656
 289   6 C      0.004  1.087  2.909  0.000    27.927     8.668
 290   6 C     -0.040  1.080  2.959  0.000    28.988     8.830
 291   6 C     -0.042  1.083  2.960  0.000    29.052     8.839
 292   6 C     -0.034  1.080  2.954  0.000    28.846     8.807
 293   6 C     -0.037  1.082  2.956  0.000    28.924     8.819
 294   6 C     -0.039  1.081  2.958  0.000    28.961     8.825
 295   1 H      0.153  0.847  0.000  0.000     1.378     1.839
 296   1 H      0.041  0.959  0.000  0.000     2.437     2.441
 297   1 H      0.051  0.949  0.000  0.000     2.313     2.378
 298   1 H      0.059  0.941  0.000  0.000     2.209     2.324
 299   1 H      0.029  0.971  0.000  0.000     2.597     2.520
 300   1 H      0.028  0.972  0.000  0.000     2.614     2.528
 301   1 H      0.045  0.955  0.000  0.000     2.388     2.417
 302   1 H      0.052  0.948  0.000  0.000     2.293     2.368
 303   1 H      0.053  0.947  0.000  0.000     2.277     2.359
 304   7 N     -0.392  1.341  4.051  0.000    30.145     8.154
 305   6 C     -0.044  1.068  2.976  0.000    21.456     6.613
 306   6 C      0.263  1.054  2.683  0.000    22.557     7.776
 307   8 O     -0.462  1.760  4.702  0.000    22.966     6.425
 308   1 H      0.146  0.854  0.000  0.000     1.427     1.871
 309   1 H      0.080  0.920  0.000  0.000     1.981     2.201
 310   1 H      0.072  0.928  0.000  0.000     2.062     2.246
 311   7 N     -0.194  1.267  3.927  0.000    25.218     7.458
 312   6 C     -0.001  1.086  2.914  0.000    20.615     6.469
 313   6 C      0.268  1.047  2.685  0.000    22.472     7.763
 314   8 O     -0.439  1.746  4.692  0.000    22.469     6.355
 315   6 C     -0.016  1.066  2.950  0.000    20.833     6.492
 316   6 C     -0.061  1.050  3.011  0.000    21.670     6.628
 317   6 C     -0.127  1.040  3.087  0.000    22.999     6.839
 318   6 C     -0.105  1.037  3.068  0.000    22.576     6.776
 319   1 H      0.214  0.786  0.000  0.000     1.036     1.595
 320   1 H      0.056  0.944  0.000  0.000     2.251     2.346
 321   1 H      0.052  0.948  0.000  0.000     2.290     2.366
 322   1 H      0.035  0.965  0.000  0.000     2.510     2.478
 323   1 H      0.032  0.968  0.000  0.000     2.563     2.504
 324   1 H      0.031  0.969  0.000  0.000     2.575     2.509
 325   1 H      0.062  0.938  0.000  0.000     2.180     2.309
 326   1 H      0.069  0.931  0.000  0.000     2.092     2.262
 327   1 H      0.029  0.971  0.000  0.000     2.608     2.525
 328   1 H      0.039  0.961  0.000  0.000     2.465     2.455
 329   1 H      0.031  0.969  0.000  0.000     2.575     2.510
 330   7 N     -0.151  1.241  3.910  0.000    24.260     7.315
 331   6 C      0.005  1.063  2.932  0.000    20.488     6.443
 332   6 C      0.198  1.083  2.719  0.000    23.781     7.986
 333   8 O     -0.382  1.761  4.621  0.000    21.333     6.193
 334   6 C     -0.085  1.054  3.031  0.000    22.111     6.694
 335   6 C     -0.085  1.049  3.036  0.000    22.103     6.692
 336   6 C     -0.111  1.053  3.057  0.000    22.612     6.769
 337   6 C     -0.071  1.069  3.002  0.000    21.935     6.683
 338   7 N     -0.126  1.223  3.903  0.000    23.718     7.233
 339   1 H      0.205  0.795  0.000  0.000     1.083     1.630
 340   1 H      0.132  0.868  0.000  0.000     1.522     1.929
 341   1 H      0.058  0.942  0.000  0.000     2.219     2.330
 342   1 H      0.068  0.932  0.000  0.000     2.104     2.268
 343   1 H      0.074  0.926  0.000  0.000     2.047     2.237
 344   1 H      0.078  0.922  0.000  0.000     2.003     2.213
 345   1 H      0.087  0.913  0.000  0.000     1.908     2.160
 346   1 H      0.086  0.914  0.000  0.000     1.915     2.164
 347   1 H      0.122  0.878  0.000  0.000     1.596     1.976
 348   1 H      0.138  0.862  0.000  0.000     1.473     1.898
 349   1 H      0.296  0.704  0.000  0.000     0.727     1.336
 350   1 H      0.262  0.738  0.000  0.000     0.838     1.434
 351   1 H      0.283  0.717  0.000  0.000     0.765     1.370
 352   1 H      0.192  0.808  0.000  0.000     1.149     1.679
 353   1 H      0.095  0.905  0.000  0.000     1.828     2.114
 354   1 H      0.192  0.808  0.000  0.000     1.149     1.679
 355   1 H      0.078  0.922  0.000  0.000     1.994     2.208
 356   1 H      0.166  0.834  0.000  0.000     1.294     1.782
 357   1 H      0.081  0.919  0.000  0.000     1.973     2.196
 358   1 H      0.189  0.811  0.000  0.000     1.162     1.689
 359   1 H      0.068  0.932  0.000  0.000     2.105     2.269
 360   1 H      0.186  0.814  0.000  0.000     1.177     1.700
 361   1 H      0.073  0.927  0.000  0.000     2.055     2.242
 362   1 H      0.201  0.799  0.000  0.000     1.101     1.643
 363   1 H      0.067  0.933  0.000  0.000     2.117     2.275

 Mol. C6AA /au·bohr⁶  :    1188010.167041
 Mol. C8AA /au·bohr⁸  :   26509330.182784
 Mol. α(0) /au        :       1633.087362

 
molecular dipole:
                 x           y           z       tot (Debye)
 q only:      -95.059      29.630     -39.949
   full:      -96.931      25.317     -39.287     273.526
molecular quadrupole (traceless):
                xx          xy          yy          xz          yz          zz
 q only:    -9254.675    5805.435    8081.932   -6175.425     -17.172    1172.743
  q+dip:    -9580.216    4985.416    7978.712   -6153.502    -164.124    1601.503
   full:    -9582.253    4985.477    7978.758   -6151.878    -161.486    1603.496
speedup  1.93
cpu  time for grad   13.46 s
wall time for grad    6.97 s

SCC energy    :    -541.9068113
rep           :       6.6675300
ES            :       2.0026185
AES           :      -0.0942643
AXC           :       0.1968814
disp          :      -0.4520789
XB            :       0.0000000
fix           :       0.0000000
Gborn         :       0.0000000
Gsasa         :       0.0000000
Ghb           :       0.0000000
Gshift        :       0.0000000
Gsolv         :      -0.7539715     -473.12
Etot ala COSMO:    -541.9068113
grad norm     :       0.5703360
total E       :    -535.1991750
atomizationE  :     100.3729089    62984.95
(atE without considering molecular charge,
 total energy contains solvation terms)
H-L gap (eV)  :          1.7251

------------------------------------------------------------------------
 * finished run on 2019/05/06 at 07:35:37.056     
------------------------------------------------------------------------
 total:
 * wall-time:     0 d,  0 h,  0 min,  7.500 sec
 *  cpu-time:     0 d,  0 h,  0 min, 14.366 sec
 * ratio c/w:     1.915 speedup
 SCF:
 * wall-time:     0 d,  0 h,  0 min,  7.287 sec
 *  cpu-time:     0 d,  0 h,  0 min, 14.088 sec
 * ratio c/w:     1.933 speedup

