      -----------------------------------------------------------      
     |                   =====================                   |     
     |                           x T B                           |     
     |                   =====================                   |     
     |                         S. Grimme                         |     
     |          Mulliken Center for Theoretical Chemistry        |     
     |                    University of Bonn                     |     
     |                 Version 6.0.1 (SAW181210)                 |     
      -----------------------------------------------------------      

   This program is distributed in the hope that it will be useful,
   but WITHOUT ANY WARRANTY; without even the implied warranty of
   MERCHANTABILITY or FITNESS FOR A PARTICULAR PURPOSE.
   
   FOR NON-COMMERCIAL, ACADEMIA USE ONLY.
   
   Cite this work as:
   S. Grimme, C. Bannwarth, P. Shushkov, J. Comput. Theory Chem., 2017,
   13, 1989-2009.
   C. Bannwarth, S. Ehlert and S. Grimme., ChemRxiv, 2018, preprint.
   http://doi.org/10.26434/chemrxiv.7246238.v1
   
   for sTDA-xTB:
   S. Grimme and C. Bannwarth, J. Chem. Phys., 2016, 145, 054103.
   
   in the mass-spec context:
   V. Asgeirsson, C. Bauer and S. Grimme, Chem. Sci., 2017, 8, 4879.
   
   if GBSA is used:
   P. Shushkov, F. März and S. Grimme, unpublished.
   
   for ANC optimizer:
   S. Grimme, unpublished.
   Rational Function algorithm used in ANCopt:
   F. Eckert, P. Pulay, H.-J. Werner, J. Comput. Chem., 1997, 18, 1473.
   
   with help from (in alphabetical order)
   C. Bannwarth, F. Bohle, G. Brandenburg, E. Caldeweyher, M. Checinski,
   S. Dohm, S. Ehlert, S. Ehrlich, F. März, H. Neugebauer, J. Pisarek,
   P. Pracht, P. Shushkov, and S. Spicher.
   
 * started run on 2019/05/07 at 23:36:15.656     
========================================================================
 # omp threads = 2
========================================================================
number of atoms            : 832
number of electrons        : 2264
charge                     : -1
spin                       : .0
first test random number   : .8876

########################################################################
# WARNING! Please study the warnings concerning your input carefully
#  - Process number higher than OMP_NUM_THREADS, I hope you know what you are doing.
########################################################################

           ------------------------------------------------- 
          |                 G F N 2 - x T B                 |
          | Geometry, Frequencies, Noncovalent interactions |
          |            JCTC 2018 parametrisation            |
           ------------------------------------------------- 
 
      method parameters     
 k(s)        :  1.8500
 k(p)        :  2.2300
 k(d)        :  2.2300
 k(f)        :  2.0000
 kEN (H0ij)  : -2.0000
 D4 a1       :  0.5200
 D4 a2       :  5.0000
 D4 s6       :  1.0000
 D4 s8       :  2.7000
 D4 s9       :  5.0000
 alphaj      :  2.0000

 Solvent             : h2o
 Using internal parameter file: .param_gbsa2_h2o
 Gsolv ref. state (COSMO-RS): gsolv [1 M gas/solution]
 temperature (mdtemp)       :    298.150000000000     
 dielectric constant        :    80.2000000000000     
 rho                        :    1.00000000000000     
 mass                       :    18.0000000000000     
 surface tension            :    15.5689454083859     
 probe radius               :   0.975313790000000     
 vdW radii scaling          :    1.00000000000000     
 Gshift (Eh)                :   1.857443126794793E-003
 c1                         :    1.55243817000000     
 soset                      :   0.130326360000000     
 HB correction              :  T

            Z     q(EN)     CN     RAES       Cart. coordinates
     1  N   5.0   -0.20    3.23    1.96    68.08052    44.19558   163.39804
     2  C   4.0    0.03    4.39    4.37    65.64159    44.38054   162.15634
     3  C   4.0    0.15    3.42    3.08    65.91592    46.22590   159.94779
     4  O   6.0   -0.29    1.24    1.80    67.07428    48.20826   160.20595
     5  C   4.0   -0.04    4.36    4.32    63.60451    45.29862   163.96710
     6  C   4.0   -0.04    4.07    3.75    62.63544    43.09316   165.54822
     7  S   6.0   -0.06    2.57    3.10    60.93145    40.87744   163.59542
     8  C   4.0   -0.05    3.92    3.49    58.39189    42.94888   162.50166
     9  H   1.0    0.09    1.03    1.43    68.36396    45.28260   164.93694
    10  H   1.0    0.04    1.09    1.44    65.13510    42.50598   161.43736
    11  H   1.0    0.05    1.03    1.43    64.36914    46.76106   165.20788
    12  H   1.0    0.06    1.04    1.43    62.05696    46.16612   162.92014
    13  H   1.0    0.04    1.08    1.44    64.18162    42.01927   166.37840
    14  H   1.0    0.04    1.07    1.44    61.36364    43.72781   167.04052
    15  H   1.0    0.04    1.05    1.44    56.83669    41.72213   161.98390
    16  H   1.0    0.05    1.04    1.43    57.81535    44.15091   164.05733
    17  H   1.0    0.07    1.04    1.43    59.00298    44.10182   160.92609
    18  N   5.0   -0.14    3.53    2.10    64.88120    45.46480   157.79122
    19  C   4.0    0.03    4.58    4.65    65.19918    46.82229   155.44254
    20  C   4.0    0.16    3.53    3.13    63.16797    48.80593   154.98704
    21  O   6.0   -0.30    1.32    1.80    61.40866    49.05027   156.43617
    22  C   4.0   -0.03    4.45    4.46    64.89878    44.81245   153.41314
    23  C   4.0   -0.05    4.17    3.93    66.31636    45.46988   150.99863
    24  C   4.0   -0.06    4.20    4.01    62.06193    44.20169   153.28620
    25  C   4.0   -0.08    4.07    3.74    69.00347    46.28548   151.67323
    26  H   1.0    0.07    1.08    1.44    64.00065    43.77526   157.69474
    27  H   1.0    0.05    1.07    1.44    67.04382    47.73754   155.52544
    28  H   1.0    0.04    1.08    1.44    65.85048    43.13104   154.14022
    29  H   1.0    0.04    1.03    1.43    66.42212    43.76633   149.85144
    30  H   1.0    0.04    1.02    1.43    65.35995    46.87990   149.83867
    31  H   1.0    0.04    1.00    1.43    61.79914    42.17234   153.16371
    32  H   1.0    0.07    1.03    1.43    61.13178    44.82886   155.00635
    33  H   1.0    0.08    1.03    1.43    61.13796    45.17656   151.74628
    34  H   1.0    0.04    1.00    1.43    70.21380    46.15708   150.01450
    35  H   1.0    0.04    1.00    1.43    69.08199    48.22454   152.33988
    36  H   1.0    0.04    1.00    1.43    69.76167    45.04045   153.11850
    37  N   5.0   -0.14    3.37    2.01    63.36357    50.25557   152.89484
    38  C   4.0    0.02    4.27    4.14    61.22265    51.79736   152.16980
    39  C   4.0    0.15    3.28    3.05    59.26403    50.26552   150.64964
    40  O   6.0   -0.30    1.26    1.80    58.89206    48.02457   151.00245
    41  H   1.0    0.07    1.07    1.44    64.68454    49.87266   151.58215
    42  H   1.0    0.07    1.04    1.43    60.31825    52.40431   153.92728
    43  H   1.0    0.04    1.02    1.43    61.87928    53.42768   151.09852
    44  N   5.0   -0.14    3.47    2.06    58.02024    51.65763   148.92339
    45  C   4.0    0.04    4.24    4.08    56.55525    50.75342   146.77413
    46  C   4.0    0.07    3.23    3.04    55.72896    53.18741   145.42195
    47  O   6.0   -0.29    1.18    1.80    55.44819    55.14908   146.63377
    48  C   4.0    0.04    4.10    3.80    54.28599    49.03722   147.47372
    49  O   6.0   -0.26    2.04    1.83    54.06808    47.09287   145.65150
    50  H   1.0    0.10    1.10    1.44    58.22995    53.56168   148.94674
    51  H   1.0    0.05    1.05    1.44    57.79303    49.63099   145.54773
    52  H   1.0    0.07    1.02    1.43    54.66399    48.24961   149.34667
    53  H   1.0    0.05    1.01    1.43    52.53801    50.15117   147.54868
    54  H   1.0    0.12    1.02    1.43    53.07889    45.72466   146.32866
    55  N   5.0   -0.19    3.20    1.95    52.21442    58.22868   143.58669
    56  C   4.0    0.03    4.14    3.89    51.07052    60.51412   144.63685
    57  C   4.0    0.08    3.18    3.03    50.48938    62.28851   142.38268
    58  O   6.0   -0.27    1.11    1.80    51.87075    63.97848   141.65104
    59  C   4.0    0.05    4.09    3.78    52.56528    61.69405   146.86442
    60  O   6.0   -0.22    2.02    1.83    54.83918    62.91324   146.27318
    61  H   1.0    0.08    1.03    1.43    50.95501    56.83409   143.28288
    62  H   1.0    0.04    1.06    1.44    49.25772    59.92856   145.43963
    63  H   1.0    0.05    1.02    1.43    51.35833    63.11302   147.75178
    64  H   1.0    0.06    1.01    1.43    52.93653    60.17574   148.22811
    65  H   1.0    0.13    1.02    1.43    55.91449    61.71925   145.35384
    66  N   5.0   -0.14    3.40    2.02    45.71263    72.65575   143.69158
    67  C   4.0    0.04    4.42    4.42    43.36692    73.58645   144.78173
    68  C   4.0    0.09    3.23    3.04    41.53597    74.72606   142.95181
    69  O   6.0   -0.28    1.13    1.80    42.17654    76.12122   141.20986
    70  C   4.0   -0.03    4.38    4.35    44.20578    75.70958   146.56586
    71  C   4.0   -0.05    4.26    4.12    46.62126    74.60291   147.67474
    72  C   4.0   -0.01    4.35    4.30    47.81533    73.28853   145.39213
    73  H   1.0    0.05    1.05    1.44    42.41623    72.07291   145.83794
    74  H   1.0    0.06    1.03    1.43    44.64573    77.39378   145.46174
    75  H   1.0    0.05    1.02    1.43    42.77159    76.13414   147.97693
    76  H   1.0    0.04    1.02    1.43    47.85360    76.04618   148.45903
    77  H   1.0    0.04    1.02    1.43    46.13556    73.25252   149.15249
    78  H   1.0    0.05    1.02    1.43    49.07951    74.61152   144.43839
    79  H   1.0    0.04    1.02    1.43    48.82473    71.58719   145.97343
    80  N   5.0   -0.20    3.23    1.96    26.85952    65.68266   150.95963
    81  C   4.0    0.03    4.39    4.37    28.41531    64.06622   152.53615
    82  C   4.0    0.15    3.45    3.10    31.02260    63.82366   151.25083
    83  O   6.0   -0.30    1.24    1.80    31.17070    62.96040   149.10652
    84  C   4.0   -0.02    4.29    4.17    27.25464    61.40877   152.70370
    85  C   4.0   -0.08    4.15    3.90    29.12190    59.68246   154.04379
    86  C   4.0   -0.08    4.09    3.79    24.65351    61.38573   153.95161
    87  H   1.0    0.09    1.02    1.43    26.55648    65.05055   149.17115
    88  H   1.0    0.05    1.05    1.44    28.61979    64.95564   154.38765
    89  H   1.0    0.05    1.06    1.44    27.04437    60.74823   150.75156
    90  H   1.0    0.03    1.00    1.43    28.33616    57.79708   154.24070
    91  H   1.0    0.05    1.01    1.43    30.88144    59.55911   152.99738
    92  H   1.0    0.04    1.00    1.43    29.54371    60.40730   155.92352
    93  H   1.0    0.04    1.00    1.43    23.96328    59.45592   154.03716
    94  H   1.0    0.04    1.00    1.43    24.75291    62.14378   155.85807
    95  H   1.0    0.04    1.00    1.43    23.33202    62.50929   152.85663
    96  N   5.0   -0.14    3.44    2.04    33.05000    64.52261   152.62088
    97  C   4.0    0.03    4.35    4.30    35.62892    64.18484   151.72474
    98  C   4.0    0.15    3.44    3.09    37.23005    62.91777   153.78225
    99  O   6.0   -0.31    1.29    1.80    37.18453    63.64322   155.97998
   100  C   4.0   -0.03    4.23    4.06    37.00488    66.66992   150.99159
   101  C   4.0   -0.02    4.16    3.91    35.38035    69.05754   151.01584
   102  C   4.0    0.25    3.08    3.02    36.75675    71.32927   149.65745
   103  O   6.0   -0.29    1.16    1.80    37.74417    70.89965   147.54663
   104  O   6.0   -0.28    1.16    1.80    36.71741    73.40927   150.75536
   105  H   1.0    0.11    1.09    1.44    32.79660    65.35723   154.32374
   106  H   1.0    0.06    1.06    1.44    35.45828    62.96160   150.06621
   107  H   1.0    0.06    1.03    1.43    38.59138    66.97575   152.28087
   108  H   1.0    0.06    1.03    1.43    37.77086    66.48136   149.08596
   109  H   1.0    0.06    1.02    1.43    33.64144    68.73510   149.94744
   110  H   1.0    0.06    1.02    1.43    34.86749    69.65851   152.91946
   111  N   5.0   -0.14    3.48    2.06    38.69049    60.96808   153.09713
   112  C   4.0    0.03    4.45    4.47    40.47334    59.80412   154.86452
   113  C   4.0    0.17    3.54    3.13    42.23830    61.89712   155.75760
   114  O   6.0   -0.29    1.27    1.80    42.95935    63.57959   154.34901
   115  C   4.0   -0.04    4.27    4.14    41.96225    57.68316   153.57610
   116  C   4.0   -0.04    4.20    4.00    44.01694    56.59770   155.24143
   117  C   4.0   -0.00    4.19    3.99    45.03834    54.04196   154.34891
   118  N   5.0   -0.13    3.38    2.01    46.32777    54.06553   151.94271
   119  C   4.0    0.10    3.33    3.06    48.49580    55.24474   151.38950
   120  N   5.0   -0.16    3.26    1.97    49.61590    56.77483   153.03321
   121  N   5.0   -0.18    3.23    1.96    49.53945    54.95153   149.09881
   122  H   1.0    0.07    1.06    1.44    38.97559    60.63356   151.23961
   123  H   1.0    0.06    1.07    1.44    39.42105    59.07432   156.48595
   124  H   1.0    0.05    1.05    1.44    40.65970    56.18485   153.05187
   125  H   1.0    0.05    1.03    1.43    42.81257    58.47759   151.86890
   126  H   1.0    0.06    1.04    1.43    45.49517    58.01377   155.46506
   127  H   1.0    0.05    1.03    1.43    43.21599    56.27420   157.12071
   128  H   1.0    0.05    1.03    1.43    46.33036    53.29351   155.77275
   129  H   1.0    0.07    1.04    1.43    43.46419    52.72069   154.17705
   130  H   1.0    0.08    1.07    1.44    45.68292    52.77347   150.69658
   131  H   1.0    0.10    1.03    1.43    49.02889    56.96000   154.82872
   132  H   1.0    0.11    1.03    1.43    51.27647    57.61951   152.63237
   133  H   1.0    0.08    1.03    1.43    48.68330    53.92415   147.74655
   134  H   1.0    0.10    1.03    1.43    51.19507    55.80294   148.67262
   135  N   5.0   -0.14    3.53    2.10    42.90237    61.69316   158.18133
   136  C   4.0    0.03    4.48    4.51    44.67141    63.43486   159.32558
   137  C   4.0    0.16    3.63    3.19    46.99869    63.37965   157.65968
   138  O   6.0   -0.31    1.31    1.80    47.90816    61.33803   156.97462
   139  C   4.0   -0.03    4.34    4.28    45.28364    62.56402   162.00566
   140  C   4.0   -0.02    3.54    3.13    47.41302    63.93559   163.29599
   141  C   4.0   -0.04    3.46    3.10    47.32053    66.48602   163.95484
   142  C   4.0   -0.04    3.48    3.11    49.42210    62.51405   164.19312
   143  C   4.0   -0.02    3.44    3.09    49.15553    67.58452   165.46013
   144  C   4.0   -0.05    3.47    3.10    51.15742    63.54501   165.85197
   145  C   4.0    0.07    3.44    3.09    51.02266    66.07783   166.54199
   146  O   6.0   -0.24    2.11    1.84    52.73069    67.08114   168.20593
   147  H   1.0    0.10    1.11    1.45    42.06963    60.40534   159.33010
   148  H   1.0    0.04    1.08    1.44    43.86576    65.32294   159.31645
   149  H   1.0    0.05    1.03    1.43    43.59230    62.78766   163.16525
   150  H   1.0    0.05    1.04    1.43    45.72815    60.55114   161.93412
   151  H   1.0    0.06    1.03    1.43    45.73326    67.64013   163.39739
   152  H   1.0    0.05    1.03    1.43    49.53759    60.52752   163.76060
   153  H   1.0    0.07    1.03    1.43    49.05847    69.55453   165.95143
   154  H   1.0    0.05    1.03    1.43    52.55419    62.31994   166.70247
   155  H   1.0    0.12    1.04    1.43    53.58173    65.72419   169.08810
   156  N   5.0   -0.10    3.69    2.25    47.95071    65.63171   157.06285
   157  C   4.0    0.04    4.57    4.63    50.07301    65.82503   155.31758
   158  C   4.0    0.16    3.41    3.08    52.17771    63.92858   155.95010
   159  O   6.0   -0.29    1.20    1.80    53.25576    62.81320   154.24997
   160  C   4.0   -0.05    4.31    4.22    50.95133    68.59048   155.51039
   161  C   4.0   -0.05    4.25    4.10    49.39726    69.73774   157.66651
   162  C   4.0   -0.01    4.38    4.34    47.00192    68.14905   157.68460
   163  H   1.0    0.06    1.05    1.44    49.43627    65.35917   153.40141
   164  H   1.0    0.04    1.02    1.43    52.96912    68.70590   155.87926
   165  H   1.0    0.04    1.02    1.43    50.55676    69.56894   153.74465
   166  H   1.0    0.04    1.02    1.43    50.35874    69.53120   159.47695
   167  H   1.0    0.04    1.02    1.43    48.99580    71.72664   157.35873
   168  H   1.0    0.04    1.03    1.43    46.07767    68.22224   159.51160
   169  H   1.0    0.05    1.02    1.43    45.67307    68.75034   156.21588
   170  N   5.0   -0.14    3.47    2.06    52.75012    63.75237   158.44735
   171  C   4.0    0.03    4.36    4.31    54.84971    62.37374   159.52889
   172  C   4.0    0.16    3.45    3.09    54.39740    59.57016   160.18216
   173  O   6.0   -0.30    1.28    1.80    56.06313    58.26763   161.11427
   174  C   4.0   -0.05    4.33    4.26    55.70190    63.63373   161.97266
   175  C   4.0   -0.05    4.15    3.89    57.75936    65.64396   161.73066
   176  C   4.0   -0.01    4.24    4.07    59.66551    65.20415   163.88055
   177  N   5.0   -0.14    3.39    2.02    61.19117    67.40397   164.42429
   178  C   4.0    0.09    3.34    3.06    60.52144    69.29650   165.94173
   179  N   5.0   -0.18    3.25    1.97    58.42269    69.19708   167.31953
   180  N   5.0   -0.19    3.24    1.97    62.03368    71.30293   166.11932
   181  H   1.0    0.08    1.08    1.44    51.58357    64.63143   159.67798
   182  H   1.0    0.06    1.06    1.44    56.37197    62.38485   158.12433
   183  H   1.0    0.04    1.06    1.44    54.04966    64.42330   162.90624
   184  H   1.0    0.05    1.07    1.44    56.44661    62.11002   163.14698
   185  H   1.0    0.04    1.02    1.43    58.71586    65.51038   159.91351
   186  H   1.0    0.04    1.02    1.43    56.95947    67.53782   161.87399
   187  H   1.0    0.04    1.03    1.43    58.66962    64.65365   165.59979
   188  H   1.0    0.04    1.03    1.43    60.92354    63.65666   163.36878
   189  H   1.0    0.08    1.07    1.44    62.71462    67.66363   163.30270
   190  H   1.0    0.09    1.03    1.43    57.03429    67.94043   166.98010
   191  H   1.0    0.09    1.03    1.43    57.95698    70.64417   168.46545
   192  H   1.0    0.08    1.03    1.43    63.71535    71.34155   165.22855
   193  H   1.0    0.08    1.03    1.43    61.63641    72.71728   167.32863
   194  N   5.0   -0.13    3.52    2.09    52.08902    58.65782   159.79656
   195  C   4.0    0.04    4.44    4.45    51.47543    56.16594   160.74637
   196  C   4.0    0.16    3.49    3.11    52.98431    54.20925   159.26082
   197  O   6.0   -0.28    1.27    1.80    53.68268    54.67050   157.12884
   198  C   4.0   -0.04    4.30    4.20    48.61055    55.85053   160.49107
   199  C   4.0   -0.04    4.22    4.04    47.68017    53.13683   160.40697
   200  C   4.0    0.23    3.15    3.03    47.96846    51.86351   162.98540
   201  O   6.0   -0.34    1.31    1.80    48.25328    49.51483   162.95680
   202  O   6.0   -0.33    1.27    1.80    47.92086    53.23585   164.91889
   203  H   1.0    0.10    1.09    1.44    50.73990    59.68550   158.90799
   204  H   1.0    0.05    1.05    1.44    52.07350    56.04934   162.73520
   205  H   1.0    0.05    1.03    1.43    47.67235    56.78220   162.08506
   206  H   1.0    0.05    1.04    1.43    48.00284    56.83130   158.78421
   207  H   1.0    0.04    1.03    1.43    45.65069    53.15914   159.99622
   208  H   1.0    0.06    1.03    1.43    48.63800    52.00417   158.97591
   209  N   5.0   -0.15    3.47    2.06    53.33089    51.94712   160.33410
   210  C   4.0    0.04    4.41    4.40    55.13031    50.14249   159.37271
   211  C   4.0    0.16    3.43    3.09    54.36633    47.37351   159.64813
   212  O   6.0   -0.31    1.31    1.80    55.68659    45.71822   158.72279
   213  C   4.0    0.06    4.22    4.04    57.86144    50.38533   160.53355
   214  O   6.0   -0.26    2.11    1.84    58.29302    48.77712   162.63742
   215  C   4.0   -0.05    4.08    3.77    58.56370    53.13589   161.03023
   216  H   1.0    0.09    1.07    1.44    52.76646    51.76114   162.14715
   217  H   1.0    0.07    1.07    1.44    55.30828    50.58915   157.36052
   218  H   1.0    0.09    1.09    1.44    59.14751    49.59939   159.13326
   219  H   1.0    0.12    1.02    1.43    57.66475    49.58561   164.15030
   220  H   1.0    0.06    1.00    1.43    60.55921    53.25571   161.51513
   221  H   1.0    0.07    1.00    1.43    58.22342    54.28050   159.36965
   222  H   1.0    0.06    1.00    1.43    57.47439    53.91418   162.59100
   223  N   5.0   -0.14    3.49    2.07    52.30818    46.77937   160.99181
   224  C   4.0    0.04    4.45    4.46    51.37354    44.20897   161.01621
   225  C   4.0    0.16    3.48    3.11    49.05055    43.92205   159.32857
   226  O   6.0   -0.30    1.24    1.80    48.63777    41.98849   158.12282
   227  C   4.0   -0.04    4.31    4.22    50.68329    43.32894   163.69838
   228  C   4.0   -0.01    3.56    3.14    49.58147    40.69367   163.74841
   229  C   4.0   -0.04    3.47    3.10    50.97974    38.61128   162.95611
   230  C   4.0   -0.04    3.46    3.10    47.14269    40.28434   164.62628
   231  C   4.0   -0.04    3.37    3.07    49.95334    36.19999   162.99903
   232  C   4.0   -0.04    3.37    3.07    46.13821    37.86687   164.73794
   233  C   4.0   -0.03    3.36    3.07    47.52775    35.81342   163.91133
   234  H   1.0    0.11    1.11    1.45    51.14256    48.08299   161.77088
   235  H   1.0    0.06    1.07    1.44    52.87588    43.01551   160.25698
   236  H   1.0    0.04    1.03    1.43    52.39668    43.38358   164.85026
   237  H   1.0    0.05    1.03    1.43    49.33396    44.66296   164.51246
   238  H   1.0    0.05    1.03    1.43    52.89721    38.87579   162.31563
   239  H   1.0    0.05    1.03    1.43    46.02333    41.86946   165.27272
   240  H   1.0    0.06    1.03    1.43    51.03299    34.61641   162.29907
   241  H   1.0    0.05    1.03    1.43    44.25349    37.59554   165.47880
   242  H   1.0    0.06    1.03    1.43    46.72345    33.94177   163.99423
   243  N   5.0   -0.13    3.54    2.10    47.50939    45.90506   159.27932
   244  C   4.0    0.04    4.52    4.56    45.16633    45.64785   157.93464
   245  C   4.0    0.16    3.53    3.13    45.54571    46.14822   155.12559
   246  O   6.0   -0.28    1.23    1.80    47.05614    47.71823   154.30216
   247  C   4.0   -0.04    4.39    4.37    43.23902    47.56736   158.91041
   248  C   4.0   -0.02    4.18    3.97    42.34268    47.02841   161.60678
   249  C   4.0   -0.07    4.11    3.81    41.28134    49.43591   162.77279
   250  C   4.0   -0.08    4.11    3.82    40.37589    44.93045   161.54828
   251  H   1.0    0.11    1.13    1.45    47.73108    47.41351   160.44490
   252  H   1.0    0.05    1.08    1.44    44.52182    43.70774   158.22304
   253  H   1.0    0.05    1.03    1.43    44.12424    49.42791   158.82217
   254  H   1.0    0.05    1.03    1.43    41.61180    47.62045   157.64297
   255  H   1.0    0.05    1.05    1.44    43.96280    46.41496   162.74057
   256  H   1.0    0.04    1.00    1.43    40.57087    49.07875   164.66245
   257  H   1.0    0.05    1.00    1.43    42.73590    50.88665   162.91607
   258  H   1.0    0.04    1.00    1.43    39.74684    50.17830   161.63034
   259  H   1.0    0.04    1.00    1.43    39.69093    44.51892   163.44351
   260  H   1.0    0.04    1.00    1.43    38.76317    45.48978   160.40128
   261  H   1.0    0.04    1.00    1.43    41.17208    43.19922   160.78424
   262  N   5.0   -0.09    3.66    2.22    43.98523    44.83980   153.64103
   263  C   4.0    0.03    4.60    4.67    43.66507    45.57532   150.98602
   264  C   4.0    0.14    3.50    3.11    42.33465    48.12714   150.73262
   265  O   6.0   -0.30    1.26    1.80    41.52683    49.34771   152.51366
   266  C   4.0   -0.05    4.32    4.24    41.95991    43.53736   149.80421
   267  C   4.0   -0.04    4.25    4.11    40.45625    42.59644   152.11152
   268  C   4.0   -0.02    4.35    4.28    42.29295    42.79672   154.35698
   269  H   1.0    0.05    1.05    1.44    45.54429    45.69790   150.13840
   270  H   1.0    0.05    1.03    1.43    40.73579    44.30767   148.34838
   271  H   1.0    0.04    1.02    1.43    43.10480    42.01665   149.02677
   272  H   1.0    0.05    1.03    1.43    38.85177    43.84338   152.45072
   273  H   1.0    0.03    1.02    1.43    39.78270    40.67502   151.86729
   274  H   1.0    0.03    1.02    1.43    41.24076    43.21916   156.07204
   275  H   1.0    0.04    1.02    1.43    43.40039    41.07018   154.61013
   276  N   5.0   -0.09    3.78    2.39    42.02229    48.86689   148.31828
   277  C   4.0    0.03    4.64    4.71    40.58519    51.14230   147.74989
   278  C   4.0    0.15    3.43    3.09    38.17939    50.22208   146.43333
   279  O   6.0   -0.30    1.25    1.80    37.78896    47.99206   145.96487
   280  C   4.0   -0.05    4.27    4.13    42.36719    52.82096   146.16549
   281  C   4.0   -0.04    4.27    4.13    44.60695    51.04056   145.61333
   282  C   4.0   -0.01    4.40    4.38    43.54348    48.36787   146.11203
   283  H   1.0    0.07    1.08    1.44    40.03070    51.98407   149.55076
   284  H   1.0    0.05    1.02    1.43    41.44513    53.38825   144.41537
   285  H   1.0    0.04    1.02    1.43    42.92328    54.50187   147.20602
   286  H   1.0    0.04    1.02    1.43    45.29644    51.22768   143.68677
   287  H   1.0    0.04    1.03    1.43    46.15512    51.34122   146.93373
   288  H   1.0    0.05    1.02    1.43    42.31942    47.73971   144.57290
   289  H   1.0    0.04    1.02    1.43    44.99104    46.95464   146.43761
   290  N   5.0   -0.14    3.46    2.05    36.47979    52.07731   146.07966
   291  C   4.0    0.03    4.34    4.27    33.94262    51.49068   145.31130
   292  C   4.0    0.08    3.23    3.04    33.52880    51.92572   142.51652
   293  O   6.0   -0.28    1.12    1.80    34.48843    53.63143   141.27693
   294  C   4.0   -0.05    4.37    4.34    31.99303    53.04666   146.76873
   295  C   4.0   -0.02    4.18    3.96    31.32208    51.91817   149.34509
   296  C   4.0   -0.08    4.12    3.85    29.79192    53.88480   150.78345
   297  C   4.0   -0.08    4.11    3.82    29.80203    49.48708   149.07608
   298  H   1.0    0.08    1.06    1.44    37.01271    53.90252   146.15469
   299  H   1.0    0.05    1.08    1.44    33.70163    49.47431   145.70517
   300  H   1.0    0.05    1.03    1.43    32.73053    54.95995   146.99486
   301  H   1.0    0.04    1.04    1.43    30.27598    53.21413   145.64210
   302  H   1.0    0.05    1.05    1.44    33.06651    51.49267   150.37673
   303  H   1.0    0.03    1.00    1.43    29.24217    53.16583   152.62564
   304  H   1.0    0.04    1.00    1.43    30.91567    55.57789   151.06761
   305  H   1.0    0.04    1.00    1.43    28.10551    54.39502   149.73267
   306  H   1.0    0.03    1.00    1.43    29.32773    48.72183   150.92235
   307  H   1.0    0.04    1.00    1.43    28.05678    49.85256   148.05434
   308  H   1.0    0.04    1.00    1.43    30.83541    48.02898   148.05890
   309  N   5.0   -0.20    3.24    1.97    28.77120    40.46382   151.37279
   310  C   4.0    0.02    4.32    4.24    31.37788    39.71626   151.70765
   311  C   4.0    0.14    3.39    3.08    31.56267    36.85765   152.21755
   312  O   6.0   -0.29    1.23    1.80    29.79392    35.51132   152.80797
   313  C   4.0   -0.05    4.34    4.27    32.58088    41.23337   153.84815
   314  C   4.0   -0.05    4.07    3.74    32.44120    44.05771   153.31411
   315  S   6.0   -0.05    2.47    3.10    34.56106    45.80460   155.44480
   316  C   4.0   -0.07    3.88    3.43    32.39636    47.88145   157.07384
   317  H   1.0    0.09    1.03    1.43    27.65000    40.13844   152.88941
   318  H   1.0    0.04    1.05    1.44    32.33362    40.12448   149.91241
   319  H   1.0    0.05    1.03    1.43    31.57801    40.80084   155.59934
   320  H   1.0    0.04    1.04    1.43    34.55235    40.67697   154.07364
   321  H   1.0    0.04    1.06    1.44    33.05594    44.45483   151.38830
   322  H   1.0    0.03    1.06    1.44    30.53212    44.77210   153.57913
   323  H   1.0    0.04    1.05    1.44    33.43645    48.73860   158.61762
   324  H   1.0    0.04    1.04    1.43    31.75148    49.33853   155.78547
   325  H   1.0    0.04    1.04    1.43    30.83423    46.76992   157.79314
   326  N   5.0   -0.14    3.48    2.07    33.89568    35.89441   151.85018
   327  C   4.0    0.04    4.40    4.37    34.21942    33.22681   151.26110
   328  C   4.0    0.08    3.24    3.04    34.68045    31.80957   153.73260
   329  O   6.0   -0.33    1.29    1.80    36.16359    32.70141   155.26612
   330  C   4.0   -0.03    4.25    4.09    36.38240    32.92970   149.31492
   331  C   4.0   -0.07    4.12    3.83    38.98169    33.54930   150.41098
   332  C   4.0   -0.08    4.10    3.80    36.38464    30.28069   148.17690
   333  H   1.0    0.07    1.07    1.44    35.31402    37.05947   151.33730
   334  H   1.0    0.05    1.06    1.44    32.43902    32.57724   150.42078
   335  H   1.0    0.04    1.06    1.44    35.95419    34.28592   147.81004
   336  H   1.0    0.04    1.00    1.43    40.34000    33.73573   148.88312
   337  H   1.0    0.04    1.00    1.43    38.96396    35.29914   151.48585
   338  H   1.0    0.05    1.00    1.43    39.61435    32.04549   151.65909
   339  H   1.0    0.04    1.00    1.43    37.80310    30.17555   146.69528
   340  H   1.0    0.04    1.00    1.43    36.84631    28.87749   149.59810
   341  H   1.0    0.04    1.00    1.43    34.56107    29.83260   147.34138
   342  N   5.0   -0.20    3.22    1.96    32.96664    31.47380   159.28940
   343  C   4.0    0.04    4.18    3.96    33.99791    33.19116   161.18439
   344  C   4.0    0.09    3.18    3.03    32.06661    33.50751   163.35674
   345  O   6.0   -0.28    1.14    1.80    30.77643    35.40926   163.57007
   346  C   4.0   -0.03    4.24    4.09    34.62220    35.75433   159.92549
   347  C   4.0   -0.05    4.13    3.87    37.21523    36.87818   160.53022
   348  C   4.0   -0.01    4.16    3.92    39.48265    35.51890   159.32778
   349  N   5.0   -0.14    3.40    2.02    40.29533    33.26955   160.68618
   350  C   4.0    0.10    3.35    3.06    40.56617    30.90971   159.85458
   351  N   5.0   -0.19    3.26    1.97    40.14496    30.29722   157.43581
   352  N   5.0   -0.18    3.27    1.97    41.52598    29.18291   161.41087
   353  H   1.0    0.10    1.03    1.43    31.76772    32.27594   158.03778
   354  H   1.0    0.06    1.05    1.44    35.66932    32.26851   161.97920
   355  H   1.0    0.06    1.04    1.44    34.47298    35.53458   157.88493
   356  H   1.0    0.06    1.04    1.43    33.17017    37.08906   160.52830
   357  H   1.0    0.04    1.03    1.43    37.22952    38.80928   159.80989
   358  H   1.0    0.04    1.03    1.43    37.46068    36.97993   162.57093
   359  H   1.0    0.06    1.04    1.43    39.00994    35.00754   157.39521
   360  H   1.0    0.04    1.02    1.43    41.08227    36.83098   159.29788
   361  H   1.0    0.09    1.11    1.44    40.82242    33.51741   162.51007
   362  H   1.0    0.11    1.10    1.44    38.87461    31.35905   156.45007
   363  H   1.0    0.08    1.04    1.43    40.14988    28.43765   157.01738
   364  H   1.0    0.13    1.12    1.45    41.59525    29.62880   163.30463
   365  H   1.0    0.09    1.03    1.43    41.43536    27.34294   160.94650
   366  N   5.0   -0.20    3.25    1.97    35.74705    34.22310   172.23216
   367  C   4.0    0.03    4.31    4.22    37.67706    36.14679   171.89083
   368  C   4.0    0.15    3.45    3.09    36.14226    38.51854   171.27601
   369  O   6.0   -0.30    1.23    1.80    34.71488    38.61633   169.45389
   370  C   4.0   -0.04    4.19    3.98    39.63801    35.54412   169.81665
   371  C   4.0   -0.03    4.14    3.89    38.50853    34.85186   167.21928
   372  C   4.0    0.24    3.09    3.02    38.85105    32.02108   166.40861
   373  O   6.0   -0.33    1.33    1.80    41.05933    31.44106   165.76354
   374  O   6.0   -0.30    1.15    1.80    36.98777    30.57797   166.32196
   375  H   1.0    0.10    1.04    1.43    34.27184    34.39027   171.02993
   376  H   1.0    0.04    1.05    1.44    38.69027    36.32549   173.68294
   377  H   1.0    0.04    1.03    1.43    40.84371    37.21002   169.64721
   378  H   1.0    0.05    1.02    1.43    40.82740    33.99010   170.48112
   379  H   1.0    0.07    1.03    1.43    36.51107    35.34647   167.12678
   380  H   1.0    0.04    1.03    1.43    39.51559    35.95368   165.79341
   381  N   5.0   -0.14    3.46    2.05    36.30616    40.27845   173.09515
   382  C   4.0    0.04    4.37    4.33    34.85988    42.57439   173.01618
   383  C   4.0    0.15    3.47    3.10    36.30508    44.70973   171.75332
   384  O   6.0   -0.30    1.24    1.80    38.59540    44.81194   171.48517
   385  C   4.0   -0.07    4.13    3.87    34.15179    43.49838   175.65023
   386  H   1.0    0.08    1.07    1.44    37.67162    40.14338   174.41445
   387  H   1.0    0.06    1.07    1.44    33.20932    42.14430   171.84595
   388  H   1.0    0.05    1.00    1.43    32.95099    45.15970   175.56129
   389  H   1.0    0.04    1.00    1.43    33.18687    42.01794   176.69878
   390  H   1.0    0.05    1.00    1.43    35.86266    44.00319   176.67444
   391  N   5.0   -0.14    3.60    2.16    34.75491    46.56633   171.05301
   392  C   4.0    0.04    4.51    4.55    35.84004    48.95386   170.45796
   393  C   4.0    0.15    3.47    3.10    33.87985    50.88850   171.22533
   394  O   6.0   -0.30    1.27    1.80    31.65674    50.28453   171.36379
   395  C   4.0   -0.03    4.32    4.24    36.59067    49.01751   167.63840
   396  C   4.0   -0.01    3.58    3.15    34.34242    48.83704   165.89680
   397  C   4.0   -0.04    3.47    3.10    33.35705    46.50653   165.19943
   398  C   4.0   -0.03    3.48    3.11    33.15494    51.02967   165.08212
   399  C   4.0   -0.04    3.38    3.07    31.16064    46.38564   163.80155
   400  C   4.0   -0.04    3.37    3.07    30.93725    50.91097   163.72040
   401  C   4.0   -0.04    3.39    3.07    29.92996    48.58558   163.10420
   402  H   1.0    0.10    1.09    1.44    32.86222    46.55691   171.32279
   403  H   1.0    0.06    1.06    1.44    37.56933    49.21667   171.57226
   404  H   1.0    0.05    1.03    1.43    37.60576    50.77796   167.29045
   405  H   1.0    0.05    1.03    1.43    37.85783    47.41791   167.34986
   406  H   1.0    0.06    1.03    1.43    34.30261    44.79421   165.78373
   407  H   1.0    0.06    1.03    1.43    33.94369    52.82591   165.65258
   408  H   1.0    0.05    1.03    1.43    30.43170    44.57082   163.22756
   409  H   1.0    0.04    1.03    1.43    29.99910    52.62478   163.13807
   410  H   1.0    0.05    1.03    1.43    28.17151    48.48044   162.08218
   411  N   5.0   -0.14    3.55    2.12    34.85936    53.11312   171.84963
   412  C   4.0    0.04    4.46    4.47    33.35447    55.26655   172.50262
   413  C   4.0    0.15    3.45    3.10    32.64273    56.73979   170.16226
   414  O   6.0   -0.31    1.26    1.80    34.03680    56.91598   168.30244
   415  C   4.0   -0.04    4.37    4.33    34.97300    57.05781   174.08461
   416  C   4.0   -0.02    3.58    3.16    36.36585    55.63321   176.12769
   417  C   4.0   -0.05    3.46    3.10    35.32678    55.22189   178.52107
   418  C   4.0   -0.04    3.47    3.10    38.78024    54.72465   175.64659
   419  C   4.0   -0.05    3.45    3.10    36.66124    53.98774   180.39216
   420  C   4.0   -0.04    3.45    3.09    40.12942    53.52098   177.53837
   421  C   4.0    0.07    3.44    3.09    39.09610    53.12040   179.92188
   422  O   6.0   -0.26    2.14    1.85    40.36929    51.88330   181.74609
   423  H   1.0    0.10    1.10    1.44    36.65673    53.48507   171.30195
   424  H   1.0    0.05    1.06    1.44    31.68092    54.60759   173.51629
   425  H   1.0    0.05    1.04    1.43    36.34844    57.96646   172.84106
   426  H   1.0    0.04    1.03    1.43    33.77543    58.52665   174.90015
   427  H   1.0    0.05    1.03    1.43    33.45225    55.91786   178.92210
   428  H   1.0    0.07    1.03    1.43    39.66195    55.01607   173.83031
   429  H   1.0    0.05    1.03    1.43    35.83019    53.65144   182.22253
   430  H   1.0    0.07    1.03    1.43    42.00176    52.79353   177.14692
   431  H   1.0    0.15    1.07    1.44    42.03712    51.29930   181.19072
   432  N   5.0   -0.14    3.55    2.11    30.41898    57.90567   170.28274
   433  C   4.0    0.03    4.45    4.46    29.53697    59.58971   168.24969
   434  C   4.0    0.14    3.43    3.09    29.35956    62.11310   169.63804
   435  O   6.0   -0.31    1.26    1.80    28.27667    62.16289   171.69003
   436  C   4.0   -0.04    4.37    4.32    27.04393    58.51046   167.31013
   437  C   4.0   -0.02    4.19    3.98    25.94852    59.89702   165.07477
   438  C   4.0   -0.08    4.14    3.87    27.91577    60.21206   162.97301
   439  C   4.0   -0.08    4.12    3.83    23.70776    58.40250   164.01154
   440  H   1.0    0.09    1.07    1.44    29.35189    57.90217   171.86026
   441  H   1.0    0.06    1.07    1.44    30.99323    59.62513   166.80024
   442  H   1.0    0.04    1.04    1.43    27.40038    56.54488   166.78466
   443  H   1.0    0.05    1.03    1.43    25.70410    58.52117   168.88088
   444  H   1.0    0.04    1.05    1.44    25.30244    61.77711   165.65153
   445  H   1.0    0.04    1.00    1.43    27.01549    60.97963   161.29053
   446  H   1.0    0.06    1.01    1.43    29.43421    61.48166   163.50791
   447  H   1.0    0.04    1.00    1.43    28.70085    58.37526   162.49600
   448  H   1.0    0.04    1.00    1.43    22.82886    59.45568   162.48738
   449  H   1.0    0.04    1.00    1.43    24.36367    56.59594   163.28616
   450  H   1.0    0.04    1.00    1.43    22.30957    58.05292   165.47256
   451  N   5.0   -0.14    3.45    2.05    30.67959    64.04673   168.69907
   452  C   4.0    0.03    4.32    4.24    30.94322    66.45862   169.99982
   453  C   4.0    0.07    3.25    3.04    30.03382    68.59102   168.30484
   454  O   6.0   -0.32    1.20    1.80    30.83934    68.79868   166.11011
   455  C   4.0   -0.04    4.41    4.39    33.70873    67.09801   170.52501
   456  C   4.0   -0.02    4.19    3.99    34.96680    65.22157   172.30582
   457  C   4.0   -0.07    4.11    3.82    37.33968    64.14475   171.11105
   458  C   4.0   -0.08    4.11    3.83    35.53795    66.54316   174.80780
   459  H   1.0    0.11    1.11    1.44    31.59364    63.88731   167.02300
   460  H   1.0    0.05    1.06    1.44    29.83431    66.35556   171.73929
   461  H   1.0    0.06    1.04    1.43    34.69113    67.10424   168.70633
   462  H   1.0    0.04    1.04    1.43    33.82381    69.01470   171.28349
   463  H   1.0    0.05    1.06    1.44    33.66276    63.65409   172.66996
   464  H   1.0    0.04    1.00    1.43    38.24687    62.80257   172.37756
   465  H   1.0    0.05    1.00    1.43    36.90029    63.18811   169.34377
   466  H   1.0    0.07    1.00    1.43    38.72814    65.61327   170.71255
   467  H   1.0    0.03    1.00    1.43    36.32574    65.22781   176.16655
   468  H   1.0    0.04    1.00    1.43    36.90675    68.05234   174.51762
   469  H   1.0    0.03    1.00    1.43    33.81517    67.36084   175.57345
   470  N   5.0   -0.21    3.18    1.95    35.12408    73.17257   166.01131
   471  C   4.0    0.04    4.28    4.16    37.48734    72.30234   167.07045
   472  C   4.0    0.07    3.25    3.04    38.16756    73.56378   169.57913
   473  O   6.0   -0.29    1.19    1.80    40.34899    73.59588   170.32436
   474  C   4.0   -0.02    4.37    4.32    39.74082    72.73083   165.35184
   475  C   4.0    0.17    3.32    3.06    41.78910    70.90126   166.20680
   476  O   6.0   -0.29    1.23    1.80    41.28897    68.65313   166.38750
   477  N   5.0   -0.18    3.19    1.95    44.12037    71.83656   166.44857
   478  H   1.0    0.10    1.03    1.43    33.75875    71.90447   165.59871
   479  H   1.0    0.06    1.07    1.44    37.34256    70.26782   167.42930
   480  H   1.0    0.06    1.04    1.43    39.22091    72.24651   163.41398
   481  H   1.0    0.05    1.03    1.43    40.36546    74.68740   165.42898
   482  H   1.0    0.14    1.14    1.45    45.24765    70.71723   167.61644
   483  H   1.0    0.09    1.04    1.43    44.28376    73.71506   166.69251
   484  N   5.0   -0.19    3.24    1.96    29.91926    70.30108   178.58810
   485  C   4.0    0.03    4.24    4.08    28.64675    67.95888   179.30356
   486  C   4.0    0.08    3.24    3.04    26.02216    68.68338   180.25120
   487  O   6.0   -0.29    1.14    1.80    25.73339    70.52446   181.61614
   488  C   4.0   -0.04    4.40    4.38    29.97952    66.64522   181.45589
   489  C   4.0   -0.03    4.20    3.99    32.54187    65.55107   180.71418
   490  C   4.0   -0.08    4.12    3.83    34.09707    65.14764   183.11721
   491  C   4.0   -0.08    4.12    3.84    32.20675    63.05870   179.33631
   492  H   1.0    0.09    1.02    1.43    30.64725    71.30141   180.05569
   493  H   1.0    0.04    1.05    1.44    28.50165    66.76983   177.61853
   494  H   1.0    0.05    1.04    1.43    30.23271    68.03700   182.96208
   495  H   1.0    0.04    1.04    1.43    28.77733    65.13396   182.18267
   496  H   1.0    0.03    1.06    1.44    33.53988    66.91764   179.53191
   497  H   1.0    0.03    1.00    1.43    36.02559    64.63930   182.65409
   498  H   1.0    0.04    1.00    1.43    34.16505    66.86987   184.24047
   499  H   1.0    0.04    1.00    1.43    33.25492    63.66459   184.26742
   500  H   1.0    0.03    1.00    1.43    34.02589    62.23094   178.87117
   501  H   1.0    0.04    1.03    1.43    31.18331    61.74157   180.52677
   502  H   1.0    0.04    1.00    1.43    31.16823    63.31351   177.57941
   503  N   5.0   -0.19    3.26    1.97    28.05446    70.75695   158.22567
   504  C   4.0    0.03    4.37    4.33    28.64793    69.00953   160.22363
   505  C   4.0    0.15    3.51    3.12    31.06449    67.68871   159.51226
   506  O   6.0   -0.32    1.31    1.80    31.39851    66.95803   157.33536
   507  C   4.0   -0.04    4.48    4.51    26.67943    66.92032   160.45692
   508  C   4.0   -0.05    4.10    3.80    24.09000    67.97584   160.97655
   509  S   6.0   -0.05    2.60    3.10    22.22178    65.28132   161.78791
   510  C   4.0   -0.07    3.89    3.45    19.19154    66.82533   162.17391
   511  H   1.0    0.09    1.03    1.43    28.04719    70.02221   156.44817
   512  H   1.0    0.05    1.05    1.44    28.86341    70.04883   161.99419
   513  H   1.0    0.04    1.04    1.43    26.65047    65.83450   158.70058
   514  H   1.0    0.05    1.06    1.44    27.26095    65.66689   161.99282
   515  H   1.0    0.04    1.07    1.44    24.12849    69.30097   162.56071
   516  H   1.0    0.04    1.06    1.44    23.30884    68.91236   159.31407
   517  H   1.0    0.04    1.05    1.44    17.91146    65.46149   163.00521
   518  H   1.0    0.04    1.04    1.43    19.41091    68.42023   163.44525
   519  H   1.0    0.04    1.04    1.43    18.50297    67.43895   160.34172
   520  N   5.0   -0.13    3.53    2.10    32.69057    67.30994   161.38715
   521  C   4.0    0.04    4.54    4.59    34.93084    65.84286   160.92973
   522  C   4.0    0.14    3.52    3.12    34.60163    63.34811   162.23583
   523  O   6.0   -0.33    1.36    1.80    33.24171    63.16234   164.10737
   524  C   4.0    0.06    4.26    4.11    37.31696    67.24440   161.79291
   525  O   6.0   -0.25    2.13    1.84    37.58629    69.52824   160.46787
   526  C   4.0   -0.06    4.15    3.90    39.63166    65.61347   161.40970
   527  H   1.0    0.12    1.11    1.45    32.26769    67.79857   163.18209
   528  H   1.0    0.08    1.09    1.44    35.07208    65.54623   158.88411
   529  H   1.0    0.06    1.04    1.43    37.15575    67.77972   163.78480
   530  H   1.0    0.13    1.03    1.43    37.68040    69.17452   158.68032
   531  H   1.0    0.06    1.01    1.43    41.25494    66.72703   161.98971
   532  H   1.0    0.05    1.01    1.43    39.56608    63.94168   162.59364
   533  H   1.0    0.06    1.01    1.43    39.75585    65.08915   159.42923
   534  N   5.0   -0.15    3.51    2.09    35.81782    61.38106   161.23807
   535  C   4.0    0.04    4.51    4.55    35.91932    59.13503   162.77860
   536  C   4.0    0.14    3.41    3.08    38.63157    58.29163   163.20520
   537  O   6.0   -0.33    1.30    1.80    40.27776    58.54593   161.60330
   538  C   4.0   -0.03    4.35    4.30    34.22869    57.08614   161.68748
   539  C   4.0   -0.01    3.61    3.17    35.24529    56.04535   159.28111
   540  C   4.0   -0.04    3.50    3.12    34.98458    57.47789   157.10055
   541  C   4.0   -0.05    3.45    3.09    36.38659    53.67682   159.18952
   542  C   4.0   -0.05    3.48    3.11    35.77429    56.54295   154.80376
   543  C   4.0   -0.04    3.42    3.08    37.23302    52.74351   156.91279
   544  C   4.0    0.06    3.48    3.10    36.89553    54.17037   154.70953
   545  O   6.0   -0.24    2.14    1.85    37.57210    53.16854   152.42464
   546  H   1.0    0.10    1.07    1.44    36.94698    61.59636   159.71545
   547  H   1.0    0.07    1.10    1.44    35.13757    59.66276   164.62382
   548  H   1.0    0.04    1.04    1.43    34.01913    55.60408   163.09695
   549  H   1.0    0.04    1.04    1.43    32.38836    57.95278   161.36010
   550  H   1.0    0.06    1.03    1.43    34.07579    59.30080   157.19221
   551  H   1.0    0.05    1.03    1.43    36.53775    52.58588   160.90675
   552  H   1.0    0.05    1.03    1.43    35.45278    57.61971   153.10209
   553  H   1.0    0.06    1.03    1.43    38.11031    50.91193   156.74608
   554  H   1.0    0.11    1.04    1.43    36.79911    54.17487   151.10557
   555  N   5.0   -0.14    3.47    2.06    39.09858    57.33266   165.49496
   556  C   4.0    0.04    4.35    4.29    41.65393    56.90146   166.41530
   557  C   4.0    0.14    3.50    3.11    41.68538    54.57036   168.04521
   558  O   6.0   -0.32    1.33    1.80    39.83964    54.13667   169.37031
   559  C   4.0   -0.06    4.14    3.88    42.49954    59.02466   168.19486
   560  H   1.0    0.11    1.08    1.44    37.68672    57.09791   166.77359
   561  H   1.0    0.05    1.06    1.44    42.91286    56.76207   164.78654
   562  H   1.0    0.06    1.00    1.43    44.44409    58.74184   168.79832
   563  H   1.0    0.05    1.00    1.43    42.37917    60.86457   167.28352
   564  H   1.0    0.05    1.00    1.43    41.30243    59.08361   169.86585
   565  N   5.0   -0.15    3.46    2.05    43.76669    53.16900   168.11415
   566  C   4.0    0.04    4.41    4.40    43.84343    51.12309   169.92276
   567  C   4.0    0.15    3.40    3.08    45.10272    51.79198   172.49063
   568  O   6.0   -0.29    1.23    1.80    44.95603    50.32618   174.25098
   569  C   4.0    0.04    4.15    3.91    45.11441    48.74514   168.87608
   570  O   6.0   -0.24    2.06    1.83    47.76154    48.95790   169.00683
   571  H   1.0    0.11    1.10    1.44    45.29972    53.48407   166.97339
   572  H   1.0    0.06    1.08    1.44    41.87846    50.65254   170.38749
   573  H   1.0    0.06    1.02    1.43    44.59263    47.14499   170.07117
   574  H   1.0    0.04    1.01    1.43    44.48386    48.40630   166.93871
   575  H   1.0    0.15    1.04    1.43    48.28860    50.04931   167.62388
   576  N   5.0   -0.13    3.59    2.15    46.29542    53.99533   172.62184
   577  C   4.0    0.04    4.43    4.43    47.37566    55.09194   174.83810
   578  C   4.0    0.14    3.50    3.11    48.00191    57.79672   174.11503
   579  O   6.0   -0.31    1.36    1.80    48.01170    58.34410   171.87750
   580  C   4.0   -0.03    4.33    4.25    49.70419    53.61999   175.68809
   581  C   4.0   -0.02    4.28    4.16    51.48102    53.04627   173.53927
   582  C   4.0    0.15    3.25    3.04    53.72275    51.63936   174.61508
   583  O   6.0   -0.29    1.20    1.80    55.49525    52.71465   175.62245
   584  N   5.0   -0.19    3.19    1.95    53.56317    49.11337   174.42405
   585  H   1.0    0.10    1.12    1.45    46.47106    55.11900   171.07178
   586  H   1.0    0.05    1.05    1.44    45.99822    55.10468   176.39005
   587  H   1.0    0.06    1.03    1.43    50.67240    54.71057   177.14984
   588  H   1.0    0.06    1.03    1.43    49.03279    51.85341   176.52418
   589  H   1.0    0.06    1.03    1.43    50.52185    51.91876   172.10539
   590  H   1.0    0.06    1.03    1.43    52.13554    54.80949   172.69061
   591  H   1.0    0.09    1.03    1.43    52.15038    48.29152   173.45156
   592  H   1.0    0.09    1.03    1.43    55.00938    48.04873   175.06145
   593  N   5.0   -0.14    3.46    2.05    48.50858    59.48791   175.88698
   594  C   4.0    0.04    4.45    4.46    48.96305    62.10971   175.22684
   595  C   4.0    0.15    3.45    3.09    49.17601    63.67606   177.62858
   596  O   6.0   -0.31    1.32    1.80    47.81873    63.20442   179.43860
   597  C   4.0   -0.03    4.32    4.23    46.75193    63.27169   173.74606
   598  C   4.0   -0.03    4.21    4.02    47.65231    65.59513   172.35613
   599  C   4.0    0.26    3.09    3.02    45.56575    67.16659   170.97595
   600  O   6.0   -0.30    1.17    1.80    43.32946    66.52146   171.15958
   601  O   6.0   -0.31    1.34    1.80    46.47268    69.02539   169.81460
   602  H   1.0    0.12    1.12    1.45    48.39641    59.04961   177.76361
   603  H   1.0    0.05    1.05    1.44    50.69592    62.21060   174.09939
   604  H   1.0    0.07    1.04    1.43    46.02470    61.92929   172.36745
   605  H   1.0    0.05    1.03    1.43    45.21217    63.74992   175.03296
   606  H   1.0    0.06    1.03    1.43    48.54607    66.95414   173.62756
   607  H   1.0    0.06    1.03    1.43    49.01532    65.05014   170.91130
   608  N   5.0   -0.13    3.51    2.08    50.83931    65.56816   177.61553
   609  C   4.0    0.03    4.45    4.46    51.40815    67.21331   179.73570
   610  C   4.0    0.14    3.45    3.10    50.82023    69.92573   178.98700
   611  O   6.0   -0.29    1.27    1.80    51.11835    70.56619   176.78048
   612  C   4.0    0.06    4.25    4.11    54.26326    66.90882   180.28277
   613  O   6.0   -0.24    2.11    1.84    54.86517    64.36964   180.78701
   614  C   4.0   -0.07    4.09    3.78    55.11579    68.69990   182.34892
   615  H   1.0    0.09    1.07    1.44    51.79449    65.96345   176.01353
   616  H   1.0    0.05    1.05    1.44    50.24585    66.63672   181.33750
   617  H   1.0    0.06    1.04    1.44    55.26048    67.33644   178.51127
   618  H   1.0    0.14    1.04    1.43    54.32530    63.93136   182.48847
   619  H   1.0    0.05    1.00    1.43    57.09136    68.33429   182.77624
   620  H   1.0    0.06    1.00    1.43    54.89689    70.64980   181.75186
   621  H   1.0    0.05    1.00    1.43    53.97634    68.37528   184.02827
   622  N   5.0   -0.14    3.46    2.06    50.08674    71.52293   180.78399
   623  C   4.0    0.04    4.36    4.32    49.36537    74.09457   180.17773
   624  C   4.0    0.25    3.14    3.03    50.94261    76.10507   181.74233
   625  O   6.0   -0.29    1.17    1.80    50.02647    78.22234   182.09820
   626  C   4.0   -0.03    4.32    4.23    46.51429    74.52740   180.52940
   627  C   4.0   -0.01    3.57    3.15    44.97850    72.54132   179.23062
   628  C   4.0   -0.03    3.47    3.10    44.01244    72.89724   176.82523
   629  C   4.0   -0.03    3.50    3.11    44.53100    70.23314   180.39450
   630  C   4.0   -0.02    3.39    3.07    42.72168    70.97998   175.59640
   631  C   4.0   -0.04    3.38    3.07    43.24191    68.31109   179.17248
   632  C   4.0   -0.03    3.37    3.07    42.35041    68.66371   176.75117
   633  O   6.0   -0.28    1.18    1.80    53.06705    75.34633   182.50819
   634  H   1.0    0.08    1.06    1.44    49.81358    70.88652   182.56664
   635  H   1.0    0.07    1.07    1.44    49.85993    74.37216   178.18388
   636  H   1.0    0.05    1.03    1.43    46.08518    74.50516   182.55110
   637  H   1.0    0.05    1.03    1.43    46.08833    76.40719   179.80595
   638  H   1.0    0.06    1.03    1.43    44.31971    74.67668   175.86312
   639  H   1.0    0.05    1.03    1.43    45.19016    69.92683   182.30352
   640  H   1.0    0.08    1.03    1.43    42.05301    71.27254   173.68736
   641  H   1.0    0.05    1.03    1.43    42.95352    66.53266   180.13025
   642  H   1.0    0.06    1.03    1.43    41.40082    67.17951   175.72286
   643  N   5.0   -0.21    3.23    1.96    55.80949    27.53959   166.48947
   644  C   4.0    0.03    4.31    4.21    55.10805    29.15327   164.36949
   645  C   4.0    0.14    3.51    3.12    55.09031    27.46956   162.01853
   646  O   6.0   -0.30    1.27    1.80    56.94564    27.29729   160.64272
   647  C   4.0   -0.03    4.33    4.26    57.06563    31.26118   164.02062
   648  C   4.0   -0.02    3.51    3.12    57.41754    33.08870   166.19369
   649  C   4.0   -0.04    3.46    3.10    55.68077    35.00456   166.70426
   650  C   4.0   -0.04    3.46    3.10    59.67303    33.09283   167.54125
   651  C   4.0   -0.04    3.37    3.07    56.26248    36.95543   168.34686
   652  C   4.0   -0.04    3.37    3.07    60.25678    35.04359   169.19725
   653  C   4.0   -0.04    3.36    3.07    58.58014    37.01800   169.56462
   654  H   1.0    0.09    1.02    1.43    57.53292    26.70632   166.36971
   655  H   1.0    0.04    1.05    1.44    53.22743    29.90091   164.78011
   656  H   1.0    0.05    1.04    1.43    58.86453    30.34927   163.59028
   657  H   1.0    0.04    1.03    1.43    56.47604    32.32468   162.35281
   658  H   1.0    0.05    1.03    1.43    53.88105    35.01570   165.74547
   659  H   1.0    0.05    1.03    1.43    61.02386    31.60120   167.21343
   660  H   1.0    0.05    1.03    1.43    54.89924    38.44292   168.64883
   661  H   1.0    0.05    1.03    1.43    62.08942    35.06069   170.09553
   662  H   1.0    0.05    1.03    1.43    59.06219    38.58595   170.77476
   663  N   5.0   -0.10    3.71    2.28    53.05039    26.04717   161.56687
   664  C   4.0    0.04    4.64    4.70    53.33973    23.76880   160.05092
   665  C   4.0    0.15    3.40    3.08    53.29795    24.16770   157.22099
   666  O   6.0   -0.29    1.21    1.80    53.94955    22.49077   155.75577
   667  C   4.0   -0.04    4.36    4.31    51.10338    22.12642   160.85794
   668  C   4.0   -0.04    4.27    4.14    49.07972    24.08003   161.47840
   669  C   4.0   -0.01    4.35    4.29    50.58861    26.18177   162.77478
   670  H   1.0    0.06    1.06    1.44    55.12613    22.84442   160.51475
   671  H   1.0    0.05    1.02    1.43    50.54708    20.79829   159.39157
   672  H   1.0    0.04    1.03    1.43    51.62823    21.07775   162.55094
   673  H   1.0    0.05    1.02    1.43    48.20153    24.78477   159.75124
   674  H   1.0    0.04    1.02    1.43    47.61731    23.32471   162.70649
   675  H   1.0    0.05    1.02    1.43    49.75513    28.04628   162.46943
   676  H   1.0    0.04    1.02    1.43    50.71270    25.81460   164.80091
   677  N   5.0   -0.14    3.56    2.12    52.45989    26.41796   156.47494
   678  C   4.0    0.04    4.35    4.29    51.94513    27.17747   153.90744
   679  C   4.0    0.15    3.34    3.06    54.07240    28.84661   152.71931
   680  O   6.0   -0.30    1.21    1.80    53.67607    30.19030   150.88081
   681  C   4.0   -0.03    4.29    4.18    49.36000    28.51744   153.85003
   682  C   4.0    0.15    3.22    3.04    48.94562    30.56802   155.87031
   683  O   6.0   -0.31    1.25    1.80    49.99668    30.66848   157.94037
   684  N   5.0   -0.19    3.19    1.95    47.21119    32.27531   155.18636
   685  H   1.0    0.11    1.13    1.45    51.95169    27.73036   157.79399
   686  H   1.0    0.06    1.05    1.44    51.85888    25.46150   152.74421
   687  H   1.0    0.05    1.03    1.43    49.11705    29.33532   151.97315
   688  H   1.0    0.04    1.03    1.43    47.87768    27.11058   154.14315
   689  H   1.0    0.10    1.03    1.43    46.68550    33.63250   156.41645
   690  H   1.0    0.08    1.03    1.43    46.34516    32.19481   153.49697
   691  N   5.0   -0.12    3.49    2.07    56.33713    28.64880   153.84889
   692  C   4.0    0.03    4.28    4.17    58.50899    30.19457   153.21140
   693  C   4.0    0.08    3.20    3.04    60.79409    28.49149   152.61413
   694  O   6.0   -0.27    1.13    1.80    60.96892    26.32386   153.39191
   695  C   4.0   -0.05    4.24    4.07    59.21114    31.92730   155.44199
   696  C   4.0   -0.04    4.17    3.93    57.03750    33.61729   156.33061
   697  C   4.0   -0.05    4.13    3.87    56.83250    36.22949   155.07871
   698  C   4.0   -0.04    4.10    3.80    57.84233    38.35705   156.78202
   699  N   5.0   -0.12    4.01    2.90    56.58787    40.79969   156.14288
   700  H   1.0    0.11    1.08    1.44    56.55132    27.53359   155.38699
   701  H   1.0    0.05    1.06    1.44    57.99607    31.29470   151.53723
   702  H   1.0    0.06    1.03    1.43    59.75223    30.68399   156.99777
   703  H   1.0    0.04    1.03    1.43    60.85035    33.05194   154.90312
   704  H   1.0    0.06    1.04    1.43    55.27446    32.58891   156.04133
   705  H   1.0    0.04    1.03    1.43    57.23583    33.86557   158.36480
   706  H   1.0    0.04    1.02    1.43    57.83138    36.21101   153.27836
   707  H   1.0    0.05    1.03    1.43    54.83966    36.58248   154.69085
   708  H   1.0    0.04    1.02    1.43    57.45930    37.92698   158.75975
   709  H   1.0    0.04    1.02    1.43    59.87814    38.58398   156.54524
   710  H   1.0    0.08    1.03    1.43    57.04379    42.27958   157.35341
   711  H   1.0    0.06    1.02    1.43    57.06829    41.36585   154.34402
   712  H   1.0    0.07    1.02    1.43    54.65138    40.58349   156.20060
   713  N   5.0   -0.19    3.30    1.98    28.56763    56.74565   190.52686
   714  C   4.0    0.03    4.25    4.11    31.18500    56.51909   189.87387
   715  C   4.0    0.07    3.25    3.04    32.81673    56.63933   192.21423
   716  O   6.0   -0.28    1.13    1.80    32.27229    57.93472   194.07405
   717  C   4.0   -0.04    4.37    4.33    31.92701    58.81642   188.29189
   718  C   4.0   -0.02    3.59    3.16    29.99685    59.31035   186.24881
   719  C   4.0   -0.05    3.46    3.10    30.16017    58.20484   183.85543
   720  C   4.0   -0.05    3.47    3.10    28.00282    60.94700   186.72990
   721  C   4.0   -0.04    3.45    3.10    28.42413    58.74344   181.98433
   722  C   4.0   -0.05    3.44    3.09    26.28581    61.51359   184.83812
   723  C   4.0    0.07    3.44    3.09    26.45557    60.41841   182.45461
   724  O   6.0   -0.24    2.11    1.84    24.74761    60.90248   180.63040
   725  H   1.0    0.09    1.03    1.43    27.99107    58.48820   191.07454
   726  H   1.0    0.03    1.05    1.44    31.45110    54.74028   188.86020
   727  H   1.0    0.05    1.04    1.43    32.02620    60.46190   189.53543
   728  H   1.0    0.03    1.03    1.43    33.79785    58.51370   187.47634
   729  H   1.0    0.04    1.03    1.43    31.70017    56.92943   183.45439
   730  H   1.0    0.05    1.03    1.43    27.81434    61.85629   188.54618
   731  H   1.0    0.05    1.03    1.43    28.54841    57.85558   180.15396
   732  H   1.0    0.05    1.03    1.43    24.71966    62.77135   185.22957
   733  H   1.0    0.11    1.02    1.43    23.40794    62.05486   181.18577
   734  N   5.0   -0.21    3.21    1.96    47.68465    65.44050   187.59498
   735  C   4.0    0.04    4.25    4.09    49.06225    63.47364   186.24044
   736  C   4.0    0.15    3.37    3.07    47.30973    61.13186   185.91103
   737  O   6.0   -0.31    1.23    1.80    47.12939    59.51725   187.58159
   738  C   4.0    0.04    4.14    3.87    51.51631    62.94489   187.73029
   739  O   6.0   -0.26    2.05    1.83    53.62308    62.78464   186.13542
   740  H   1.0    0.09    1.02    1.43    46.85996    64.91477   189.23244
   741  H   1.0    0.05    1.05    1.44    49.55144    64.20112   184.37077
   742  H   1.0    0.04    1.02    1.43    51.76902    64.49196   189.09197
   743  H   1.0    0.05    1.01    1.43    51.25024    61.19958   188.81529
   744  H   1.0    0.12    1.02    1.43    55.08669    62.35588   187.14093
   745  N   5.0   -0.13    3.47    2.06    45.92290    61.06138   183.78839
   746  C   4.0    0.03    4.44    4.44    44.53074    58.78826   183.07293
   747  C   4.0    0.15    3.47    3.10    46.47047    56.87754   182.12529
   748  O   6.0   -0.31    1.33    1.80    48.20927    57.54800   180.76035
   749  C   4.0   -0.04    4.40    4.38    42.72670    59.28564   180.92060
   750  C   4.0   -0.02    4.19    3.99    40.49795    60.95762   181.66231
   751  C   4.0   -0.08    4.12    3.84    39.37098    62.10275   179.25928
   752  C   4.0   -0.08    4.12    3.84    38.50706    59.42121   183.04018
   753  H   1.0    0.11    1.12    1.45    46.42521    62.19200   182.32080
   754  H   1.0    0.05    1.05    1.44    43.57355    58.06807   184.75796
   755  H   1.0    0.06    1.04    1.43    43.80541    60.20079   179.41441
   756  H   1.0    0.04    1.04    1.43    42.01900    57.48887   180.19382
   757  H   1.0    0.04    1.06    1.44    41.18244    62.50521   182.84458
   758  H   1.0    0.03    1.00    1.43    37.96648    63.51873   179.72240
   759  H   1.0    0.04    1.00    1.43    40.82848    63.02274   178.13602
   760  H   1.0    0.04    1.00    1.43    38.50769    60.63190   178.10907
   761  H   1.0    0.03    1.00    1.43    36.88063    60.58275   183.50532
   762  H   1.0    0.04    1.03    1.43    37.87811    57.87633   181.84972
   763  H   1.0    0.04    1.00    1.43    39.24700    58.64924   184.79708
   764  N   5.0   -0.13    3.50    2.08    46.19153    54.49656   182.90115
   765  C   4.0    0.03    4.50    4.54    48.25795    52.71728   182.83592
   766  C   4.0    0.15    3.54    3.13    47.32200    50.29650   181.67490
   767  O   6.0   -0.31    1.36    1.80    45.08382    49.89529   181.23562
   768  C   4.0   -0.02    4.27    4.14    49.30069    52.14433   185.52100
   769  C   4.0   -0.07    4.09    3.79    50.34075    54.47424   186.88127
   770  C   4.0   -0.06    4.15    3.90    47.27808    50.89035   187.12113
   771  H   1.0    0.08    1.07    1.44    44.72110    54.04728   184.03333
   772  H   1.0    0.06    1.06    1.44    49.74660    53.56080   181.67429
   773  H   1.0    0.04    1.06    1.44    50.86898    50.82126   185.27240
   774  H   1.0    0.04    1.00    1.43    51.18051    53.90300   188.66255
   775  H   1.0    0.05    1.00    1.43    51.79497    55.38923   185.75006
   776  H   1.0    0.07    1.01    1.43    48.87015    55.85185   187.26627
   777  H   1.0    0.04    1.00    1.43    48.07719    50.33246   188.92985
   778  H   1.0    0.05    1.00    1.43    45.72982    52.18862   187.50840
   779  H   1.0    0.06    1.01    1.43    46.52050    49.21499   186.20171
   780  N   5.0   -0.15    3.47    2.06    49.09076    48.56526   181.17235
   781  C   4.0    0.05    4.48    4.51    48.14415    46.19977   180.21945
   782  C   4.0    0.17    3.47    3.10    46.72192    44.81639   182.34514
   783  O   6.0   -0.29    1.22    1.80    47.74184    44.34402   184.36637
   784  C   4.0    0.03    4.15    3.90    50.22089    44.46813   179.23537
   785  O   6.0   -0.25    2.08    1.84    48.96361    42.27667   178.35405
   786  H   1.0    0.08    1.06    1.44    50.92383    48.78318   181.62990
   787  H   1.0    0.06    1.06    1.44    46.82578    46.61352   178.67369
   788  H   1.0    0.04    1.01    1.43    51.25312    45.40437   177.71337
   789  H   1.0    0.05    1.01    1.43    51.52512    43.99085   180.77765
   790  H   1.0    0.12    1.02    1.43    49.98558    41.45386   177.08899
   791  N   5.0   -0.14    3.43    2.04    44.36977    44.10117   181.74521
   792  C   4.0    0.04    4.32    4.24    42.85567    42.49220   183.35441
   793  C   4.0    0.09    3.16    3.03    43.68565    39.68300   183.23240
   794  O   6.0   -0.29    1.12    1.80    42.58497    38.09753   184.50232
   795  C   4.0   -0.04    4.29    4.17    40.01492    42.92505   182.88953
   796  C   4.0   -0.04    4.01    3.64    39.18573    45.66777   183.31842
   797  S   6.0   -0.03    2.47    3.10    39.58761    46.60169   186.66733
   798  C   4.0   -0.07    3.85    3.40    38.38256    49.84267   186.91673
   799  H   1.0    0.08    1.07    1.44    43.68322    44.52856   180.01609
   800  H   1.0    0.06    1.08    1.44    43.27428    43.04786   185.31451
   801  H   1.0    0.04    1.03    1.43    39.58362    42.41927   180.93694
   802  H   1.0    0.05    1.03    1.43    38.93854    41.69740   184.14104
   803  H   1.0    0.06    1.06    1.44    40.28370    46.99214   182.18788
   804  H   1.0    0.04    1.06    1.44    37.18592    45.86143   182.87510
   805  H   1.0    0.04    1.04    1.43    39.08024    50.57091   188.69995
   806  H   1.0    0.06    1.05    1.44    39.11357    50.94879   185.35911
   807  H   1.0    0.04    1.03    1.43    36.33216    49.78544   186.90053
   808  H   1.0    0.09    1.07    1.44    68.33086    42.59716   163.92240
   809  H   1.0    0.05    1.04    1.43    55.42019    53.17437   143.55766
   810  H   1.0    0.10    1.08    1.44    52.94680    58.59394   142.09580
   811  H   1.0    0.05    1.05    1.44    48.88014    62.08769   141.41258
   812  H   1.0    0.09    1.19    1.46    45.86140    70.99020   144.00201
   813  H   1.0    0.07    1.05    1.44    39.68849    74.36335   143.11404
   814  H   1.0    0.09    1.08    1.44    25.32492    65.86203   151.67052
   815  H   1.0    0.05    1.05    1.44    32.39666    50.77160   141.53808
   816  H   1.0    0.08    1.08    1.44    28.69580    42.13240   151.05227
   817  H   1.0    0.05    1.04    1.43    33.77751    30.18472   154.07264
   818  H   1.0    0.11    1.09    1.44    34.23763    30.80069   158.38161
   819  H   1.0    0.07    1.04    1.43    31.84860    32.13276   164.63486
   820  H   1.0    0.10    1.08    1.44    36.42860    32.68478   171.98389
   821  H   1.0    0.05    1.04    1.43    28.77573    69.84284   168.95385
   822  H   1.0    0.09    1.08    1.44    34.38018    74.25266   167.09417
   823  H   1.0    0.05    1.05    1.44    36.81852    74.37295   170.62622
   824  H   1.0    0.08    1.07    1.44    31.21544    69.94732   177.54535
   825  H   1.0    0.05    1.04    1.44    24.52009    67.64895   179.75641
   826  H   1.0    0.09    1.08    1.44    26.50193    71.40339   158.47936
   827  H   1.0    0.09    1.07    1.44    55.82460    28.45766   167.92107
   828  H   1.0    0.05    1.05    1.44    62.21087    29.14983   151.55094
   829  H   1.0    0.09    1.08    1.44    27.60957    56.32981   189.18456
   830  H   1.0    0.05    1.05    1.44    34.41821    55.64000   192.30187
   831  H   1.0    0.09    1.08    1.44    48.74738    66.70791   187.99100
   832  H   1.0    0.06    1.04    1.43    45.12064    39.16940   182.11522

  Z AO/shell   Hii/eV     exponent
  1     Wed Apr 25 08:07:45 CEST 2018   EN: 2.200 GM2: 0.406  GM3: 0.0800  RAES: 1.40
     1s    -10.707211    1.230000
  6     Wed Apr 25 08:07:45 CEST 2018   EN: 2.550 GM2: 0.538  GM3: 0.1500  RAES: 3.00
     2s    -13.970922    2.096432
     2p    -10.063292    1.800000
  7     Wed Apr 25 08:07:45 CEST 2018   EN: 3.040 GM2: 0.461  GM3:-0.0640  RAES: 1.90
     2s    -16.686243    2.339881
     2p    -12.523956    2.014332
  8     Wed Apr 25 08:07:45 CEST 2018   EN: 3.440 GM2: 0.452  GM3:-0.0517  RAES: 1.80
     2s    -20.229985    2.439742
     2p    -15.503117    2.137023
 16     Tue Apr 24 11:44:34 CEST 2018   EN: 2.580 GM2: 0.340  GM3:-0.0502  RAES: 3.10
     3s    -20.029654    1.981333
     3p    -11.377694    2.025643
     3d     -0.420282    1.702555
 no old-style atom pair restraining (fixing) potential

molecular fragmentation (1/2 indicates fragments):
111111111111111111111111111111111111111111111111111111222222222222222222
222222222222222222222222222222222222222222222222222222222222222222222222
222222222222222222222222222222222222222222222222222222222222222222222222
222222222222222222222222222222222222222222222222222222222222222222222222
222222222222222222222222222222222222222222222222222222222222222222222222
222222222222222222222222222222222222222222222222222222222222222222222222
222222222222222222222222222222222222222222222222222222222222222222222222
222222222222222222222222222222222222222222222222222222222222222222222222
222222222222222222222222222222222222222222222222222222222222222222222222
222222222222222222222222222222222222222222222222222222222222222222222222
222222222222222222222222222222222222222222222222222222222222222222222222
2222222222222221122222222222222222222222
# atoms in fragment 1/2:    56   776
 fragment masses (1/2) :      390.50     5399.41
CMA distance (Bohr)    :  22.607
constraining FC (au)   :  0.0500
           ------------------------------------------------- 
          |        Self-Consistent Charge Iterations        |
           ------------------------------------------------- 

 Ncao       : 2071
 Nao        : 2067
 Nshell     : 1241
 Nel        : 2264
 T(el)      :   500.0
 intcut     :    35.0
 scfconv/Eh :  0.100E-06
   qconv/e  :  0.100E-04
 intneglect :  0.100E-08
 broydamp   :      0.400
 iter      E             dE          RMSdq      gap      omega  full diag
   1  -1291.9901390 -0.129199E+04  0.462E+00    2.91       0.0  T
   2  -1294.9938166 -0.300368E+01  0.219E+00    1.23       1.0  T
   3  -1295.1697936 -0.175977E+00  0.121E+00    1.33       1.0  T
   4  -1295.3658218 -0.196028E+00  0.263E-01    0.59       1.0  T
   5  -1295.3770663 -0.112445E-01  0.135E-01    0.75       1.0  T
   6  -1295.3796569 -0.259068E-02  0.621E-02    0.66       1.0  T
   7  -1295.3804635 -0.806592E-03  0.315E-02    0.65       1.0  T
   8  -1295.3806036 -0.140108E-03  0.172E-02    0.63       1.0  T
   9  -1295.3806684 -0.647461E-04  0.856E-03    0.61       1.0  T
  10  -1295.3806826 -0.142252E-04  0.427E-03    0.61       1.0  T
  11  -1295.3806866 -0.402041E-05  0.202E-03    0.61       1.7  T
  12  -1295.3806874 -0.746364E-06  0.995E-04    0.61       3.5  T
  13  -1295.3806876 -0.245203E-06  0.490E-04    0.61       7.1  T
  14  -1295.3806877 -0.455686E-07  0.227E-04    0.61      15.2  T
  15  -1295.3806877 -0.113337E-07  0.121E-04    0.61      28.6  T
  16  -1295.3806877 -0.294699E-08  0.618E-05    0.61      56.1  T
  17  -1295.3806877 -0.779892E-09  0.304E-05    0.61     114.0  T
speedup  2.00
cpu  time for SCC    1 m  2.0 s
wall time for SCC    0 m 31.0 s

   *** convergence criteria satisfied after 17 iterations ***

          eigenvalues
 #    :        1120       1121       1122       1123       1124       1125       1126       1127
 occ. :        2.000      2.000      2.000      2.000      2.000      2.000      2.000      2.000
 eps  :       -10.022    -10.013     -9.972     -9.931     -9.907     -9.899     -9.877     -9.818
 #    :        1128       1129       1130       1131       1132       1133       1134       1135
 occ. :        2.000      2.000      2.000      2.000      1.998      0.002      0.000      0.000
 eps  :        -9.740     -9.695     -9.604     -9.525     -9.475     -8.870     -8.192     -8.077
 #    :        1136       1137       1138       1139       1140       1141       1142       1143
 occ. :        0.000      0.000      0.000      0.000      0.000      0.000      0.000      0.000
 eps  :        -7.990     -7.926     -7.874     -7.789     -7.746     -7.650     -7.622     -7.610


   #   Z            q   n(s)   n(p)   n(d)      C6AA      α(0)
   1   7 N     -0.390  1.317  4.073  0.000    30.091     8.147
   2   6 C      0.029  1.059  2.912  0.000    20.090     6.383
   3   6 C      0.274  1.042  2.684  0.000    22.361     7.744
   4   8 O     -0.509  1.755  4.754  0.000    23.988     6.567
   5   6 C     -0.063  1.050  3.013  0.000    21.675     6.622
   6   6 C     -0.003  1.062  2.941  0.000    20.627     6.467
   7  16 S     -0.212  1.908  4.257  0.047   150.095    20.620
   8   6 C     -0.071  1.062  3.009  0.000    21.942     6.682
   9   1 H      0.149  0.851  0.000  0.000     1.405     1.857
  10   1 H      0.053  0.947  0.000  0.000     2.289     2.366
  11   1 H      0.030  0.970  0.000  0.000     2.590     2.517
  12   1 H      0.059  0.941  0.000  0.000     2.211     2.325
  13   1 H      0.040  0.960  0.000  0.000     2.450     2.448
  14   1 H      0.028  0.972  0.000  0.000     2.621     2.532
  15   1 H      0.076  0.924  0.000  0.000     2.019     2.222
  16   1 H      0.047  0.953  0.000  0.000     2.355     2.400
  17   1 H      0.082  0.918  0.000  0.000     1.958     2.188
  18   7 N     -0.171  1.242  3.928  0.000    24.690     7.380
  19   6 C      0.014  1.058  2.928  0.000    20.334     6.419
  20   6 C      0.285  1.041  2.673  0.000    22.169     7.711
  21   8 O     -0.472  1.738  4.734  0.000    23.172     6.454
  22   6 C     -0.037  1.069  2.968  0.000    21.185     6.544
  23   6 C     -0.070  1.050  3.020  0.000    21.844     6.654
  24   6 C     -0.156  1.045  3.111  0.000    23.580     6.923
  25   6 C     -0.119  1.039  3.079  0.000    22.829     6.813
  26   1 H      0.214  0.786  0.000  0.000     1.035     1.594
  27   1 H      0.072  0.928  0.000  0.000     2.064     2.247
  28   1 H      0.060  0.940  0.000  0.000     2.204     2.322
  29   1 H      0.065  0.935  0.000  0.000     2.146     2.291
  30   1 H      0.041  0.959  0.000  0.000     2.431     2.438
  31   1 H      0.062  0.938  0.000  0.000     2.176     2.307
  32   1 H      0.055  0.945  0.000  0.000     2.261     2.352
  33   1 H      0.090  0.910  0.000  0.000     1.881     2.145
  34   1 H      0.047  0.953  0.000  0.000     2.358     2.402
  35   1 H      0.030  0.970  0.000  0.000     2.587     2.515
  36   1 H      0.045  0.955  0.000  0.000     2.389     2.417
  37   7 N     -0.177  1.243  3.934  0.000    24.825     7.400
  38   6 C     -0.039  1.055  2.985  0.000    21.342     6.588
  39   6 C      0.269  1.043  2.688  0.000    22.455     7.759
  40   8 O     -0.442  1.731  4.711  0.000    22.541     6.365
  41   1 H      0.206  0.794  0.000  0.000     1.076     1.625
  42   1 H      0.096  0.904  0.000  0.000     1.823     2.112
  43   1 H      0.077  0.923  0.000  0.000     2.014     2.219
  44   7 N     -0.186  1.241  3.945  0.000    25.035     7.431
  45   6 C      0.014  1.068  2.918  0.000    20.354     6.427
  46   6 C      0.185  1.093  2.722  0.000    24.038     8.030
  47   8 O     -0.340  1.754  4.586  0.000    20.518     6.073
  48   6 C      0.070  1.040  2.889  0.000    19.636     6.351
  49   8 O     -0.481  1.722  4.759  0.000    22.482     6.401
  50   1 H      0.214  0.786  0.000  0.000     1.035     1.594
  51   1 H      0.109  0.891  0.000  0.000     1.703     2.041
  52   1 H      0.078  0.922  0.000  0.000     1.998     2.210
  53   1 H      0.048  0.952  0.000  0.000     2.340     2.392
  54   1 H      0.359  0.641  0.000  0.000     0.567     1.183
  55   7 N     -0.350  1.319  4.030  0.000    29.005     7.999
  56   6 C      0.008  1.068  2.924  0.000    20.468     6.446
  57   6 C      0.191  1.087  2.722  0.000    23.919     8.009
  58   8 O     -0.380  1.765  4.614  0.000    21.278     6.185
  59   6 C      0.074  1.038  2.888  0.000    19.568     6.340
  60   8 O     -0.476  1.732  4.744  0.000    22.382     6.386
  61   1 H      0.185  0.815  0.000  0.000     1.185     1.705
  62   1 H      0.065  0.935  0.000  0.000     2.141     2.288
  63   1 H      0.041  0.959  0.000  0.000     2.433     2.439
  64   1 H      0.057  0.943  0.000  0.000     2.238     2.340
  65   1 H      0.341  0.659  0.000  0.000     0.610     1.227
  66   7 N     -0.308  1.362  3.946  0.000    27.916     7.847
  67   6 C      0.049  1.049  2.902  0.000    19.739     6.322
  68   6 C      0.208  1.081  2.710  0.000    23.583     7.954
  69   8 O     -0.374  1.748  4.626  0.000    21.166     6.168
  70   6 C     -0.048  1.053  2.995  0.000    21.402     6.581
  71   6 C     -0.065  1.052  3.013  0.000    21.715     6.630
  72   6 C      0.003  1.052  2.945  0.000    20.547     6.458
  73   1 H      0.019  0.981  0.000  0.000     2.754     2.595
  74   1 H      0.056  0.944  0.000  0.000     2.249     2.345
  75   1 H      0.026  0.974  0.000  0.000     2.640     2.541
  76   1 H      0.058  0.942  0.000  0.000     2.225     2.332
  77   1 H      0.034  0.966  0.000  0.000     2.528     2.486
  78   1 H      0.057  0.943  0.000  0.000     2.230     2.335
  79   1 H      0.040  0.960  0.000  0.000     2.446     2.446
  80   7 N     -0.403  1.331  4.072  0.000    30.451     8.196
  81   6 C      0.035  1.062  2.903  0.000    19.993     6.368
  82   6 C      0.277  1.053  2.670  0.000    22.315     7.736
  83   8 O     -0.495  1.741  4.754  0.000    23.665     6.522
  84   6 C     -0.018  1.062  2.956  0.000    20.854     6.495
  85   6 C     -0.109  1.039  3.070  0.000    22.639     6.784
  86   6 C     -0.111  1.039  3.073  0.000    22.689     6.792
  87   1 H      0.159  0.841  0.000  0.000     1.340     1.813
  88   1 H      0.031  0.969  0.000  0.000     2.568     2.506
  89   1 H      0.041  0.959  0.000  0.000     2.442     2.444
  90   1 H      0.062  0.938  0.000  0.000     2.172     2.305
  91   1 H      0.026  0.974  0.000  0.000     2.643     2.543
  92   1 H      0.024  0.976  0.000  0.000     2.668     2.554
  93   1 H      0.059  0.941  0.000  0.000     2.211     2.325
  94   1 H      0.033  0.967  0.000  0.000     2.538     2.491
  95   1 H      0.041  0.959  0.000  0.000     2.442     2.444
  96   7 N     -0.185  1.248  3.937  0.000    25.014     7.428
  97   6 C      0.026  1.063  2.911  0.000    20.152     6.394
  98   6 C      0.277  1.047  2.676  0.000    22.319     7.736
  99   8 O     -0.504  1.744  4.760  0.000    23.873     6.551
 100   6 C     -0.044  1.050  2.994  0.000    21.368     6.581
 101   6 C     -0.084  1.064  3.020  0.000    22.101     6.695
 102   6 C      0.367  1.030  2.604  0.000    20.780     7.460
 103   8 O     -0.639  1.768  4.871  0.000    27.105     6.980
 104   8 O     -0.643  1.775  4.868  0.000    27.202     6.993
 105   1 H      0.209  0.791  0.000  0.000     1.060     1.612
 106   1 H      0.069  0.931  0.000  0.000     2.091     2.262
 107   1 H      0.023  0.977  0.000  0.000     2.695     2.567
 108   1 H      0.053  0.947  0.000  0.000     2.288     2.365
 109   1 H      0.017  0.983  0.000  0.000     2.778     2.606
 110   1 H      0.010  0.990  0.000  0.000     2.891     2.659
 111   7 N     -0.175  1.253  3.922  0.000    24.790     7.395
 112   6 C      0.016  1.065  2.919  0.000    20.308     6.416
 113   6 C      0.286  1.035  2.679  0.000    22.158     7.709
 114   8 O     -0.500  1.749  4.751  0.000    23.777     6.538
 115   6 C     -0.090  1.056  3.033  0.000    22.202     6.708
 116   6 C     -0.083  1.048  3.034  0.000    22.074     6.689
 117   6 C     -0.027  1.049  2.978  0.000    21.146     6.562
 118   7 N     -0.134  1.205  3.929  0.000    23.905     7.261
 119   6 C      0.225  1.023  2.752  0.000    23.262     7.897
 120   7 N     -0.215  1.215  4.000  0.000    25.691     7.528
 121   7 N     -0.237  1.220  4.017  0.000    26.207     7.603
 122   1 H      0.219  0.781  0.000  0.000     1.014     1.577
 123   1 H      0.066  0.934  0.000  0.000     2.131     2.283
 124   1 H      0.092  0.908  0.000  0.000     1.863     2.135
 125   1 H      0.075  0.925  0.000  0.000     2.030     2.228
 126   1 H      0.063  0.937  0.000  0.000     2.159     2.298
 127   1 H      0.049  0.951  0.000  0.000     2.334     2.389
 128   1 H      0.070  0.930  0.000  0.000     2.089     2.260
 129   1 H      0.113  0.887  0.000  0.000     1.675     2.024
 130   1 H      0.230  0.770  0.000  0.000     0.963     1.537
 131   1 H      0.217  0.783  0.000  0.000     1.024     1.585
[...]
 546   1 H      0.213  0.787  0.000  0.000     1.041     1.599
 547   1 H      0.078  0.922  0.000  0.000     1.997     2.210
 548   1 H      0.064  0.936  0.000  0.000     2.155     2.296
 549   1 H      0.063  0.937  0.000  0.000     2.164     2.301
 550   1 H      0.023  0.977  0.000  0.000     2.682     2.561
 551   1 H      0.033  0.967  0.000  0.000     2.547     2.496
 552   1 H      0.039  0.961  0.000  0.000     2.460     2.453
 553   1 H      0.077  0.923  0.000  0.000     2.008     2.216
 554   1 H      0.325  0.675  0.000  0.000     0.650     1.266
 555   7 N     -0.174  1.246  3.928  0.000    24.761     7.390
 556   6 C      0.035  1.050  2.914  0.000    19.983     6.365
 557   6 C      0.275  1.037  2.688  0.000    22.351     7.744
 558   8 O     -0.495  1.732  4.764  0.000    23.677     6.524
 559   6 C     -0.105  1.037  3.068  0.000    22.551     6.768
 560   1 H      0.222  0.778  0.000  0.000     1.000     1.566
 561   1 H      0.069  0.931  0.000  0.000     2.099     2.266
 562   1 H      0.060  0.940  0.000  0.000     2.195     2.317
 563   1 H      0.047  0.953  0.000  0.000     2.355     2.400
 564   1 H      0.046  0.954  0.000  0.000     2.371     2.408
 565   7 N     -0.196  1.258  3.938  0.000    25.253     7.463
 566   6 C      0.015  1.062  2.923  0.000    20.322     6.418
 567   6 C      0.280  1.039  2.681  0.000    22.252     7.724
 568   8 O     -0.471  1.733  4.737  0.000    23.143     6.450
 569   6 C      0.079  1.034  2.886  0.000    19.469     6.320
 570   8 O     -0.465  1.711  4.755  0.000    22.160     6.355
 571   1 H      0.231  0.769  0.000  0.000     0.962     1.536
 572   1 H      0.075  0.925  0.000  0.000     2.030     2.228
 573   1 H      0.069  0.931  0.000  0.000     2.095     2.264
 574   1 H      0.046  0.954  0.000  0.000     2.370     2.407
 575   1 H      0.325  0.675  0.000  0.000     0.652     1.268
 576   7 N     -0.172  1.229  3.944  0.000    24.731     7.386
 577   6 C      0.036  1.049  2.915  0.000    19.970     6.363
 578   6 C      0.272  1.037  2.690  0.000    22.397     7.751
 579   8 O     -0.493  1.738  4.756  0.000    23.638     6.519
 580   6 C     -0.057  1.047  3.011  0.000    21.595     6.614
 581   6 C     -0.095  1.050  3.045  0.000    22.308     6.723
 582   6 C      0.291  1.035  2.674  0.000    22.070     7.693
 583   8 O     -0.492  1.750  4.742  0.000    23.616     6.516
 584   7 N     -0.287  1.265  4.022  0.000    27.419     7.777
 585   1 H      0.206  0.794  0.000  0.000     1.075     1.624
 586   1 H      0.048  0.952  0.000  0.000     2.343     2.394
 587   1 H      0.056  0.944  0.000  0.000     2.241     2.341
 588   1 H      0.062  0.938  0.000  0.000     2.180     2.309
 589   1 H      0.066  0.934  0.000  0.000     2.135     2.285
 590   1 H      0.060  0.940  0.000  0.000     2.200     2.320
 591   1 H      0.225  0.775  0.000  0.000     0.987     1.556
 592   1 H      0.238  0.762  0.000  0.000     0.930     1.511
 593   7 N     -0.182  1.248  3.934  0.000    24.937     7.417
 594   6 C      0.034  1.060  2.907  0.000    20.006     6.368
 595   6 C      0.277  1.040  2.683  0.000    22.313     7.736
 596   8 O     -0.477  1.723  4.754  0.000    23.282     6.469
 597   6 C     -0.040  1.042  2.998  0.000    21.278     6.566
 598   6 C     -0.093  1.064  3.029  0.000    22.277     6.720
 599   6 C      0.372  1.022  2.606  0.000    20.698     7.445
 600   8 O     -0.604  1.767  4.837  0.000    26.208     6.864
 601   8 O     -0.606  1.756  4.850  0.000    26.264     6.871
 602   1 H      0.234  0.766  0.000  0.000     0.946     1.524
 603   1 H      0.056  0.944  0.000  0.000     2.247     2.344
 604   1 H      0.056  0.944  0.000  0.000     2.249     2.345
 605   1 H      0.023  0.977  0.000  0.000     2.691     2.566
 606   1 H      0.018  0.982  0.000  0.000     2.759     2.598
 607   1 H      0.030  0.970  0.000  0.000     2.580     2.512
 608   7 N     -0.162  1.238  3.924  0.000    24.505     7.352
 609   6 C      0.015  1.066  2.919  0.000    20.336     6.422
 610   6 C      0.274  1.039  2.688  0.000    22.374     7.746
 611   8 O     -0.505  1.747  4.758  0.000    23.903     6.555
 612   6 C      0.115  1.046  2.839  0.000    18.783     6.186
 613   8 O     -0.464  1.714  4.750  0.000    22.138     6.352
 614   6 C     -0.138  1.043  3.095  0.000    23.217     6.871
 615   1 H      0.206  0.794  0.000  0.000     1.075     1.624
 616   1 H      0.061  0.939  0.000  0.000     2.185     2.311
 617   1 H      0.052  0.948  0.000  0.000     2.291     2.367
 618   1 H      0.331  0.669  0.000  0.000     0.634     1.251
 619   1 H      0.084  0.916  0.000  0.000     1.940     2.178
 620   1 H      0.051  0.949  0.000  0.000     2.303     2.373
 621   1 H      0.050  0.950  0.000  0.000     2.324     2.384
 622   7 N     -0.162  1.246  3.915  0.000    24.498     7.351
 623   6 C      0.016  1.076  2.908  0.000    20.315     6.419
 624   6 C      0.364  1.027  2.608  0.000    20.818     7.467
 625   8 O     -0.611  1.766  4.845  0.000    26.392     6.888
 626   6 C     -0.063  1.051  3.012  0.000    21.702     6.631
 627   6 C      0.013  1.082  2.905  0.000    27.714     8.635
 628   6 C     -0.036  1.079  2.957  0.000    28.904     8.817
 629   6 C     -0.047  1.080  2.967  0.000    29.173     8.858
 630   6 C     -0.022  1.080  2.942  0.000    28.556     8.763
 631   6 C     -0.035  1.078  2.957  0.000    28.869     8.811
 632   6 C     -0.029  1.075  2.954  0.000    28.722     8.789
 633   8 O     -0.635  1.772  4.863  0.000    26.998     6.966
 634   1 H      0.192  0.808  0.000  0.000     1.150     1.680
 635   1 H      0.042  0.958  0.000  0.000     2.425     2.435
 636   1 H      0.040  0.960  0.000  0.000     2.443     2.445
 637   1 H      0.049  0.951  0.000  0.000     2.330     2.387
 638   1 H      0.020  0.980  0.000  0.000     2.734     2.586
 639   1 H      0.034  0.966  0.000  0.000     2.525     2.485
 640   1 H      0.018  0.982  0.000  0.000     2.771     2.603
 641   1 H      0.041  0.959  0.000  0.000     2.430     2.438
 642   1 H      0.027  0.973  0.000  0.000     2.627     2.535
 643   7 N     -0.389  1.319  4.070  0.000    30.076     8.145
 644   6 C      0.033  1.060  2.907  0.000    20.029     6.375
 645   6 C      0.262  1.050  2.688  0.000    22.582     7.783
 646   8 O     -0.505  1.750  4.755  0.000    23.895     6.554
 647   6 C     -0.074  1.054  3.020  0.000    21.911     6.663
 648   6 C      0.011  1.086  2.903  0.000    27.764     8.643
 649   6 C     -0.044  1.082  2.962  0.000    29.101     8.847
 650   6 C     -0.040  1.082  2.958  0.000    28.998     8.831
 651   6 C     -0.032  1.080  2.952  0.000    28.792     8.799
 652   6 C     -0.033  1.081  2.952  0.000    28.821     8.804
 653   6 C     -0.033  1.077  2.956  0.000    28.830     8.805
 654   1 H      0.149  0.851  0.000  0.000     1.409     1.860
 655   1 H      0.050  0.950  0.000  0.000     2.317     2.380
 656   1 H      0.052  0.948  0.000  0.000     2.289     2.366
 657   1 H      0.057  0.943  0.000  0.000     2.240     2.341
 658   1 H      0.048  0.952  0.000  0.000     2.345     2.395
 659   1 H      0.028  0.972  0.000  0.000     2.619     2.531
 660   1 H      0.029  0.971  0.000  0.000     2.599     2.521
 661   1 H      0.023  0.977  0.000  0.000     2.686     2.563
 662   1 H      0.021  0.979  0.000  0.000     2.720     2.579
 663   7 N     -0.093  1.234  3.859  0.000    23.046     7.130
 664   6 C      0.022  1.060  2.917  0.000    20.169     6.389
 665   6 C      0.279  1.036  2.685  0.000    22.281     7.729
 666   8 O     -0.520  1.759  4.761  0.000    24.237     6.601
 667   6 C     -0.068  1.053  3.015  0.000    21.774     6.639
 668   6 C     -0.076  1.053  3.023  0.000    21.919     6.661
 669   6 C     -0.019  1.055  2.964  0.000    20.946     6.523
 670   1 H      0.060  0.940  0.000  0.000     2.200     2.319
 671   1 H      0.061  0.939  0.000  0.000     2.190     2.314
 672   1 H      0.061  0.939  0.000  0.000     2.192     2.315
 673   1 H      0.064  0.936  0.000  0.000     2.152     2.294
 674   1 H      0.072  0.928  0.000  0.000     2.064     2.247
 675   1 H      0.079  0.921  0.000  0.000     1.991     2.207
 676   1 H      0.070  0.930  0.000  0.000     2.090     2.261
 677   7 N     -0.187  1.242  3.945  0.000    25.059     7.435
 678   6 C      0.020  1.062  2.918  0.000    20.247     6.409
 679   6 C      0.266  1.048  2.687  0.000    22.514     7.769
 680   8 O     -0.467  1.740  4.728  0.000    23.070     6.440
 681   6 C     -0.118  1.065  3.054  0.000    22.752     6.790
 682   6 C      0.282  1.040  2.678  0.000    22.232     7.720
 683   8 O     -0.485  1.750  4.735  0.000    23.448     6.492
 684   7 N     -0.267  1.259  4.008  0.000    26.927     7.707
 685   1 H      0.233  0.767  0.000  0.000     0.952     1.529
 686   1 H      0.079  0.921  0.000  0.000     1.994     2.209
 687   1 H      0.104  0.896  0.000  0.000     1.753     2.070
 688   1 H      0.094  0.906  0.000  0.000     1.844     2.123
 689   1 H      0.235  0.765  0.000  0.000     0.945     1.523
 690   1 H      0.239  0.761  0.000  0.000     0.927     1.508
 691   7 N     -0.155  1.230  3.925  0.000    24.346     7.328
 692   6 C      0.018  1.065  2.918  0.000    20.293     6.416
 693   6 C      0.197  1.087  2.716  0.000    23.801     7.990
 694   8 O     -0.376  1.767  4.610  0.000    21.217     6.176
 695   6 C     -0.079  1.059  3.020  0.000    22.003     6.678
 696   6 C     -0.071  1.049  3.022  0.000    21.856     6.656
 697   6 C     -0.099  1.058  3.041  0.000    22.398     6.738
 698   6 C     -0.051  1.065  2.986  0.000    21.589     6.633
 699   7 N     -0.134  1.225  3.910  0.000    23.901     7.261
 700   1 H      0.192  0.808  0.000  0.000     1.145     1.676
 701   1 H      0.112  0.888  0.000  0.000     1.680     2.027
 702   1 H      0.058  0.942  0.000  0.000     2.218     2.329
 703   1 H      0.084  0.916  0.000  0.000     1.935     2.175
 704   1 H      0.053  0.947  0.000  0.000     2.277     2.360
 705   1 H      0.064  0.936  0.000  0.000     2.157     2.297
 706   1 H      0.092  0.908  0.000  0.000     1.856     2.131
 707   1 H      0.087  0.913  0.000  0.000     1.907     2.159
 708   1 H      0.110  0.890  0.000  0.000     1.699     2.039
 709   1 H      0.123  0.877  0.000  0.000     1.593     1.974
 710   1 H      0.284  0.716  0.000  0.000     0.762     1.368
 711   1 H      0.294  0.706  0.000  0.000     0.732     1.340
 712   1 H      0.279  0.721  0.000  0.000     0.780     1.384
 713   7 N     -0.378  1.310  4.069  0.000    29.773     8.104
 714   6 C      0.046  1.049  2.904  0.000    19.812     6.340
 715   6 C      0.198  1.085  2.717  0.000    23.780     7.987
 716   8 O     -0.382  1.763  4.619  0.000    21.321     6.191
 717   6 C     -0.067  1.054  3.013  0.000    21.769     6.639
 718   6 C      0.001  1.078  2.921  0.000    27.991     8.678
 719   6 C     -0.042  1.083  2.959  0.000    29.054     8.839
 720   6 C     -0.039  1.082  2.957  0.000    28.963     8.825
 721   6 C     -0.058  1.072  2.985  0.000    29.440     8.898
 722   6 C     -0.078  1.079  2.999  0.000    29.939     8.973
 723   6 C      0.148  1.041  2.811  0.000    24.780     8.158
 724   8 O     -0.422  1.713  4.709  0.000    21.280     6.227
 725   1 H      0.163  0.837  0.000  0.000     1.314     1.796
 726   1 H      0.061  0.939  0.000  0.000     2.191     2.315
 727   1 H      0.048  0.952  0.000  0.000     2.351     2.398
 728   1 H      0.049  0.951  0.000  0.000     2.338     2.391
 729   1 H      0.051  0.949  0.000  0.000     2.306     2.375
 730   1 H      0.041  0.959  0.000  0.000     2.434     2.440
 731   1 H      0.049  0.951  0.000  0.000     2.326     2.385
 732   1 H      0.036  0.964  0.000  0.000     2.502     2.474
 733   1 H      0.340  0.660  0.000  0.000     0.612     1.229
 734   7 N     -0.398  1.325  4.073  0.000    30.306     8.176
 735   6 C      0.026  1.066  2.908  0.000    20.161     6.397
 736   6 C      0.269  1.053  2.679  0.000    22.462     7.761
 737   8 O     -0.490  1.743  4.748  0.000    23.571     6.509
 738   6 C      0.077  1.040  2.883  0.000    19.513     6.329
 739   8 O     -0.494  1.722  4.772  0.000    22.769     6.442
 740   1 H      0.168  0.832  0.000  0.000     1.285     1.776
 741   1 H      0.042  0.958  0.000  0.000     2.428     2.437
 742   1 H      0.028  0.972  0.000  0.000     2.613     2.528
 743   1 H      0.037  0.963  0.000  0.000     2.488     2.467
 744   1 H      0.356  0.644  0.000  0.000     0.573     1.189
 745   7 N     -0.181  1.266  3.915  0.000    24.921     7.414
 746   6 C      0.028  1.057  2.915  0.000    20.104     6.384
 747   6 C      0.274  1.044  2.682  0.000    22.369     7.746
 748   8 O     -0.487  1.738  4.749  0.000    23.498     6.499
 749   6 C     -0.067  1.053  3.014  0.000    21.776     6.641
 750   6 C     -0.012  1.054  2.957  0.000    20.746     6.478
 751   6 C     -0.105  1.039  3.066  0.000    22.561     6.772
 752   6 C     -0.127  1.039  3.087  0.000    22.982     6.835
 753   1 H      0.231  0.769  0.000  0.000     0.960     1.535
 754   1 H      0.070  0.930  0.000  0.000     2.082     2.256
 755   1 H      0.043  0.957  0.000  0.000     2.403     2.424
 756   1 H      0.045  0.955  0.000  0.000     2.379     2.412
 757   1 H      0.036  0.964  0.000  0.000     2.500     2.473
 758   1 H      0.050  0.950  0.000  0.000     2.325     2.385
 759   1 H      0.018  0.982  0.000  0.000     2.771     2.603
 760   1 H      0.034  0.966  0.000  0.000     2.528     2.486
 761   1 H      0.057  0.943  0.000  0.000     2.236     2.338
 762   1 H      0.053  0.947  0.000  0.000     2.284     2.363
 763   1 H      0.040  0.960  0.000  0.000     2.454     2.450
 764   7 N     -0.160  1.239  3.922  0.000    24.469     7.347
 765   6 C      0.012  1.061  2.927  0.000    20.368     6.425
 766   6 C      0.274  1.038  2.688  0.000    22.369     7.747
 767   8 O     -0.473  1.732  4.740  0.000    23.188     6.456
 768   6 C     -0.021  1.066  2.954  0.000    20.905     6.503
 769   6 C     -0.120  1.038  3.081  0.000    22.849     6.816
 770   6 C     -0.116  1.036  3.080  0.000    22.774     6.804
 771   1 H      0.212  0.788  0.000  0.000     1.048     1.604
 772   1 H      0.078  0.922  0.000  0.000     2.000     2.211
 773   1 H      0.053  0.947  0.000  0.000     2.285     2.364
 774   1 H      0.061  0.939  0.000  0.000     2.189     2.314
 775   1 H      0.034  0.966  0.000  0.000     2.526     2.485
 776   1 H      0.055  0.945  0.000  0.000     2.255     2.349
 777   1 H      0.063  0.937  0.000  0.000     2.168     2.303
 778   1 H      0.046  0.954  0.000  0.000     2.369     2.407
 779   1 H      0.043  0.957  0.000  0.000     2.403     2.424
 780   7 N     -0.174  1.240  3.934  0.000    24.771     7.392
 781   6 C      0.019  1.061  2.920  0.000    20.243     6.403
 782   6 C      0.282  1.039  2.679  0.000    22.229     7.721
 783   8 O     -0.477  1.746  4.732  0.000    23.289     6.470
 784   6 C      0.068  1.040  2.892  0.000    19.641     6.348
 785   8 O     -0.490  1.728  4.762  0.000    22.674     6.428
 786   1 H      0.214  0.786  0.000  0.000     1.038     1.596
 787   1 H      0.080  0.920  0.000  0.000     1.977     2.199
 788   1 H      0.053  0.947  0.000  0.000     2.280     2.361
 789   1 H      0.056  0.944  0.000  0.000     2.252     2.347
 790   1 H      0.362  0.638  0.000  0.000     0.560     1.175
 791   7 N     -0.162  1.239  3.923  0.000    24.501     7.352
 792   6 C      0.023  1.061  2.916  0.000    20.200     6.401
 793   6 C      0.200  1.089  2.711  0.000    23.737     7.979
 794   8 O     -0.356  1.753  4.602  0.000    20.813     6.117
 795   6 C     -0.069  1.054  3.015  0.000    21.799     6.644
 796   6 C     -0.016  1.069  2.947  0.000    20.866     6.506
 797  16 S     -0.243  1.922  4.271  0.050   151.477    20.715
 798   6 C     -0.068  1.057  3.010  0.000    21.873     6.672
 799   1 H      0.210  0.790  0.000  0.000     1.055     1.609
 800   1 H      0.115  0.885  0.000  0.000     1.650     2.009
 801   1 H      0.064  0.936  0.000  0.000     2.155     2.296
 802   1 H      0.090  0.910  0.000  0.000     1.880     2.144
 803   1 H      0.058  0.942  0.000  0.000     2.226     2.333
 804   1 H      0.062  0.938  0.000  0.000     2.173     2.305
 805   1 H      0.063  0.937  0.000  0.000     2.168     2.302
 806   1 H      0.078  0.922  0.000  0.000     1.999     2.211
 807   1 H      0.056  0.944  0.000  0.000     2.252     2.347
 808   1 H      0.182  0.818  0.000  0.000     1.203     1.718
 809   1 H      0.101  0.899  0.000  0.000     1.774     2.083
 810   1 H      0.180  0.820  0.000  0.000     1.216     1.727
 811   1 H      0.065  0.935  0.000  0.000     2.140     2.287
 812   1 H      0.197  0.803  0.000  0.000     1.118     1.656
 813   1 H      0.045  0.955  0.000  0.000     2.379     2.412
 814   1 H      0.186  0.814  0.000  0.000     1.180     1.702
 815   1 H      0.078  0.922  0.000  0.000     2.001     2.212
 816   1 H      0.180  0.820  0.000  0.000     1.213     1.725
 817   1 H      0.077  0.923  0.000  0.000     2.004     2.214
 818   1 H      0.203  0.797  0.000  0.000     1.091     1.636
 819   1 H      0.058  0.942  0.000  0.000     2.226     2.333
 820   1 H      0.183  0.817  0.000  0.000     1.199     1.715
 821   1 H      0.101  0.899  0.000  0.000     1.776     2.084
 822   1 H      0.187  0.813  0.000  0.000     1.176     1.698
 823   1 H      0.067  0.933  0.000  0.000     2.113     2.273
 824   1 H      0.168  0.832  0.000  0.000     1.284     1.775
 825   1 H      0.068  0.932  0.000  0.000     2.112     2.272
 826   1 H      0.187  0.813  0.000  0.000     1.173     1.696
 827   1 H      0.182  0.818  0.000  0.000     1.203     1.718
 828   1 H      0.087  0.913  0.000  0.000     1.906     2.159
 829   1 H      0.182  0.818  0.000  0.000     1.201     1.717
 830   1 H      0.066  0.934  0.000  0.000     2.130     2.282
 831   1 H      0.183  0.817  0.000  0.000     1.197     1.714
 832   1 H      0.084  0.916  0.000  0.000     1.937     2.176

 Mol. C6AA /au·bohr⁶  :    6628495.944911
 Mol. C8AA /au·bohr⁸  :  150609601.350517
 Mol. α(0) /au        :       3877.680113

 
molecular dipole:
                 x           y           z       tot (Debye)
 q only:      -20.286     -99.032    -195.922
   full:      -23.190     -94.250    -192.490     547.953
molecular quadrupole (traceless):
                xx          xy          yy          xz          yz          zz
 q only:    23498.517   -4427.640   10191.304   -7498.908  -26604.028  -33689.821
  q+dip:    22482.526   -4386.885   10238.167   -7872.792  -25142.115  -32720.693
   full:    22488.798   -4383.157   10236.392   -7873.766  -25139.370  -32725.189
speedup  2.00
cpu  time for grad    1 m 11.1 s
wall time for grad    0 m 35.6 s

SCC energy    :   -1295.4153261
rep           :      15.8717934
ES            :       3.6577866
AES           :      -0.1303480
AXC           :       0.4295346
disp          :      -1.1365750
XB            :       0.0000000
fix           :       0.0000000
Gborn         :       0.0000000
Gsasa         :       0.0000000
Ghb           :       0.0000000
Gshift        :       0.0000000
Gsolv         :      -0.8409636     -527.71
Etot ala COSMO:   -1295.4153261
grad norm     :       0.8092235
total E       :   -1279.4241771
atomizationE  :     235.3377157   147676.65
(atE without considering molecular charge,
 total energy contains solvation terms)
H-L gap (eV)  :          0.6055

------------------------------------------------------------------------
 * finished run on 2019/05/07 at 23:36:53.477     
------------------------------------------------------------------------
 total:
 * wall-time:     0 d,  0 h,  0 min, 37.818 sec
 *  cpu-time:     0 d,  0 h,  1 min, 14.629 sec
 * ratio c/w:     1.973 speedup
 SCF:
 * wall-time:     0 d,  0 h,  0 min, 36.859 sec
 *  cpu-time:     0 d,  0 h,  1 min, 13.479 sec
 * ratio c/w:     1.993 speedup

