      -----------------------------------------------------------      
     |                   =====================                   |     
     |                           x T B                           |     
     |                   =====================                   |     
     |                         S. Grimme                         |     
     |          Mulliken Center for Theoretical Chemistry        |     
     |                    University of Bonn                     |     
     |                 Version 6.0.1 (SAW181210)                 |     
      -----------------------------------------------------------      

   This program is distributed in the hope that it will be useful,
   but WITHOUT ANY WARRANTY; without even the implied warranty of
   MERCHANTABILITY or FITNESS FOR A PARTICULAR PURPOSE.
   
   FOR NON-COMMERCIAL, ACADEMIA USE ONLY.
   
   Cite this work as:
   S. Grimme, C. Bannwarth, P. Shushkov, J. Comput. Theory Chem., 2017,
   13, 1989-2009.
   C. Bannwarth, S. Ehlert and S. Grimme., ChemRxiv, 2018, preprint.
   http://doi.org/10.26434/chemrxiv.7246238.v1
   
   for sTDA-xTB:
   S. Grimme and C. Bannwarth, J. Chem. Phys., 2016, 145, 054103.
   
   in the mass-spec context:
   V. Asgeirsson, C. Bauer and S. Grimme, Chem. Sci., 2017, 8, 4879.
   
   if GBSA is used:
   P. Shushkov, F. März and S. Grimme, unpublished.
   
   for ANC optimizer:
   S. Grimme, unpublished.
   Rational Function algorithm used in ANCopt:
   F. Eckert, P. Pulay, H.-J. Werner, J. Comput. Chem., 1997, 18, 1473.
   
   with help from (in alphabetical order)
   C. Bannwarth, F. Bohle, G. Brandenburg, E. Caldeweyher, M. Checinski,
   S. Dohm, S. Ehlert, S. Ehrlich, F. März, H. Neugebauer, J. Pisarek,
   P. Pracht, P. Shushkov, and S. Spicher.
   
 * started run on 2019/05/09 at 18:12:43.792     
========================================================================
 # omp threads = 2
========================================================================
number of atoms            : 376
number of electrons        : 1006
charge                     : 0
spin                       : .0
first test random number   : .2065

########################################################################
# WARNING! Please study the warnings concerning your input carefully
#  - Process number higher than OMP_NUM_THREADS, I hope you know what you are doing.
########################################################################

           ------------------------------------------------- 
          |                 G F N 2 - x T B                 |
          | Geometry, Frequencies, Noncovalent interactions |
          |            JCTC 2018 parametrisation            |
           ------------------------------------------------- 
 
      method parameters     
 k(s)        :  1.8500
 k(p)        :  2.2300
 k(d)        :  2.2300
 k(f)        :  2.0000
 kEN (H0ij)  : -2.0000
 D4 a1       :  0.5200
 D4 a2       :  5.0000
 D4 s6       :  1.0000
 D4 s8       :  2.7000
 D4 s9       :  5.0000
 alphaj      :  2.0000

 Solvent             : h2o
 Using internal parameter file: .param_gbsa2_h2o
 Gsolv ref. state (COSMO-RS): gsolv [1 M gas/solution]
 temperature (mdtemp)       :    298.150000000000     
 dielectric constant        :    80.2000000000000     
 rho                        :    1.00000000000000     
 mass                       :    18.0000000000000     
 surface tension            :    15.5689454083859     
 probe radius               :   0.975313790000000     
 vdW radii scaling          :    1.00000000000000     
 Gshift (Eh)                :   1.857443126794793E-003
 c1                         :    1.55243817000000     
 soset                      :   0.130326360000000     
 HB correction              :  T

            Z     q(EN)     CN     RAES       Cart. coordinates
     1  N   5.0   -0.22    3.29    1.98   -59.15712   127.47522    34.32237
     2  C   4.0    0.03    4.40    4.39   -61.66955   127.70720    33.27486
     3  C   4.0    0.15    3.50    3.12   -62.45680   125.33681    31.91084
     4  O   6.0   -0.32    1.31    1.80   -64.67201   124.71159    31.79828
     5  C   4.0   -0.05    4.38    4.35   -61.78394   129.92627    31.48734
     6  C   4.0   -0.03    4.19    3.97   -62.16685   132.39482    32.94715
     7  C   4.0   -0.08    4.13    3.86   -60.88342   132.50421    35.55284
     8  C   4.0   -0.08    4.10    3.81   -61.28446   134.56939    31.25343
     9  H   1.0    0.08    1.03    1.43   -57.86650   128.83505    33.98526
    10  H   1.0    0.04    1.06    1.44   -63.06117   127.93986    34.80004
    11  H   1.0    0.04    1.04    1.43   -60.04962   129.96515    30.39335
    12  H   1.0    0.04    1.03    1.43   -63.35222   129.66540    30.17645
    13  H   1.0    0.04    1.06    1.44   -64.19418   132.63746    33.28654
    14  H   1.0    0.04    1.00    1.43   -61.35978   134.30954    36.41172
    15  H   1.0    0.04    1.00    1.43   -61.52162   131.03504    36.82888
    16  H   1.0    0.04    1.00    1.43   -58.83205   132.41761    35.39899
    17  H   1.0    0.04    1.00    1.43   -61.88836   136.36596    32.04939
    18  H   1.0    0.04    1.00    1.43   -59.23879   134.59986    31.10686
    19  H   1.0    0.04    1.00    1.43   -62.11466   134.38808    29.38601
    20  N   5.0   -0.15    3.49    2.07   -60.62082   124.01178    30.82170
    21  C   4.0    0.04    4.52    4.57   -61.20486   121.44770    30.15884
    22  C   4.0    0.15    3.54    3.13   -61.80258   119.86726    32.51369
    23  O   6.0   -0.30    1.36    1.80   -63.92463   118.96380    32.72813
    24  C   4.0   -0.05    4.29    4.19   -59.14437   120.18078    28.62383
    25  C   4.0   -0.03    4.26    4.12   -60.05463   117.56068    27.79063
    26  C   4.0    0.15    3.26    3.05   -62.29889   117.88271    26.02778
    27  O   6.0   -0.30    1.22    1.80   -64.39382   118.55419    26.72725
    28  N   5.0   -0.19    3.19    1.95   -61.73335   117.56118    23.56654
    29  H   1.0    0.08    1.07    1.44   -58.83462   124.66904    30.75164
    30  H   1.0    0.08    1.09    1.44   -62.98569   121.47197    29.09535
    31  H   1.0    0.05    1.03    1.43   -58.75285   121.33228    26.95717
    32  H   1.0    0.04    1.03    1.43   -57.42774   120.01523    29.74604
    33  H   1.0    0.04    1.03    1.43   -58.54030   116.55163    26.83335
    34  H   1.0    0.06    1.03    1.43   -60.65649   116.44682    29.41756
    35  H   1.0    0.08    1.03    1.43   -60.06513   116.82186    23.03714
    36  H   1.0    0.10    1.03    1.43   -63.13773   117.58369    22.28039
    37  N   5.0   -0.15    3.43    2.04   -59.94596   119.46490    34.20819
    38  C   4.0    0.03    4.30    4.19   -60.27827   117.57016    36.21889
    39  C   4.0    0.16    3.41    3.08   -62.91247   117.94255    37.50556
    40  O   6.0   -0.29    1.20    1.80   -64.13499   116.16935    38.37860
    41  C   4.0   -0.04    4.10    3.81   -57.83451   117.05049    37.86009
    42  C   4.0   -0.03    4.11    3.81   -57.32149   118.28022    40.47616
    43  C   4.0    0.15    3.16    3.03   -55.44147   116.87255    42.25339
    44  O   6.0   -0.28    1.19    1.80   -55.33935   114.58796    42.55964
    45  N   5.0   -0.18    3.17    1.95   -53.80341   118.40538    43.49838
    46  H   1.0    0.07    1.05    1.44   -58.21382   120.23527    33.91126
    47  H   1.0    0.06    1.06    1.44   -60.57057   115.76255    35.22007
    48  H   1.0    0.06    1.03    1.43   -57.86015   115.01880    38.21794
    49  H   1.0    0.04    1.03    1.43   -56.25624   117.44953    36.59772
    50  H   1.0    0.04    1.02    1.43   -56.70667   120.23086    40.27173
    51  H   1.0    0.05    1.03    1.43   -59.10517   118.32139    41.52463
    52  H   1.0    0.08    1.02    1.43   -54.23238   120.23801    43.82842
    53  H   1.0    0.10    1.03    1.43   -52.76351   117.57695    44.86926
    54  N   5.0   -0.13    3.61    2.17   -63.76444   120.31036    37.42984
    55  C   4.0    0.04    4.45    4.46   -66.12717   121.06737    38.51108
    56  C   4.0    0.16    3.50    3.12   -68.26028   120.62291    36.66493
    57  O   6.0   -0.32    1.49    1.80   -70.01036   119.23688    37.37569
    58  C   4.0   -0.04    4.29    4.18   -65.84820   123.72209    39.58729
    59  C   4.0   -0.02    3.53    3.13   -64.07101   123.60870    41.85760
    60  C   4.0   -0.04    3.45    3.10   -64.99152   123.16557    44.28548
    61  C   4.0   -0.04    3.45    3.10   -61.44497   123.87618    41.64686
    62  C   4.0   -0.03    3.42    3.09   -63.43078   123.07240    46.39595
    63  C   4.0   -0.05    3.42    3.08   -59.85374   123.80723    43.73316
    64  C   4.0    0.07    3.42    3.08   -60.83189   123.43869    46.15508
    65  O   6.0   -0.23    2.09    1.84   -59.36899   123.43953    48.26463
    66  H   1.0    0.08    1.09    1.44   -62.62013   121.68731    36.76125
    67  H   1.0    0.06    1.07    1.44   -66.53117   119.74697    40.07108
    68  H   1.0    0.04    1.03    1.43   -65.07477   124.94619    38.12389
    69  H   1.0    0.04    1.03    1.43   -67.69274   124.42000    40.17132
    70  H   1.0    0.05    1.03    1.43   -66.99874   122.90352    44.56082
    71  H   1.0    0.05    1.04    1.43   -60.62407   124.15598    39.82132
    72  H   1.0    0.06    1.03    1.43   -64.20057   122.73683    48.25504
    73  H   1.0    0.05    1.03    1.43   -57.83911   124.06484    43.55670
    74  H   1.0    0.12    1.02    1.43   -57.56667   123.63810    47.81579
    75  N   5.0   -0.13    3.54    2.11   -68.29382   121.49893    34.33937
    76  C   4.0    0.04    4.52    4.57   -70.35672   120.58377    32.75282
    77  C   4.0    0.16    3.53    3.13   -70.79428   117.72170    33.07796
    78  O   6.0   -0.32    1.24    1.80   -72.95509   116.94698    33.44372
    79  C   4.0   -0.04    4.27    4.14   -69.88498   121.27341    29.98966
    80  C   4.0   -0.05    4.16    3.92   -72.26457   121.03450    28.34710
    81  C   4.0   -0.01    4.16    3.92   -71.56900   121.22552    25.51675
    82  N   5.0   -0.14    3.36    2.00   -73.85222   121.35541    23.92749
    83  C   4.0    0.09    3.31    3.06   -74.00764   121.48192    21.40801
    84  N   5.0   -0.18    3.24    1.96   -71.92922   121.50375    19.98282
    85  N   5.0   -0.19    3.22    1.96   -76.28584   121.68967    20.30066
    86  H   1.0    0.12    1.09    1.44   -66.91005   122.55287    33.51301
    87  H   1.0    0.05    1.08    1.44   -72.11621   121.43795    33.41006
    88  H   1.0    0.05    1.04    1.43   -69.18492   123.21270    29.95413
    89  H   1.0    0.07    1.03    1.43   -68.39157   120.05458    29.25177
    90  H   1.0    0.05    1.03    1.43   -73.15589   119.21540    28.72201
    91  H   1.0    0.04    1.02    1.43   -73.58916   122.52921    28.84835
    92  H   1.0    0.05    1.02    1.43   -70.42865   122.92341    25.22533
    93  H   1.0    0.05    1.02    1.43   -70.43761   119.56803    25.01985
    94  H   1.0    0.07    1.07    1.44   -75.49059   121.20838    24.89827
    95  H   1.0    0.09    1.03    1.43   -70.22267   121.25348    20.78864
    96  H   1.0    0.09    1.03    1.43   -72.03002   121.50084    18.08174
    97  H   1.0    0.08    1.03    1.43   -77.88546   121.51948    21.32037
    98  H   1.0    0.09    1.03    1.43   -76.42471   121.59824    18.41024
    99  N   5.0   -0.14    3.46    2.05   -68.72530   116.26645    32.75848
   100  C   4.0    0.04    4.33    4.26   -68.65584   113.51349    32.73957
   101  C   4.0    0.15    3.45    3.09   -69.11027   112.38736    35.37805
   102  O   6.0   -0.30    1.26    1.80   -68.74875   110.14726    35.83584
   103  C   4.0   -0.03    4.19    3.98   -66.24132   112.26656    31.65009
   104  C   4.0   -0.03    4.07    3.75   -66.21890   111.53468    28.81965
   105  C   4.0    0.25    3.03    3.02   -64.82910   108.95642    28.03631
   106  O   6.0   -0.27    1.15    1.80   -62.70166   109.15455    27.03821
   107  O   6.0   -0.27    1.15    1.80   -66.02762   106.94699    28.34023
   108  H   1.0    0.12    1.10    1.44   -67.03651   117.15158    32.54261
   109  H   1.0    0.05    1.06    1.44   -70.29329   112.86275    31.63210
   110  H   1.0    0.06    1.02    1.43   -64.63041   113.48276    32.08275
   111  H   1.0    0.08    1.05    1.44   -66.01584   110.51630    32.72479
   112  H   1.0    0.05    1.03    1.43   -68.15896   111.27189    28.17050
   113  H   1.0    0.06    1.02    1.43   -65.35383   113.04167    27.70621
   114  N   5.0   -0.13    3.58    2.14   -70.20280   113.96239    37.01204
   115  C   4.0    0.04    4.55    4.60   -71.03850   113.00601    39.40034
   116  C   4.0    0.15    3.58    3.15   -73.54998   114.15242    40.12903
   117  O   6.0   -0.30    1.40    1.80   -75.09081   112.91398    41.33247
   118  C   4.0   -0.03    4.31    4.21   -69.00376   113.20678    41.42634
   119  C   4.0   -0.03    4.08    3.77   -69.97736   112.21294    43.93547
   120  S   6.0   -0.01    2.59    3.10   -71.54158   109.08836    43.74589
   121  C   4.0   -0.05    3.89    3.44   -70.91002   108.12077    47.01101
   122  H   1.0    0.12    1.15    1.45   -69.94214   115.85789    36.87185
   123  H   1.0    0.06    1.12    1.45   -71.40273   110.98251    39.13990
   124  H   1.0    0.06    1.03    1.43   -67.36689   112.13366    40.77598
   125  H   1.0    0.06    1.03    1.43   -68.42837   115.17868    41.64277
   126  H   1.0    0.04    1.07    1.44   -68.41718   112.01118    45.26410
   127  H   1.0    0.06    1.08    1.44   -71.37908   113.51265    44.70007
   128  H   1.0    0.06    1.05    1.44   -71.84461   106.31292    47.23579
   129  H   1.0    0.05    1.03    1.43   -68.88779   107.94452    47.30484
   130  H   1.0    0.05    1.04    1.43   -71.75103   109.50111    48.26792
   131  N   5.0   -0.14    3.55    2.11   -74.14767   116.44089    39.27246
   132  C   4.0    0.04    4.62    4.69   -76.79472   117.03176    39.48190
   133  C   4.0    0.17    3.68    3.22   -78.23231   114.88058    38.28746
   134  O   6.0   -0.31    1.38    1.80   -79.82530   113.54772    39.31692
   135  C   4.0   -0.05    4.43    4.44   -77.56256   119.37030    38.04306
   136  C   4.0   -0.03    4.20    4.00   -77.69564   121.70862    39.72915
   137  C   4.0   -0.07    4.18    3.97   -80.24184   122.96123    39.36812
   138  C   4.0   -0.08    4.18    3.95   -77.26717   121.22438    42.52279
   139  H   1.0    0.11    1.10    1.44   -72.91556   117.58698    38.37006
   140  H   1.0    0.05    1.08    1.44   -77.30612   117.06444    41.47817
   141  H   1.0    0.05    1.03    1.43   -76.24873   119.63373    36.47932
   142  H   1.0    0.05    1.06    1.44   -79.43645   119.03382    37.24796
   143  H   1.0    0.04    1.06    1.44   -76.21883   123.03324    39.13112
   144  H   1.0    0.04    1.01    1.43   -80.46155   124.51045    40.69218
   145  H   1.0    0.04    1.01    1.43   -80.36376   123.67110    37.45502
   146  H   1.0    0.06    1.01    1.43   -81.75490   121.61458    39.67028
   147  H   1.0    0.04    1.00    1.43   -77.25909   123.02668    43.51573
   148  H   1.0    0.04    1.00    1.43   -78.76582   120.08391    43.32908
   149  H   1.0    0.04    1.00    1.43   -75.45894   120.31392    42.85997
   150  N   5.0   -0.15    3.63    2.19   -77.67373   114.68130    35.84526
   151  C   4.0    0.04    4.53    4.58   -79.04750   112.88242    34.34100
   152  C   4.0    0.16    3.44    3.09   -79.01079   110.24305    35.58636
   153  O   6.0   -0.30    1.26    1.80   -80.96743   109.03433    35.82201
   154  C   4.0   -0.02    4.33    4.25   -78.00267   113.08824    31.63742
   155  C   4.0   -0.04    4.20    4.01   -78.73603   115.70710    30.60752
   156  C   4.0   -0.07    4.11    3.83   -78.95309   110.94715    29.95945
   157  C   4.0   -0.08    4.01    3.64   -77.88528   116.18022    27.88499
   158  H   1.0    0.10    1.10    1.44   -76.13684   115.54483    35.10137
   159  H   1.0    0.06    1.06    1.44   -81.05994   113.41040    34.34053
   160  H   1.0    0.05    1.05    1.44   -75.93561   112.96549    31.74043
   161  H   1.0    0.04    1.03    1.43   -80.78718   115.90357    30.71509
   162  H   1.0    0.05    1.03    1.43   -77.89442   117.14768    31.81247
   163  H   1.0    0.04    1.00    1.43   -78.07930   111.03878    28.10536
   164  H   1.0    0.05    1.00    1.43   -78.47545   109.12436    30.78494
   165  H   1.0    0.05    1.00    1.43   -80.99439   111.03445    29.74398
   166  H   1.0    0.04    1.00    1.43   -78.28050   118.13736    27.40819
   167  H   1.0    0.04    1.00    1.43   -75.87135   115.82323    27.69706
   168  H   1.0    0.04    1.00    1.43   -78.89634   114.97643    26.56798
   169  N   5.0   -0.14    3.44    2.04   -76.73708   109.40494    36.39794
   170  C   4.0    0.04    4.30    4.19   -76.16758   106.79864    37.12282
   171  C   4.0    0.16    3.44    3.09   -77.49235   105.93611    39.54235
   172  O   6.0   -0.28    1.25    1.80   -77.68892   103.67935    40.02266
   173  C   4.0   -0.06    4.10    3.81   -73.33333   106.30624    37.41488
   174  H   1.0    0.09    1.07    1.44   -75.21140   110.49933    36.07131
   175  H   1.0    0.06    1.05    1.44   -76.89578   105.55013    35.62828
   176  H   1.0    0.06    1.00    1.43   -73.04977   104.28366    37.62417
   177  H   1.0    0.06    1.00    1.43   -72.27192   106.95255    35.77921
   178  H   1.0    0.06    1.02    1.43   -72.59866   107.22293    39.09832
   179  N   5.0   -0.14    3.58    2.14   -78.47750   107.74947    40.99252
   180  C   4.0    0.05    4.50    4.54   -80.00070   106.97772    43.11018
   181  C   4.0    0.15    3.36    3.07   -82.83860   107.12150    42.51151
   182  O   6.0   -0.27    1.19    1.80   -84.46449   105.96070    43.70396
   183  C   4.0   -0.03    4.27    4.14   -79.11591   108.27246    45.48515
   184  C   4.0    0.25    3.12    3.03   -77.94071   106.31762    47.33927
   185  O   6.0   -0.27    1.18    1.80   -78.59126   104.06592    47.28630
   186  O   6.0   -0.33    1.39    1.80   -76.41219   107.31784    48.86826
   187  H   1.0    0.11    1.07    1.44   -77.91476   109.56932    40.80751
   188  H   1.0    0.09    1.11    1.45   -79.64894   104.93995    43.37572
   189  H   1.0    0.06    1.04    1.43   -77.68066   109.67527    45.03212
   190  H   1.0    0.05    1.03    1.43   -80.67074   109.16815    46.49257
   191  N   5.0   -0.13    3.49    2.07   -83.28384   108.61621    40.51187
   192  C   4.0    0.03    4.23    4.05   -85.70976   109.01987    39.31933
   193  C   4.0    0.15    3.33    3.06   -86.65440   111.65580    40.05221
   194  O   6.0   -0.29    1.22    1.80   -88.84349   112.03506    40.71463
   195  H   1.0    0.12    1.14    1.45   -81.77289   109.11786    39.45649
   196  H   1.0    0.06    1.02    1.43   -85.48757   108.86031    37.27540
   197  H   1.0    0.07    1.03    1.43   -87.05169   107.61019    40.00888
   198  N   5.0   -0.13    3.53    2.10   -84.87136   113.45045    40.06033
   199  C   4.0    0.04    4.57    4.63   -85.22458   115.75879    41.45367
   200  C   4.0    0.15    3.47    3.10   -85.59794   118.02968    39.75157
   201  O   6.0   -0.31    1.23    1.80   -84.26835   118.45879    37.91738
   202  C   4.0   -0.02    4.41    4.39   -82.95023   116.32719    43.13352
   203  C   4.0   -0.04    4.22    4.04   -82.39440   114.10272    44.87460
   204  C   4.0   -0.08    4.19    3.97   -83.52071   118.71313    44.62522
   205  C   4.0   -0.07    4.04    3.69   -79.79869   114.29646    46.05796
   206  H   1.0    0.12    1.13    1.45   -83.08206   113.08236    39.48896
   207  H   1.0    0.05    1.08    1.44   -86.92084   115.47893    42.61092
   208  H   1.0    0.06    1.07    1.44   -81.33124   116.63868    41.90318
   209  H   1.0    0.04    1.03    1.43   -83.82935   114.08511    46.36276
   210  H   1.0    0.06    1.04    1.43   -82.54328   112.33719    43.82890
   211  H   1.0    0.03    1.00    1.43   -81.99347   119.08672    45.94456
   212  H   1.0    0.05    1.01    1.43   -83.69574   120.35925    43.40774
   213  H   1.0    0.04    1.00    1.43   -85.25065   118.49621    45.70674
   214  H   1.0    0.04    1.00    1.43   -79.59222   112.94070    47.58328
   215  H   1.0    0.07    1.00    1.43   -78.33855   113.94335    44.65786
   216  H   1.0    0.04    1.00    1.43   -79.49210   116.17124    46.84874
   217  N   5.0   -0.15    3.48    2.06   -87.46953   119.54837    40.54213
   218  C   4.0    0.04    4.43    4.43   -88.25290   121.78019    39.19490
   219  C   4.0    0.15    3.58    3.16   -86.86562   124.15350    40.09027
   220  O   6.0   -0.31    1.34    1.80   -87.19542   125.01740    42.22279
   221  C   4.0   -0.02    4.29    4.17   -91.07652   122.17393    39.59053
   222  C   4.0    0.26    3.11    3.03   -92.12495   124.59105    38.25137
   223  O   6.0   -0.29    1.22    1.80   -90.58365   126.00309    37.15055
   224  O   6.0   -0.27    1.16    1.80   -94.44744   124.92053    38.41730
   225  H   1.0    0.07    1.07    1.44   -88.29104   119.26499    42.23569
   226  H   1.0    0.06    1.07    1.44   -87.85194   121.47220    37.19568
   227  H   1.0    0.06    1.02    1.43   -92.15168   120.56691    38.87927
   228  H   1.0    0.06    1.03    1.43   -91.48734   122.43594    41.59830
   229  N   5.0   -0.10    3.67    2.23   -85.24007   125.28349    38.53352
   230  C   4.0    0.04    4.53    4.58   -84.22366   127.68926    39.33349
   231  C   4.0    0.09    3.21    3.04   -86.14980   129.79783    39.92254
   232  O   6.0   -0.31    1.22    1.80   -85.76163   130.99903    41.86445
   233  C   4.0   -0.05    4.32    4.23   -82.44246   128.47640    37.20537
   234  C   4.0   -0.04    4.24    4.08   -83.35573   127.01048    34.88396
   235  C   4.0   -0.01    4.35    4.28   -84.82558   124.73539    35.88254
   236  H   1.0    0.05    1.06    1.44   -83.22023   127.44215    41.13040
   237  H   1.0    0.05    1.03    1.43   -82.50507   130.50363    36.85616
   238  H   1.0    0.04    1.02    1.43   -80.50387   127.98277    37.67784
   239  H   1.0    0.05    1.03    1.43   -84.60690   128.20599    33.76759
   240  H   1.0    0.04    1.02    1.43   -81.78687   126.45861    33.67627
   241  H   1.0    0.06    1.02    1.43   -86.64416   124.58509    34.90944
   242  H   1.0    0.05    1.02    1.43   -83.81905   122.94619    35.66887
   243  N   5.0   -0.19    3.30    1.98   -87.84272   130.14341    46.38396
   244  C   4.0    0.03    4.33    4.25   -86.22327   129.24807    48.40533
   245  C   4.0    0.15    3.44    3.09   -84.39956   131.33343    49.20070
   246  O   6.0   -0.28    1.27    1.80   -83.80206   131.70990    51.42055
   247  C   4.0   -0.04    4.31    4.22   -84.96024   126.77035    47.61202
   248  C   4.0   -0.02    4.17    3.94   -86.23654   124.42609    48.80751
   249  C   4.0   -0.07    4.11    3.82   -88.06269   123.03812    47.05809
   250  C   4.0   -0.08    4.12    3.83   -84.21080   122.60293    49.74146
   251  H   1.0    0.11    1.03    1.43   -88.33197   128.86311    45.05816
   252  H   1.0    0.05    1.06    1.44   -87.42652   128.90807    50.07099
   253  H   1.0    0.06    1.04    1.43   -85.01426   126.62680    45.55952
   254  H   1.0    0.04    1.04    1.43   -82.98242   126.83217    48.19610
   255  H   1.0    0.04    1.06    1.44   -87.33204   125.05463    50.45064
   256  H   1.0    0.04    1.01    1.43   -88.57624   121.25325    47.93003
   257  H   1.0    0.05    1.00    1.43   -89.78352   124.13174    46.78546
   258  H   1.0    0.06    1.03    1.43   -87.20029   122.70087    45.24190
   259  H   1.0    0.04    1.00    1.43   -85.05577   120.88383    50.47024
   260  H   1.0    0.04    1.01    1.43   -82.93865   122.13945    48.20349
   261  H   1.0    0.05    1.00    1.43   -83.11333   123.48254    51.23956
   262  N   5.0   -0.14    3.54    2.10   -83.49366   132.66031    47.29612
   263  C   4.0    0.03    4.29    4.18   -82.01224   134.93281    47.60494
   264  C   4.0    0.10    3.26    3.05   -82.47355   136.17747    50.21642
   265  O   6.0   -0.26    1.11    1.80   -80.80792   136.40282    51.80110
   266  C   4.0   -0.05    4.30    4.19   -82.57350   136.73776    45.39221
   267  C   4.0   -0.02    4.21    4.03   -82.89316   135.46003    42.77757
   268  C   4.0   -0.07    4.11    3.82   -82.74607   137.44545    40.67463
   269  C   4.0   -0.06    4.14    3.87   -80.95939   133.39580    42.19996
   270  H   1.0    0.10    1.13    1.45   -84.24359   132.35222    45.56439
   271  H   1.0    0.05    1.05    1.44   -80.00504   134.39506    47.56905
   272  H   1.0    0.04    1.03    1.43   -84.30993   137.78762    45.76153
   273  H   1.0    0.04    1.03    1.43   -81.02515   138.09600    45.29288
   274  H   1.0    0.07    1.08    1.44   -84.78822   134.66548    42.68000
   275  H   1.0    0.05    1.00    1.43   -83.13319   136.56180    38.86059
   276  H   1.0    0.04    1.00    1.43   -84.13974   138.92019    40.97868
   277  H   1.0    0.04    1.00    1.43   -80.86701   138.28009    40.59684
   278  H   1.0    0.05    1.00    1.43   -81.19173   132.77019    40.26007
   279  H   1.0    0.04    1.00    1.43   -79.04957   134.14368    42.38081
   280  H   1.0    0.05    1.00    1.43   -81.12935   131.75220    43.41148
   281  N   5.0   -0.21    3.24    1.96   -88.03301   110.46026    59.57224
   282  C   4.0    0.03    4.25    4.09   -87.76659   112.76777    58.18997
   283  C   4.0    0.08    3.23    3.04   -86.40384   114.72622    59.80750
   284  O   6.0   -0.31    1.20    1.80   -84.23320   115.36655    59.28068
   285  C   4.0   -0.05    4.26    4.12   -90.36571   113.61702    57.32209
   286  C   4.0   -0.05    4.17    3.94   -90.33066   116.20670    56.03489
   287  C   4.0   -0.01    4.15    3.89   -92.13600   116.47535    53.77369
   288  N   5.0   -0.14    3.35    2.00   -91.15120   115.25724    51.47848
   289  C   4.0    0.09    3.31    3.05   -91.41384   115.95759    49.05859
   290  N   5.0   -0.19    3.24    1.97   -92.26368   118.22937    48.39176
   291  N   5.0   -0.18    3.24    1.96   -90.68165   114.38090    47.21481
   292  H   1.0    0.08    1.03    1.43   -89.78980   110.04708    60.19657
   293  H   1.0    0.05    1.05    1.44   -86.51293   112.40871    56.57177
   294  H   1.0    0.04    1.03    1.43   -91.07404   112.15141    56.05117
   295  H   1.0    0.04    1.03    1.43   -91.62047   113.64168    58.95522
   296  H   1.0    0.04    1.03    1.43   -90.84215   117.65160    57.40773
   297  H   1.0    0.05    1.03    1.43   -88.42153   116.62958    55.37982
   298  H   1.0    0.04    1.02    1.43   -93.96316   115.63092    54.24968
   299  H   1.0    0.04    1.03    1.43   -92.40948   118.48057    53.39741
   300  H   1.0    0.08    1.07    1.44   -90.50730   113.48116    51.78260
   301  H   1.0    0.08    1.03    1.43   -92.74659   119.57108    49.65622
   302  H   1.0    0.08    1.03    1.43   -92.46961   118.69457    46.56022
   303  H   1.0    0.09    1.03    1.43   -90.11994   112.60041    47.59139
   304  H   1.0    0.09    1.03    1.43   -90.95217   114.80137    45.37794
   305  N   5.0   -0.19    3.25    1.97   -79.50900   114.34666    60.31603
   306  C   4.0    0.04    4.25    4.09   -77.92346   115.10269    58.26330
   307  C   4.0    0.09    3.22    3.04   -77.24919   117.90263    58.51119
   308  O   6.0   -0.31    1.14    1.80   -75.05838   118.59950    58.28209
   309  C   4.0   -0.05    4.27    4.14   -79.15251   114.61139    55.71174
   310  C   4.0   -0.05    4.19    3.99   -78.02981   112.31861    54.39232
   311  C   4.0   -0.05    4.15    3.89   -79.06812   109.79135    55.31662
   312  C   4.0   -0.03    4.11    3.82   -76.98965   107.83139    55.69512
   313  N   5.0   -0.12    4.01    2.90   -75.18617   107.49493    53.55449
   314  H   1.0    0.11    1.07    1.44   -81.27455   113.70814    59.94039
   315  H   1.0    0.05    1.06    1.44   -76.10949   114.10101    58.42581
   316  H   1.0    0.05    1.03    1.43   -81.18233   114.39269    55.97055
   317  H   1.0    0.04    1.04    1.43   -78.84684   116.26352    54.51257
   318  H   1.0    0.04    1.03    1.43   -78.37744   112.48753    52.36853
   319  H   1.0    0.04    1.04    1.43   -75.98808   112.39649    54.67994
   320  H   1.0    0.04    1.03    1.43   -80.05180   110.01099    57.11436
   321  H   1.0    0.05    1.02    1.43   -80.45075   109.06464    53.97147
   322  H   1.0    0.04    1.02    1.43   -75.86005   108.38841    57.33182
   323  H   1.0    0.05    1.03    1.43   -77.92754   106.02545    55.99214
   324  H   1.0    0.06    1.02    1.43   -74.07235   105.94322    53.86358
   325  H   1.0    0.11    1.14    1.45   -76.03326   107.22096    51.67973
   326  H   1.0    0.06    1.02    1.43   -74.04203   109.04370    53.36394
   327  N   5.0   -0.20    3.23    1.96   -69.75716   121.62936    57.80544
   328  C   4.0    0.03    4.21    4.01   -69.17393   123.28776    55.73081
   329  C   4.0    0.09    3.22    3.04   -68.54644   125.88033    56.85142
   330  O   6.0   -0.27    1.12    1.80   -66.51969   126.87329    56.31228
   331  C   4.0   -0.04    4.27    4.15   -71.43243   123.50423    53.90012
   332  C   4.0   -0.01    3.46    3.10   -72.05175   121.24350    52.21740
   333  C   4.0   -0.05    3.45    3.10   -72.23949   121.60877    49.60511
   334  C   4.0   -0.04    3.43    3.09   -72.65534   118.82235    53.11594
   335  C   4.0   -0.04    3.42    3.08   -72.92416   119.68186    47.95921
   336  C   4.0   -0.05    3.40    3.08   -73.33220   116.86870    51.47747
   337  C   4.0    0.06    3.40    3.08   -73.45113   117.25957    48.86249
   338  O   6.0   -0.25    2.11    1.84   -74.03237   115.41918    47.12912
   339  H   1.0    0.10    1.03    1.43   -71.53394   121.79669    58.52765
   340  H   1.0    0.06    1.05    1.44   -67.47789   122.57088    54.78328
   341  H   1.0    0.05    1.03    1.43   -73.08795   123.92833    55.06021
   342  H   1.0    0.05    1.04    1.43   -71.06887   125.12214    52.67414
   343  H   1.0    0.05    1.03    1.43   -71.83571   123.45179    48.82870
   344  H   1.0    0.07    1.05    1.44   -72.61272   118.45424    55.11365
   345  H   1.0    0.05    1.03    1.43   -73.01835   120.01719    45.95592
   346  H   1.0    0.05    1.03    1.43   -73.77119   115.03307    52.24130
   347  H   1.0    0.12    1.03    1.43   -74.63154   113.91306    47.96612
   348  N   5.0   -0.21    3.21    1.96   -72.26941   135.79922    32.45379
   349  C   4.0    0.03    4.22    4.05   -73.61585   133.61809    31.60315
   350  C   4.0    0.08    3.18    3.03   -76.49633   134.13720    31.47172
   351  O   6.0   -0.30    1.14    1.80   -78.00704   132.60157    32.28631
   352  C   4.0   -0.04    4.36    4.31   -73.00012   131.33782    33.26534
   353  C   4.0   -0.04    4.05    3.70   -71.14855   129.53076    32.02973
   354  S   6.0   -0.04    2.63    3.10   -70.71291   126.65388    33.85125
   355  C   4.0   -0.07    3.90    3.46   -73.97419   125.64198    34.29064
   356  H   1.0    0.08    1.03    1.43   -72.48462   136.26887    34.29757
   357  H   1.0    0.04    1.06    1.44   -73.01801   133.28158    29.64091
   358  H   1.0    0.04    1.03    1.43   -72.26041   132.00294    35.07178
   359  H   1.0    0.06    1.06    1.44   -74.79753   130.38974    33.61191
   360  H   1.0    0.04    1.07    1.44   -71.80055   128.98943    30.15126
   361  H   1.0    0.04    1.07    1.44   -69.27423   130.37148    31.88426
   362  H   1.0    0.04    1.05    1.44   -73.91890   123.88733    35.34650
   363  H   1.0    0.04    1.04    1.43   -74.96576   127.04233    35.41426
   364  H   1.0    0.04    1.04    1.43   -74.87727   125.39806    32.46949
   365  H   1.0    0.09    1.07    1.44   -59.25364   127.40487    36.01893
   366  H   1.0    0.07    1.04    1.43   -87.59859   130.10870    38.74976
   367  H   1.0    0.10    1.07    1.44   -89.30399   130.71647    47.03882
   368  H   1.0    0.06    1.05    1.44   -84.18884   136.83478    50.66005
   369  H   1.0    0.09    1.08    1.44   -87.56643   109.15279    58.58971
   370  H   1.0    0.05    1.04    1.43   -87.27574   115.49163    61.29915
   371  H   1.0    0.09    1.08    1.44   -78.76834   113.07356    61.16644
   372  H   1.0    0.06    1.04    1.44   -78.60332   119.17311    58.86231
   373  H   1.0    0.10    1.08    1.44   -69.59524   120.01268    57.30277
   374  H   1.0    0.06    1.04    1.43   -69.77815   126.73594    58.00115
   375  H   1.0    0.09    1.08    1.44   -70.60086   135.56081    32.22648
   376  H   1.0    0.06    1.04    1.43   -77.13274   135.74636    30.71234

  Z AO/shell   Hii/eV     exponent
  1     Wed Apr 25 08:07:45 CEST 2018   EN: 2.200 GM2: 0.406  GM3: 0.0800  RAES: 1.40
     1s    -10.707211    1.230000
  6     Wed Apr 25 08:07:45 CEST 2018   EN: 2.550 GM2: 0.538  GM3: 0.1500  RAES: 3.00
     2s    -13.970922    2.096432
     2p    -10.063292    1.800000
  7     Wed Apr 25 08:07:45 CEST 2018   EN: 3.040 GM2: 0.461  GM3:-0.0640  RAES: 1.90
     2s    -16.686243    2.339881
     2p    -12.523956    2.014332
  8     Wed Apr 25 08:07:45 CEST 2018   EN: 3.440 GM2: 0.452  GM3:-0.0517  RAES: 1.80
     2s    -20.229985    2.439742
     2p    -15.503117    2.137023
 16     Tue Apr 24 11:44:34 CEST 2018   EN: 2.580 GM2: 0.340  GM3:-0.0502  RAES: 3.10
     3s    -20.029654    1.981333
     3p    -11.377694    2.025643
     3d     -0.420282    1.702555
 no old-style atom pair restraining (fixing) potential

molecular fragmentation (1/2 indicates fragments):
111111111111111111111111111111111111111111111111111111111111111111111111
111111111111111111111111111111111111111111111111111111111111111111111111
111111111111111111111111111111111111111111111111111111111111111111111111
111111111111111111111111112222222222222222222222222222222222222222222222
222222222222222222222222222222222222222222222222222222222222222222222222
2222112222222222
# atoms in fragment 1/2:   244   132
 fragment masses (1/2) :     1743.99      817.14
CMA distance (Bohr)    :  14.793
constraining FC (au)   :  0.0500
           ------------------------------------------------- 
          |        Self-Consistent Charge Iterations        |
           ------------------------------------------------- 

 Ncao       : 922
 Nao        : 920
 Nshell     : 556
 Nel        : 1006
 T(el)      :   500.0
 intcut     :    35.0
 scfconv/Eh :  0.100E-06
   qconv/e  :  0.100E-04
 intneglect :  0.100E-08
 broydamp   :      0.400
 iter      E             dE          RMSdq      gap      omega  full diag
   1   -573.1811332 -0.573181E+03  0.459E+00    2.98       0.0  T
   2   -574.4896434 -0.130851E+01  0.217E+00    1.79       1.0  T
   3   -574.5657326 -0.760892E-01  0.122E+00    2.07       1.0  T
   4   -574.6624980 -0.967655E-01  0.245E-01    1.56       1.0  T
   5   -574.6674708 -0.497277E-02  0.124E-01    1.69       1.0  T
   6   -574.6683764 -0.905548E-03  0.547E-02    1.71       1.0  T
   7   -574.6686896 -0.313286E-03  0.215E-02    1.72       1.0  T
   8   -574.6687221 -0.324307E-04  0.114E-02    1.73       1.0  T
   9   -574.6687314 -0.927768E-05  0.545E-03    1.73       1.0  T
  10   -574.6687331 -0.176112E-05  0.258E-03    1.73       2.0  T
  11   -574.6687335 -0.388210E-06  0.131E-03    1.74       3.9  T
  12   -574.6687336 -0.925239E-07  0.643E-04    1.74       8.0  T
  13   -574.6687336 -0.344417E-07  0.303E-04    1.74      17.0  T
  14   -574.6687336 -0.412706E-08  0.143E-04    1.74      36.2  T
  15   -574.6687336 -0.140119E-08  0.596E-05    1.74      86.5  T
  16   -574.6687336 -0.250338E-09  0.282E-05    1.74     182.7  T
speedup  1.95
cpu  time for SCC   11.88 s
wall time for SCC    6.07 s

   *** convergence criteria satisfied after 16 iterations ***

          eigenvalues
 #    :         491        492        493        494        495        496        497        498
 occ. :        2.000      2.000      2.000      2.000      2.000      2.000      2.000      2.000
 eps  :       -10.332    -10.257    -10.162    -10.093    -10.049    -10.015     -9.890     -9.794
 #    :         499        500        501        502        503        504        505        506
 occ. :        2.000      2.000      2.000      2.000      2.000      0.000      0.000      0.000
 eps  :        -9.769     -9.747     -9.578     -9.525     -9.467     -7.731     -7.677     -7.665
 #    :         507        508        509        510        511        512        513        514
 occ. :        0.000      0.000      0.000      0.000      0.000      0.000      0.000      0.000
 eps  :        -7.606     -7.493     -7.410     -6.817     -6.706     -6.656     -6.454     -6.437


   #   Z            q   n(s)   n(p)   n(d)      C6AA      α(0)
   1   7 N     -0.394  1.303  4.091  0.000    30.197     8.161
   2   6 C      0.030  1.051  2.919  0.000    20.070     6.380
   3   6 C      0.262  1.045  2.693  0.000    22.586     7.784
   4   8 O     -0.485  1.737  4.748  0.000    23.447     6.492
   5   6 C     -0.071  1.056  3.016  0.000    21.851     6.653
   6   6 C     -0.011  1.059  2.952  0.000    20.732     6.476
   7   6 C     -0.112  1.040  3.072  0.000    22.703     6.795
   8   6 C     -0.117  1.042  3.075  0.000    22.797     6.807
   9   1 H      0.172  0.828  0.000  0.000     1.259     1.758
  10   1 H      0.038  0.962  0.000  0.000     2.474     2.460
  11   1 H      0.057  0.943  0.000  0.000     2.239     2.340
  12   1 H      0.043  0.957  0.000  0.000     2.406     2.426
  13   1 H      0.032  0.968  0.000  0.000     2.565     2.505
  14   1 H      0.038  0.962  0.000  0.000     2.475     2.460
  15   1 H      0.038  0.962  0.000  0.000     2.472     2.459
  16   1 H      0.041  0.959  0.000  0.000     2.441     2.443
  17   1 H      0.038  0.962  0.000  0.000     2.472     2.459
  18   1 H      0.042  0.958  0.000  0.000     2.427     2.436
  19   1 H      0.043  0.957  0.000  0.000     2.405     2.425
  20   7 N     -0.178  1.240  3.938  0.000    24.858     7.405
  21   6 C      0.012  1.058  2.930  0.000    20.367     6.423
  22   6 C      0.270  1.049  2.681  0.000    22.442     7.758
  23   8 O     -0.483  1.749  4.734  0.000    23.410     6.487
  24   6 C     -0.080  1.056  3.024  0.000    22.015     6.679
  25   6 C     -0.093  1.054  3.039  0.000    22.270     6.717
  26   6 C      0.285  1.041  2.674  0.000    22.167     7.709
  27   8 O     -0.482  1.743  4.738  0.000    23.379     6.483
  28   7 N     -0.291  1.273  4.018  0.000    27.497     7.788
  29   1 H      0.226  0.774  0.000  0.000     0.982     1.552
  30   1 H      0.115  0.885  0.000  0.000     1.653     2.010
  31   1 H      0.087  0.913  0.000  0.000     1.908     2.160
  32   1 H      0.070  0.930  0.000  0.000     2.081     2.256
  33   1 H      0.064  0.936  0.000  0.000     2.150     2.293
  34   1 H      0.041  0.959  0.000  0.000     2.440     2.443
  35   1 H      0.223  0.777  0.000  0.000     0.995     1.563
  36   1 H      0.236  0.764  0.000  0.000     0.941     1.519
  37   7 N     -0.195  1.255  3.940  0.000    25.222     7.459
  38   6 C      0.014  1.079  2.907  0.000    20.357     6.428
  39   6 C      0.285  1.040  2.675  0.000    22.177     7.711
  40   8 O     -0.504  1.765  4.739  0.000    23.884     6.552
  41   6 C     -0.069  1.057  3.011  0.000    21.828     6.654
  42   6 C     -0.101  1.063  3.038  0.000    22.432     6.744
  43   6 C      0.291  1.046  2.664  0.000    22.071     7.692
  44   8 O     -0.493  1.763  4.730  0.000    23.636     6.518
  45   7 N     -0.291  1.290  4.001  0.000    27.511     7.790
  46   1 H      0.229  0.771  0.000  0.000     0.971     1.543
  47   1 H      0.057  0.943  0.000  0.000     2.233     2.337
  48   1 H      0.063  0.937  0.000  0.000     2.164     2.301
  49   1 H      0.082  0.918  0.000  0.000     1.963     2.191
  50   1 H      0.084  0.916  0.000  0.000     1.936     2.176
  51   1 H      0.066  0.934  0.000  0.000     2.134     2.285
  52   1 H      0.224  0.776  0.000  0.000     0.993     1.561
  53   1 H      0.229  0.771  0.000  0.000     0.968     1.541
  54   7 N     -0.164  1.235  3.929  0.000    24.554     7.359
  55   6 C      0.032  1.054  2.913  0.000    20.032     6.372
  56   6 C      0.271  1.043  2.687  0.000    22.432     7.757
  57   8 O     -0.523  1.739  4.784  0.000    24.305     6.610
  58   6 C     -0.079  1.057  3.022  0.000    22.001     6.677
  59   6 C     -0.005  1.082  2.924  0.000    28.157     8.704
  60   6 C     -0.039  1.086  2.954  0.000    28.979     8.828
  61   6 C     -0.047  1.081  2.966  0.000    29.167     8.857
  62   6 C     -0.059  1.078  2.981  0.000    29.454     8.900
  63   6 C     -0.080  1.080  3.001  0.000    30.008     8.983
  64   6 C      0.145  1.046  2.809  0.000    24.845     8.169
  65   8 O     -0.432  1.731  4.701  0.000    21.470     6.255
  66   1 H      0.204  0.796  0.000  0.000     1.084     1.631
  67   1 H      0.072  0.928  0.000  0.000     2.060     2.245
  68   1 H      0.066  0.934  0.000  0.000     2.126     2.280
  69   1 H      0.078  0.922  0.000  0.000     2.003     2.213
  70   1 H      0.041  0.959  0.000  0.000     2.431     2.438
  71   1 H      0.047  0.953  0.000  0.000     2.356     2.400
  72   1 H      0.049  0.951  0.000  0.000     2.338     2.391
  73   1 H      0.053  0.947  0.000  0.000     2.287     2.365
  74   1 H      0.350  0.650  0.000  0.000     0.588     1.205
  75   7 N     -0.145  1.252  3.893  0.000    24.141     7.297
  76   6 C      0.018  1.065  2.917  0.000    20.266     6.407
  77   6 C      0.282  1.047  2.671  0.000    22.224     7.719
  78   8 O     -0.498  1.734  4.764  0.000    23.743     6.533
  79   6 C     -0.088  1.057  3.032  0.000    22.183     6.705
  80   6 C     -0.080  1.055  3.025  0.000    22.020     6.681
  81   6 C     -0.028  1.059  2.968  0.000    21.158     6.566
  82   7 N     -0.137  1.209  3.928  0.000    23.964     7.270
  83   6 C      0.230  1.023  2.748  0.000    23.172     7.881
  84   7 N     -0.245  1.227  4.017  0.000    26.385     7.629
  85   7 N     -0.259  1.238  4.021  0.000    26.731     7.679
  86   1 H      0.248  0.752  0.000  0.000     0.893     1.480
  87   1 H      0.092  0.908  0.000  0.000     1.864     2.135
  88   1 H      0.097  0.903  0.000  0.000     1.816     2.107
  89   1 H      0.068  0.932  0.000  0.000     2.104     2.268
  90   1 H      0.056  0.944  0.000  0.000     2.249     2.345
  91   1 H      0.076  0.924  0.000  0.000     2.019     2.222
  92   1 H      0.098  0.902  0.000  0.000     1.807     2.102
  93   1 H      0.078  0.922  0.000  0.000     1.997     2.210
  94   1 H      0.222  0.778  0.000  0.000     1.001     1.567
  95   1 H      0.245  0.755  0.000  0.000     0.902     1.488
  96   1 H      0.257  0.743  0.000  0.000     0.856     1.449
  97   1 H      0.247  0.753  0.000  0.000     0.896     1.483
  98   1 H      0.256  0.744  0.000  0.000     0.862     1.455
  99   7 N     -0.198  1.251  3.946  0.000    25.293     7.469
 100   6 C      0.031  1.064  2.905  0.000    20.075     6.382
 101   6 C      0.276  1.043  2.681  0.000    22.325     7.738
 102   8 O     -0.510  1.760  4.751  0.000    24.018     6.571
 103   6 C     -0.046  1.050  2.996  0.000    21.400     6.587
 104   6 C     -0.098  1.078  3.020  0.000    22.391     6.740
 105   6 C      0.367  1.032  2.601  0.000    20.772     7.458
 106   8 O     -0.637  1.769  4.868  0.000    27.041     6.972
 107   8 O     -0.647  1.780  4.866  0.000    27.291     7.004
 108   1 H      0.227  0.773  0.000  0.000     0.977     1.548
 109   1 H      0.060  0.940  0.000  0.000     2.203     2.321
 110   1 H      0.031  0.969  0.000  0.000     2.579     2.511
 111   1 H      0.037  0.963  0.000  0.000     2.484     2.465
 112   1 H      0.021  0.979  0.000  0.000     2.715     2.577
 113   1 H      0.027  0.973  0.000  0.000     2.637     2.539
 114   7 N     -0.207  1.259  3.948  0.000    25.502     7.500
 115   6 C      0.038  1.048  2.914  0.000    19.924     6.353
 116   6 C      0.269  1.040  2.690  0.000    22.453     7.762
 117   8 O     -0.485  1.742  4.743  0.000    23.456     6.493
 118   6 C     -0.055  1.048  3.006  0.000    21.538     6.605
 119   6 C     -0.018  1.070  2.949  0.000    20.906     6.511
 120  16 S     -0.263  1.939  4.263  0.061   152.354    20.775
 121   6 C     -0.063  1.058  3.005  0.000    21.789     6.659
 122   1 H      0.232  0.768  0.000  0.000     0.955     1.531
 123   1 H      0.065  0.935  0.000  0.000     2.137     2.286
 124   1 H      0.045  0.955  0.000  0.000     2.383     2.414
 125   1 H      0.051  0.949  0.000  0.000     2.306     2.375
 126   1 H      0.060  0.940  0.000  0.000     2.194     2.316
 127   1 H      0.073  0.927  0.000  0.000     2.053     2.240
 128   1 H      0.067  0.933  0.000  0.000     2.115     2.274
 129   1 H      0.064  0.936  0.000  0.000     2.152     2.294
 130   1 H      0.077  0.923  0.000  0.000     2.014     2.219
 131   7 N     -0.192  1.251  3.941  0.000    25.171     7.451
 132   6 C      0.028  1.051  2.921  0.000    20.073     6.373
 133   6 C      0.286  1.040  2.673  0.000    22.153     7.710
 134   8 O     -0.485  1.736  4.749  0.000    23.446     6.492
 135   6 C     -0.085  1.058  3.027  0.000    22.110     6.691
 136   6 C     -0.013  1.053  2.960  0.000    20.775     6.483
 137   6 C     -0.125  1.044  3.080  0.000    22.936     6.826
 138   6 C     -0.121  1.041  3.079  0.000    22.862     6.817
 139   1 H      0.233  0.767  0.000  0.000     0.954     1.530
 140   1 H      0.095  0.905  0.000  0.000     1.836     2.119
 141   1 H      0.058  0.942  0.000  0.000     2.228     2.334
 142   1 H      0.068  0.932  0.000  0.000     2.110     2.272
 143   1 H      0.044  0.956  0.000  0.000     2.397     2.421
 144   1 H      0.046  0.954  0.000  0.000     2.365     2.405
 145   1 H      0.056  0.944  0.000  0.000     2.242     2.342
 146   1 H      0.034  0.966  0.000  0.000     2.525     2.485
 147   1 H      0.054  0.946  0.000  0.000     2.273     2.358
 148   1 H      0.044  0.956  0.000  0.000     2.399     2.422
 149   1 H      0.037  0.963  0.000  0.000     2.493     2.469
 150   7 N     -0.199  1.253  3.946  0.000    25.323     7.474
 151   6 C      0.020  1.067  2.913  0.000    20.229     6.402
 152   6 C      0.279  1.049  2.672  0.000    22.269     7.727
 153   8 O     -0.483  1.745  4.738  0.000    23.405     6.486
 154   6 C     -0.022  1.067  2.955  0.000    20.924     6.506
 155   6 C     -0.072  1.054  3.018  0.000    21.880     6.659
 156   6 C     -0.115  1.037  3.078  0.000    22.749     6.801
 157   6 C     -0.120  1.040  3.080  0.000    22.865     6.819
 158   1 H      0.228  0.772  0.000  0.000     0.975     1.547
 159   1 H      0.074  0.926  0.000  0.000     2.047     2.237
 160   1 H      0.034  0.966  0.000  0.000     2.533     2.489
 161   1 H      0.047  0.953  0.000  0.000     2.355     2.400
 162   1 H      0.055  0.945  0.000  0.000     2.259     2.351
 163   1 H      0.067  0.933  0.000  0.000     2.116     2.275
 164   1 H      0.017  0.983  0.000  0.000     2.784     2.609
 165   1 H      0.054  0.946  0.000  0.000     2.270     2.356
 166   1 H      0.064  0.936  0.000  0.000     2.158     2.297
 167   1 H      0.044  0.956  0.000  0.000     2.398     2.422
 168   1 H      0.054  0.946  0.000  0.000     2.275     2.359
 169   7 N     -0.190  1.250  3.941  0.000    25.131     7.445
 170   6 C      0.031  1.059  2.909  0.000    20.060     6.379
 171   6 C      0.282  1.038  2.680  0.000    22.221     7.720
 172   8 O     -0.505  1.754  4.751  0.000    23.887     6.553
 173   6 C     -0.114  1.039  3.075  0.000    22.732     6.798
 174   1 H      0.183  0.817  0.000  0.000     1.195     1.712
 175   1 H      0.063  0.937  0.000  0.000     2.161     2.299
 176   1 H      0.068  0.932  0.000  0.000     2.104     2.268
 177   1 H      0.063  0.937  0.000  0.000     2.167     2.302
 178   1 H      0.056  0.944  0.000  0.000     2.248     2.345
 179   7 N     -0.179  1.247  3.932  0.000    24.883     7.409
 180   6 C      0.027  1.053  2.920  0.000    20.108     6.382
 181   6 C      0.270  1.046  2.684  0.000    22.440     7.757
 182   8 O     -0.498  1.750  4.748  0.000    23.741     6.533
 183   6 C     -0.106  1.067  3.038  0.000    22.515     6.755
 184   6 C      0.368  1.025  2.607  0.000    20.759     7.456
 185   8 O     -0.606  1.783  4.823  0.000    26.278     6.873
 186   8 O     -0.578  1.727  4.851  0.000    25.574     6.781
 187   1 H      0.215  0.785  0.000  0.000     1.030     1.590
 188   1 H      0.085  0.915  0.000  0.000     1.932     2.174
 189   1 H      0.071  0.929  0.000  0.000     2.071     2.250
 190   1 H      0.059  0.941  0.000  0.000     2.210     2.325
 191   7 N     -0.188  1.248  3.940  0.000    25.080     7.438
 192   6 C     -0.032  1.053  2.979  0.000    21.222     6.573
 193   6 C      0.273  1.042  2.685  0.000    22.387     7.748
 194   8 O     -0.490  1.736  4.753  0.000    23.557     6.507
 195   1 H      0.215  0.785  0.000  0.000     1.031     1.591
 196   1 H      0.082  0.918  0.000  0.000     1.963     2.191
 197   1 H      0.089  0.911  0.000  0.000     1.891     2.150
 198   7 N     -0.184  1.250  3.934  0.000    24.977     7.423
 199   6 C      0.018  1.061  2.921  0.000    20.260     6.406
 200   6 C      0.277  1.039  2.684  0.000    22.313     7.736
 201   8 O     -0.480  1.741  4.739  0.000    23.342     6.478
 202   6 C     -0.024  1.060  2.964  0.000    20.966     6.511
 203   6 C     -0.064  1.047  3.017  0.000    21.725     6.635
 204   6 C     -0.124  1.042  3.081  0.000    22.917     6.825
 205   6 C     -0.112  1.036  3.076  0.000    22.698     6.794
 206   1 H      0.230  0.770  0.000  0.000     0.965     1.539
 207   1 H      0.063  0.937  0.000  0.000     2.170     2.303
 208   1 H      0.055  0.945  0.000  0.000     2.256     2.349
 209   1 H      0.049  0.951  0.000  0.000     2.330     2.387
 210   1 H      0.023  0.977  0.000  0.000     2.681     2.561
 211   1 H      0.066  0.934  0.000  0.000     2.127     2.281
 212   1 H      0.033  0.967  0.000  0.000     2.544     2.494
 213   1 H      0.060  0.940  0.000  0.000     2.200     2.319
 214   1 H      0.041  0.959  0.000  0.000     2.437     2.441
 215   1 H      0.044  0.956  0.000  0.000     2.393     2.419
 216   1 H      0.049  0.951  0.000  0.000     2.327     2.385
 217   7 N     -0.188  1.252  3.935  0.000    25.065     7.436
 218   6 C      0.041  1.050  2.908  0.000    19.885     6.350
 219   6 C      0.267  1.047  2.686  0.000    22.500     7.769
 220   8 O     -0.500  1.740  4.760  0.000    23.773     6.537
 221   6 C     -0.098  1.070  3.028  0.000    22.368     6.733
 222   6 C      0.371  1.023  2.606  0.000    20.719     7.449
 223   8 O     -0.634  1.768  4.866  0.000    26.981     6.964
 224   8 O     -0.644  1.774  4.870  0.000    27.233     6.997
 225   1 H      0.206  0.794  0.000  0.000     1.077     1.625
 226   1 H      0.049  0.951  0.000  0.000     2.330     2.387
 227   1 H      0.033  0.967  0.000  0.000     2.551     2.498
 228   1 H      0.044  0.956  0.000  0.000     2.398     2.421
 229   7 N     -0.069  1.233  3.836  0.000    22.580     7.057
 230   6 C      0.029  1.063  2.908  0.000    20.063     6.373
 231   6 C      0.202  1.082  2.716  0.000    23.696     7.972
 232   8 O     -0.334  1.740  4.594  0.000    20.406     6.056
 233   6 C     -0.070  1.055  3.015  0.000    21.815     6.647
 234   6 C     -0.071  1.052  3.019  0.000    21.838     6.650
 235   6 C     -0.010  1.050  2.960  0.000    20.806     6.504
 236   1 H      0.080  0.920  0.000  0.000     1.981     2.201
 237   1 H      0.063  0.937  0.000  0.000     2.162     2.300
 238   1 H      0.083  0.917  0.000  0.000     1.945     2.181
 239   1 H      0.059  0.941  0.000  0.000     2.215     2.327
 240   1 H      0.078  0.922  0.000  0.000     2.001     2.212
 241   1 H      0.052  0.948  0.000  0.000     2.301     2.372
 242   1 H      0.074  0.926  0.000  0.000     2.044     2.236
 243   7 N     -0.386  1.311  4.075  0.000    29.978     8.132
 244   6 C      0.035  1.061  2.904  0.000    19.991     6.368
 245   6 C      0.268  1.045  2.687  0.000    22.467     7.762
 246   8 O     -0.518  1.762  4.757  0.000    24.197     6.595
 247   6 C     -0.076  1.061  3.014  0.000    21.940     6.668
 248   6 C     -0.011  1.062  2.949  0.000    20.733     6.477
 249   6 C     -0.126  1.044  3.082  0.000    22.966     6.833
 250   6 C     -0.125  1.046  3.079  0.000    22.951     6.830
 251   1 H      0.160  0.840  0.000  0.000     1.337     1.811
 252   1 H      0.025  0.975  0.000  0.000     2.663     2.552
 253   1 H      0.069  0.931  0.000  0.000     2.102     2.267
 254   1 H      0.035  0.965  0.000  0.000     2.517     2.481
 255   1 H      0.028  0.972  0.000  0.000     2.619     2.531
 256   1 H      0.046  0.954  0.000  0.000     2.370     2.408
 257   1 H      0.024  0.976  0.000  0.000     2.676     2.558
 258   1 H      0.059  0.941  0.000  0.000     2.208     2.324
 259   1 H      0.056  0.944  0.000  0.000     2.246     2.343
 260   1 H      0.045  0.955  0.000  0.000     2.384     2.415
 261   1 H      0.035  0.965  0.000  0.000     2.519     2.482
 262   7 N     -0.168  1.249  3.919  0.000    24.642     7.373
 263   6 C      0.025  1.063  2.912  0.000    20.159     6.395
 264   6 C      0.216  1.081  2.702  0.000    23.426     7.926
 265   8 O     -0.381  1.756  4.625  0.000    21.304     6.188
 266   6 C     -0.081  1.062  3.019  0.000    22.034     6.683
 267   6 C     -0.023  1.061  2.962  0.000    20.953     6.511
 268   6 C     -0.116  1.044  3.073  0.000    22.783     6.805
 269   6 C     -0.124  1.042  3.082  0.000    22.932     6.828
 270   1 H      0.247  0.753  0.000  0.000     0.897     1.483
 271   1 H      0.078  0.922  0.000  0.000     2.001     2.212
 272   1 H      0.051  0.949  0.000  0.000     2.304     2.374
 273   1 H      0.065  0.935  0.000  0.000     2.146     2.291
 274   1 H      0.059  0.941  0.000  0.000     2.207     2.323
 275   1 H      0.042  0.958  0.000  0.000     2.421     2.433
 276   1 H      0.039  0.961  0.000  0.000     2.456     2.451
 277   1 H      0.049  0.951  0.000  0.000     2.336     2.390
 278   1 H      0.044  0.956  0.000  0.000     2.400     2.423
 279   1 H      0.049  0.951  0.000  0.000     2.333     2.389
 280   1 H      0.044  0.956  0.000  0.000     2.394     2.419
 281   7 N     -0.390  1.311  4.079  0.000    30.107     8.149
 282   6 C      0.038  1.052  2.910  0.000    19.958     6.363
 283   6 C      0.192  1.091  2.716  0.000    23.892     8.005
 284   8 O     -0.359  1.757  4.602  0.000    20.871     6.125
 285   6 C     -0.086  1.060  3.026  0.000    22.125     6.696
 286   6 C     -0.086  1.053  3.033  0.000    22.142     6.700
 287   6 C     -0.026  1.059  2.968  0.000    21.134     6.562
 288   7 N     -0.136  1.212  3.925  0.000    23.956     7.269
 289   6 C      0.231  1.022  2.747  0.000    23.145     7.876
 290   7 N     -0.232  1.217  4.015  0.000    26.089     7.586
 291   7 N     -0.246  1.228  4.018  0.000    26.405     7.632
 292   1 H      0.168  0.832  0.000  0.000     1.284     1.775
 293   1 H      0.056  0.944  0.000  0.000     2.253     2.347
 294   1 H      0.063  0.937  0.000  0.000     2.167     2.302
 295   1 H      0.060  0.940  0.000  0.000     2.202     2.321
 296   1 H      0.071  0.929  0.000  0.000     2.078     2.254
 297   1 H      0.068  0.932  0.000  0.000     2.109     2.271
 298   1 H      0.091  0.909  0.000  0.000     1.865     2.136
 299   1 H      0.086  0.914  0.000  0.000     1.920     2.167
 300   1 H      0.232  0.768  0.000  0.000     0.959     1.534
 301   1 H      0.247  0.753  0.000  0.000     0.895     1.482
 302   1 H      0.229  0.771  0.000  0.000     0.969     1.542
 303   1 H      0.242  0.758  0.000  0.000     0.914     1.497
 304   1 H      0.227  0.773  0.000  0.000     0.977     1.548
 305   7 N     -0.392  1.310  4.081  0.000    30.145     8.154
 306   6 C      0.041  1.054  2.905  0.000    19.907     6.355
 307   6 C      0.197  1.095  2.708  0.000    23.796     7.989
 308   8 O     -0.381  1.750  4.631  0.000    21.305     6.188
 309   6 C     -0.075  1.055  3.020  0.000    21.929     6.666
 310   6 C     -0.071  1.051  3.020  0.000    21.856     6.656
 311   6 C     -0.082  1.050  3.032  0.000    22.066     6.688
 312   6 C     -0.035  1.055  2.980  0.000    21.301     6.588
 313   7 N     -0.180  1.250  3.930  0.000    24.892     7.410
 314   1 H      0.183  0.817  0.000  0.000     1.196     1.713
 315   1 H      0.053  0.947  0.000  0.000     2.286     2.364
 316   1 H      0.078  0.922  0.000  0.000     1.997     2.210
 317   1 H      0.042  0.958  0.000  0.000     2.421     2.433
 318   1 H      0.046  0.954  0.000  0.000     2.368     2.406
 319   1 H      0.050  0.950  0.000  0.000     2.323     2.383
 320   1 H      0.083  0.917  0.000  0.000     1.950     2.184
 321   1 H      0.058  0.942  0.000  0.000     2.221     2.331
 322   1 H      0.103  0.897  0.000  0.000     1.757     2.073
 323   1 H      0.101  0.899  0.000  0.000     1.780     2.087
 324   1 H      0.271  0.729  0.000  0.000     0.807     1.407
 325   1 H      0.303  0.697  0.000  0.000     0.703     1.313
 326   1 H      0.256  0.744  0.000  0.000     0.861     1.453
 327   7 N     -0.386  1.320  4.067  0.000    29.997     8.134
 328   6 C      0.042  1.057  2.901  0.000    19.892     6.354
 329   6 C      0.202  1.092  2.706  0.000    23.701     7.973
 330   8 O     -0.379  1.760  4.619  0.000    21.267     6.183
 331   6 C     -0.076  1.060  3.016  0.000    21.944     6.669
 332   6 C      0.002  1.086  2.912  0.000    27.984     8.677
 333   6 C     -0.043  1.088  2.955  0.000    29.069     8.842
 334   6 C     -0.047  1.089  2.958  0.000    29.158     8.855
 335   6 C     -0.060  1.076  2.984  0.000    29.496     8.906
 336   6 C     -0.077  1.081  2.996  0.000    29.916     8.969
 337   6 C      0.138  1.048  2.814  0.000    24.982     8.191
 338   8 O     -0.420  1.721  4.699  0.000    21.247     6.223
 339   1 H      0.169  0.831  0.000  0.000     1.276     1.770
 340   1 H      0.059  0.941  0.000  0.000     2.215     2.328
 341   1 H      0.056  0.944  0.000  0.000     2.245     2.343
 342   1 H      0.041  0.959  0.000  0.000     2.430     2.438
 343   1 H      0.038  0.962  0.000  0.000     2.469     2.457
 344   1 H      0.071  0.929  0.000  0.000     2.078     2.254
 345   1 H      0.040  0.960  0.000  0.000     2.443     2.444
 346   1 H      0.050  0.950  0.000  0.000     2.324     2.384
 347   1 H      0.317  0.683  0.000  0.000     0.671     1.287
 348   7 N     -0.385  1.310  4.075  0.000    29.955     8.129
 349   6 C      0.032  1.058  2.909  0.000    20.052     6.379
 350   6 C      0.196  1.094  2.710  0.000    23.827     7.994
 351   8 O     -0.363  1.754  4.609  0.000    20.956     6.137
 352   6 C     -0.079  1.051  3.028  0.000    21.987     6.671
 353   6 C     -0.012  1.065  2.947  0.000    20.794     6.493
 354  16 S     -0.227  1.922  4.250  0.055   150.753    20.665
 355   6 C     -0.064  1.055  3.010  0.000    21.804     6.661
 356   1 H      0.159  0.841  0.000  0.000     1.341     1.814
 357   1 H      0.080  0.920  0.000  0.000     1.975     2.198
 358   1 H      0.048  0.952  0.000  0.000     2.342     2.393
 359   1 H      0.068  0.932  0.000  0.000     2.111     2.272
 360   1 H      0.056  0.944  0.000  0.000     2.244     2.342
 361   1 H      0.057  0.943  0.000  0.000     2.232     2.336
 362   1 H      0.048  0.952  0.000  0.000     2.343     2.394
 363   1 H      0.059  0.941  0.000  0.000     2.206     2.323
 364   1 H      0.064  0.936  0.000  0.000     2.150     2.293
 365   1 H      0.170  0.830  0.000  0.000     1.274     1.768
 366   1 H      0.058  0.942  0.000  0.000     2.221     2.330
 367   1 H      0.171  0.829  0.000  0.000     1.264     1.761
 368   1 H      0.062  0.938  0.000  0.000     2.176     2.307
 369   1 H      0.190  0.810  0.000  0.000     1.159     1.686
 370   1 H      0.073  0.927  0.000  0.000     2.048     2.238
 371   1 H      0.180  0.820  0.000  0.000     1.214     1.726
 372   1 H      0.065  0.935  0.000  0.000     2.136     2.285
 373   1 H      0.190  0.810  0.000  0.000     1.157     1.685
 374   1 H      0.075  0.925  0.000  0.000     2.030     2.228
 375   1 H      0.190  0.810  0.000  0.000     1.156     1.684
 376   1 H      0.078  0.922  0.000  0.000     2.001     2.212

 Mol. C6AA /au·bohr⁶  :    1307557.753440
 Mol. C8AA /au·bohr⁸  :   29525402.252015
 Mol. α(0) /au        :       1716.321222

 
molecular dipole:
                 x           y           z       tot (Debye)
 q only:        4.505      17.806      -0.287
   full:        4.920      17.120      -1.778      45.502
molecular quadrupole (traceless):
                xx          xy          yy          xz          yz          zz
 q only:    -2833.507    -770.095    4051.146      33.118     466.573   -1217.639
  q+dip:    -2696.773    -620.398    3960.544     206.456     168.481   -1263.770
   full:    -2701.057    -622.018    3963.233     210.003     167.828   -1262.176
speedup  1.96
cpu  time for grad   14.39 s
wall time for grad    7.33 s

SCC energy    :    -574.6873463
rep           :       6.9685200
ES            :       1.7966120
AES           :      -0.0534060
AXC           :       0.2046842
disp          :      -0.4818617
XB            :       0.0000000
fix           :       0.0000000
Gborn         :       0.0000000
Gsasa         :       0.0000000
Ghb           :       0.0000000
Gshift        :       0.0000000
Gsolv         :      -0.5051052     -316.96
Etot ala COSMO:    -574.6873463
grad norm     :       0.5497736
total E       :    -567.6772048
atomizationE  :     104.1873241    65378.53
(atE without considering molecular charge,
 total energy contains solvation terms)
H-L gap (eV)  :          1.7355

------------------------------------------------------------------------
 * finished run on 2019/05/09 at 18:12:51.614     
------------------------------------------------------------------------
 total:
 * wall-time:     0 d,  0 h,  0 min,  7.822 sec
 *  cpu-time:     0 d,  0 h,  0 min, 15.299 sec
 * ratio c/w:     1.956 speedup
 SCF:
 * wall-time:     0 d,  0 h,  0 min,  7.670 sec
 *  cpu-time:     0 d,  0 h,  0 min, 15.067 sec
 * ratio c/w:     1.964 speedup

