      -----------------------------------------------------------      
     |                   =====================                   |     
     |                           x T B                           |     
     |                   =====================                   |     
     |                         S. Grimme                         |     
     |          Mulliken Center for Theoretical Chemistry        |     
     |                    University of Bonn                     |     
     |                 Version 6.0.1 (SAW181210)                 |     
      -----------------------------------------------------------      

   This program is distributed in the hope that it will be useful,
   but WITHOUT ANY WARRANTY; without even the implied warranty of
   MERCHANTABILITY or FITNESS FOR A PARTICULAR PURPOSE.
   
   FOR NON-COMMERCIAL, ACADEMIA USE ONLY.
   
   Cite this work as:
   S. Grimme, C. Bannwarth, P. Shushkov, J. Comput. Theory Chem., 2017,
   13, 1989-2009.
   C. Bannwarth, S. Ehlert and S. Grimme., ChemRxiv, 2018, preprint.
   http://doi.org/10.26434/chemrxiv.7246238.v1
   
   for sTDA-xTB:
   S. Grimme and C. Bannwarth, J. Chem. Phys., 2016, 145, 054103.
   
   in the mass-spec context:
   V. Asgeirsson, C. Bauer and S. Grimme, Chem. Sci., 2017, 8, 4879.
   
   if GBSA is used:
   P. Shushkov, F. März and S. Grimme, unpublished.
   
   for ANC optimizer:
   S. Grimme, unpublished.
   Rational Function algorithm used in ANCopt:
   F. Eckert, P. Pulay, H.-J. Werner, J. Comput. Chem., 1997, 18, 1473.
   
   with help from (in alphabetical order)
   C. Bannwarth, F. Bohle, G. Brandenburg, E. Caldeweyher, M. Checinski,
   S. Dohm, S. Ehlert, S. Ehrlich, F. März, H. Neugebauer, J. Pisarek,
   P. Pracht, P. Shushkov, and S. Spicher.
   
 * started run on 2019/05/04 at 20:23:43.273     
========================================================================
 # omp threads = 2
========================================================================
number of atoms            : 1629
number of electrons        : 4458
charge                     : -8
spin                       : .0
first test random number   : .9794

########################################################################
# WARNING! Please study the warnings concerning your input carefully
#  - Process number higher than OMP_NUM_THREADS, I hope you know what you are doing.
########################################################################

           ------------------------------------------------- 
          |                 G F N 2 - x T B                 |
          | Geometry, Frequencies, Noncovalent interactions |
          |            JCTC 2018 parametrisation            |
           ------------------------------------------------- 
 
      method parameters     
 k(s)        :  1.8500
 k(p)        :  2.2300
 k(d)        :  2.2300
 k(f)        :  2.0000
 kEN (H0ij)  : -2.0000
 D4 a1       :  0.5200
 D4 a2       :  5.0000
 D4 s6       :  1.0000
 D4 s8       :  2.7000
 D4 s9       :  5.0000
 alphaj      :  2.0000

 Solvent             : h2o
 Using internal parameter file: .param_gbsa2_h2o
 Gsolv ref. state (COSMO-RS): gsolv [1 M gas/solution]
 temperature (mdtemp)       :    298.150000000000     
 dielectric constant        :    80.2000000000000     
 rho                        :    1.00000000000000     
 mass                       :    18.0000000000000     
 surface tension            :    15.5689454083859     
 probe radius               :   0.975313790000000     
 vdW radii scaling          :    1.00000000000000     
 Gshift (Eh)                :   1.857443126794793E-003
 c1                         :    1.55243817000000     
 soset                      :   0.130326360000000     
 HB correction              :  T

            Z     q(EN)     CN     RAES       Cart. coordinates
     1  N   5.0   -0.12    4.08    3.08    14.81356   183.25428    -5.40273
     2  C   4.0    0.01    4.31    4.22    12.22464   182.15446    -5.60115
     3  C   4.0    0.15    3.42    3.08    10.60136   182.85933    -3.33537
     4  O   6.0   -0.33    1.24    1.80    11.51977   183.11633    -1.20942
     5  C   4.0    0.03    4.14    3.89    12.32857   179.27452    -5.86949
     6  O   6.0   -0.25    2.06    1.83     9.85681   178.29375    -6.18129
     7  H   1.0    0.04    1.02    1.43    16.14204   181.80675    -5.39895
     8  H   1.0    0.04    1.01    1.43    15.14048   184.43914    -6.93529
     9  H   1.0    0.06    1.03    1.43    14.96285   184.28418    -3.73599
    10  H   1.0    0.05    1.06    1.44    11.33458   182.92169    -7.29245
    11  H   1.0    0.04    1.01    1.43    13.46430   178.78886    -7.51733
    12  H   1.0    0.04    1.01    1.43    13.16950   178.46572    -4.17251
    13  H   1.0    0.15    1.04    1.43     9.49020   178.06321    -7.98220
    14  N   5.0   -0.13    3.55    2.12     8.16740   183.14657    -3.82858
    15  C   4.0    0.03    4.41    4.40     6.37405   183.95537    -1.91618
    16  C   4.0    0.14    3.39    3.07     4.92274   181.71038    -0.79935
    17  O   6.0   -0.32    1.22    1.80     4.25755   181.69148     1.44753
    18  C   4.0   -0.05    4.27    4.14     4.55424   185.90557    -3.04435
    19  C   4.0   -0.04    4.24    4.08     4.02323   185.57109    -5.86382
    20  C   4.0    0.24    3.13    3.03     5.72965   187.17925    -7.51733
    21  O   6.0   -0.32    1.17    1.80     4.70164   188.73827    -8.95919
    22  O   6.0   -0.31    1.20    1.80     8.07669   186.89579    -7.37749
    23  H   1.0    0.09    1.09    1.44     7.37182   182.82910    -5.55579
    24  H   1.0    0.05    1.06    1.44     7.33970   184.90024    -0.36094
    25  H   1.0    0.04    1.03    1.43     2.75333   185.76951    -2.05413
    26  H   1.0    0.04    1.03    1.43     5.36304   187.78207    -2.78357
    27  H   1.0    0.04    1.04    1.43     4.31991   183.59821    -6.37216
    28  H   1.0    0.04    1.03    1.43     2.07303   186.11155    -6.24743
    29  N   5.0   -0.14    3.47    2.06     4.46731   179.82065    -2.39428
    30  C   4.0    0.03    4.35    4.29     3.01978   177.58889    -1.67997
    31  C   4.0    0.15    3.42    3.09     4.61849   175.75774    -0.13606
    32  O   6.0   -0.32    1.29    1.80     4.03456   175.17760     2.03523
    33  C   4.0   -0.08    4.12    3.85     2.00311   176.29253    -4.04023
    34  H   1.0    0.08    1.07    1.44     5.08336   179.77908    -4.21976
    35  H   1.0    0.05    1.06    1.44     1.42107   178.17470    -0.51967
    36  H   1.0    0.04    1.00    1.43     0.92597   174.62957    -3.48088
    37  H   1.0    0.04    1.00    1.43     0.78613   177.60778    -5.05691
    38  H   1.0    0.05    1.00    1.43     3.58670   175.73506    -5.23454
    39  N   5.0   -0.15    3.49    2.07     6.64617   174.85445    -1.30202
    40  C   4.0    0.03    4.37    4.33     8.42062   173.11401    -0.10960
    41  C   4.0    0.15    3.46    3.10     9.35036   174.16659     2.43019
    42  O   6.0   -0.30    1.28    1.80     9.51666   172.77575     4.30480
    43  C   4.0   -0.05    4.32    4.23    10.63727   172.60001    -1.92563
    44  C   4.0   -0.03    4.14    3.88    10.46341   170.74430    -4.18196
    45  C   4.0   -0.08    4.07    3.75     7.77811   170.12258    -5.11927
    46  C   4.0   -0.07    4.09    3.79    12.06023   171.75152    -6.37405
    47  H   1.0    0.08    1.07    1.44     7.12994   175.29854    -3.11427
    48  H   1.0    0.05    1.06    1.44     7.49276   171.31500     0.26834
    49  H   1.0    0.05    1.05    1.44    11.14182   174.41604    -2.75522
    50  H   1.0    0.04    1.04    1.43    12.18873   171.89892    -0.76534
    51  H   1.0    0.04    1.06    1.44    11.18340   168.94528    -3.48465
    52  H   1.0    0.04    1.00    1.43     7.90661   168.80733    -6.69908
    53  H   1.0    0.04    1.00    1.43     6.71231   169.26653    -3.57914
    54  H   1.0    0.05    1.00    1.43     6.85971   171.86302    -5.72587
    55  H   1.0    0.06    1.00    1.43    11.92984   170.44005    -7.95575
    56  H   1.0    0.05    1.00    1.43    11.34214   173.59967    -6.93340
    57  H   1.0    0.04    1.00    1.43    14.01799   171.91593    -5.75611
    58  N   5.0   -0.14    3.47    2.06     9.92673   176.62513     2.44908
    59  C   4.0    0.03    4.39    4.36    10.31979   178.11423     4.74699
    60  C   4.0    0.16    3.49    3.11     9.09147   176.81599     7.01466
    61  O   6.0   -0.31    1.20    1.80    10.33302   176.16781     8.88171
    62  C   4.0   -0.04    4.31    4.22     9.10848   180.72772     4.37283
    63  C   4.0   -0.06    4.17    3.94    10.05523   182.82343     6.08870
    64  C   4.0   -0.05    4.18    3.97    12.22464   184.25017     4.83014
    65  C   4.0   -0.06    4.12    3.84    13.19407   186.40824     6.47231
    66  N   5.0   -0.13    3.99    2.83    15.34457   187.79530     5.26478
    67  H   1.0    0.08    1.06    1.44    10.14216   177.67392     0.84660
    68  H   1.0    0.04    1.05    1.44    12.33424   178.31454     5.12305
    69  H   1.0    0.06    1.04    1.44     9.46186   181.32676     2.43397
    70  H   1.0    0.06    1.05    1.44     7.08269   180.54820     4.69786
    71  H   1.0    0.03    1.03    1.43     8.52644   184.15190     6.46664
    72  H   1.0    0.04    1.03    1.43    10.73742   182.01462     7.85559
    73  H   1.0    0.04    1.03    1.43    13.78555   182.95004     4.49188
    74  H   1.0    0.05    1.03    1.43    11.56890   185.04385     3.04624
    75  H   1.0    0.02    1.02    1.43    11.66528   187.75183     6.79356
    76  H   1.0    0.02    1.02    1.43    13.85169   185.64668     8.26944
    77  H   1.0    0.02    1.01    1.43    15.95118   189.24849     6.44019
    78  H   1.0    0.03    1.01    1.43    16.84313   186.56508     4.94730
    79  H   1.0    0.04    1.01    1.43    14.77199   188.56063     3.54702
    80  N   5.0   -0.14    3.59    2.15     6.63483   176.38324     6.74821
    81  C   4.0    0.03    4.47    4.49     4.97565   175.62168     8.80612
    82  C   4.0    0.15    3.50    3.11     4.71865   172.76819     9.01777
    83  O   6.0   -0.31    1.23    1.80     4.44464   171.74774    11.10403
    84  C   4.0   -0.03    4.30    4.20     2.31680   176.83489     8.47164
    85  C   4.0   -0.04    4.23    4.06     0.64251   175.30799     6.63105
    86  C   4.0   -0.08    4.09    3.79     2.57381   179.63168     7.60237
    87  C   4.0   -0.08    4.02    3.65    -1.07714   173.39369     7.84803
    88  H   1.0    0.10    1.10    1.44     5.70130   176.54954     5.07013
    89  H   1.0    0.05    1.06    1.44     5.80902   176.30576    10.55979
    90  H   1.0    0.03    1.06    1.44     1.37950   176.79520    10.30468
    91  H   1.0    0.04    1.04    1.43    -0.54802   176.62702     5.58981
    92  H   1.0    0.06    1.07    1.44     1.87083   174.28942     5.32903
    93  H   1.0    0.04    1.00    1.43     0.69164   180.44048     7.37938
    94  H   1.0    0.03    1.00    1.43     3.62638   180.68237     9.02722
    95  H   1.0    0.06    1.01    1.43     3.57914   179.68648     5.80524
    96  H   1.0    0.03    1.00    1.43    -2.15996   172.43749     6.37971
    97  H   1.0    0.05    1.01    1.43     0.06614   172.02742     8.88171
    98  H   1.0    0.03    1.00    1.43    -2.35271   174.36501     9.14249
    99  N   5.0   -0.14    3.57    2.13     4.77912   171.49452     6.85215
   100  C   4.0    0.04    4.44    4.45     4.45597   168.77520     6.81813
   101  C   4.0    0.15    3.44    3.09     6.75955   167.46751     7.93874
   102  O   6.0   -0.31    1.23    1.80     6.82191   165.14504     8.09748
   103  C   4.0   -0.04    4.38    4.35     3.96465   167.79822     4.14795
   104  C   4.0   -0.03    4.21    4.01     1.83114   165.84424     4.03079
   105  C   4.0   -0.09    4.13    3.86    -0.40440   167.13303     2.78546
   106  C   4.0   -0.08    4.09    3.79     2.56625   163.44807     2.60593
   107  H   1.0    0.10    1.07    1.44     5.04557   172.29198     5.11738
   108  H   1.0    0.04    1.07    1.44     2.77979   168.28199     7.90850
   109  H   1.0    0.04    1.05    1.44     3.44119   169.38559     2.94230
   110  H   1.0    0.05    1.04    1.43     5.68241   166.91004     3.43741
   111  H   1.0    0.04    1.07    1.44     1.36249   165.20173     5.92996
   112  H   1.0    0.03    1.00    1.43    -1.96909   165.79700     2.66829
   113  H   1.0    0.03    1.00    1.43    -0.95620   168.76198     3.91929
   114  H   1.0    0.03    1.00    1.43     0.14173   167.74341     0.89573
   115  H   1.0    0.03    1.00    1.43     0.96376   162.15360     2.60026
   116  H   1.0    0.03    1.00    1.43     3.07458   163.94695     0.67274
   117  H   1.0    0.05    1.00    1.43     4.17440   162.57312     3.55080
   118  N   5.0   -0.13    3.50    2.08     8.65306   168.95095     8.67951
   119  C   4.0    0.05    4.38    4.34    10.73175   167.94939    10.14405
   120  C   4.0    0.08    3.24    3.04    10.24798   168.10813    12.98242
   121  O   6.0   -0.30    1.18    1.80    11.65583   167.03099    14.48853
   122  C   4.0   -0.03    4.35    4.29    13.18273   169.28354     9.51099
   123  C   4.0    0.16    3.30    3.05    15.34646   168.30466    11.06435
   124  O   6.0   -0.27    1.24    1.80    15.57134   166.02376    11.47064
   125  N   5.0   -0.19    3.18    1.95    16.92817   170.01297    11.99598
   126  H   1.0    0.11    1.08    1.44     8.78345   170.83501     8.29023
   127  H   1.0    0.07    1.07    1.44    10.99254   165.97085     9.63760
   128  H   1.0    0.05    1.03    1.43    13.62681   168.98118     7.52300
   129  H   1.0    0.05    1.04    1.43    12.97675   171.29799     9.88894
   130  H   1.0    0.08    1.02    1.43    18.43050   169.45362    13.06557
   131  H   1.0    0.07    1.03    1.43    16.64093   171.88569    11.64260
   132  N   5.0   -0.22    3.22    1.96    -1.69130   170.30588    16.86580
   133  C   4.0    0.03    4.28    4.16    -3.12939   168.61458    15.32379
   134  C   4.0    0.07    3.23    3.04    -5.57847   167.98341    16.66549
   135  O   6.0   -0.32    1.21    1.80    -7.57024   168.90560    15.88882
   136  C   4.0   -0.06    4.34    4.27    -1.60627   166.25998    14.65860
   137  C   4.0   -0.03    4.17    3.94    -2.48688   164.82946    12.28700
   138  C   4.0   -0.08    4.12    3.84    -4.62038   166.15982    10.79222
   139  C   4.0   -0.08    4.11    3.82    -0.24566   164.34758    10.55223
   140  H   1.0    0.07    1.03    1.43    -0.03024   169.59912    17.54422
   141  H   1.0    0.04    1.08    1.44    -3.59237   169.50086    13.52288
   142  H   1.0    0.04    1.04    1.43     0.34960   166.82312    14.34491
   143  H   1.0    0.03    1.03    1.43    -1.71776   164.94851    16.24408
   144  H   1.0    0.03    1.06    1.44    -3.29379   163.05122    12.94462
   145  H   1.0    0.03    1.00    1.43    -5.11171   165.00898     9.15572
   146  H   1.0    0.05    1.00    1.43    -6.26255   166.37525    12.01677
   147  H   1.0    0.04    1.00    1.43    -3.95520   168.00986    10.17617
   148  H   1.0    0.03    1.00    1.43    -0.89762   163.33468     8.88171
   149  H   1.0    0.04    1.00    1.43     0.57826   166.15415    10.00232
   150  H   1.0    0.04    1.00    1.43     1.15084   163.21752    11.55945
   151  N   5.0   -0.19    3.34    2.00   -10.38215   172.72473    15.46363
   152  C   4.0    0.03    4.36    4.31   -11.51599   172.96284    13.00509
   153  C   4.0    0.14    3.41    3.08   -12.85203   170.52320    12.30212
   154  O   6.0   -0.32    1.27    1.80   -14.22775   170.41738    10.44452
   155  C   4.0   -0.04    4.27    4.13    -9.56768   173.85101    11.07946
   156  C   4.0   -0.04    4.21    4.03   -10.57491   175.94671     9.38060
   157  C   4.0    0.14    3.21    3.04   -11.28355   178.36934    10.81301
   158  O   6.0   -0.32    1.21    1.80   -13.09202   178.40525    12.28889
   159  N   5.0   -0.19    3.16    1.95    -9.86815   180.39702    10.35381
   160  H   1.0    0.09    1.04    1.43    -8.49621   173.10835    15.55244
   161  H   1.0    0.06    1.09    1.44   -12.97108   174.42171    12.99565
   162  H   1.0    0.04    1.04    1.43    -7.91606   174.57288    12.07724
   163  H   1.0    0.04    1.03    1.43    -9.02911   172.26175     9.88516
   164  H   1.0    0.04    1.03    1.43    -9.12738   176.43426     7.99921
   165  H   1.0    0.06    1.03    1.43   -12.26621   175.26641     8.42062
   166  H   1.0    0.07    1.02    1.43    -8.40361   180.28741     9.10659
   167  H   1.0    0.08    1.02    1.43   -10.24798   182.05998    11.24954
   168  N   5.0   -0.14    3.52    2.09   -12.47408   168.58245    13.84980
   169  C   4.0    0.03    4.29    4.18   -13.52666   166.10691    13.34713
   170  C   4.0    0.07    3.37    3.07   -16.23842   166.05211    14.16539
   171  O   6.0   -0.30    1.24    1.80   -17.87681   165.16583    12.78211
   172  C   4.0   -0.08    4.13    3.86   -12.03944   164.09813    14.70396
   173  H   1.0    0.10    1.10    1.44   -11.44040   168.67316    15.47497
   174  H   1.0    0.06    1.06    1.44   -13.40572   165.69684    11.33269
   175  H   1.0    0.04    1.00    1.43   -12.86903   162.25754    14.29389
   176  H   1.0    0.04    1.00    1.43   -10.08736   164.15104    14.04822
   177  H   1.0    0.04    1.00    1.43   -12.10936   164.46474    16.72974
   178  N   5.0   -0.19    3.35    2.00   -19.81378   169.32700    13.48886
   179  C   4.0    0.03    4.30    4.19   -21.24052   170.61391    11.52544
   180  C   4.0    0.15    3.45    3.09   -22.84112   168.79599     9.95508
   181  O   6.0   -0.30    1.23    1.80   -24.97462   169.42716     9.23509
   182  C   4.0   -0.03    4.27    4.14   -19.46796   172.19939     9.85303
   183  C   4.0   -0.02    4.20    4.00   -18.79521   171.09579     7.24710
   184  C   4.0    0.24    3.11    3.03   -20.08212   172.53576     5.09848
   185  O   6.0   -0.29    1.17    1.80   -22.38002   173.13669     5.36115
   186  O   6.0   -0.31    1.17    1.80   -18.78766   173.08756     3.16718
   187  H   1.0    0.10    1.09    1.44   -17.90326   169.40637    13.24509
   188  H   1.0    0.04    1.06    1.44   -22.55199   171.91404    12.43818
   189  H   1.0    0.05    1.04    1.43   -20.36747   174.02297     9.52044
   190  H   1.0    0.06    1.05    1.44   -17.69728   172.46206    10.87159
   191  H   1.0    0.06    1.03    1.43   -16.75809   171.20917     6.96931
   192  H   1.0    0.05    1.06    1.44   -19.40938   169.13047     7.16395
   193  N   5.0   -0.14    3.51    2.08   -21.83578   166.54155     9.46942
   194  C   4.0    0.04    4.45    4.46   -23.02442   164.88615     7.64772
   195  C   4.0    0.14    3.46    3.10   -23.66315   162.33124     8.74754
   196  O   6.0   -0.29    1.74    1.81   -22.52553   161.50354    10.59380
   197  C   4.0    0.03    4.17    3.94   -21.33312   164.60647     5.33659
   198  O   6.0   -0.27    2.12    1.84   -22.68805   163.43673     3.36938
   199  H   1.0    0.12    1.10    1.44   -20.24085   165.84424    10.29523
   200  H   1.0    0.06    1.08    1.44   -24.83100   165.69873     7.08647
   201  H   1.0    0.04    1.02    1.43   -20.71140   166.46974     4.71865
   202  H   1.0    0.04    1.03    1.43   -19.70228   163.44618     5.82414
   203  H   1.0    0.11    1.01    1.43   -22.75986   164.55734     1.89728
   204  N   5.0   -0.13    3.55    2.11   -25.51319   161.10103     7.59859
   205  C   4.0    0.02    4.58    4.64   -26.22562   158.56879     8.32802
   206  C   4.0    0.15    3.62    3.18   -24.10156   156.82647     7.68741
   207  O   6.0   -0.30    1.40    1.80   -22.97907   157.03434     5.67296
   208  C   4.0    0.05    4.32    4.24   -28.38368   157.60692     6.73876
   209  O   6.0   -0.26    2.14    1.85   -27.95472   158.35903     4.16685
   210  C   4.0   -0.09    4.07    3.75   -30.89513   158.60848     7.71197
   211  H   1.0    0.08    1.07    1.44   -26.55821   161.81723     6.14539
   212  H   1.0    0.03    1.06    1.44   -26.72450   158.59147    10.32735
   213  H   1.0    0.03    1.05    1.44   -28.49896   155.55279     6.82947
   214  H   1.0    0.14    1.05    1.44   -26.14436   158.61226     3.87394
   215  H   1.0    0.03    1.00    1.43   -32.43715   157.89794     6.54601
   216  H   1.0    0.02    1.00    1.43   -31.19182   157.99810     9.65650
   217  H   1.0    0.04    1.00    1.43   -30.90458   160.66639     7.64961
   218  N   5.0   -0.16    3.49    2.07   -23.59890   155.07091     9.39194
   219  C   4.0    0.03    4.45    4.46   -21.94728   152.96576     8.84959
   220  C   4.0    0.16    3.63    3.18   -21.98129   152.41207     6.05468
   221  O   6.0   -0.31    1.44    1.80   -20.06511   152.69175     4.79046
   222  C   4.0   -0.06    4.39    4.37   -22.85435   150.59415    10.22342
   223  C   4.0   -0.03    4.19    3.97   -21.07044   148.31514     9.98531
   224  C   4.0   -0.08    4.08    3.76   -19.54733   147.95798    12.45140
   225  C   4.0   -0.08    4.09    3.78   -22.49908   145.90952     9.29745
   226  H   1.0    0.07    1.06    1.44   -24.31699   155.05957    11.18151
   227  H   1.0    0.04    1.05    1.44   -20.04054   153.43819     9.47131
   228  H   1.0    0.03    1.04    1.43   -23.04710   151.03068    12.22653
   229  H   1.0    0.03    1.04    1.44   -24.67982   150.04235     9.44485
   230  H   1.0    0.04    1.06    1.44   -19.74575   148.68175     8.45085
   231  H   1.0    0.04    1.00    1.43   -18.29822   146.33471    12.23787
   232  H   1.0    0.04    1.00    1.43   -18.43806   149.65685    12.80667
   233  H   1.0    0.04    1.00    1.43   -20.85691   147.63673    14.00854
   234  H   1.0    0.05    1.00    1.43   -21.15926   144.35239     9.15005
   235  H   1.0    0.03    1.00    1.43   -23.88425   145.50890    10.76766
   236  H   1.0    0.04    1.00    1.43   -23.45150   146.18920     7.49276
   237  N   5.0   -0.15    3.52    2.09   -24.18849   151.64862     5.11549
   238  C   4.0    0.03    4.43    4.43   -24.53242   150.83415     2.50011
   239  C   4.0    0.17    3.57    3.15   -22.57467   152.00011     0.80313
   240  O   6.0   -0.29    1.25    1.80   -21.28020   150.68108    -0.60660
   241  C   4.0   -0.05    4.28    4.16   -27.16859   151.54279     1.53824
   242  C   4.0   -0.03    4.20    4.00   -27.55976   151.18563    -1.31525
   243  C   4.0    0.24    3.12    3.03   -27.48228   148.42663    -2.11649
   244  O   6.0   -0.31    1.17    1.80   -29.43248   147.10383    -1.82925
   245  O   6.0   -0.28    1.17    1.80   -25.46595   147.59705    -3.04246
   246  H   1.0    0.06    1.06    1.44   -25.81555   151.57114     6.14539
   247  H   1.0    0.05    1.06    1.44   -24.33400   148.78568     2.43586
   248  H   1.0    0.04    1.03    1.43   -28.55565   150.36549     2.50578
   249  H   1.0    0.05    1.03    1.43   -27.50874   153.52890     1.96531
   250  H   1.0    0.04    1.03    1.43   -29.40036   151.94908    -1.84059
   251  H   1.0    0.06    1.04    1.43   -26.06877   152.18341    -2.32625
   252  N   5.0   -0.12    3.61    2.17   -22.38002   154.49454     0.98455
   253  C   4.0    0.04    4.52    4.57   -20.61502   155.97231    -0.49889
   254  C   4.0    0.16    3.54    3.14   -17.94484   155.27122     0.13984
   255  O   6.0   -0.32    1.43    1.80   -16.58046   154.21487    -1.41729
   256  C   4.0    0.05    4.33    4.25   -20.86257   158.76344     0.12850
   257  O   6.0   -0.25    2.12    1.84   -23.49118   159.41917     0.35905
   258  C   4.0   -0.07    4.08    3.76   -19.56433   160.35459    -1.89162
   259  H   1.0    0.11    1.10    1.44   -23.44961   155.56791     2.17507
   260  H   1.0    0.06    1.06    1.44   -21.02509   155.62082    -2.48688
   261  H   1.0    0.05    1.07    1.44   -19.94228   159.17918     1.92374
   262  H   1.0    0.14    1.06    1.44   -23.67827   160.91394     1.43808
   263  H   1.0    0.04    1.00    1.43   -19.74386   162.35580    -1.43619
   264  H   1.0    0.04    1.00    1.43   -17.56500   159.86893    -1.99366
   265  H   1.0    0.05    1.00    1.43   -20.43172   160.00688    -3.72843
   266  N   5.0   -0.13    3.66    2.22   -17.24186   155.88916     2.46798
   267  C   4.0    0.03    4.46    4.48   -14.71152   155.50933     3.42229
   268  C   4.0    0.16    3.53    3.13   -13.86870   152.89395     2.68341
   269  O   6.0   -0.33    1.41    1.80   -12.05078   152.60482     1.27368
   270  C   4.0   -0.05    4.38    4.35   -14.65294   155.85137     6.28523
   271  C   4.0   -0.02    4.25    4.10   -16.46518   157.84314     7.36237
   272  C   4.0   -0.08    4.10    3.81   -16.09858   158.30423    10.17239
   273  C   4.0   -0.07    4.16    3.93   -16.20818   160.30923     5.96209
   274  H   1.0    0.09    1.11    1.45   -18.42294   156.67907     3.77000
   275  H   1.0    0.04    1.06    1.44   -13.42461   156.91339     2.63995
   276  H   1.0    0.04    1.04    1.43   -15.13859   154.05046     7.15828
   277  H   1.0    0.03    1.03    1.43   -12.74431   156.40506     6.82758
   278  H   1.0    0.06    1.07    1.44   -18.36814   157.09670     7.11104
   279  H   1.0    0.05    1.00    1.43   -17.44406   159.73287    10.79789
   280  H   1.0    0.04    1.00    1.43   -16.42172   156.54301    11.18907
   281  H   1.0    0.04    1.00    1.43   -14.17294   158.95997    10.49932
   282  H   1.0    0.05    1.01    1.43   -17.51776   161.67928     6.77089
   283  H   1.0    0.03    1.00    1.43   -14.27310   160.98953     6.15295
   284  H   1.0    0.04    1.02    1.43   -16.65227   160.00121     3.97409
   285  N   5.0   -0.14    3.53    2.10   -15.28032   151.00800     3.54324
   286  C   4.0    0.03    4.41    4.40   -14.71152   148.37183     3.01222
   287  C   4.0    0.16    3.50    3.12   -14.19373   147.96743     0.22299
   288  O   6.0   -0.31    1.24    1.80   -12.36637   146.69565    -0.46676
   289  C   4.0   -0.04    4.25    4.10   -16.90927   146.68809     3.86071
   290  C   4.0   -0.03    4.14    3.88   -16.59935   143.81570     3.36182
   291  C   4.0    0.23    3.09    3.02   -16.22519   142.19243     5.76933
   292  O   6.0   -0.30    1.15    1.80   -17.98830   140.65608     6.35515
   293  O   6.0   -0.31    1.17    1.80   -14.18428   142.43431     7.02033
   294  H   1.0    0.10    1.10    1.44   -16.85447   151.24611     4.62983
   295  H   1.0    0.05    1.06    1.44   -13.03155   147.84082     4.07803
   296  H   1.0    0.04    1.03    1.43   -17.15682   146.92808     5.89217
   297  H   1.0    0.06    1.03    1.43   -18.60813   147.29847     2.86671
   298  H   1.0    0.05    1.03    1.43   -18.29066   143.12973     2.40751
   299  H   1.0    0.06    1.03    1.43   -14.94962   143.53224     2.16185
   300  N   5.0   -0.13    3.56    2.13   -15.79244   149.05780    -1.37761
   301  C   4.0    0.04    4.48    4.51   -15.59213   148.55514    -4.07236
   302  C   4.0    0.16    3.52    3.12   -13.38115   149.97432    -5.06636
   303  O   6.0   -0.31    1.27    1.80   -12.00165   149.05213    -6.64995
   304  C   4.0   -0.03    4.28    4.17   -17.97885   149.29780    -5.53690
   305  C   4.0   -0.02    4.18    3.96   -18.76120   147.29658    -7.50977
   306  C   4.0    0.25    3.11    3.03   -20.02354   148.40963    -9.83224
   307  O   6.0   -0.28    1.19    1.80   -20.54699   150.72265    -9.86248
   308  O   6.0   -0.29    1.17    1.80   -20.48463   146.96021   -11.64449
   309  H   1.0    0.12    1.08    1.44   -17.20973   150.26534    -0.87872
   310  H   1.0    0.06    1.07    1.44   -15.38615   146.52557    -4.36338
   311  H   1.0    0.08    1.04    1.43   -19.53599   149.52646    -4.20842
   312  H   1.0    0.07    1.04    1.43   -17.63303   151.07036    -6.52900
   313  H   1.0    0.07    1.03    1.43   -17.07934   146.28369    -8.13149
   314  H   1.0    0.06    1.03    1.43   -20.08968   145.98700    -6.63672
   315  N   5.0   -0.14    3.66    2.22   -13.02399   152.21365    -4.05724
   316  C   4.0    0.04    4.51    4.56   -11.09836   153.84637    -4.98888
   317  C   4.0    0.16    3.57    3.15    -8.48109   153.09237    -4.00055
   318  O   6.0   -0.32    1.34    1.80    -6.55735   153.70086    -5.14005
   319  C   4.0   -0.03    4.50    4.53   -11.77677   156.51277    -4.27645
   320  C   4.0   -0.04    4.18    3.96   -10.70341   157.26866    -1.79713
   321  S   6.0   -0.02    2.73    3.11    -7.76299   158.79178    -2.44342
   322  C   4.0   -0.07    3.95    3.54    -8.96486   161.82479    -3.35426
   323  H   1.0    0.13    1.19    1.46   -14.04822   152.93552    -2.59270
   324  H   1.0    0.05    1.07    1.44   -11.00009   153.77834    -7.04490
   325  H   1.0    0.05    1.09    1.44   -11.04545   157.79779    -5.70886
   326  H   1.0    0.05    1.04    1.44   -13.82712   156.67718    -4.16307
   327  H   1.0    0.04    1.07    1.44   -11.96574   158.58202    -0.83526
   328  H   1.0    0.07    1.11    1.45   -10.37837   155.61137    -0.61794
   329  H   1.0    0.04    1.09    1.44    -7.38505   163.05500    -3.83425
   330  H   1.0    0.05    1.04    1.43   -10.19696   161.59425    -4.98888
   331  H   1.0    0.03    1.09    1.44   -10.02689   162.62604    -1.78012
   332  N   5.0   -0.14    3.56    2.12    -8.39227   151.76200    -1.89351
   333  C   4.0    0.04    4.46    4.47    -6.03389   150.60738    -1.12628
   334  C   4.0    0.16    3.60    3.17    -5.20808   148.67986    -3.06891
   335  O   6.0   -0.31    1.44    1.80    -3.14639   148.88584    -4.09504
   336  C   4.0   -0.05    4.39    4.36    -6.31357   149.31859     1.42296
   337  C   4.0   -0.02    4.22    4.05    -5.15895   146.68620     1.80847
   338  C   4.0   -0.08    4.06    3.72    -2.22232   146.51423     1.56658
   339  C   4.0   -0.07    4.11    3.82    -6.05468   145.75078     4.35771
   340  H   1.0    0.12    1.15    1.45    -9.87949   151.45587    -0.70676
   341  H   1.0    0.05    1.06    1.44    -4.61282   152.08892    -0.95053
   342  H   1.0    0.03    1.05    1.44    -5.44619   150.54502     2.83270
   343  H   1.0    0.06    1.05    1.44    -8.32991   149.12961     1.79902
   344  H   1.0    0.05    1.09    1.44    -5.79579   145.47488     0.26834
   345  H   1.0    0.04    1.00    1.43    -1.63650   144.56404     1.87650
   346  H   1.0    0.05    1.01    1.43    -1.66863   147.12083    -0.32125
   347  H   1.0    0.04    1.00    1.43    -1.36060   147.74066     2.98010
   348  H   1.0    0.05    1.00    1.43    -5.26856   143.87806     4.69786
   349  H   1.0    0.04    1.00    1.43    -5.41218   147.05847     5.81469
   350  H   1.0    0.05    1.00    1.43    -8.11259   145.65819     4.35393
   351  N   5.0   -0.14    3.58    2.14    -6.82380   146.79391    -3.51678
   352  C   4.0    0.03    4.44    4.44    -6.35704   144.85505    -5.38761
   353  C   4.0    0.17    3.58    3.16    -4.92652   146.09093    -7.53056
   354  O   6.0   -0.31    1.28    1.80    -2.94230   145.20276    -8.33369
   355  C   4.0   -0.04    4.36    4.31    -8.84959   143.88940    -6.43263
   356  C   4.0   -0.03    4.16    3.91   -10.44074   142.21511    -4.73565
   357  C   4.0    0.24    3.11    3.02   -12.90305   141.40252    -6.07925
   358  O   6.0   -0.29    1.19    1.80   -13.43973   142.40219    -8.17495
   359  O   6.0   -0.28    1.15    1.80   -14.32412   139.77925    -5.05880
   360  H   1.0    0.10    1.07    1.44    -8.49810   146.56903    -2.58703
   361  H   1.0    0.05    1.05    1.44    -5.31580   143.27524    -4.57314
   362  H   1.0    0.08    1.05    1.44   -10.00799   145.52402    -6.90884
   363  H   1.0    0.05    1.04    1.43    -8.43952   142.79714    -8.12960
   364  H   1.0    0.05    1.03    1.43    -9.37304   140.52191    -4.24810
   365  H   1.0    0.06    1.03    1.43   -10.94151   143.24879    -3.02545
   366  N   5.0   -0.13    3.56    2.12    -5.98098   148.19609    -8.40550
   367  C   4.0    0.03    4.41    4.39    -4.84526   149.78535   -10.32357
   368  C   4.0    0.16    3.56    3.14    -2.14484   150.39762    -9.62626
   369  O   6.0   -0.31    1.42    1.80    -0.37039   149.56614   -10.88860
   370  C   4.0   -0.05    4.28    4.15    -6.35326   152.24010   -10.69207
   371  C   4.0   -0.05    4.16    3.91    -8.97998   151.91318   -11.89960
   372  C   4.0   -0.04    4.15    3.89   -10.52577   154.37927   -11.95819
   373  C   4.0   -0.02    4.11    3.83   -13.36603   153.88794   -12.13771
   374  N   5.0   -0.10    4.03    2.95   -14.14271   152.84103   -14.64916
   375  H   1.0    0.10    1.07    1.44    -7.68174   148.86694    -7.79512
   376  H   1.0    0.05    1.06    1.44    -4.86415   148.76868   -12.11503
   377  H   1.0    0.07    1.06    1.44    -6.62916   153.11693    -8.84770
   378  H   1.0    0.04    1.03    1.43    -5.26667   153.49299   -11.91283
   379  H   1.0    0.04    1.03    1.43    -8.74754   151.26500   -13.84035
   380  H   1.0    0.06    1.03    1.43   -10.04578   150.52423   -10.81679
   381  H   1.0    0.05    1.03    1.43   -10.16862   155.44319   -10.23098
   382  H   1.0    0.06    1.03    1.43    -9.96264   155.49043   -13.59847
   383  H   1.0    0.05    1.02    1.43   -13.90460   152.52734   -10.68829
   384  H   1.0    0.06    1.02    1.43   -14.37326   155.66051   -11.84858
   385  H   1.0    0.08    1.01    1.43   -16.08535   152.53868   -14.67939
   386  H   1.0    0.11    1.05    1.44   -13.67028   154.10337   -16.07968
   387  H   1.0    0.07    1.02    1.43   -13.22619   151.13272   -14.97797
   388  N   5.0   -0.13    3.60    2.16    -1.78390   151.80735    -7.59481
   389  C   4.0    0.04    4.65    4.71     0.76723   152.47632    -6.97120
   390  C   4.0    0.17    3.71    3.25     2.34326   150.17463    -7.18663
   391  O   6.0   -0.31    1.37    1.80     4.03268   150.00456    -8.73998
   392  C   4.0   -0.05    4.49    4.52     0.98077   153.32291    -4.28590
   393  C   4.0   -0.03    4.25    4.10     3.55457   154.60415    -4.03456
   394  C   4.0   -0.08    4.15    3.90     3.59237   156.93796    -5.73343
   395  C   4.0   -0.08    4.07    3.74     4.17818   155.33169    -1.26990
   396  H   1.0    0.11    1.09    1.44    -3.15773   152.47254    -6.41562
   397  H   1.0    0.04    1.09    1.44     1.36249   154.00511    -8.21653
   398  H   1.0    0.04    1.03    1.43    -0.51212   154.66840    -3.83425
   399  H   1.0    0.04    1.05    1.44     0.88250   151.70720    -3.01222
   400  H   1.0    0.04    1.06    1.44     5.02100   153.28134    -4.61849
   401  H   1.0    0.03    1.00    1.43     5.42540   157.86204    -5.56335
   402  H   1.0    0.03    1.02    1.43     3.27867   156.35215    -7.68363
   403  H   1.0    0.03    1.00    1.43     2.09949   158.22486    -5.13816
   404  H   1.0    0.04    1.00    1.43     6.02823   156.23498    -1.21509
   405  H   1.0    0.04    1.00    1.43     2.74010   156.63560    -0.57826
   406  H   1.0    0.03    1.00    1.43     4.19330   153.62716    -0.11527
   407  N   5.0   -0.14    3.59    2.15     1.71587   148.38506    -5.57091
   408  C   4.0    0.04    4.42    4.41     2.97821   145.97188    -5.45186
   409  C   4.0    0.17    3.54    3.13     3.92685   144.97600    -7.99921
   410  O   6.0   -0.28    1.30    1.80     6.05657   144.05759    -8.19385
   411  C   4.0   -0.04    4.25    4.10     1.26801   144.04436    -4.11015
   412  C   4.0   -0.03    4.17    3.93     2.31680   141.33827    -3.95520
   413  C   4.0    0.25    3.12    3.03     5.12116   141.20221    -3.20875
   414  O   6.0   -0.25    1.17    1.80     6.62916   140.05704    -4.64495
   415  O   6.0   -0.29    1.17    1.80     5.81280   142.25857    -1.20565
   416  H   1.0    0.10    1.12    1.45     0.29480   148.55892    -4.28023
   417  H   1.0    0.05    1.07    1.44     4.70164   146.23077    -4.35204
   418  H   1.0    0.04    1.03    1.43     0.95242   144.69065    -2.18074
   419  H   1.0    0.07    1.04    1.43    -0.52345   143.95176    -5.12305
   420  H   1.0    0.05    1.03    1.43     1.24155   140.29136    -2.54357
   421  H   1.0    0.06    1.03    1.43     2.11649   140.44443    -5.79957
   422  N   5.0   -0.12    3.56    2.13     2.41885   145.15174    -9.97208
   423  C   4.0    0.04    4.63    4.70     3.44119   144.18987   -12.31345
   424  C   4.0    0.16    3.59    3.16     5.52745   145.90952   -13.24131
   425  O   6.0   -0.31    1.41    1.80     7.61560   145.05158   -13.81390
   426  C   4.0   -0.02    4.33    4.25     1.47399   143.76090   -14.37137
   427  C   4.0   -0.07    4.16    3.92    -0.71054   142.28125   -13.34524
   428  C   4.0   -0.07    4.22    4.05     0.62361   146.24022   -15.45607
   429  H   1.0    0.12    1.09    1.44     0.63684   145.88495   -10.00799
   430  H   1.0    0.06    1.08    1.44     4.19708   142.32471   -11.87693
   431  H   1.0    0.05    1.06    1.44     2.31302   142.66486   -15.90015
   432  H   1.0    0.04    1.00    1.43    -2.09193   141.99779   -14.84569
   433  H   1.0    0.05    1.00    1.43    -0.02835   140.45955   -12.66683
   434  H   1.0    0.06    1.02    1.43    -1.56469   143.33382   -11.79378
   435  H   1.0    0.04    1.00    1.43    -0.78046   145.88495   -16.92061
   436  H   1.0    0.07    1.03    1.43    -0.20220   147.38162   -13.95374
   437  H   1.0    0.05    1.03    1.43     2.25066   147.21154   -16.26298
   438  N   5.0   -0.13    3.62    2.18     4.98321   148.34349   -13.35091
   439  C   4.0    0.04    4.62    4.69     6.91829   150.07448   -14.14082
   440  C   4.0    0.17    3.71    3.24     9.40328   149.29969   -12.92195
   441  O   6.0   -0.30    1.47    1.80    11.20796   148.66474   -14.22208
   442  C   4.0   -0.02    4.37    4.32     6.26444   152.74466   -13.43973
   443  C   4.0   -0.08    4.19    3.98     8.60581   154.38494   -13.50209
   444  C   4.0   -0.08    4.16    3.92     4.32180   153.71598   -15.26332
   445  H   1.0    0.10    1.08    1.44     3.27678   149.12961   -12.91817
   446  H   1.0    0.05    1.07    1.44     7.11104   149.97243   -16.18928
   447  H   1.0    0.06    1.07    1.44     5.49910   152.81080   -11.52922
   448  H   1.0    0.03    1.00    1.43     8.08803   156.31057   -12.98809
   449  H   1.0    0.04    1.02    1.43     9.97964   153.64417   -12.15850
   450  H   1.0    0.04    1.00    1.43     9.39572   154.35282   -15.40316
   451  H   1.0    0.04    1.00    1.43     3.83992   155.65484   -14.76065
   452  H   1.0    0.04    1.00    1.43     5.10226   153.65740   -17.16816
   453  H   1.0    0.04    1.00    1.43     2.64562   152.52545   -15.15371
   454  N   5.0   -0.14    3.57    2.13     9.48076   149.31103   -10.43129
   455  C   4.0    0.04    4.62    4.68    11.63504   148.31703    -9.15572
   456  C   4.0    0.17    3.66    3.21    12.77077   146.11928   -10.60325
   457  O   6.0   -0.33    1.59    1.81    14.62459   146.49911   -11.88071
   458  C   4.0   -0.02    4.36    4.31    10.95474   147.58193    -6.52333
   459  C   4.0   -0.07    4.14    3.89    13.20163   146.34794    -5.19864
   460  C   4.0   -0.08    4.15    3.90    10.03822   149.92519    -5.11360
   461  H   1.0    0.09    1.09    1.44     8.08992   149.99133    -9.28422
   462  H   1.0    0.04    1.07    1.44    13.08824   149.77590    -9.09525
   463  H   1.0    0.07    1.07    1.44     9.43918   146.18731    -6.53845
   464  H   1.0    0.05    1.00    1.43    12.64983   145.83204    -3.28245
   465  H   1.0    0.05    1.02    1.43    13.75532   144.66419    -6.24743
   466  H   1.0    0.04    1.00    1.43    14.76632   147.68775    -5.14383
   467  H   1.0    0.04    1.00    1.43     9.53934   149.39606    -3.18608
   468  H   1.0    0.04    1.00    1.43    11.54812   151.32547    -5.08903
   469  H   1.0    0.04    1.01    1.43     8.38849   150.68864    -6.08303
   470  N   5.0   -0.13    3.50    2.08    11.71819   143.85728   -10.50877
   471  C   4.0    0.05    4.58    4.64    12.95785   141.81448   -11.89205
   472  C   4.0    0.16    3.61    3.17    13.91594   142.50612   -14.47152
   473  O   6.0   -0.31    1.39    1.80    16.01732   141.80692   -15.20851
   474  C   4.0   -0.03    4.42    4.41    11.27033   139.55059   -12.16984
   475  C   4.0    0.16    3.29    3.05    11.78433   137.67598   -10.21019
   476  O   6.0   -0.30    1.29    1.80    12.44385   138.36573    -8.07102
   477  N   5.0   -0.17    3.21    1.96    11.54812   135.27225   -10.87537
   478  H   1.0    0.11    1.06    1.44    10.10814   143.39618    -9.55445
   479  H   1.0    0.05    1.11    1.45    14.60002   141.35717   -10.73553
   480  H   1.0    0.06    1.04    1.43     9.30312   140.14019   -12.00732
   481  H   1.0    0.04    1.05    1.44    11.59536   138.67754   -14.00665
   482  H   1.0    0.10    1.03    1.43    11.88260   133.87763    -9.58658
   483  H   1.0    0.08    1.03    1.43    11.03222   134.81683   -12.67628
   484  N   5.0   -0.13    3.62    2.18    12.31345   143.86673   -15.83590
   485  C   4.0    0.04    4.47    4.49    12.93517   144.77757   -18.31900
   486  C   4.0    0.17    3.52    3.12    15.62236   145.77535   -18.33412
   487  O   6.0   -0.29    1.24    1.80    16.99431   145.49756   -20.17660
   488  C   4.0   -0.03    4.34    4.28    11.04923   146.79391   -19.11458
   489  C   4.0   -0.03    4.22    4.04     8.55101   145.70543   -19.90826
   490  C   4.0    0.25    3.14    3.03     7.71197   146.74289   -22.44239
   491  O   6.0   -0.30    1.19    1.80     6.43263   148.72143   -22.44428
   492  O   6.0   -0.28    1.17    1.80     8.33936   145.60716   -24.43416
   493  H   1.0    0.12    1.13    1.45    10.54656   144.36750   -15.24820
   494  H   1.0    0.05    1.06    1.44    12.82368   143.25634   -19.70228
   495  H   1.0    0.08    1.09    1.44    10.71664   148.06381   -17.52721
   496  H   1.0    0.06    1.04    1.43    11.82213   147.84460   -20.70762
   497  H   1.0    0.05    1.04    1.43     8.71920   143.65886   -20.06889
   498  H   1.0    0.06    1.03    1.43     7.12238   146.18542   -18.50609
   499  N   5.0   -0.13    3.68    2.25    16.38392   146.87517   -16.22897
   500  C   4.0    0.04    4.49    4.53    18.95206   147.66697   -15.92661
   501  C   4.0    0.15    3.63    3.19    20.53376   145.49945   -14.96663
   502  O   6.0   -0.30    1.46    1.80    22.37436   144.79836   -16.16661
   503  C   4.0   -0.04    4.33    4.26    19.08812   149.88928   -14.12759
   504  C   4.0   -0.04    4.19    3.99    17.33068   152.03601   -14.82112
   505  C   4.0   -0.01    4.18    3.96    18.32845   153.77078   -16.91116
   506  N   5.0   -0.14    3.38    2.01    20.97407   154.56258   -16.58612
   507  C   4.0    0.10    3.32    3.06    21.78854   156.66962   -15.44473
   508  N   5.0   -0.18    3.24    1.97    20.18416   158.31935   -14.40916
   509  N   5.0   -0.18    3.23    1.96    24.26597   157.12882   -15.33324
   510  H   1.0    0.13    1.20    1.47    15.25198   147.23422   -14.71152
   511  H   1.0    0.07    1.07    1.44    19.70039   148.29246   -17.74075
   512  H   1.0    0.05    1.04    1.43    18.57979   149.24489   -12.23787
   513  H   1.0    0.05    1.04    1.43    21.01186   150.62439   -14.12759
   514  H   1.0    0.05    1.04    1.43    15.54489   151.24044   -15.47308
   515  H   1.0    0.04    1.03    1.43    17.01698   153.19630   -13.14871
   516  H   1.0    0.06    1.03    1.43    18.19428   152.77678   -18.71018
   517  H   1.0    0.04    1.03    1.43    17.17194   155.47531   -16.96029
   518  H   1.0    0.09    1.06    1.44    22.32333   153.38717   -17.30233
   519  H   1.0    0.08    1.03    1.43    18.28688   157.98865   -14.47530
   520  H   1.0    0.12    1.06    1.44    20.85691   159.90861   -13.55122
   521  H   1.0    0.09    1.02    1.43    25.51319   155.88160   -16.11180
   522  H   1.0    0.09    1.02    1.43    24.91226   158.72564   -14.46963
   523  N   5.0   -0.14    3.62    2.17    19.80055   144.42042   -12.82935
   524  C   4.0    0.03    4.44    4.44    21.17627   142.32282   -11.72008
   525  C   4.0    0.17    3.59    3.16    21.93972   140.59372   -13.83846
   526  O   6.0   -0.29    1.25    1.80    23.61402   139.02336   -13.55878
   527  C   4.0   -0.04    4.27    4.15    19.54355   140.81104    -9.86626
   528  C   4.0   -0.05    4.20    3.99    17.87303   142.35117    -8.06724
   529  C   4.0    0.00    4.23    4.06    16.51998   140.74868    -6.05279
   530  N   5.0   -0.14    3.41    2.03    17.93539   140.64096    -3.67741
   531  C   4.0    0.09    3.34    3.06    18.77254   138.52636    -2.56436
   532  N   5.0   -0.19    3.24    1.97    18.30955   136.23979    -3.53946
   533  N   5.0   -0.19    3.24    1.97    20.05755   138.69833    -0.41196
   534  H   1.0    0.09    1.09    1.44    18.25286   144.96088   -11.81646
   535  H   1.0    0.04    1.05    1.44    22.79765   143.04281   -10.67128
   536  H   1.0    0.06    1.04    1.43    18.29255   139.59406   -10.96041
   537  H   1.0    0.05    1.03    1.43    20.79454   139.66587    -8.69841
   538  H   1.0    0.04    1.04    1.43    19.05033   143.72689    -7.08458
   539  H   1.0    0.05    1.05    1.44    16.42739   143.31871    -9.17084
   540  H   1.0    0.06    1.05    1.44    14.67372   141.57260    -5.66162
   541  H   1.0    0.06    1.05    1.44    16.29889   138.82494    -6.75577
   542  H   1.0    0.12    1.15    1.45    18.31522   142.31337    -2.79679
   543  H   1.0    0.08    1.03    1.43    17.29666   136.07539    -5.17029
   544  H   1.0    0.07    1.02    1.43    18.97096   134.66187    -2.65129
   545  H   1.0    0.08    1.03    1.43    20.39581   140.42554     0.37228
   546  H   1.0    0.07    1.03    1.43    20.70573   137.10340     0.45353
   547  N   5.0   -0.11    3.79    2.40    20.69250   140.87340   -15.98141
   548  C   4.0    0.05    4.63    4.69    21.35012   139.37296   -18.13381
   549  C   4.0    0.17    3.51    3.12    23.69716   140.34995   -19.45095
   550  O   6.0   -0.26    1.28    1.80    25.72484   139.23123   -19.26765
   551  C   4.0   -0.04    4.37    4.32    19.16182   139.25768   -19.97440
   552  C   4.0   -0.04    4.24    4.07    19.31678   136.89742   -21.50697
   553  C   4.0    0.23    3.24    3.04    20.41471   134.73746   -19.95173
   554  O   6.0   -0.28    1.25    1.80    22.75230   134.76959   -19.41315
   555  O   6.0   -0.30    1.22    1.80    18.91427   133.02537   -19.22607
   556  H   1.0    0.12    1.19    1.46    19.24119   142.10928   -16.26487
   557  H   1.0    0.09    1.16    1.46    21.74886   137.47000   -17.45540
   558  H   1.0    0.06    1.04    1.43    17.38170   139.25768   -18.93694
   559  H   1.0    0.05    1.05    1.44    19.23741   140.87907   -21.24430
   560  H   1.0    0.05    1.04    1.43    17.42894   136.35885   -22.13247
   561  H   1.0    0.04    1.03    1.43    20.53565   137.21489   -23.13591
   562  N   5.0   -0.14    3.59    2.15    23.37969   142.45321   -20.76998
   563  C   4.0    0.03    4.49    4.52    25.42815   143.68909   -22.04554
   564  C   4.0    0.17    3.58    3.15    27.74874   143.53980   -20.42605
   565  O   6.0   -0.28    1.28    1.80    29.66870   142.58738   -21.26320
   566  C   4.0   -0.04    4.37    4.33    24.76486   146.42164   -22.53876
   567  C   4.0   -0.03    4.25    4.09    22.42160   146.70698   -24.11479
   568  C   4.0    0.25    3.13    3.03    21.11202   149.21654   -23.69527
   569  O   6.0   -0.28    1.17    1.80    18.79332   149.34315   -24.11857
   570  O   6.0   -0.30    1.19    1.80    22.38380   151.06091   -22.93749
   571  H   1.0    0.09    1.09    1.44    21.68649   143.35083   -20.98352
   572  H   1.0    0.04    1.06    1.44    25.77019   142.78958   -23.86724
   573  H   1.0    0.07    1.04    1.43    24.44361   147.37028   -20.73974
   574  H   1.0    0.04    1.03    1.43    26.32388   147.32115   -23.54221
   575  H   1.0    0.04    1.03    1.43    22.93182   146.57848   -26.10656
   576  H   1.0    0.05    1.05    1.44    21.09690   145.20654   -23.62724
   577  N   5.0   -0.13    3.51    2.08    27.55787   144.41286   -18.08468
   578  C   4.0    0.04    4.35    4.29    29.64035   144.22010   -16.31967
   579  C   4.0    0.10    3.27    3.05    30.80820   141.57260   -16.32534
   580  O   6.0   -0.29    1.13    1.80    32.81320   141.20221   -17.39682
   581  C   4.0   -0.04    4.30    4.20    28.74084   144.87773   -13.68540
   582  C   4.0   -0.04    4.17    3.94    30.33766   146.84493   -12.32101
   583  C   4.0    0.24    3.11    3.03    29.24162   149.52646   -12.48353
   584  O   6.0   -0.31    1.16    1.80    29.49484   150.98154   -10.62404
   585  O   6.0   -0.30    1.18    1.80    28.13802   150.17841   -14.47341
   586  H   1.0    0.11    1.09    1.44    25.98562   145.26134   -17.36091
   587  H   1.0    0.05    1.06    1.44    31.10867   145.54858   -16.88848
   588  H   1.0    0.06    1.05    1.44    26.82277   145.61850   -13.81579
   589  H   1.0    0.04    1.04    1.43    28.75785   143.16375   -12.54211
   590  H   1.0    0.04    1.03    1.43    30.46616   146.33471   -10.32924
   591  H   1.0    0.04    1.03    1.43    32.21794   146.87895   -13.16194
   592  N   5.0   -0.12    4.08    3.08   -20.89659   177.41692    -3.53001
   593  C   4.0    0.00    4.30    4.20   -18.25664   177.81565    -2.60971
   594  C   4.0    0.14    3.43    3.09   -16.65604   179.23673    -4.53345
   595  O   6.0   -0.32    1.26    1.80   -17.02265   178.99484    -6.82758
   596  C   4.0    0.03    4.15    3.90   -16.99620   175.27775    -2.00878
   597  O   6.0   -0.24    2.05    1.83   -14.59624   175.65003    -0.87305
   598  H   1.0    0.05    1.02    1.43   -21.27642   175.49129    -3.61694
   599  H   1.0    0.04    1.01    1.43   -22.15893   178.27675    -2.29413
   600  H   1.0    0.06    1.03    1.43   -21.09312   178.20494    -5.31958
   601  H   1.0    0.04    1.06    1.44   -18.34168   178.94382    -0.88817
   602  H   1.0    0.06    1.03    1.43   -18.19617   174.22328    -0.70865
   603  H   1.0    0.04    1.02    1.43   -16.75242   174.21950    -3.75866
   604  H   1.0    0.12    1.01    1.43   -14.21452   174.24785     0.27401
   605  N   5.0   -0.14    3.57    2.13   -14.89671   180.74662    -3.56780
   606  C   4.0    0.03    4.43    4.43   -12.90305   181.79542    -5.13061
   607  C   4.0    0.16    3.46    3.10   -11.00009   179.65814    -5.35170
   608  O   6.0   -0.29    1.21    1.80   -10.42562   178.72650    -7.42284
   609  C   4.0   -0.05    4.30    4.19   -11.66717   184.08954    -3.84748
   610  C   4.0   -0.05    4.23    4.05   -13.03722   185.12700    -1.51178
   611  C   4.0    0.24    3.12    3.03   -11.91850   184.14812     0.95809
   612  O   6.0   -0.31    1.24    1.80   -11.06246   181.93715     1.05258
   613  O   6.0   -0.31    1.17    1.80   -11.89016   185.62022     2.81758
   614  H   1.0    0.08    1.09    1.44   -14.80600   181.27385    -1.71587
   615  H   1.0    0.05    1.05    1.44   -13.59658   182.47761    -6.94663
   616  H   1.0    0.05    1.05    1.44    -9.76988   183.55097    -3.25222
   617  H   1.0    0.03    1.03    1.43   -11.56512   185.62022    -5.22320
   618  H   1.0    0.03    1.03    1.43   -12.89360   187.18113    -1.50611
   619  H   1.0    0.03    1.05    1.44   -15.01576   184.55820    -1.58548
   620  N   5.0   -0.13    3.51    2.08   -10.11948   178.86634    -3.12750
   621  C   4.0    0.03    4.33    4.26    -8.25621   176.88213    -2.82136
   622  C   4.0    0.15    3.43    3.09    -9.14627   174.37635    -3.95142
   623  O   6.0   -0.31    1.31    1.80    -8.93840   173.96628    -6.23043
   624  C   4.0   -0.08    4.15    3.89    -7.59292   176.60056    -0.01323
   625  H   1.0    0.11    1.12    1.45   -10.69207   179.60144    -1.43997
   626  H   1.0    0.05    1.06    1.44    -6.54601   177.39613    -3.84748
   627  H   1.0    0.03    1.00    1.43    -6.19263   175.10579     0.19842
   628  H   1.0    0.05    1.00    1.43    -6.82758   178.38446     0.67652
   629  H   1.0    0.05    1.00    1.43    -9.29934   176.11679     1.03368
   630  N   5.0   -0.15    3.49    2.07   -10.20074   172.75308    -2.35271
   631  C   4.0    0.03    4.40    4.37   -10.82624   170.15470    -3.04057
   632  C   4.0    0.15    3.46    3.10   -12.12826   169.85235    -5.59737
   633  O   6.0   -0.31    1.28    1.80   -11.79189   167.91727    -6.85593
   634  C   4.0   -0.05    4.33    4.25   -12.42306   168.92449    -0.95431
   635  C   4.0   -0.03    4.16    3.91   -11.27977   167.82656     1.49855
   636  C   4.0   -0.08    4.11    3.83   -11.60103   164.97119     1.65918
   637  C   4.0   -0.08    4.11    3.82    -8.51133   168.53143     1.87461
   638  H   1.0    0.07    1.08    1.44   -10.65616   173.18204    -0.52912
   639  H   1.0    0.04    1.08    1.44    -9.03478   169.15126    -3.20498
   640  H   1.0    0.04    1.04    1.43   -13.76854   170.35501    -0.33259
   641  H   1.0    0.04    1.05    1.44   -13.42272   167.35413    -1.83681
   642  H   1.0    0.04    1.06    1.44   -12.33802   168.68450     3.04246
   643  H   1.0    0.03    1.00    1.43   -10.76388   164.30033     3.41662
   644  H   1.0    0.04    1.00    1.43   -13.60981   164.51954     1.61950
   645  H   1.0    0.03    1.05    1.44   -10.65427   164.09813     0.05291
   646  H   1.0    0.03    1.00    1.43    -7.83858   167.69428     3.63205
   647  H   1.0    0.03    1.00    1.43    -7.41339   167.80955     0.28913
   648  H   1.0    0.04    1.00    1.43    -8.34881   170.58367     1.96531
   649  N   5.0   -0.14    3.50    2.08   -13.55878   171.77231    -6.38349
   650  C   4.0    0.03    4.43    4.42   -15.11781   171.58712    -8.66061
   651  C   4.0    0.16    3.43    3.09   -13.66839   170.66871   -10.99065
   652  O   6.0   -0.31    1.22    1.80   -14.76065   169.57267   -12.72730
   653  C   4.0   -0.04    4.28    4.16   -16.41794   174.10612    -9.21052
   654  C   4.0   -0.05    4.17    3.94   -19.07300   173.82455   -10.32168
   655  C   4.0   -0.05    4.17    3.94   -20.85313   172.40726    -8.52077
   656  C   4.0   -0.05    4.11    3.83   -23.19450   171.38303    -9.86626
   657  N   5.0   -0.13    3.99    2.84   -25.11446   173.37102   -10.42373
   658  H   1.0    0.09    1.07    1.44   -13.68162   173.47684    -5.49154
   659  H   1.0    0.05    1.07    1.44   -16.57479   170.18116    -8.28078
   660  H   1.0    0.06    1.06    1.44   -16.58046   175.16626    -7.45119
   661  H   1.0    0.05    1.03    1.43   -15.27654   175.15870   -10.56357
   662  H   1.0    0.04    1.03    1.43   -19.86480   175.69349   -10.67128
   663  H   1.0    0.05    1.03    1.43   -18.96340   172.76442   -12.08480
   664  H   1.0    0.04    1.04    1.43   -19.84590   170.81422    -7.69118
   665  H   1.0    0.03    1.03    1.43   -21.47863   173.69416    -7.03923
   666  H   1.0    0.04    1.02    1.43   -22.62002   170.53832   -11.65583
   667  H   1.0    0.03    1.02    1.43   -24.08456   169.96195    -8.67006
   668  H   1.0    0.03    1.01    1.43   -26.66214   172.57355   -11.33647
   669  H   1.0    0.04    1.01    1.43   -25.72106   174.20628    -8.75132
   670  H   1.0    0.04    1.01    1.43   -24.33400   174.75430   -11.58213
   671  N   5.0   -0.13    3.62    2.18   -11.20041   171.09201   -10.97553
   672  C   4.0    0.03    4.51    4.56    -9.59036   170.44950   -13.10336
   673  C   4.0    0.14    3.66    3.20    -8.49432   167.81522   -12.79344
   674  O   6.0   -0.31    1.34    1.80    -8.23732   166.37336   -14.61703
   675  C   4.0   -0.03    4.32    4.24    -7.42473   172.36379   -13.31123
   676  C   4.0   -0.05    4.25    4.10    -4.94163   171.30933   -12.16795
   677  C   4.0   -0.07    4.15    3.89    -8.28078   174.96217   -12.20196
   678  C   4.0   -0.08    4.08    3.77    -4.09315   172.49418    -9.67351
   679  H   1.0    0.10    1.10    1.44   -10.24987   171.88758    -9.49965
   680  H   1.0    0.06    1.06    1.44   -10.73175   170.52320   -14.81734
   681  H   1.0    0.04    1.06    1.44    -6.97876   172.68883   -15.29544
   682  H   1.0    0.05    1.15    1.45    -5.19486   169.29299   -11.82968
   683  H   1.0    0.04    1.03    1.43    -3.42607   171.60979   -13.53044
   684  H   1.0    0.04    1.00    1.43    -6.72553   176.30387   -12.36070
   685  H   1.0    0.04    1.00    1.43    -9.90783   175.64247   -13.26588
   686  H   1.0    0.07    1.03    1.43    -8.79289   174.71083   -10.22342
   687  H   1.0    0.04    1.00    1.43    -2.33948   171.60034    -9.06879
   688  H   1.0    0.04    1.00    1.43    -3.79079   174.51241    -9.95886
   689  H   1.0    0.05    1.06    1.44    -5.55768   172.19561    -8.25621
   690  N   5.0   -0.14    3.67    2.23    -7.85559   167.22185   -10.44074
   691  C   4.0    0.03    4.40    4.38    -6.72553   164.83135    -9.76043
   692  C   4.0    0.15    3.43    3.09    -8.59636   162.68273   -10.23287
   693  O   6.0   -0.32    1.24    1.80    -8.27700   160.57379    -9.32202
   694  C   4.0   -0.05    4.44    4.45    -5.91295   164.90882    -6.99199
   695  C   4.0   -0.03    4.18    3.96    -3.82292   166.69084    -6.06980
   696  C   4.0   -0.08    4.18    3.96    -4.84715   169.24386    -5.29879
   697  C   4.0   -0.09    4.12    3.83    -2.47932   165.48330    -3.81914
   698  H   1.0    0.09    1.09    1.44    -8.10881   168.39537    -8.93273
   699  H   1.0    0.04    1.06    1.44    -5.05313   164.47230   -10.90939
   700  H   1.0    0.05    1.06    1.44    -7.58536   165.39826    -5.89406
   701  H   1.0    0.05    1.05    1.44    -5.28178   163.00965    -6.50444
   702  H   1.0    0.03    1.06    1.44    -2.50011   167.00075    -7.61938
   703  H   1.0    0.03    1.00    1.43    -3.28623   170.42871    -4.66195
   704  H   1.0    0.04    1.07    1.44    -5.77311   170.11313    -6.92018
   705  H   1.0    0.04    1.02    1.43    -6.20397   168.98874    -3.77000
   706  H   1.0    0.03    1.00    1.43    -0.99400   166.75131    -3.16529
   707  H   1.0    0.03    1.00    1.43    -3.84748   165.16772    -2.31113
   708  H   1.0    0.03    1.00    1.43    -1.66107   163.68806    -4.41062
   709  N   5.0   -0.13    3.68    2.24   -10.56735   163.25531   -11.66339
   710  C   4.0    0.04    4.46    4.48   -12.38148   161.38260   -12.42117
   711  C   4.0    0.16    3.45    3.09   -11.70496   160.44340   -15.05545
   712  O   6.0   -0.28    1.25    1.80   -12.72919   158.56879   -15.96440
   713  C   4.0   -0.02    4.34    4.27   -15.03277   162.52210   -12.37393
   714  C   4.0    0.15    3.24    3.04   -17.01887   160.60970   -11.68795
   715  O   6.0   -0.27    1.20    1.80   -18.52498   159.83113   -13.28477
   716  N   5.0   -0.19    3.18    1.95   -17.01320   159.79712    -9.31068
   717  H   1.0    0.11    1.16    1.46   -10.94718   165.02599   -12.32479
   718  H   1.0    0.05    1.07    1.44   -12.44574   159.78389   -11.12293
   719  H   1.0    0.06    1.04    1.43   -15.09135   164.03577   -10.97742
   720  H   1.0    0.07    1.04    1.43   -15.48063   163.26854   -14.24097
   721  H   1.0    0.10    1.02    1.43   -18.31522   158.49887    -8.73242
   722  H   1.0    0.08    1.03    1.43   -15.70551   160.47175    -8.06535
   723  N   5.0   -0.13    3.54    2.11    -9.94752   161.73597   -16.28188
   724  C   4.0    0.05    4.56    4.62    -9.40139   161.14449   -18.89159
   725  C   4.0    0.15    3.53    3.13    -6.76333   160.32057   -19.29599
   726  O   6.0   -0.34    1.64    1.81    -5.06069   161.82290   -19.70417
   727  C   4.0   -0.03    4.38    4.34   -10.09492   163.32523   -20.59234
   728  C   4.0    0.15    3.26    3.04   -12.88226   163.62381   -20.84935
   729  O   6.0   -0.26    1.24    1.80   -14.31089   161.83424   -20.44495
   730  N   5.0   -0.19    3.18    1.95   -13.70240   165.90471   -21.51831
   731  H   1.0    0.12    1.12    1.45    -8.90250   163.16839   -15.52599
   732  H   1.0    0.08    1.11    1.45   -10.54089   159.48720   -19.33757
   733  H   1.0    0.06    1.04    1.43    -9.33147   165.06756   -19.80244
   734  H   1.0    0.04    1.04    1.43    -9.30879   162.99831   -22.46695
   735  H   1.0    0.09    1.02    1.43   -15.59213   166.22785   -21.72429
   736  H   1.0    0.07    1.03    1.43   -12.44196   167.33145   -21.82444
   737  N   5.0   -0.15    3.55    2.11    -6.43263   157.87149   -19.22418
   738  C   4.0    0.03    4.50    4.54    -3.96842   156.81513   -19.63236
   739  C   4.0    0.16    3.61    3.17    -2.42830   158.34203   -21.57500
   740  O   6.0   -0.32    1.53    1.80    -0.34582   159.15272   -20.99108
   741  C   4.0   -0.03    4.33    4.25    -4.11204   153.90117   -20.14448
   742  C   4.0   -0.04    4.26    4.12    -2.28090   153.06969   -22.20995
   743  C   4.0   -0.07    4.19    3.99    -6.75010   153.10182   -20.83990
   744  C   4.0   -0.07    4.10    3.81     0.38361   152.87694   -21.32934
   745  H   1.0    0.08    1.10    1.44    -7.82536   156.58080   -18.88970
   746  H   1.0    0.04    1.07    1.44    -2.87238   157.03623   -17.90326
   747  H   1.0    0.04    1.06    1.44    -3.56402   152.98276   -18.38325
   748  H   1.0    0.06    1.04    1.43    -2.85349   151.21587   -22.89970
   749  H   1.0    0.05    1.06    1.44    -2.34137   154.44163   -23.74441
   750  H   1.0    0.05    1.00    1.43    -6.76711   151.07036   -21.18005
   751  H   1.0    0.05    1.02    1.43    -8.02189   153.56480   -19.28843
   752  H   1.0    0.05    1.00    1.43    -7.32647   154.10526   -22.54443
   753  H   1.0    0.04    1.16    1.46     1.56847   152.27790   -22.90348
   754  H   1.0    0.05    1.01    1.43     0.99967   154.72131   -20.64904
   755  H   1.0    0.04    1.00    1.43     0.48755   151.49555   -19.80622
   756  N   5.0   -0.14    3.54    2.11    -3.45820   158.81257   -23.82189
   757  C   4.0    0.03    4.49    4.52    -1.95398   160.00310   -25.80799
   758  C   4.0    0.17    3.62    3.18    -0.61605   162.14982   -24.58156
   759  O   6.0   -0.31    1.26    1.80     1.69697   162.32557   -24.59478
   760  C   4.0   -0.06    4.32    4.24    -3.60749   161.08969   -27.90180
   761  C   4.0   -0.05    4.17    3.95    -4.76211   159.18862   -29.69704
   762  C   4.0   -0.02    4.19    3.97    -2.90829   158.13794   -31.66614
   763  N   5.0   -0.14    3.37    2.01    -4.20653   156.40884   -33.42169
   764  C   4.0    0.10    3.32    3.06    -3.15017   155.34870   -35.45693
   765  N   5.0   -0.19    3.23    1.96    -0.72943   155.81546   -36.05786
   766  N   5.0   -0.17    3.22    1.96    -4.53345   153.82180   -36.90635
   767  H   1.0    0.07    1.05    1.44    -5.27611   158.40439   -24.31321
   768  H   1.0    0.04    1.05    1.44    -0.70487   158.61226   -26.67159
   769  H   1.0    0.04    1.04    1.43    -5.16084   162.12148   -27.02686
   770  H   1.0    0.03    1.04    1.43    -2.45664   162.37281   -29.02997
   771  H   1.0    0.05    1.03    1.43    -5.47832   157.59747   -28.60289
   772  H   1.0    0.04    1.03    1.43    -6.30602   160.09569   -30.71561
   773  H   1.0    0.03    1.02    1.43    -2.10515   159.69318   -32.75273
   774  H   1.0    0.04    1.02    1.43    -1.40785   157.09670   -30.71183
   775  H   1.0    0.09    1.06    1.44    -6.05279   155.98932   -33.05509
   776  H   1.0    0.07    1.03    1.43     0.32692   156.99087   -34.95615
   777  H   1.0    0.08    1.02    1.43     0.05291   154.99343   -37.61688
   778  H   1.0    0.10    1.02    1.43    -6.37594   153.47409   -36.45659
   779  H   1.0    0.10    1.03    1.43    -3.74922   153.00166   -38.46537
   780  N   5.0   -0.14    3.72    2.29    -2.16563   163.73530   -23.43449
   781  C   4.0    0.03    4.52    4.57    -1.37761   166.10502   -22.36491
   782  C   4.0    0.17    3.57    3.15     0.21732   165.58346   -20.07645
   783  O   6.0   -0.32    1.31    1.80     1.89728   167.01209   -19.41693
   784  C   4.0    0.05    4.27    4.13    -3.68497   167.61680   -21.52020
   785  O   6.0   -0.24    2.17    1.85    -4.66762   166.53777   -19.23930
   786  C   4.0   -0.08    4.09    3.79    -5.74099   167.61491   -23.57622
   787  H   1.0    0.09    1.11    1.45    -4.05346   163.41216   -23.21150
   788  H   1.0    0.04    1.06    1.44    -0.34393   167.20295   -23.76708
   789  H   1.0    0.04    1.04    1.43    -3.14261   169.57456   -21.18194
   790  H   1.0    0.16    1.17    1.46    -4.93596   164.71985   -19.46229
   791  H   1.0    0.04    1.00    1.43    -7.37182   168.70150   -22.94127
   792  H   1.0    0.03    1.00    1.43    -5.00777   168.45773   -25.30721
   793  H   1.0    0.04    1.01    1.43    -6.33814   165.68361   -23.97495
   794  N   5.0   -0.12    3.67    2.23    -0.34960   163.51610   -18.82545
   795  C   4.0    0.04    4.55    4.60     1.13573   162.81690   -16.68250
   796  C   4.0    0.15    3.63    3.19     3.73410   162.07613   -17.64059
   797  O   6.0   -0.30    1.41    1.80     5.58981   163.39515   -17.20973
   798  C   4.0   -0.05    4.41    4.40    -0.13417   160.66450   -15.26143
   799  C   4.0   -0.03    4.23    4.06     1.12439   160.13727   -12.72164
   800  C   4.0   -0.08    4.16    3.92     1.75745   162.56556   -11.33080
   801  C   4.0   -0.08    4.12    3.84    -0.50267   158.46297   -11.09458
   802  H   1.0    0.13    1.16    1.46    -1.79902   162.31990   -19.25253
   803  H   1.0    0.05    1.08    1.44     1.32470   164.36458   -15.33702
   804  H   1.0    0.05    1.03    1.43    -2.10326   161.15772   -14.91372
   805  H   1.0    0.05    1.04    1.43    -0.02835   158.95052   -16.40093
   806  H   1.0    0.04    1.06    1.44     2.89317   159.14894   -13.09391
   807  H   1.0    0.03    1.00    1.43     2.64940   162.09691    -9.53367
   808  H   1.0    0.05    1.01    1.43     3.04624   163.68239   -12.48542
   809  H   1.0    0.04    1.00    1.43     0.01890   163.62003   -10.99821
   810  H   1.0    0.03    1.01    1.43     0.45731   158.13038    -9.30312
   811  H   1.0    0.05    1.00    1.43    -2.30736   159.40027   -10.76199
   812  H   1.0    0.04    1.00    1.43    -0.80880   156.67529   -12.06968
   813  N   5.0   -0.14    3.65    2.21     3.81158   159.96152   -18.97096
   814  C   4.0    0.03    4.48    4.50     5.97531   159.21319   -20.40715
   815  C   4.0    0.16    3.59    3.16     7.52867   161.53377   -20.99863
   816  O   6.0   -0.32    1.26    1.80     9.83224   161.49220   -20.84179
   817  C   4.0   -0.04    4.39    4.36     5.03234   158.04156   -22.84112
   818  C   4.0   -0.05    4.21    4.02     6.31924   155.63594   -23.54599
   819  C   4.0   -0.01    4.24    4.07     5.17974   154.60604   -25.96294
   820  N   5.0   -0.13    3.52    2.09     3.68686   152.32325   -25.54343
   821  C   4.0    0.10    3.34    3.06     2.51334   151.00611   -27.34244
   822  N   5.0   -0.18    3.24    1.97     2.60215   151.70909   -29.76318
   823  N   5.0   -0.16    3.24    1.97     1.23021   148.95765   -26.69994
   824  H   1.0    0.10    1.13    1.45     2.35271   158.70674   -19.08056
   825  H   1.0    0.04    1.06    1.44     7.14694   157.86204   -19.38670
   826  H   1.0    0.06    1.06    1.44     3.02167   157.63905   -22.64081
   827  H   1.0    0.06    1.05    1.44     5.33281   159.38327   -24.37558
   828  H   1.0    0.05    1.03    1.43     8.32613   155.98365   -23.85401
   829  H   1.0    0.05    1.04    1.43     6.06602   154.24510   -22.04743
   830  H   1.0    0.04    1.04    1.43     3.94386   156.03467   -26.78687
   831  H   1.0    0.04    1.03    1.43     6.69530   154.14306   -27.27819
   832  H   1.0    0.08    1.16    1.46     3.53001   151.68641   -23.73118
   833  H   1.0    0.08    1.03    1.43     3.58481   153.28701   -30.27341
   834  H   1.0    0.09    1.02    1.43     1.68753   150.66785   -31.10300
   835  H   1.0    0.10    1.03    1.43     1.15084   148.40963   -24.85368
   836  H   1.0    0.11    1.03    1.43     0.32125   147.92775   -28.05109
   837  N   5.0   -0.11    3.63    2.18     6.22098   163.58035   -21.61846
   838  C   4.0    0.04    4.33    4.25     7.43607   165.96518   -22.24963
   839  C   4.0    0.14    3.61    3.17     8.73242   167.33334   -20.01598
   840  O   6.0   -0.32    1.43    1.80    11.04923   167.18028   -19.77976
   841  C   4.0   -0.08    4.12    3.84     5.59737   167.69050   -23.62157
   842  H   1.0    0.11    1.10    1.44     4.29724   163.64838   -21.70161
   843  H   1.0    0.05    1.07    1.44     8.99510   165.50409   -23.51386
   844  H   1.0    0.03    1.00    1.43     6.54790   169.46117   -24.07322
   845  H   1.0    0.04    1.00    1.43     4.97565   166.76643   -25.35445
   846  H   1.0    0.07    1.03    1.43     3.97976   168.05333   -22.39892
   847  N   5.0   -0.14    3.48    2.06     7.30568   168.65993   -18.40026
   848  C   4.0    0.03    4.37    4.32     8.47353   170.04888   -16.28188
   849  C   4.0    0.16    3.41    3.08     9.94941   168.15915   -14.65482
   850  O   6.0   -0.32    1.22    1.80    10.76388   168.73363   -12.55156
   851  C   4.0   -0.05    4.19    3.98     6.58947   171.64192   -14.69262
   852  C   4.0   -0.03    4.12    3.84     7.83858   173.63747   -12.86336
   853  C   4.0    0.15    3.15    3.03     5.99421   175.56688   -11.58024
   854  O   6.0   -0.31    1.23    1.80     6.61782   176.72717    -9.66406
   855  N   5.0   -0.19    3.16    1.95     3.73221   175.91459   -12.69896
   856  H   1.0    0.10    1.06    1.44     5.38572   168.81111   -18.49853
   857  H   1.0    0.05    1.06    1.44     9.75288   171.46995   -17.04911
   858  H   1.0    0.04    1.03    1.43     5.36115   172.67560   -15.98330
   859  H   1.0    0.05    1.02    1.43     5.47076   170.35879   -13.53233
   860  H   1.0    0.06    1.03    1.43     8.79289   172.61513   -11.35158
   861  H   1.0    0.06    1.02    1.43     9.20674   174.73351   -13.94429
   862  H   1.0    0.07    1.03    1.43     3.29190   174.94327   -14.30334
   863  H   1.0    0.09    1.02    1.43     2.46231   177.15047   -11.94118
   864  N   5.0   -0.11    3.70    2.26    10.30279   165.90282   -15.71685
   865  C   4.0    0.04    4.35    4.29    11.70685   163.85436   -14.53010
   866  C   4.0    0.15    3.49    3.11    14.42806   163.85625   -15.42961
   867  O   6.0   -0.30    1.33    1.80    16.16283   163.84113   -13.87437
   868  C   4.0   -0.07    4.12    3.84    10.46152   161.31268   -15.06301
   869  H   1.0    0.12    1.29    1.49     9.61493   165.42850   -17.45351
   870  H   1.0    0.06    1.06    1.44    11.67662   164.08301   -12.48353
   871  H   1.0    0.04    1.00    1.43    11.55567   159.82546   -14.15027
   872  H   1.0    0.05    1.00    1.43     8.54345   161.33535   -14.31278
   873  H   1.0    0.07    1.03    1.43    10.41617   161.00276   -17.09824
   874  N   5.0   -0.14    3.55    2.12    14.78333   163.86381   -17.92783
   875  C   4.0    0.03    4.44    4.45    17.29288   164.07168   -19.09379
   876  C   4.0    0.16    3.57    3.15    18.91049   165.77621   -17.49697
   877  O   6.0   -0.28    1.22    1.80    21.19706   165.35858   -17.15493
   878  C   4.0   -0.05    4.37    4.34    17.10202   165.39259   -21.64681
   879  C   4.0   -0.04    4.26    4.13    15.10836   164.40616   -23.37402
   880  C   4.0   -0.02    4.27    4.14    16.29511   163.28744   -25.68516
   881  N   5.0   -0.14    3.42    2.03    14.61136   161.41472   -26.78120
   882  C   4.0    0.08    3.34    3.06    14.60947   160.73064   -29.19627
   883  N   5.0   -0.20    3.24    1.97    16.20818   161.77377   -30.85356
   884  N   5.0   -0.19    3.23    1.96    12.97108   158.99209   -29.95405
   885  H   1.0    0.10    1.09    1.44    13.35469   163.72775   -19.21473
   886  H   1.0    0.05    1.05    1.44    18.08657   162.18195   -19.29410
   887  H   1.0    0.04    1.04    1.43    16.69762   167.38437   -21.31611
   888  H   1.0    0.04    1.05    1.44    18.90860   165.19228   -22.61624
   889  H   1.0    0.06    1.05    1.44    14.02177   162.94162   -22.41593
   890  H   1.0    0.05    1.03    1.43    13.86492   165.94439   -23.94850
   891  H   1.0    0.03    1.03    1.43    16.63715   164.76710   -27.07788
   892  H   1.0    0.04    1.03    1.43    18.06956   162.37092   -25.18060
   893  H   1.0    0.08    1.07    1.44    13.33769   160.56434   -25.60957
   894  H   1.0    0.07    1.03    1.43    17.45729   163.11925   -30.26963
   895  H   1.0    0.06    1.02    1.43    16.17794   161.22197   -32.69982
   896  H   1.0    0.08    1.03    1.43    11.74465   158.20786   -28.68982
   897  H   1.0    0.07    1.02    1.43    12.93706   158.43840   -31.80031
   898  N   5.0   -0.13    3.62    2.18    17.64815   167.73963   -16.56534
   899  C   4.0    0.03    4.42    4.41    18.87080   169.76542   -15.24253
   900  C   4.0    0.16    3.47    3.10    20.39770   168.77898   -13.01832
   901  O   6.0   -0.30    1.25    1.80    22.67671   169.31756   -12.86147
   902  C   4.0   -0.05    4.25    4.10    16.95840   171.80254   -14.47530
   903  C   4.0   -0.04    4.14    3.89    16.24408   173.59778   -16.67872
   904  C   4.0    0.23    3.09    3.02    14.80978   175.99774   -15.85669
   905  O   6.0   -0.31    1.16    1.80    14.44129   177.67392   -17.51209
   906  O   6.0   -0.30    1.17    1.80    14.04633   176.23584   -13.60225
   907  H   1.0    0.09    1.09    1.44    15.73953   167.96451   -16.71085
   908  H   1.0    0.05    1.07    1.44    20.19928   170.68950   -16.51620
   909  H   1.0    0.06    1.03    1.43    15.23497   170.88603   -13.81957
   910  H   1.0    0.05    1.03    1.43    17.76909   172.94394   -12.96352
   911  H   1.0    0.04    1.03    1.43    17.97318   174.19872   -17.62547
   912  H   1.0    0.05    1.03    1.43    15.03844   172.57355   -17.99775
   913  N   5.0   -0.13    3.44    2.04    19.25442   167.23886   -11.38182
   914  C   4.0    0.04    4.45    4.47    20.72462   166.41305    -9.21997
   915  C   4.0    0.15    3.40    3.08    22.14192   163.89404    -9.39761
   916  O   6.0   -0.30    1.27    1.80    21.82822   162.38037   -11.13993
   917  C   4.0    0.02    4.16    3.93    19.21095   166.64170    -6.78979
   918  O   6.0   -0.27    2.15    1.85    20.83423   166.34313    -4.69786
   919  H   1.0    0.10    1.07    1.44    17.44406   166.58690   -11.50654
   920  H   1.0    0.06    1.11    1.45    22.30066   167.73963    -9.18407
   921  H   1.0    0.04    1.02    1.43    18.32845   168.50119    -6.70853
   922  H   1.0    0.04    1.03    1.43    17.76531   165.17528    -6.74632
   923  H   1.0    0.15    1.21    1.47    20.30888   164.88048    -3.69252
   924  N   5.0   -0.13    3.63    2.18    23.76141   163.52932    -7.53434
   925  C   4.0    0.04    4.53    4.58    25.36201   161.34858    -7.39261
   926  C   4.0    0.16    3.60    3.17    23.79543   159.36248    -6.12838
   927  O   6.0   -0.32    1.72    1.81    22.69939   159.85759    -4.15929
   928  C   4.0    0.05    4.28    4.17    27.61079   161.89471    -5.67296
   929  O   6.0   -0.26    2.18    1.85    26.72261   162.22352    -3.13317
   930  C   4.0   -0.09    4.11    3.83    28.95438   164.29655    -6.49877
   931  H   1.0    0.09    1.10    1.44    24.00141   164.75387    -6.06413
   932  H   1.0    0.04    1.05    1.44    26.04798   160.77599    -9.24832
   933  H   1.0    0.03    1.04    1.43    28.94682   160.33002    -5.76366
   934  H   1.0    0.10    1.02    1.43    27.86779   163.34224    -2.20153
   935  H   1.0    0.02    1.00    1.43    30.55687   164.66883    -5.25911
   936  H   1.0    0.03    1.00    1.43    29.63657   164.09246    -8.43196
   937  H   1.0    0.04    1.00    1.43    27.65803   165.89526    -6.41373
   938  N   5.0   -0.15    3.43    2.04    23.67638   157.10048    -7.21308
   939  C   4.0    0.03    4.25    4.09    22.26853   155.09548    -5.95075
   940  C   4.0    0.09    3.36    3.07    23.03009   155.17485    -3.16151
   941  O   6.0   -0.31    1.33    1.80    21.38792   155.29012    -1.54202
   942  C   4.0   -0.05    4.21    4.02    23.48551   152.38561    -7.15261
   943  C   4.0   -0.02    4.19    3.98    22.14381   150.34849    -5.64083
   944  C   4.0   -0.08    4.12    3.84    21.16493   148.41341    -7.54379
   945  C   4.0   -0.08    4.05    3.70    23.91637   148.91796    -3.69252
   946  H   1.0    0.08    1.05    1.44    24.49652   156.61671    -8.88927
   947  H   1.0    0.04    1.04    1.43    20.22763   155.23532    -6.19263
   948  H   1.0    0.05    1.02    1.43    23.05655   152.19853    -9.15761
   949  H   1.0    0.05    1.01    1.43    25.52075   152.28546    -6.85593
   950  H   1.0    0.04    1.07    1.44    20.65470   151.23477    -4.52778
   951  H   1.0    0.04    1.00    1.43    20.18605   146.91107    -6.52900
   952  H   1.0    0.04    1.00    1.43    19.86669   149.34693    -8.84203
   953  H   1.0    0.04    1.00    1.43    22.75986   147.63106    -8.58691
   954  H   1.0    0.04    0.99    1.43    22.80710   147.49689    -2.69475
   955  H   1.0    0.04    0.99    1.43    25.45272   148.01278    -4.72243
   956  H   1.0    0.04    0.99    1.43    24.67793   150.28235    -2.35082
   957  N   5.0   -0.18    3.38    2.01    23.43071   159.09792     0.76912
   958  C   4.0    0.03    4.45    4.46    21.46918   160.49631     2.05224
   959  C   4.0    0.17    3.59    3.16    19.05600   159.15650     1.55902
   960  O   6.0   -0.32    1.55    1.80    17.86358   158.22864     3.28056
   961  C   4.0    0.05    4.31    4.22    21.18005   163.15327     0.96943
   962  O   6.0   -0.28    2.51    1.99    20.78888   162.98697    -1.70264
   963  C   4.0   -0.07    4.09    3.78    23.53465   164.71607     1.48721
   964  H   1.0    0.11    1.08    1.44    24.15826   160.04089    -0.74644
   965  H   1.0    0.05    1.06    1.44    21.94350   160.65316     4.04968
   966  H   1.0    0.05    1.04    1.43    19.57378   164.09246     1.85382
   967  H   1.0    0.17    1.24    1.48    22.14759   162.00054    -2.48121
   968  H   1.0    0.04    1.00    1.43    23.30977   166.60958     0.70676
   969  H   1.0    0.04    1.00    1.43    23.85023   164.86347     3.51678
   970  H   1.0    0.04    1.01    1.43    25.17682   163.82601     0.61794
   971  N   5.0   -0.12    3.72    2.30    18.35491   159.04312    -0.83904
   972  C   4.0    0.03    4.53    4.58    15.97007   157.96219    -1.59304
   973  C   4.0    0.17    3.64    3.19    15.53355   155.64728    -0.03024
   974  O   6.0   -0.32    1.48    1.80    13.88949   155.62082     1.58359
   975  C   4.0   -0.05    4.41    4.40    16.04188   157.34425    -4.37661
   976  C   4.0   -0.02    4.27    4.14    16.82423   159.71964    -5.82980
   977  C   4.0   -0.07    4.08    3.77    17.53288   159.22642    -8.59447
   978  C   4.0   -0.08    4.13    3.86    14.74931   161.70385    -5.62949
   979  H   1.0    0.11    1.16    1.45    19.41504   159.69318    -2.31113
   980  H   1.0    0.04    1.07    1.44    14.40727   159.27177    -1.30391
   981  H   1.0    0.04    1.04    1.43    17.41760   155.85137    -4.72998
   982  H   1.0    0.03    1.03    1.43    14.17672   156.74710    -5.01155
   983  H   1.0    0.06    1.10    1.44    18.54955   160.43395    -4.96053
   984  H   1.0    0.07    1.01    1.43    18.06011   161.01032    -9.48076
   985  H   1.0    0.05    1.00    1.43    19.12025   157.91495    -8.65683
   986  H   1.0    0.04    1.00    1.43    15.90960   158.41195    -9.56768
   987  H   1.0    0.04    1.01    1.43    15.32757   163.38571    -6.66884
   988  H   1.0    0.04    1.00    1.43    13.01265   160.94229    -6.43452
   989  H   1.0    0.04    1.01    1.43    14.45829   162.17061    -3.64528
   990  N   5.0   -0.14    3.58    2.14    17.10391   153.74621    -0.40629
   991  C   4.0    0.04    4.49    4.52    17.05667   151.49933     1.15651
   992  C   4.0    0.17    3.55    3.14    16.26109   152.12483     3.83236
   993  O   6.0   -0.30    1.24    1.80    14.63215   150.90596     4.93785
   994  C   4.0   -0.04    4.30    4.20    19.67961   150.25778     1.21509
   995  C   4.0   -0.04    4.19    3.99    19.63803   147.54791     2.13350
   996  C   4.0    0.23    3.17    3.03    17.48374   146.06637     0.92975
   997  O   6.0   -0.34    1.28    1.80    17.92594   144.92497    -1.10927
   998  O   6.0   -0.30    1.17    1.80    15.34646   146.07582     2.01445
   999  H   1.0    0.10    1.12    1.45    18.44373   153.70464    -1.79146
  1000  H   1.0    0.06    1.07    1.44    15.69795   150.17652     0.35338
  1001  H   1.0    0.04    1.04    1.43    20.46195   150.26723    -0.68975
  1002  H   1.0    0.05    1.03    1.43    20.89659   151.33492     2.48121
[...]
1343   1 H      0.213  0.787  0.000  0.000     1.040     1.598
1344   1 H      0.270  0.730  0.000  0.000     0.810     1.410
1345   1 H      0.205  0.795  0.000  0.000     1.082     1.629
1346   1 H      0.221  0.779  0.000  0.000     1.004     1.570
1347   1 H      0.223  0.777  0.000  0.000     0.997     1.564
1348   7 N     -0.407  1.327  4.080  0.000    30.573     8.212
1349   6 C      0.046  1.047  2.907  0.000    19.820     6.340
1350   6 C      0.283  1.038  2.679  0.000    22.205     7.717
1351   8 O     -0.519  1.760  4.759  0.000    24.206     6.596
1352   6 C     -0.057  1.056  3.000  0.000    21.582     6.613
1353   6 C     -0.085  1.057  3.028  0.000    22.118     6.695
1354   6 C      0.362  1.028  2.610  0.000    20.859     7.474
1355   8 O     -0.635  1.763  4.872  0.000    26.985     6.965
1356   8 O     -0.665  1.796  4.869  0.000    27.775     7.066
1357   1 H      0.183  0.817  0.000  0.000     1.198     1.714
1358   1 H      0.016  0.984  0.000  0.000     2.792     2.613
1359   1 H      0.058  0.942  0.000  0.000     2.223     2.332
1360   1 H      0.039  0.961  0.000  0.000     2.466     2.456
1361   1 H      0.042  0.958  0.000  0.000     2.419     2.432
1362   1 H     -0.004  1.004  0.000  0.000     3.126     2.765
1363   7 N     -0.182  1.246  3.936  0.000    24.937     7.417
1364   6 C      0.033  1.048  2.919  0.000    20.020     6.370
1365   6 C      0.212  1.080  2.708  0.000    23.517     7.942
1366   8 O     -0.374  1.739  4.635  0.000    21.178     6.170
1367   6 C     -0.049  1.050  3.000  0.000    21.448     6.592
1368   6 C     -0.090  1.053  3.037  0.000    22.221     6.711
1369   6 C      0.366  1.023  2.611  0.000    20.787     7.462
1370   8 O     -0.649  1.776  4.873  0.000    27.356     7.012
1371   8 O     -0.640  1.768  4.872  0.000    27.120     6.982
1372   1 H      0.229  0.771  0.000  0.000     0.971     1.543
1373   1 H      0.074  0.926  0.000  0.000     2.043     2.235
1374   1 H      0.054  0.946  0.000  0.000     2.273     2.358
1375   1 H      0.059  0.941  0.000  0.000     2.215     2.327
1376   1 H      0.032  0.968  0.000  0.000     2.565     2.505
1377   1 H      0.022  0.978  0.000  0.000     2.706     2.572
1378   7 N     -0.402  1.329  4.073  0.000    30.413     8.190
1379   6 C      0.036  1.046  2.918  0.000    19.984     6.366
1380   6 C      0.295  1.035  2.670  0.000    21.999     7.682
1381   8 O     -0.494  1.722  4.772  0.000    23.647     6.520
1382   6 C     -0.075  1.061  3.014  0.000    21.918     6.663
1383   6 C      0.003  1.057  2.940  0.000    20.499     6.441
1384   6 C     -0.095  1.044  3.051  0.000    22.386     6.749
1385   6 C     -0.093  1.042  3.051  0.000    22.338     6.741
1386   1 H      0.153  0.847  0.000  0.000     1.382     1.842
1387   1 H      0.052  0.948  0.000  0.000     2.293     2.368
1388   1 H      0.055  0.945  0.000  0.000     2.256     2.349
1389   1 H      0.044  0.956  0.000  0.000     2.392     2.419
1390   1 H     -0.011  1.011  0.000  0.000     3.261     2.824
1391   1 H      0.051  0.949  0.000  0.000     2.314     2.379
1392   1 H      0.020  0.980  0.000  0.000     2.730     2.584
1393   1 H      0.036  0.964  0.000  0.000     2.499     2.472
1394   1 H      0.032  0.968  0.000  0.000     2.558     2.501
1395   1 H      0.034  0.966  0.000  0.000     2.535     2.490
1396   1 H      0.036  0.964  0.000  0.000     2.501     2.473
1397   7 N     -0.183  1.246  3.937  0.000    24.966     7.421
1398   6 C      0.043  1.049  2.908  0.000    19.847     6.342
1399   6 C      0.299  1.031  2.671  0.000    21.933     7.671
1400   8 O     -0.508  1.753  4.756  0.000    23.972     6.564
1401   6 C     -0.071  1.053  3.018  0.000    21.838     6.651
1402   6 C     -0.086  1.060  3.026  0.000    22.141     6.700
1403   6 C      0.359  1.032  2.609  0.000    20.908     7.483
1404   8 O     -0.633  1.755  4.878  0.000    26.940     6.959
1405   8 O     -0.626  1.776  4.850  0.000    26.774     6.937
1406   1 H      0.215  0.785  0.000  0.000     1.035     1.594
1407   1 H      0.032  0.968  0.000  0.000     2.558     2.501
1408   1 H      0.068  0.932  0.000  0.000     2.113     2.273
1409   1 H      0.032  0.968  0.000  0.000     2.551     2.498
1410   1 H      0.017  0.983  0.000  0.000     2.781     2.608
1411   1 H      0.034  0.966  0.000  0.000     2.532     2.488
1412   7 N     -0.193  1.244  3.949  0.000    25.191     7.454
1413   6 C      0.016  1.058  2.926  0.000    20.307     6.417
1414   6 C      0.286  1.034  2.680  0.000    22.153     7.709
1415   8 O     -0.518  1.759  4.759  0.000    24.190     6.594
1416   6 C     -0.097  1.064  3.032  0.000    22.343     6.730
1417   6 C     -0.080  1.053  3.027  0.000    22.035     6.683
1418   6 C     -0.088  1.054  3.035  0.000    22.186     6.706
1419   6 C     -0.046  1.059  2.987  0.000    21.498     6.618
1420   7 N     -0.136  1.232  3.904  0.000    23.943     7.267
1421   1 H      0.225  0.775  0.000  0.000     0.987     1.556
1422   1 H      0.050  0.950  0.000  0.000     2.320     2.382
1423   1 H      0.081  0.919  0.000  0.000     1.970     2.195
1424   1 H      0.086  0.914  0.000  0.000     1.918     2.166
1425   1 H      0.048  0.952  0.000  0.000     2.345     2.395
1426   1 H      0.089  0.911  0.000  0.000     1.890     2.150
1427   1 H      0.096  0.904  0.000  0.000     1.820     2.109
1428   1 H      0.051  0.949  0.000  0.000     2.314     2.379
1429   1 H      0.094  0.906  0.000  0.000     1.842     2.123
1430   1 H      0.132  0.868  0.000  0.000     1.523     1.930
1431   1 H      0.301  0.699  0.000  0.000     0.711     1.321
1432   1 H      0.318  0.682  0.000  0.000     0.662     1.275
1433   1 H      0.266  0.734  0.000  0.000     0.825     1.423
1434   7 N     -0.159  1.239  3.920  0.000    24.445     7.343
1435   6 C      0.019  1.051  2.930  0.000    20.236     6.401
1436   6 C      0.303  1.024  2.673  0.000    21.866     7.661
1437   8 O     -0.507  1.736  4.771  0.000    23.937     6.560
1438   6 C     -0.094  1.058  3.036  0.000    22.259     6.711
1439   6 C     -0.020  1.047  2.973  0.000    20.893     6.500
1440   6 C     -0.132  1.050  3.082  0.000    23.089     6.851
1441   6 C     -0.139  1.048  3.090  0.000    23.190     6.860
1442   1 H      0.226  0.774  0.000  0.000     0.982     1.553
1443   1 H      0.080  0.920  0.000  0.000     1.975     2.198
1444   1 H      0.086  0.914  0.000  0.000     1.921     2.167
1445   1 H      0.056  0.944  0.000  0.000     2.251     2.346
1446   1 H      0.040  0.960  0.000  0.000     2.445     2.445
1447   1 H      0.069  0.931  0.000  0.000     2.097     2.264
1448   1 H      0.062  0.938  0.000  0.000     2.179     2.308
1449   1 H      0.053  0.947  0.000  0.000     2.279     2.361
1450   1 H      0.057  0.943  0.000  0.000     2.236     2.338
1451   1 H      0.037  0.963  0.000  0.000     2.491     2.468
1452   1 H      0.031  0.969  0.000  0.000     2.569     2.506
1453   7 N     -0.185  1.241  3.944  0.000    25.016     7.428
1454   6 C      0.047  1.042  2.911  0.000    19.756     6.323
1455   6 C      0.300  1.030  2.670  0.000    21.912     7.667
1456   8 O     -0.529  1.738  4.790  0.000    24.425     6.626
1457   6 C     -0.047  1.044  3.003  0.000    21.406     6.585
1458   6 C     -0.080  1.050  3.030  0.000    22.023     6.681
1459   6 C      0.364  1.022  2.614  0.000    20.819     7.468
1460   8 O     -0.625  1.758  4.867  0.000    26.738     6.933
1461   8 O     -0.656  1.763  4.893  0.000    27.544     7.036
1462   1 H      0.248  0.752  0.000  0.000     0.892     1.480
1463   1 H      0.068  0.932  0.000  0.000     2.108     2.270
1464   1 H      0.020  0.980  0.000  0.000     2.737     2.587
1465   1 H      0.066  0.934  0.000  0.000     2.127     2.281
1466   1 H      0.054  0.946  0.000  0.000     2.271     2.357
1467   1 H     -0.029  1.029  0.000  0.000     3.614     2.973
1468   7 N     -0.204  1.252  3.952  0.000    25.430     7.490
1469   6 C      0.049  1.051  2.900  0.000    19.731     6.321
1470   6 C      0.295  1.036  2.670  0.000    22.004     7.682
1471   8 O     -0.552  1.751  4.800  0.000    24.957     6.698
1472   6 C     -0.003  1.055  2.948  0.000    20.596     6.455
1473   6 C     -0.125  1.045  3.080  0.000    22.944     6.830
1474   6 C     -0.093  1.037  3.056  0.000    22.334     6.739
1475   1 H      0.236  0.764  0.000  0.000     0.940     1.519
1476   1 H      0.020  0.980  0.000  0.000     2.732     2.585
1477   1 H     -0.005  1.005  0.000  0.000     3.148     2.775
1478   1 H      0.026  0.974  0.000  0.000     2.639     2.540
1479   1 H      0.034  0.966  0.000  0.000     2.529     2.487
1480   1 H      0.108  0.892  0.000  0.000     1.711     2.045
1481   1 H      0.021  0.979  0.000  0.000     2.713     2.576
1482   1 H      0.060  0.940  0.000  0.000     2.203     2.321
1483   1 H      0.001  0.999  0.000  0.000     3.046     2.729
1484   7 N     -0.189  1.260  3.929  0.000    25.104     7.441
1485   6 C      0.032  1.050  2.918  0.000    20.023     6.368
1486   6 C      0.291  1.029  2.680  0.000    22.066     7.694
1487   8 O     -0.497  1.732  4.765  0.000    23.710     6.528
1488   6 C     -0.019  1.056  2.964  0.000    20.876     6.497
1489   6 C     -0.141  1.049  3.092  0.000    23.260     6.876
1490   6 C     -0.112  1.043  3.069  0.000    22.700     6.793
1491   1 H      0.249  0.751  0.000  0.000     0.888     1.476
1492   1 H      0.046  0.954  0.000  0.000     2.376     2.410
1493   1 H      0.045  0.955  0.000  0.000     2.384     2.414
1494   1 H      0.088  0.912  0.000  0.000     1.894     2.152
1495   1 H      0.062  0.938  0.000  0.000     2.179     2.308
1496   1 H      0.061  0.939  0.000  0.000     2.187     2.313
1497   1 H      0.076  0.924  0.000  0.000     2.017     2.221
1498   1 H      0.054  0.946  0.000  0.000     2.265     2.353
1499   1 H      0.008  0.992  0.000  0.000     2.926     2.675
1500   7 N     -0.191  1.243  3.948  0.000    25.147     7.448
1501   6 C      0.021  1.049  2.930  0.000    20.201     6.394
1502   6 C      0.272  1.043  2.686  0.000    22.408     7.755
1503   8 O     -0.469  1.709  4.760  0.000    23.102     6.444
1504   6 C     -0.029  1.046  2.983  0.000    21.040     6.522
1505   6 C     -0.142  1.051  3.091  0.000    23.296     6.881
1506   6 C     -0.136  1.047  3.089  0.000    23.158     6.858
1507   1 H      0.226  0.774  0.000  0.000     0.982     1.552
1508   1 H      0.109  0.891  0.000  0.000     1.705     2.042
1509   1 H      0.030  0.970  0.000  0.000     2.580     2.512
1510   1 H      0.080  0.920  0.000  0.000     1.977     2.199
1511   1 H      0.054  0.946  0.000  0.000     2.266     2.354
1512   1 H      0.090  0.910  0.000  0.000     1.875     2.141
1513   1 H      0.073  0.927  0.000  0.000     2.056     2.242
1514   1 H      0.084  0.916  0.000  0.000     1.936     2.176
1515   1 H      0.042  0.958  0.000  0.000     2.429     2.437
1516   7 N     -0.157  1.235  3.923  0.000    24.404     7.337
1517   6 C      0.049  1.036  2.915  0.000    19.711     6.315
1518   6 C      0.287  1.029  2.684  0.000    22.146     7.707
1519   8 O     -0.494  1.738  4.756  0.000    23.654     6.521
1520   6 C     -0.077  1.039  3.038  0.000    21.958     6.668
1521   6 C      0.278  1.038  2.684  0.000    22.300     7.733
1522   8 O     -0.467  1.747  4.720  0.000    23.058     6.438
1523   7 N     -0.272  1.263  4.009  0.000    27.046     7.724
1524   1 H      0.203  0.797  0.000  0.000     1.090     1.636
1525   1 H      0.096  0.904  0.000  0.000     1.819     2.109
1526   1 H      0.056  0.944  0.000  0.000     2.243     2.342
1527   1 H      0.030  0.970  0.000  0.000     2.580     2.512
1528   1 H      0.232  0.768  0.000  0.000     0.955     1.531
1529   1 H      0.192  0.808  0.000  0.000     1.149     1.679
1530   7 N     -0.201  1.256  3.944  0.000    25.358     7.479
1531   6 C      0.045  1.052  2.903  0.000    19.820     6.338
1532   6 C      0.289  1.034  2.677  0.000    22.099     7.698
1533   8 O     -0.514  1.749  4.765  0.000    24.088     6.580
1534   6 C     -0.068  1.053  3.016  0.000    21.803     6.647
1535   6 C     -0.066  1.054  3.012  0.000    21.765     6.642
1536   6 C      0.365  1.025  2.610  0.000    20.807     7.465
1537   8 O     -0.616  1.751  4.864  0.000    26.507     6.903
1538   8 O     -0.680  1.788  4.892  0.000    28.167     7.116
1539   1 H      0.213  0.787  0.000  0.000     1.040     1.598
1540   1 H      0.003  0.997  0.000  0.000     3.000     2.709
1541   1 H      0.109  0.891  0.000  0.000     1.707     2.043
1542   1 H      0.032  0.968  0.000  0.000     2.558     2.501
1543   1 H     -0.035  1.035  0.000  0.000     3.733     3.021
1544   1 H      0.003  0.997  0.000  0.000     3.002     2.709
1545   7 N     -0.164  1.236  3.928  0.000    24.547     7.358
1546   6 C      0.018  1.056  2.927  0.000    20.274     6.410
1547   6 C      0.280  1.035  2.684  0.000    22.254     7.725
1548   8 O     -0.504  1.753  4.752  0.000    23.881     6.552
1549   6 C     -0.103  1.063  3.040  0.000    22.452     6.745
1550   6 C     -0.087  1.056  3.031  0.000    22.158     6.702
1551   6 C     -0.028  1.060  2.968  0.000    21.166     6.566
1552   7 N     -0.145  1.216  3.929  0.000    24.145     7.298
1553   6 C      0.230  1.018  2.752  0.000    23.169     7.881
1554   7 N     -0.249  1.232  4.016  0.000    26.479     7.642
1555   7 N     -0.252  1.237  4.015  0.000    26.559     7.654
1556   1 H      0.211  0.789  0.000  0.000     1.052     1.607
1557   1 H      0.087  0.913  0.000  0.000     1.907     2.160
1558   1 H      0.080  0.920  0.000  0.000     1.977     2.199
1559   1 H      0.103  0.897  0.000  0.000     1.762     2.076
1560   1 H      0.042  0.958  0.000  0.000     2.416     2.431
1561   1 H      0.086  0.914  0.000  0.000     1.921     2.167
1562   1 H      0.092  0.908  0.000  0.000     1.860     2.133
1563   1 H      0.085  0.915  0.000  0.000     1.932     2.174
1564   1 H      0.230  0.770  0.000  0.000     0.967     1.540
1565   1 H      0.235  0.765  0.000  0.000     0.942     1.521
1566   1 H      0.267  0.733  0.000  0.000     0.820     1.418
1567   1 H      0.254  0.746  0.000  0.000     0.869     1.460
1568   1 H      0.271  0.729  0.000  0.000     0.808     1.408
1569   7 N     -0.204  1.258  3.946  0.000    25.439     7.491
1570   6 C      0.009  1.069  2.922  0.000    20.442     6.439
1571   6 C      0.287  1.036  2.677  0.000    22.138     7.705
1572   8 O     -0.480  1.740  4.740  0.000    23.338     6.477
1573   6 C     -0.080  1.054  3.025  0.000    22.021     6.681
1574   6 C     -0.088  1.056  3.032  0.000    22.182     6.706
1575   6 C     -0.037  1.061  2.975  0.000    21.320     6.590
1576   7 N     -0.146  1.207  3.939  0.000    24.168     7.301
1577   6 C      0.230  1.018  2.752  0.000    23.164     7.880
1578   7 N     -0.254  1.233  4.021  0.000    26.595     7.659
1579   7 N     -0.251  1.245  4.006  0.000    26.532     7.650
1580   1 H      0.253  0.747  0.000  0.000     0.870     1.461
1581   1 H      0.107  0.893  0.000  0.000     1.722     2.052
1582   1 H      0.024  0.976  0.000  0.000     2.673     2.557
1583   1 H      0.061  0.939  0.000  0.000     2.183     2.311
1584   1 H      0.084  0.916  0.000  0.000     1.937     2.176
1585   1 H      0.047  0.953  0.000  0.000     2.355     2.400
1586   1 H      0.118  0.882  0.000  0.000     1.626     1.994
1587   1 H      0.107  0.893  0.000  0.000     1.722     2.052
1588   1 H      0.210  0.790  0.000  0.000     1.054     1.608
1589   1 H      0.258  0.742  0.000  0.000     0.855     1.448
1590   1 H      0.257  0.743  0.000  0.000     0.857     1.450
1591   1 H      0.244  0.756  0.000  0.000     0.906     1.491
1592   1 H      0.229  0.771  0.000  0.000     0.971     1.544
1593   7 N     -0.157  1.238  3.918  0.000    24.387     7.334
1594   6 C      0.031  1.056  2.913  0.000    20.057     6.376
1595   6 C      0.213  1.084  2.703  0.000    23.500     7.939
1596   8 O     -0.325  1.737  4.587  0.000    20.231     6.030
1597   6 C     -0.052  1.048  3.004  0.000    21.508     6.602
1598   6 C     -0.097  1.069  3.028  0.000    22.341     6.729
1599   6 C      0.373  1.019  2.608  0.000    20.676     7.442
1600   8 O     -0.685  1.787  4.898  0.000    28.309     7.133
1601   8 O     -0.661  1.776  4.885  0.000    27.660     7.051
1602   1 H      0.189  0.811  0.000  0.000     1.165     1.691
1603   1 H      0.083  0.917  0.000  0.000     1.944     2.180
1604   1 H      0.023  0.977  0.000  0.000     2.694     2.567
1605   1 H      0.057  0.943  0.000  0.000     2.229     2.335
1606   1 H      0.049  0.951  0.000  0.000     2.331     2.388
1607   1 H      0.035  0.965  0.000  0.000     2.515     2.480
1608   1 H      0.094  0.906  0.000  0.000     1.836     2.119
1609   1 H      0.193  0.807  0.000  0.000     1.144     1.676
1610   1 H      0.066  0.934  0.000  0.000     2.129     2.282
1611   1 H      0.179  0.821  0.000  0.000     1.219     1.730
1612   1 H      0.085  0.915  0.000  0.000     1.932     2.174
1613   1 H      0.186  0.814  0.000  0.000     1.178     1.700
1614   1 H      0.061  0.939  0.000  0.000     2.188     2.313
1615   1 H      0.094  0.906  0.000  0.000     1.836     2.119
1616   1 H      0.176  0.824  0.000  0.000     1.239     1.744
1617   1 H      0.075  0.925  0.000  0.000     2.033     2.230
1618   1 H      0.201  0.799  0.000  0.000     1.099     1.642
1619   1 H      0.074  0.926  0.000  0.000     2.044     2.236
1620   1 H      0.196  0.804  0.000  0.000     1.128     1.663
1621   1 H      0.081  0.919  0.000  0.000     1.973     2.196
1622   1 H      0.173  0.827  0.000  0.000     1.253     1.753
1623   1 H      0.086  0.914  0.000  0.000     1.914     2.164
1624   1 H      0.198  0.802  0.000  0.000     1.116     1.654
1625   1 H      0.090  0.910  0.000  0.000     1.882     2.145
1626   1 H      0.182  0.818  0.000  0.000     1.202     1.718
1627   1 H      0.086  0.914  0.000  0.000     1.915     2.164
1628   1 H      0.209  0.791  0.000  0.000     1.060     1.612
1629   1 H      0.081  0.919  0.000  0.000     1.967     2.193

 Mol. C6AA /au·bohr⁶  :   24214477.596247
 Mol. C8AA /au·bohr⁸  :  534739804.258521
 Mol. α(0) /au        :       7308.920635

 
molecular dipole:
                 x           y           z       tot (Debye)
 q only:      -16.641   -1121.935      45.929
   full:      -20.328   -1124.899      45.989    2862.123
molecular quadrupole (traceless):
                xx          xy          yy          xz          yz          zz
 q only:    76914.889   -3089.287 -153231.014     -11.950   10462.850   76316.125
  q+dip:    77379.073   -3923.587 -154181.392     243.712   10377.381   76802.319
   full:    77380.505   -3916.174 -154175.299     252.325   10380.444   76794.794
speedup  1.28
cpu  time for grad   17 m 41.3 s
wall time for grad   13 m 49.0 s

SCC energy    :   -2567.4845681
rep           :      29.3799780
ES            :      12.3280212
AES           :      -0.8005961
AXC           :       0.7130966
disp          :      -2.4017387
XB            :       0.0000000
fix           :       0.0000000
Gborn         :       0.0000000
Gsasa         :       0.0000000
Ghb           :       0.0000000
Gshift        :       0.0000000
Gsolv         :      -4.6935323    -2945.24
Etot ala COSMO:   -2567.4845681
grad norm     :       0.9220405
total E       :   -2537.8172939
atomizationE  :     456.2859942   286323.78
(atE without considering molecular charge,
 total energy contains solvation terms)
H-L gap (eV)  :          1.1714

------------------------------------------------------------------------
 * finished run on 2019/05/04 at 20:37:49.287     
------------------------------------------------------------------------
 total:
 * wall-time:     0 d,  0 h, 14 min,  6.012 sec
 *  cpu-time:     0 d,  0 h, 17 min, 51.651 sec
 * ratio c/w:     1.267 speedup
 SCF:
 * wall-time:     0 d,  0 h, 13 min, 55.284 sec
 *  cpu-time:     0 d,  0 h, 17 min, 46.205 sec
 * ratio c/w:     1.276 speedup

