      -----------------------------------------------------------      
     |                   =====================                   |     
     |                           x T B                           |     
     |                   =====================                   |     
     |                         S. Grimme                         |     
     |          Mulliken Center for Theoretical Chemistry        |     
     |                    University of Bonn                     |     
     |                 Version 6.0.1 (SAW181210)                 |     
      -----------------------------------------------------------      

   This program is distributed in the hope that it will be useful,
   but WITHOUT ANY WARRANTY; without even the implied warranty of
   MERCHANTABILITY or FITNESS FOR A PARTICULAR PURPOSE.
   
   FOR NON-COMMERCIAL, ACADEMIA USE ONLY.
   
   Cite this work as:
   S. Grimme, C. Bannwarth, P. Shushkov, J. Comput. Theory Chem., 2017,
   13, 1989-2009.
   C. Bannwarth, S. Ehlert and S. Grimme., ChemRxiv, 2018, preprint.
   http://doi.org/10.26434/chemrxiv.7246238.v1
   
   for sTDA-xTB:
   S. Grimme and C. Bannwarth, J. Chem. Phys., 2016, 145, 054103.
   
   in the mass-spec context:
   V. Asgeirsson, C. Bauer and S. Grimme, Chem. Sci., 2017, 8, 4879.
   
   if GBSA is used:
   P. Shushkov, F. März and S. Grimme, unpublished.
   
   for ANC optimizer:
   S. Grimme, unpublished.
   Rational Function algorithm used in ANCopt:
   F. Eckert, P. Pulay, H.-J. Werner, J. Comput. Chem., 1997, 18, 1473.
   
   with help from (in alphabetical order)
   C. Bannwarth, F. Bohle, G. Brandenburg, E. Caldeweyher, M. Checinski,
   S. Dohm, S. Ehlert, S. Ehrlich, F. März, H. Neugebauer, J. Pisarek,
   P. Pracht, P. Shushkov, and S. Spicher.
   
 * started run on 2019/05/11 at 23:18:37.096     
========================================================================
 # omp threads = 2
========================================================================
number of atoms            : 610
number of electrons        : 1628
charge                     : 0
spin                       : .0
first test random number   : .1182

########################################################################
# WARNING! Please study the warnings concerning your input carefully
#  - Process number higher than OMP_NUM_THREADS, I hope you know what you are doing.
########################################################################

           ------------------------------------------------- 
          |                 G F N 2 - x T B                 |
          | Geometry, Frequencies, Noncovalent interactions |
          |            JCTC 2018 parametrisation            |
           ------------------------------------------------- 
 
      method parameters     
 k(s)        :  1.8500
 k(p)        :  2.2300
 k(d)        :  2.2300
 k(f)        :  2.0000
 kEN (H0ij)  : -2.0000
 D4 a1       :  0.5200
 D4 a2       :  5.0000
 D4 s6       :  1.0000
 D4 s8       :  2.7000
 D4 s9       :  5.0000
 alphaj      :  2.0000

 Solvent             : h2o
 Using internal parameter file: .param_gbsa2_h2o
 Gsolv ref. state (COSMO-RS): gsolv [1 M gas/solution]
 temperature (mdtemp)       :    298.150000000000     
 dielectric constant        :    80.2000000000000     
 rho                        :    1.00000000000000     
 mass                       :    18.0000000000000     
 surface tension            :    15.5689454083859     
 probe radius               :   0.975313790000000     
 vdW radii scaling          :    1.00000000000000     
 Gshift (Eh)                :   1.857443126794793E-003
 c1                         :    1.55243817000000     
 soset                      :   0.130326360000000     
 HB correction              :  T

            Z     q(EN)     CN     RAES       Cart. coordinates
     1  N   5.0   -0.20    3.15    1.95     5.38413   181.07299    -2.40953
     2  C   4.0    0.03    4.10    3.80     3.63971   178.99887    -1.73491
     3  C   4.0    0.08    3.18    3.03     4.88463   176.71780    -0.41012
     4  O   6.0   -0.28    1.10    1.80     4.24008   175.82402     1.62411
     5  C   4.0   -0.07    4.10    3.80     2.42991   177.97478    -4.18575
     6  H   1.0    0.09    1.03    1.43     6.00523   180.97729    -4.22675
     7  H   1.0    0.05    1.04    1.44     2.22118   179.76083    -0.43376
     8  H   1.0    0.04    1.00    1.43     1.33222   176.29342    -3.76387
     9  H   1.0    0.04    1.00    1.43     1.18967   179.39405    -4.99985
    10  H   1.0    0.05    1.00    1.43     3.87946   177.51855    -5.56571
    11  N   5.0   -0.21    3.20    1.96    -5.68049   148.48546    -8.97617
    12  C   4.0    0.02    4.27    4.14    -4.57958   150.26572   -10.81850
    13  C   4.0    0.14    3.47    3.10    -1.80678   150.71118   -10.03993
    14  O   6.0   -0.32    1.35    1.80     0.07472   150.06440   -11.28428
    15  C   4.0   -0.05    4.18    3.95    -6.14161   152.76959   -11.09846
    16  C   4.0   -0.05    4.15    3.89    -8.91546   152.22174   -11.85330
    17  C   4.0   -0.04    4.11    3.83   -10.65460   154.52131   -12.11835
    18  C   4.0   -0.03    4.09    3.78   -13.47468   153.79935   -12.34484
    19  N   5.0   -0.10    3.99    2.83   -14.54347   154.13657   -14.92197
    20  H   1.0    0.08    1.03    1.43    -7.24055   149.19788    -8.13503
    21  H   1.0    0.04    1.04    1.44    -4.55320   149.31248   -12.66726
    22  H   1.0    0.04    1.03    1.43    -6.08400   153.81840    -9.34426
    23  H   1.0    0.04    1.02    1.43    -5.21644   153.87558   -12.56962
    24  H   1.0    0.05    1.02    1.43    -8.94013   151.14195   -13.61081
    25  H   1.0    0.04    1.03    1.43    -9.72976   150.98489   -10.41168
    26  H   1.0    0.05    1.03    1.43   -10.37068   155.72289   -10.47197
    27  H   1.0    0.06    1.03    1.43   -10.12925   155.62663   -13.77495
    28  H   1.0    0.04    1.02    1.43   -13.77185   151.84778   -11.74337
    29  H   1.0    0.05    1.02    1.43   -14.59291   154.98808   -11.08776
    30  H   1.0    0.08    1.03    1.43   -16.46046   154.30749   -14.75212
    31  H   1.0    0.11    1.04    1.43   -13.88022   155.79319   -15.72982
    32  H   1.0    0.11    1.08    1.44   -14.15433   152.61861   -16.31849
    33  N   5.0   -0.16    3.47    2.06    -1.60196   151.88517    -7.83422
    34  C   4.0    0.04    4.53    4.58     0.94308   152.12695    -6.94625
    35  C   4.0    0.09    3.38    3.07     2.75962   149.90356    -7.43002
    36  O   6.0   -0.30    1.18    1.80     4.71693   150.16836    -8.64959
    37  C   4.0   -0.05    4.45    4.46     1.08163   152.66276    -4.18197
    38  C   4.0   -0.02    4.27    4.15     3.47818   154.18849    -3.88481
    39  C   4.0   -0.08    4.15    3.90     3.12705   156.68190    -5.37988
    40  C   4.0   -0.08    4.09    3.79     3.98712   154.58478    -1.07204
    41  H   1.0    0.07    1.06    1.44    -3.10663   152.12568    -6.68588
    42  H   1.0    0.05    1.10    1.44     1.75406   153.67734    -8.04978
    43  H   1.0    0.04    1.03    1.43    -0.55191   153.78156    -3.60280
    44  H   1.0    0.04    1.03    1.43     1.10176   150.95043    -3.04568
    45  H   1.0    0.05    1.06    1.44     5.05858   153.11409    -4.67033
    46  H   1.0    0.04    1.00    1.43     4.21830   158.17288    -4.47347
    47  H   1.0    0.04    1.00    1.43     3.82872   156.51354    -7.29913
    48  H   1.0    0.04    1.00    1.43     1.15598   157.23779    -5.39226
    49  H   1.0    0.04    1.00    1.43     5.84571   155.40401    -0.76507
    50  H   1.0    0.04    1.00    1.43     2.57337   155.83972    -0.26349
    51  H   1.0    0.04    1.00    1.43     3.87080   152.78137    -0.10706
    52  N   5.0   -0.19    3.39    2.01     2.97948   145.16635   -10.13426
    53  C   4.0    0.03    4.43    4.42     3.72637   144.14613   -12.49523
    54  C   4.0    0.16    3.55    3.14     5.60662   145.94730   -13.66014
    55  O   6.0   -0.32    1.38    1.80     7.40441   145.20979   -14.94752
    56  C   4.0   -0.02    4.25    4.11     1.43899   143.37735   -14.11672
    57  C   4.0   -0.07    4.14    3.87    -0.42390   141.85554   -12.50408
    58  C   4.0   -0.07    4.12    3.84     0.12707   145.56904   -15.38252
    59  H   1.0    0.09    1.03    1.43     1.20069   145.80409    -9.87304
    60  H   1.0    0.05    1.06    1.44     4.76245   142.38141   -12.12941
    61  H   1.0    0.05    1.06    1.44     2.21979   142.13794   -15.58828
    62  H   1.0    0.05    1.00    1.43    -1.71097   140.80327   -13.70991
    63  H   1.0    0.04    1.00    1.43     0.57732   140.51880   -11.30826
    64  H   1.0    0.04    1.00    1.43    -1.53462   143.07813   -11.30452
    65  H   1.0    0.04    1.00    1.43    -1.54448   144.88394   -16.36015
    66  H   1.0    0.06    1.01    1.43    -0.45175   146.95375   -13.98397
    67  H   1.0    0.05    1.00    1.43     1.37489   146.47652   -16.73838
    68  N   5.0   -0.14    3.57    2.13     5.16001   148.38512   -13.27132
    69  C   4.0    0.05    4.58    4.65     7.09942   149.96335   -14.34491
    70  C   4.0    0.09    3.33    3.06     9.60586   149.43244   -13.05566
    71  O   6.0   -0.32    1.17    1.80    11.61071   149.35847   -14.22872
    72  C   4.0   -0.02    4.26    4.12     6.63545   152.77367   -14.37043
    73  C   4.0   -0.08    4.11    3.81     8.56472   153.98076   -16.23429
    74  C   4.0   -0.07    4.16    3.92     3.89308   153.06524   -15.23568
    75  H   1.0    0.12    1.11    1.44     3.71502   149.01611   -12.21059
    76  H   1.0    0.05    1.08    1.44     7.31701   149.33157   -16.31350
    77  H   1.0    0.05    1.05    1.44     6.87634   153.53031   -12.46829
    78  H   1.0    0.04    1.00    1.43     8.20419   155.99293   -16.32681
    79  H   1.0    0.05    1.00    1.43    10.47828   153.63814   -15.59869
    80  H   1.0    0.04    1.00    1.43     8.32380   153.14619   -18.09546
    81  H   1.0    0.04    1.00    1.43     3.49685   155.05160   -15.60815
    82  H   1.0    0.04    1.01    1.43     3.59302   152.00019   -16.96185
    83  H   1.0    0.06    1.01    1.43     2.57898   152.40259   -13.81217
    84  N   5.0   -0.19    3.32    1.99    12.29472   144.09086   -16.31502
    85  C   4.0    0.04    4.36    4.30    13.38328   145.07759   -18.58855
    86  C   4.0    0.15    3.42    3.08    16.14528   145.75482   -18.11547
    87  O   6.0   -0.27    1.24    1.80    17.87190   144.80412   -19.33493
    88  C   4.0   -0.03    4.30    4.19    11.61358   147.15750   -19.49253
    89  C   4.0   -0.02    4.22    4.03     9.11951   145.87792   -20.31439
    90  C   4.0    0.25    3.12    3.03     8.54094   146.93224   -23.00398
    91  O   6.0   -0.33    1.31    1.80     6.89169   148.63840   -22.94348
    92  O   6.0   -0.28    1.15    1.80     9.71635   146.15919   -24.89915
    93  H   1.0    0.13    1.09    1.44    10.58943   144.75878   -15.74573
    94  H   1.0    0.06    1.06    1.44    13.46211   143.58872   -20.04278
    95  H   1.0    0.07    1.05    1.44    11.33736   148.51477   -17.97996
    96  H   1.0    0.06    1.03    1.43    12.51046   148.12506   -21.08340
    97  H   1.0    0.05    1.03    1.43     9.34518   143.83454   -20.38392
    98  H   1.0    0.06    1.03    1.43     7.56756   146.34552   -19.06272
    99  N   5.0   -0.14    3.47    2.06    16.57293   147.45348   -16.30385
   100  C   4.0    0.04    4.32    4.23    19.17009   148.21517   -15.82803
   101  C   4.0    0.10    3.19    3.03    20.71616   146.01665   -14.72617
   102  O   6.0   -0.26    1.11    1.80    22.83320   145.51046   -15.51662
   103  C   4.0   -0.04    4.17    3.94    19.21284   150.69969   -14.31129
   104  C   4.0   -0.04    4.09    3.79    18.05695   152.99348   -15.83086
   105  C   4.0   -0.01    4.12    3.85    19.86372   154.90496   -17.13284
   106  N   5.0   -0.14    3.35    2.00    22.23347   155.46288   -15.78587
   107  C   4.0    0.10    3.32    3.06    23.22892   157.74739   -15.31851
   108  N   5.0   -0.15    3.26    1.97    21.78484   159.80683   -15.42865
   109  N   5.0   -0.17    3.21    1.96    25.71551   157.97396   -14.77053
   110  H   1.0    0.10    1.08    1.44    15.16923   148.08305   -15.16739
   111  H   1.0    0.07    1.06    1.44    20.03569   148.57620   -17.68905
   112  H   1.0    0.05    1.03    1.43    18.05841   150.38280   -12.63240
   113  H   1.0    0.05    1.02    1.43    21.14393   151.08047   -13.70708
   114  H   1.0    0.05    1.03    1.43    16.81848   152.22701   -17.27952
   115  H   1.0    0.05    1.03    1.43    16.91752   154.03555   -14.46747
   116  H   1.0    0.05    1.02    1.43    20.39272   154.12836   -18.97892
   117  H   1.0    0.05    1.03    1.43    18.81449   156.64733   -17.42981
   118  H   1.0    0.08    1.07    1.44    23.45644   153.99201   -15.78283
   119  H   1.0    0.11    1.03    1.43    19.88544   159.67594   -15.24916
   120  H   1.0    0.13    1.05    1.44    22.45319   161.45056   -14.71944
   121  H   1.0    0.09    1.02    1.43    26.85546   156.43783   -14.80617
   122  H   1.0    0.10    1.03    1.43    26.47476   159.71144   -14.63654
   123  N   5.0   -0.21    3.22    1.96   -10.22504   178.91356    -2.14948
   124  C   4.0    0.02    4.22    4.05    -8.21050   177.06383    -2.36990
   125  C   4.0    0.14    3.44    3.09    -9.20753   174.48890    -3.25148
   126  O   6.0   -0.34    1.45    1.80    -9.19240   173.93525    -5.49996
   127  C   4.0   -0.08    4.13    3.86    -6.86978   177.01778     0.17530
   128  H   1.0    0.08    1.04    1.43   -10.67753   179.35734    -0.34879
   129  H   1.0    0.04    1.05    1.44    -6.93846   177.69222    -3.88351
   130  H   1.0    0.04    1.00    1.43    -5.38889   175.59501     0.19279
   131  H   1.0    0.04    1.00    1.43    -6.01673   178.84979     0.55279
   132  H   1.0    0.04    1.00    1.43    -8.20468   176.61240     1.68693
   133  N   5.0   -0.15    3.43    2.04   -10.08959   172.84263    -1.56929
   134  C   4.0    0.03    4.41    4.40   -10.47623   170.26362    -2.36645
   135  C   4.0    0.16    3.58    3.15   -11.75492   170.01629    -4.93296
   136  O   6.0   -0.32    1.34    1.80   -11.30348   168.13911    -6.21406
   137  C   4.0   -0.05    4.32    4.23   -11.98995   168.57050    -0.53602
   138  C   4.0   -0.03    4.14    3.88   -10.99354   168.12842     2.18882
   139  C   4.0   -0.08    4.13    3.87   -12.55053   165.97487     3.30609
   140  C   4.0   -0.08    4.09    3.78    -8.21072   167.45971     2.50847
   141  H   1.0    0.07    1.06    1.44   -10.43413   173.30622     0.24770
   142  H   1.0    0.04    1.06    1.44    -8.62088   169.36468    -2.59263
   143  H   1.0    0.04    1.03    1.43   -13.89939   169.32645    -0.33570
   144  H   1.0    0.05    1.04    1.43   -12.12545   166.73742    -1.47323
   145  H   1.0    0.04    1.05    1.44   -11.37639   169.83776     3.29332
   146  H   1.0    0.04    1.00    1.43   -12.08911   165.71592     5.28942
   147  H   1.0    0.04    1.00    1.43   -14.55966   166.38833     3.17374
   148  H   1.0    0.04    1.00    1.43   -12.15719   164.22466     2.30624
   149  H   1.0    0.04    1.00    1.43    -7.81505   167.18582     4.50340
   150  H   1.0    0.04    1.00    1.43    -7.75820   165.71581     1.51813
   151  H   1.0    0.04    1.00    1.43    -6.98034   168.95305     1.81480
   152  N   5.0   -0.15    3.52    2.09   -13.61902   171.60007    -5.64993
   153  C   4.0    0.03    4.42    4.42   -15.20586   170.81707    -7.76289
   154  C   4.0    0.16    3.35    3.07   -13.79390   170.69013   -10.32467
   155  O   6.0   -0.30    1.20    1.80   -14.69062   169.66005   -12.18431
   156  C   4.0   -0.05    4.20    4.01   -17.65019   172.40777    -7.76076
   157  C   4.0   -0.05    4.13    3.86   -20.06619   170.94131    -8.51821
   158  C   4.0   -0.05    4.12    3.85   -21.43815   169.63417    -6.29999
   159  C   4.0   -0.04    4.10    3.81   -23.33106   167.61667    -7.16150
   160  N   5.0   -0.12    4.00    2.87   -25.55840   168.68517    -8.52779
   161  H   1.0    0.09    1.07    1.44   -13.52187   173.45381    -5.22508
   162  H   1.0    0.06    1.07    1.44   -15.68691   168.83552    -7.37639
   163  H   1.0    0.04    1.04    1.43   -17.87943   173.12979    -5.84939
   164  H   1.0    0.04    1.02    1.43   -17.39178   173.99752    -9.04553
   165  H   1.0    0.04    1.03    1.43   -21.32690   172.31152    -9.39834
   166  H   1.0    0.05    1.03    1.43   -19.53105   169.55783    -9.94767
   167  H   1.0    0.04    1.03    1.43   -20.03936   168.67565    -5.12924
   168  H   1.0    0.04    1.02    1.43   -22.37836   171.02698    -5.11431
   169  H   1.0    0.04    1.02    1.43   -22.36199   166.30392    -8.42342
   170  H   1.0    0.04    1.02    1.43   -24.00641   166.57768    -5.51620
   171  H   1.0    0.06    1.02    1.43   -26.74050   167.26062    -9.11413
   172  H   1.0    0.05    1.02    1.43   -26.54799   169.89709    -7.36760
   173  H   1.0    0.05    1.02    1.43   -24.96023   169.66917   -10.10011
   174  N   5.0   -0.14    3.61    2.17   -11.49714   171.70437   -10.22089
   175  C   4.0    0.03    4.39    4.37    -9.61415   171.77574   -12.20134
   176  C   4.0    0.15    3.39    3.08    -8.20476   169.19465   -12.49630
   177  O   6.0   -0.29    1.21    1.80    -7.53410   168.23133   -14.49904
   178  C   4.0   -0.02    4.26    4.12    -7.79837   174.05919   -11.53324
   179  C   4.0   -0.04    4.19    3.98    -5.70021   173.31718    -9.61924
   180  C   4.0   -0.07    4.13    3.85    -9.39444   176.34838   -10.65291
   181  C   4.0   -0.08    3.99    3.60    -3.75999   175.33478    -8.91683
   182  H   1.0    0.10    1.15    1.45   -10.90972   172.53467    -8.60326
   183  H   1.0    0.06    1.05    1.44   -10.53230   172.15559   -14.01876
   184  H   1.0    0.04    1.05    1.44    -6.85396   174.57415   -13.30490
   185  H   1.0    0.06    1.07    1.44    -6.64363   172.76393    -7.89890
   186  H   1.0    0.05    1.04    1.43    -4.67815   171.69856   -10.38409
   187  H   1.0    0.04    1.00    1.43    -8.31029   178.06965   -10.92698
   188  H   1.0    0.04    1.00    1.43   -11.09958   176.47605   -11.78823
   189  H   1.0    0.06    1.02    1.43    -9.86642   176.21071    -8.67082
   190  H   1.0    0.04    1.00    1.43    -2.36310   174.50854    -7.66278
   191  H   1.0    0.04    1.00    1.43    -2.79061   176.04477   -10.58496
   192  H   1.0    0.04    1.00    1.43    -4.66003   176.91111    -7.96090
   193  N   5.0   -0.15    3.57    2.13    -7.76861   168.09159   -10.26799
   194  C   4.0    0.03    4.36    4.32    -6.54902   165.69813    -9.90516
   195  C   4.0    0.15    3.46    3.10    -8.38698   163.49685   -10.40860
   196  O   6.0   -0.32    1.28    1.80    -8.13817   161.39192    -9.50683
   197  C   4.0   -0.04    4.38    4.34    -5.74384   165.44939    -7.12853
   198  C   4.0   -0.03    4.13    3.87    -3.47275   166.97021    -6.12891
   199  C   4.0   -0.08    4.10    3.80    -4.20911   169.50171    -4.93115
   200  C   4.0   -0.08    4.11    3.82    -2.09380   165.40085    -4.09004
   201  H   1.0    0.11    1.13    1.45    -8.78806   168.66317    -8.74522
   202  H   1.0    0.05    1.05    1.44    -4.94733   165.52830   -11.20789
   203  H   1.0    0.06    1.04    1.43    -7.41181   165.91774    -6.01548
   204  H   1.0    0.05    1.05    1.44    -5.33976   163.44631    -6.85628
   205  H   1.0    0.04    1.05    1.44    -2.16332   167.29662    -7.69401
   206  H   1.0    0.04    1.00    1.43    -2.67882   170.85241    -5.11923
   207  H   1.0    0.05    1.01    1.43    -5.88744   170.25872    -5.80281
   208  H   1.0    0.04    1.01    1.43    -4.57017   169.23074    -2.92517
   209  H   1.0    0.04    1.00    1.43    -0.48103   166.46366    -3.39694
   210  H   1.0    0.04    1.00    1.43    -3.34736   164.98784    -2.51928
   211  H   1.0    0.04    1.00    1.43    -1.42042   163.61702    -4.85520
   212  N   5.0   -0.14    3.56    2.12   -10.43991   164.03494   -11.80226
   213  C   4.0    0.04    4.48    4.50   -12.02249   161.95407   -12.54526
   214  C   4.0    0.15    3.49    3.11   -11.17921   161.01384   -15.12773
   215  O   6.0   -0.30    1.32    1.80   -12.09468   159.11208   -16.07418
   216  C   4.0   -0.02    4.27    4.13   -14.89259   162.50040   -12.38819
   217  C   4.0    0.15    3.23    3.04   -16.21827   160.08428   -11.52047
   218  O   6.0   -0.29    1.19    1.80   -17.36299   158.67007   -12.93369
   219  N   5.0   -0.19    3.20    1.96   -15.92769   159.66876    -9.02724
   220  H   1.0    0.10    1.09    1.44   -10.72320   165.72385   -12.63391
   221  H   1.0    0.07    1.10    1.44   -11.56079   160.41395   -11.22925
   222  H   1.0    0.05    1.03    1.43   -15.21471   164.01228   -11.02982
   223  H   1.0    0.07    1.03    1.43   -15.62086   163.05686   -14.22900
   224  H   1.0    0.09    1.03    1.43   -16.73853   158.14104    -8.22726
   225  H   1.0    0.09    1.03    1.43   -14.86980   160.83414    -7.96185
   226  N   5.0   -0.14    3.49    2.07    -9.29221   162.27343   -16.26687
   227  C   4.0    0.05    4.70    4.76    -8.55641   161.20240   -18.62066
   228  C   4.0    0.14    3.64    3.19    -6.02560   160.01007   -18.66891
   229  O   6.0   -0.32    1.57    1.80    -4.01010   161.15206   -18.89607
   230  C   4.0   -0.03    4.44    4.44    -8.58412   162.92573   -20.91051
   231  C   4.0    0.15    3.32    3.06   -11.29715   162.76885   -21.71708
   232  O   6.0   -0.28    1.24    1.80   -12.15776   160.69638   -22.23378
   233  N   5.0   -0.18    3.18    1.95   -12.56045   164.96030   -21.58722
   234  H   1.0    0.10    1.07    1.44    -8.62387   163.97938   -15.72118
   235  H   1.0    0.09    1.17    1.46    -9.94369   159.69772   -18.97673
   236  H   1.0    0.06    1.04    1.44    -7.92441   164.81103   -20.44237
   237  H   1.0    0.05    1.06    1.44    -7.45453   162.02650   -22.37247
   238  H   1.0    0.10    1.03    1.43   -14.40434   165.01966   -22.06685
   239  H   1.0    0.08    1.03    1.43   -11.64274   166.61353   -21.38493
   240  N   5.0   -0.15    3.56    2.12    -6.17943   157.53873   -18.98566
   241  C   4.0    0.03    4.53    4.58    -3.96842   156.28105   -19.93421
   242  C   4.0    0.16    3.69    3.23    -2.64446   158.15318   -21.73476
   243  O   6.0   -0.34    1.56    1.80    -0.38399   158.68308   -21.53902
   244  C   4.0   -0.03    4.30    4.20    -4.73657   153.65423   -21.03148
   245  C   4.0   -0.04    4.22    4.03    -2.41760   152.39669   -22.19326
   246  C   4.0   -0.07    4.09    3.79    -6.87643   153.65088   -22.98405
   247  C   4.0   -0.08    4.08    3.76    -0.09626   152.58742   -20.49799
   248  H   1.0    0.08    1.07    1.44    -7.83655   156.59503   -18.93304
   249  H   1.0    0.04    1.06    1.44    -2.64440   155.95613   -18.37393
   250  H   1.0    0.04    1.06    1.44    -5.35439   152.53689   -19.40995
   251  H   1.0    0.06    1.03    1.43    -2.85634   150.42224   -22.58050
   252  H   1.0    0.05    1.03    1.43    -2.04239   153.25304   -24.03251
   253  H   1.0    0.06    1.01    1.43    -7.15922   151.69160   -23.53914
   254  H   1.0    0.06    0.99    1.43    -8.65690   154.37775   -22.24903
   255  H   1.0    0.05    1.00    1.43    -6.38395   154.65606   -24.70597
   256  H   1.0    0.05    1.01    1.43     1.39201   151.38502   -21.22828
   257  H   1.0    0.05    1.01    1.43     0.56214   154.51638   -20.34585
   258  H   1.0    0.04    1.00    1.43    -0.58622   151.89461   -18.62274
   259  N   5.0   -0.15    3.59    2.15    -4.01758   159.16471   -23.65101
   260  C   4.0    0.03    4.53    4.57    -2.56158   159.91698   -25.87875
   261  C   4.0    0.16    3.52    3.12    -0.46493   161.74308   -24.97293
   262  O   6.0   -0.32    1.23    1.80     1.78575   161.65545   -25.44167
   263  C   4.0   -0.06    4.28    4.15    -4.37128   161.18341   -27.76720
   264  C   4.0   -0.05    4.16    3.92    -5.49311   159.28589   -29.64343
   265  C   4.0   -0.01    4.20    4.00    -3.44158   158.19485   -31.39666
   266  N   5.0   -0.14    3.39    2.02    -4.48503   156.24424   -33.05876
   267  C   4.0    0.10    3.33    3.06    -3.23766   155.06410   -34.93675
   268  N   5.0   -0.17    3.25    1.97    -0.81249   155.64387   -35.34749
   269  N   5.0   -0.17    3.24    1.97    -4.54753   153.58662   -36.52624
   270  H   1.0    0.07    1.06    1.44    -5.77903   158.47435   -23.95093
   271  H   1.0    0.04    1.05    1.44    -1.66150   158.24899   -26.70679
   272  H   1.0    0.04    1.03    1.43    -5.92323   162.08176   -26.76487
   273  H   1.0    0.04    1.03    1.43    -3.33062   162.62964   -28.80356
   274  H   1.0    0.04    1.02    1.43    -6.38474   157.73510   -28.61223
   275  H   1.0    0.05    1.03    1.43    -6.95496   160.18931   -30.76938
   276  H   1.0    0.05    1.02    1.43    -2.62292   159.68754   -32.55943
   277  H   1.0    0.04    1.02    1.43    -1.93845   157.34267   -30.25958
   278  H   1.0    0.09    1.07    1.44    -6.28756   155.69106   -32.74589
   279  H   1.0    0.09    1.04    1.43     0.18404   156.58878   -34.03075
   280  H   1.0    0.13    1.05    1.44     0.24092   154.64678   -36.61647
   281  H   1.0    0.09    1.04    1.43    -6.32319   153.10077   -36.02046
   282  H   1.0    0.13    1.05    1.44    -3.59828   152.26460   -37.58992
   283  N   5.0   -0.14    3.80    2.43    -1.72877   163.52348   -23.70604
   284  C   4.0    0.02    4.45    4.46    -1.00616   165.91253   -22.67671
   285  C   4.0    0.16    3.56    3.14     0.66196   165.47676   -20.39087
   286  O   6.0   -0.32    1.35    1.80     1.84308   167.09665   -19.24618
   287  C   4.0    0.06    4.25    4.10    -3.51631   167.18838   -21.83315
   288  O   6.0   -0.24    2.15    1.85    -4.24127   166.26274   -19.45042
   289  C   4.0   -0.08    4.07    3.74    -5.58001   167.11588   -23.94177
   290  H   1.0    0.08    1.17    1.46    -3.53982   163.06670   -23.32090
   291  H   1.0    0.04    1.05    1.44    -0.08301   167.07956   -24.10451
   292  H   1.0    0.05    1.04    1.43    -3.10913   169.19455   -21.49840
   293  H   1.0    0.15    1.08    1.44    -3.97367   164.44443   -19.30756
   294  H   1.0    0.05    1.00    1.43    -7.17146   168.25695   -23.33312
   295  H   1.0    0.04    1.00    1.43    -4.75618   168.00411   -25.59785
   296  H   1.0    0.04    1.00    1.43    -6.25767   165.26270   -24.44957
   297  N   5.0   -0.13    3.80    2.43     0.63824   163.09742   -19.68521
   298  C   4.0    0.04    4.62    4.69     1.78654   162.45933   -17.36396
   299  C   4.0    0.15    3.62    3.18     4.29907   161.37195   -18.07712
   300  O   6.0   -0.33    1.49    1.80     6.25316   162.36408   -17.40431
   301  C   4.0   -0.04    4.39    4.37     0.03358   160.84724   -15.80518
   302  C   4.0   -0.03    4.19    3.98     1.16548   160.43422   -13.16457
   303  C   4.0   -0.08    4.14    3.88     2.39796   162.84196   -12.13671
   304  C   4.0   -0.08    4.08    3.76    -0.84901   159.41904   -11.32456
   305  H   1.0    0.13    1.23    1.47    -0.37180   161.72261   -20.51719
   306  H   1.0    0.06    1.11    1.45     2.14890   164.23963   -16.38078
   307  H   1.0    0.07    1.05    1.44    -1.74294   161.86264   -15.59350
   308  H   1.0    0.05    1.03    1.43    -0.32886   159.03767   -16.70601
   309  H   1.0    0.04    1.05    1.44     2.65506   159.00005   -13.31934
   310  H   1.0    0.04    1.00    1.43     2.81382   162.58717   -10.13632
   311  H   1.0    0.05    1.00    1.43     4.18024   163.24799   -13.06929
   312  H   1.0    0.04    1.00    1.43     1.14121   164.45606   -12.31467
   313  H   1.0    0.04    1.00    1.43    -0.01186   159.00469    -9.50320
   314  H   1.0    0.05    1.00    1.43    -2.35125   160.79712   -11.07694
   315  H   1.0    0.04    1.00    1.43    -1.66679   157.69164   -12.08130
   316  N   5.0   -0.15    3.63    2.19     4.19365   159.45871   -19.68200
   317  C   4.0    0.04    4.50    4.54     6.36216   158.83810   -21.18778
   318  C   4.0    0.16    3.59    3.16     7.61212   161.24552   -22.06861
   319  O   6.0   -0.31    1.24    1.80     9.89312   161.29096   -22.41371
   320  C   4.0   -0.04    4.39    4.36     5.55877   157.44305   -23.55542
   321  C   4.0   -0.05    4.21    4.02     5.11322   154.63981   -23.05687
   322  C   4.0   -0.00    4.32    4.24     3.36944   153.81301   -25.16595
   323  N   5.0   -0.14    3.40    2.02     3.33941   151.09974   -25.48174
   324  C   4.0    0.10    3.37    3.07     2.93294   150.10780   -27.76417
   325  N   5.0   -0.17    3.25    1.97     1.93996   151.54916   -29.64141
   326  N   5.0   -0.16    3.21    1.96     3.71026   147.75331   -28.34184
   327  H   1.0    0.11    1.15    1.45     2.52169   158.72597   -20.21721
   328  H   1.0    0.04    1.05    1.44     7.74791   157.72201   -20.13451
   329  H   1.0    0.07    1.06    1.44     3.83227   158.31873   -24.25338
   330  H   1.0    0.05    1.04    1.43     7.00486   157.66658   -25.00193
   331  H   1.0    0.06    1.03    1.43     6.86653   153.56483   -23.14413
   332  H   1.0    0.04    1.03    1.43     4.29881   154.33533   -21.20423
   333  H   1.0    0.04    1.03    1.43     1.45684   154.50743   -24.84285
   334  H   1.0    0.05    1.05    1.44     4.08893   154.64976   -26.92256
   335  H   1.0    0.12    1.16    1.46     4.60573   150.08457   -24.37230
   336  H   1.0    0.08    1.04    1.43     0.72266   152.91617   -29.12062
   337  H   1.0    0.10    1.03    1.43     1.51606   150.66283   -31.27544
   338  H   1.0    0.11    1.03    1.43     4.48504   146.73096   -26.93259
   339  H   1.0    0.10    1.03    1.43     2.89717   146.78863   -29.76348
   340  N   5.0   -0.12    3.59    2.15     5.98713   163.16964   -22.44359
   341  C   4.0    0.04    4.32    4.23     6.93189   165.65575   -23.10460
   342  C   4.0    0.16    3.51    3.12     8.35363   166.84187   -20.85525
   343  O   6.0   -0.30    1.31    1.80    10.65588   167.14090   -20.94835
   344  C   4.0   -0.07    4.11    3.83     4.84189   167.33314   -24.15576
   345  H   1.0    0.11    1.11    1.45     4.17939   162.76412   -22.92480
   346  H   1.0    0.06    1.06    1.44     8.40730   165.41195   -24.55508
   347  H   1.0    0.05    1.00    1.43     5.68507   168.94070   -25.12059
   348  H   1.0    0.05    1.00    1.43     3.76834   166.24666   -25.52854
   349  H   1.0    0.06    1.03    1.43     3.65413   168.05652   -22.66338
   350  N   5.0   -0.14    3.57    2.13     7.03613   167.53314   -18.80945
   351  C   4.0    0.04    4.47    4.50     8.39928   168.92201   -16.88861
   352  C   4.0    0.16    3.41    3.08    10.26821   167.15541   -15.54011
   353  O   6.0   -0.31    1.23    1.80    11.74205   167.85912   -13.89970
   354  C   4.0   -0.04    4.19    3.97     6.58441   170.44090   -15.23877
   355  C   4.0   -0.03    4.17    3.93     7.94475   172.67275   -13.93328
   356  C   4.0    0.16    3.16    3.03     6.51310   175.01162   -12.92191
   357  O   6.0   -0.28    1.19    1.80     6.93006   175.94588   -10.82399
   358  N   5.0   -0.18    3.17    1.95     4.88071   176.13291   -14.49891
   359  H   1.0    0.11    1.11    1.45     5.11839   167.43699   -18.72247
   360  H   1.0    0.06    1.07    1.44     9.64965   170.27520   -17.88021
   361  H   1.0    0.05    1.03    1.43     5.07707   171.12876   -16.46747
   362  H   1.0    0.05    1.02    1.43     5.74670   169.21228   -13.81176
   363  H   1.0    0.07    1.03    1.43     9.06897   171.93015   -12.37411
   364  H   1.0    0.06    1.03    1.43     9.29169   173.50930   -15.26900
   365  H   1.0    0.09    1.03    1.43     4.43211   175.42307   -16.19960
   366  H   1.0    0.10    1.03    1.43     3.97932   177.70435   -13.90097
   367  N   5.0   -0.13    3.67    2.23    10.27652   164.84598   -16.50253
   368  C   4.0    0.04    4.37    4.33    11.82034   162.77662   -15.65247
   369  C   4.0    0.15    3.56    3.14    14.54756   162.98166   -16.50406
   370  O   6.0   -0.29    1.25    1.80    16.31258   162.34974   -15.14626
   371  C   4.0   -0.06    4.21    4.02    10.97353   160.24659   -16.79956
   372  H   1.0    0.13    1.22    1.47     8.75469   164.29984   -17.51529
   373  H   1.0    0.06    1.05    1.44    11.81178   162.68108   -13.57764
   374  H   1.0    0.04    1.01    1.43    12.29306   158.81338   -16.14207
   375  H   1.0    0.06    1.02    1.43     9.09715   159.78946   -16.13336
   376  H   1.0    0.07    1.03    1.43    11.05712   160.37060   -18.83469
   377  N   5.0   -0.14    3.57    2.13    14.71464   163.52197   -18.97697
   378  C   4.0    0.03    4.42    4.41    17.13016   163.99642   -20.17104
   379  C   4.0    0.16    3.48    3.11    18.85629   165.56238   -18.40450
   380  O   6.0   -0.27    1.22    1.80    21.16225   165.38512   -18.44029
   381  C   4.0   -0.04    4.26    4.12    16.76093   165.45382   -22.66350
   382  C   4.0   -0.04    4.17    3.95    15.63285   163.80349   -24.75078
   383  C   4.0   -0.01    4.19    3.97    17.56556   161.88265   -25.75507
   384  N   5.0   -0.14    3.39    2.02    16.25626   159.83908   -27.03035
   385  C   4.0    0.10    3.32    3.06    15.94769   159.45755   -29.50352
   386  N   5.0   -0.19    3.23    1.96    17.31678   160.65038   -31.24711
   387  N   5.0   -0.18    3.24    1.97    14.22238   157.76675   -30.24473
   388  H   1.0    0.11    1.10    1.44    13.15792   164.19537   -19.86928
   389  H   1.0    0.05    1.05    1.44    18.10351   162.20093   -20.50123
   390  H   1.0    0.06    1.03    1.43    15.51591   167.05726   -22.29965
   391  H   1.0    0.05    1.03    1.43    18.59132   166.19725   -23.25607
   392  H   1.0    0.07    1.03    1.43    13.98021   162.82750   -23.99621
   393  H   1.0    0.05    1.03    1.43    14.99454   165.02572   -26.27911
   394  H   1.0    0.04    1.03    1.43    18.88606   162.81892   -27.02330
   395  H   1.0    0.04    1.03    1.43    18.63651   161.05715   -24.20213
   396  H   1.0    0.08    1.08    1.44    15.07679   158.87714   -25.87094
   397  H   1.0    0.08    1.03    1.43    18.70113   161.85543   -30.74689
   398  H   1.0    0.09    1.03    1.43    17.18272   160.15027   -33.07660
   399  H   1.0    0.09    1.03    1.43    13.18123   156.81184   -28.97093
   400  H   1.0    0.09    1.03    1.43    14.02864   157.27789   -32.07232
   401  N   5.0   -0.13    3.63    2.18    17.50766   167.13216   -16.92999
   402  C   4.0    0.04    4.44    4.45    18.71330   168.86141   -15.23121
   403  C   4.0    0.17    3.49    3.11    20.23904   167.32491   -13.32428
   404  O   6.0   -0.26    1.29    1.80    22.41302   166.64108   -13.73477
   405  C   4.0   -0.04    4.20    4.00    16.74849   170.77246   -14.33459
   406  C   4.0   -0.02    4.16    3.93    16.01672   172.32230   -16.71783
   407  C   4.0    0.25    3.02    3.02    14.28915   174.80891   -16.76438
   408  O   6.0   -0.28    1.16    1.80    13.14448   175.09398   -18.81582
   409  O   6.0   -0.27    1.14    1.80    14.23424   176.30015   -14.93812
   410  H   1.0    0.09    1.10    1.44    15.62443   167.30889   -17.13971
   411  H   1.0    0.06    1.06    1.44    20.18513   169.89050   -16.29884
   412  H   1.0    0.07    1.04    1.43    15.07806   169.85114   -13.56852
   413  H   1.0    0.06    1.02    1.43    17.54626   172.03333   -12.91556
   414  H   1.0    0.05    1.03    1.43    17.76588   173.01034   -17.59118
   415  H   1.0    0.06    1.03    1.43    15.11965   171.07911   -18.10092
   416  N   5.0   -0.14    3.44    2.04    19.13152   166.92427   -11.07735
   417  C   4.0    0.05    4.34    4.27    20.86790   166.27552    -9.08562
   418  C   4.0    0.10    3.19    3.04    22.24311   163.72112    -9.41511
   419  O   6.0   -0.27    1.16    1.80    21.78078   161.98904   -10.84303
   420  C   4.0    0.03    4.13    3.86    19.79377   166.89420    -6.47346
   421  O   6.0   -0.25    2.05    1.83    21.81194   167.20749    -4.78425
   422  H   1.0    0.09    1.06    1.44    17.26842   167.12861   -10.79579
   423  H   1.0    0.06    1.08    1.44    22.44930   167.61566    -9.32169
   424  H   1.0    0.05    1.02    1.43    18.78053   168.69391    -6.61981
   425  H   1.0    0.05    1.01    1.43    18.51713   165.43355    -5.80734
   426  H   1.0    0.12    1.02    1.43    21.71658   165.79173    -3.60467
   427  N   5.0   -0.21    3.27    1.97    -5.89415   141.26145   -40.80683
   428  C   4.0    0.03    4.32    4.23    -4.55799   143.56668   -40.44525
   429  C   4.0    0.08    3.25    3.04    -4.12349   145.00946   -42.92902
   430  O   6.0   -0.29    1.19    1.80    -4.00905   147.28809   -43.36021
   431  C   4.0   -0.04    4.36    4.31    -2.14275   142.72319   -39.18221
   432  C   4.0   -0.02    4.26    4.13    -0.44886   145.00389   -39.21972
   433  C   4.0    0.25    3.15    3.03    -1.79371   147.30883   -37.87827
   434  O   6.0   -0.26    1.20    1.80    -2.05935   149.31213   -39.10975
   435  O   6.0   -0.30    1.17    1.80    -2.35930   146.89293   -35.62601
   436  H   1.0    0.08    1.05    1.44    -5.05863   139.69761   -40.09736
   437  H   1.0    0.05    1.05    1.44    -5.62154   144.83355   -39.17590
   438  H   1.0    0.05    1.03    1.43    -2.54703   142.20378   -37.23832
   439  H   1.0    0.04    1.03    1.43    -1.30731   141.14393   -40.20728
   440  H   1.0    0.06    1.02    1.43     1.29379   144.68037   -38.14843
   441  H   1.0    0.07    1.03    1.43     0.06078   145.52907   -41.14900
   442  N   5.0   -0.20    3.24    1.96   -10.75120   146.86441   -45.21940
   443  C   4.0    0.03    4.38    4.35   -10.81780   149.19015   -43.79431
   444  C   4.0    0.15    3.51    3.12    -9.42642   151.19307   -45.29419
   445  O   6.0   -0.31    1.36    1.80   -10.67939   152.87944   -46.29794
   446  C   4.0   -0.02    4.23    4.05    -9.86547   148.78588   -41.08265
   447  C   4.0   -0.06    4.10    3.81    -9.18321   151.33644   -39.82148
   448  C   4.0   -0.08    4.06    3.72   -11.75321   147.13391   -39.54582
   449  H   1.0    0.08    1.02    1.43    -9.94151   145.30600   -44.44750
   450  H   1.0    0.05    1.06    1.44   -12.79087   149.85485   -43.70021
   451  H   1.0    0.06    1.06    1.44    -8.08935   147.72946   -41.19401
   452  H   1.0    0.06    1.00    1.43    -9.17510   151.09408   -37.78308
   453  H   1.0    0.06    1.01    1.43    -7.32292   151.88531   -40.47011
   454  H   1.0    0.05    1.00    1.43   -10.57713   152.78414   -40.24901
   455  H   1.0    0.04    1.00    1.43   -10.94595   146.69336   -37.71458
   456  H   1.0    0.04    1.00    1.43   -13.50931   148.15746   -39.23396
   457  H   1.0    0.04    1.00    1.43   -12.15758   145.40579   -40.57153
   458  N   5.0   -0.14    3.42    2.03    -6.93673   151.04532   -45.63267
   459  C   4.0    0.05    4.52    4.56    -5.89388   153.22283   -46.96192
   460  C   4.0    0.09    3.24    3.04    -7.07305   153.91851   -49.54278
   461  O   6.0   -0.28    1.12    1.80    -7.23377   156.15361   -50.18628
   462  C   4.0   -0.03    4.34    4.27    -3.02963   153.06252   -47.20116
   463  C   4.0    0.16    3.33    3.06    -2.27356   154.57133   -44.89486
   464  O   6.0   -0.29    1.26    1.80    -3.08868   154.06480   -42.79759
   465  N   5.0   -0.19    3.19    1.95    -1.02763   156.70019   -45.53424
   466  H   1.0    0.12    1.10    1.44    -5.76533   149.90180   -44.64155
   467  H   1.0    0.06    1.11    1.45    -6.33509   154.87895   -45.80437
   468  H   1.0    0.06    1.03    1.43    -2.43949   151.09909   -47.15386
   469  H   1.0    0.05    1.03    1.43    -2.34376   153.93742   -48.92843
   470  H   1.0    0.09    1.02    1.43    -0.41614   157.92397   -44.21211
   471  H   1.0    0.09    1.03    1.43    -0.40554   156.95340   -47.31028
   472  N   5.0   -0.19    3.21    1.96   -11.83452   158.02432   -47.66409
   473  C   4.0    0.04    4.17    3.95   -10.50483   160.10347   -46.50387
   474  C   4.0    0.09    3.20    3.04    -9.59916   161.91978   -48.57553
   475  O   6.0   -0.28    1.11    1.80    -9.20764   164.18829   -48.20661
   476  C   4.0   -0.04    4.19    3.98    -8.25072   159.31765   -44.81900
   477  C   4.0   -0.04    4.12    3.84    -8.82649   157.58008   -42.51669
   478  C   4.0    0.00    4.14    3.89    -6.68137   157.19797   -40.57576
   479  N   5.0   -0.13    3.35    2.00    -7.09844   158.78190   -38.32431
   480  C   4.0    0.10    3.29    3.05    -5.72006   160.53346   -37.08441
   481  N   5.0   -0.18    3.21    1.96    -3.19179   160.83660   -37.28537
   482  N   5.0   -0.19    3.24    1.96    -6.92699   162.05107   -35.43191
   483  H   1.0    0.12    1.06    1.44   -11.39945   156.24110   -47.10313
   484  H   1.0    0.05    1.05    1.44   -11.84469   161.17352   -45.32002
   485  H   1.0    0.06    1.03    1.43    -6.83903   158.44813   -46.04157
   486  H   1.0    0.05    1.03    1.43    -7.45730   161.09505   -44.12998
   487  H   1.0    0.06    1.03    1.43   -10.45432   158.35280   -41.51060
   488  H   1.0    0.06    1.03    1.43    -9.40303   155.73796   -43.21589
   489  H   1.0    0.06    1.05    1.44    -6.63290   155.25664   -39.94576
   490  H   1.0    0.06    1.03    1.43    -4.85047   157.65894   -41.39099
   491  H   1.0    0.10    1.09    1.44    -8.88950   158.49772   -37.65960
   492  H   1.0    0.09    1.03    1.43    -2.22735   159.75340   -38.52041
   493  H   1.0    0.08    1.03    1.43    -2.37776   162.43930   -36.65411
   494  H   1.0    0.09    1.03    1.43    -8.79049   161.82150   -35.12674
   495  H   1.0    0.08    1.03    1.43    -5.96277   163.29116   -34.35327
   496  N   5.0   -0.21    3.22    1.96   -18.37725   151.49041   -34.81214
   497  C   4.0    0.03    4.28    4.16   -16.36498   152.43335   -33.27718
   498  C   4.0    0.07    3.24    3.04   -16.46476   151.32627   -30.63147
   499  O   6.0   -0.31    1.11    1.80   -14.61887   150.78566   -29.29822
   500  C   4.0   -0.04    4.34    4.27   -16.65162   155.28667   -32.98984
   501  C   4.0   -0.03    4.17    3.94   -14.10739   156.47628   -32.40061
   502  C   4.0    0.24    3.17    3.03   -12.34779   155.72258   -34.67448
   503  O   6.0   -0.31    1.18    1.80   -12.48096   157.06508   -36.61223
   504  O   6.0   -0.32    1.18    1.80   -10.93198   153.85654   -34.40352
   505  H   1.0    0.08    1.03    1.43   -19.51911   152.77624   -35.66365
   506  H   1.0    0.06    1.08    1.44   -14.54544   151.95024   -34.15069
   507  H   1.0    0.05    1.03    1.43   -17.32971   156.04422   -34.78831
   508  H   1.0    0.05    1.02    1.43   -18.06835   155.71884   -31.54844
   509  H   1.0    0.05    1.02    1.43   -14.29903   158.52383   -32.28093
   510  H   1.0    0.06    1.02    1.43   -13.35571   155.72362   -30.63240
   511  N   5.0   -0.20    3.23    1.96   -15.77817   143.39207   -30.12369
   512  C   4.0    0.03    4.37    4.33   -13.07563   143.01457   -30.18921
   513  C   4.0    0.15    3.63    3.19   -11.80755   143.55963   -27.62122
   514  O   6.0   -0.33    1.45    1.80   -10.35721   142.07871   -26.58809
   515  C   4.0   -0.05    4.41    4.39   -11.92283   144.82919   -32.09027
   516  C   4.0   -0.01    4.30    4.20    -9.19090   145.27902   -31.31322
   517  C   4.0   -0.06    4.12    3.84    -7.66518   142.79696   -31.44268
   518  C   4.0   -0.06    4.08    3.76    -8.11783   147.48613   -32.87453
   519  H   1.0    0.09    1.03    1.43   -16.39006   145.15880   -30.55545
   520  H   1.0    0.04    1.05    1.44   -12.71117   141.03949   -30.69176
   521  H   1.0    0.03    1.03    1.43   -11.98830   144.13131   -34.01668
   522  H   1.0    0.05    1.03    1.43   -12.94330   146.62214   -32.02519
   523  H   1.0    0.06    1.10    1.44    -9.05337   145.94445   -29.36059
   524  H   1.0    0.06    1.00    1.43    -5.74594   143.17804   -30.80450
   525  H   1.0    0.05    1.02    1.43    -8.47631   141.33212   -30.27396
   526  H   1.0    0.04    1.00    1.43    -7.53628   142.14498   -33.39160
   527  H   1.0    0.07    1.00    1.43    -6.21454   147.93343   -32.23481
   528  H   1.0    0.05    1.00    1.43    -7.97321   146.99692   -34.86710
   529  H   1.0    0.06    1.00    1.43    -9.29972   149.15410   -32.66745
   530  N   5.0   -0.14    3.53    2.10   -12.58375   145.66281   -26.49305
   531  C   4.0    0.04    4.36    4.31   -11.76447   146.16821   -23.96004
   532  C   4.0    0.10    3.40    3.08   -11.84883   143.74115   -22.44600
   533  O   6.0   -0.29    1.14    1.80   -10.16627   142.74436   -21.22341
   534  C   4.0   -0.04    4.39    4.36   -13.66877   147.87866   -22.69116
   535  C   4.0   -0.03    4.16    3.92   -13.24871   150.67018   -23.16487
   536  C   4.0    0.23    3.15    3.03   -13.57288   152.02651   -20.54706
   537  O   6.0   -0.32    1.34    1.80   -13.67881   150.63650   -18.57236
   538  O   6.0   -0.28    1.16    1.80   -13.67983   154.37889   -20.54034
   539  H   1.0    0.09    1.07    1.44   -13.39904   147.09418   -27.45955
   540  H   1.0    0.06    1.04    1.43    -9.85395   146.99633   -23.94720
   541  H   1.0    0.05    1.04    1.43   -15.57284   147.41488   -23.28551
   542  H   1.0    0.07    1.08    1.44   -13.56434   147.59014   -20.64614
   543  H   1.0    0.05    1.02    1.43   -11.36008   151.09443   -23.86430
   544  H   1.0    0.06    1.02    1.43   -14.58404   151.49251   -24.49260
   545  N   5.0   -0.20    3.31    1.98    -7.98515   138.15494   -24.59436
   546  C   4.0    0.04    4.23    4.06    -5.38550   138.60528   -24.10023
   547  C   4.0    0.09    3.22    3.04    -4.99686   138.20034   -21.28966
   548  O   6.0   -0.28    1.12    1.80    -2.99364   137.25454   -20.56652
   549  C   4.0   -0.03    4.30    4.19    -4.66040   141.10121   -25.29663
   550  C   4.0   -0.02    4.10    3.81    -5.26384   143.62807   -24.05164
   551  C   4.0    0.24    3.06    3.02    -4.38461   145.84208   -25.94905
   552  O   6.0   -0.29    1.18    1.80    -3.05220   145.23841   -27.82576
   553  O   6.0   -0.31    1.15    1.80    -5.09984   148.05420   -25.44106
   554  H   1.0    0.13    1.13    1.45    -8.95825   139.53787   -25.45814
   555  H   1.0    0.05    1.06    1.44    -4.18517   137.16507   -25.00970
   556  H   1.0    0.06    1.03    1.43    -2.61232   141.10261   -25.62152
   557  H   1.0    0.05    1.05    1.44    -5.51501   141.14345   -27.16711
   558  H   1.0    0.08    1.05    1.44    -7.26026   143.86405   -23.70712
   559  H   1.0    0.05    1.01    1.43    -4.25427   143.89166   -22.26694
   560  N   5.0   -0.20    3.23    1.96     9.51412   156.26742   -45.94632
   561  C   4.0    0.03    4.25    4.09     9.55646   157.40306   -43.45581
   562  C   4.0    0.08    3.16    3.03    12.14960   158.65617   -43.01788
   563  O   6.0   -0.31    1.17    1.80    12.23463   160.96697   -43.04545
   564  C   4.0   -0.05    4.18    3.96     8.52296   155.50556   -41.53696
   565  C   4.0   -0.03    4.18    3.95     5.67342   155.28476   -42.07846
   566  C   4.0    0.26    3.04    3.02     3.98829   153.37817   -40.47002
   567  O   6.0   -0.29    1.18    1.80     3.54276   153.90810   -38.21169
   568  O   6.0   -0.26    1.16    1.80     3.16742   151.52995   -41.67345
   569  H   1.0    0.09    1.03    1.43     9.43629   154.36113   -46.06192
   570  H   1.0    0.05    1.07    1.44     8.26072   159.03013   -43.49983
   571  H   1.0    0.05    1.02    1.43     9.44054   153.66461   -41.72677
   572  H   1.0    0.05    1.02    1.43     8.82391   156.17124   -39.60826
   573  H   1.0    0.05    1.03    1.43     4.82088   157.14322   -41.78676
   574  H   1.0    0.05    1.03    1.43     5.40306   154.71083   -44.03892
   575  N   5.0   -0.19    3.19    1.95    11.47078   166.23823   -42.12709
   576  C   4.0    0.03    4.13    3.85    12.38726   167.37761   -39.78334
   577  C   4.0    0.09    3.22    3.04    13.90670   169.75440   -40.38569
   578  O   6.0   -0.27    1.11    1.80    12.97531   171.87929   -40.34346
   579  C   4.0   -0.07    4.08    3.77    14.05383   165.61583   -38.19917
   580  H   1.0    0.12    1.06    1.44    12.22012   164.54795   -42.60968
   581  H   1.0    0.05    1.05    1.44    10.74071   168.01256   -38.68368
   582  H   1.0    0.05    1.00    1.43    14.97004   166.70639   -36.71844
   583  H   1.0    0.05    1.00    1.43    12.91322   164.14948   -37.32233
   584  H   1.0    0.05    1.00    1.43    15.46547   164.69029   -39.37077
   585  H   1.0    0.09    1.08    1.44   -17.73479   150.55292   -36.07741
   586  H   1.0    0.06    1.05    1.44   -18.13311   150.97103   -29.81817
   587  H   1.0    0.09    1.07    1.44   -16.52448   142.34791   -31.23962
   588  H   1.0    0.06    1.06    1.44   -13.44553   142.73373   -22.36393
   589  H   1.0    0.10    1.08    1.44    -8.14417   136.79301   -25.60055
   590  H   1.0    0.07    1.04    1.44    -6.34978   138.69726   -20.06747
   591  H   1.0    0.09    1.07    1.44     8.14847   156.81732   -46.79789
   592  H   1.0    0.05    1.04    1.43    13.67918   157.58551   -42.72613
   593  H   1.0    0.10    1.07    1.44     9.79271   165.98431   -42.01664
   594  H   1.0    0.06    1.05    1.44    15.73653   169.61691   -40.83722
   595  H   1.0    0.09    1.07    1.44     4.59322   182.56600    -2.21470
   596  H   1.0    0.06    1.05    1.44     6.34950   175.83946    -1.21866
   597  H   1.0    0.09    1.07    1.44    -6.11667   147.04544    -9.76904
   598  H   1.0    0.05    1.05    1.44     2.35822   148.18906    -6.74414
   599  H   1.0    0.09    1.08    1.44     3.16613   143.98810    -8.92205
   600  H   1.0    0.07    1.05    1.44     9.66377   149.12833   -11.19147
   601  H   1.0    0.10    1.08    1.44    12.06836   142.41292   -16.47569
   602  H   1.0    0.06    1.04    1.44    19.99819   144.96199   -13.33216
   603  H   1.0    0.09    1.07    1.44    -9.75780   180.35631    -2.91937
   604  H   1.0    0.06    1.06    1.44    23.75225   163.31650    -8.35217
   605  H   1.0    0.09    1.08    1.44    -7.41873   141.36582   -40.06029
   606  H   1.0    0.06    1.06    1.44    -3.87740   144.05860   -44.54345
   607  H   1.0    0.09    1.07    1.44   -12.33921   146.37460   -45.58119
   608  H   1.0    0.06    1.04    1.43    -7.70544   152.55690   -50.69045
   609  H   1.0    0.10    1.07    1.44   -13.50203   158.18112   -47.36844
   610  H   1.0    0.07    1.05    1.44    -9.29734   161.27950   -50.32767

  Z AO/shell   Hii/eV     exponent
  1     Wed Apr 25 08:07:45 CEST 2018   EN: 2.200 GM2: 0.406  GM3: 0.0800  RAES: 1.40
     1s    -10.707211    1.230000
  6     Wed Apr 25 08:07:45 CEST 2018   EN: 2.550 GM2: 0.538  GM3: 0.1500  RAES: 3.00
     2s    -13.970922    2.096432
     2p    -10.063292    1.800000
  7     Wed Apr 25 08:07:45 CEST 2018   EN: 3.040 GM2: 0.461  GM3:-0.0640  RAES: 1.90
     2s    -16.686243    2.339881
     2p    -12.523956    2.014332
  8     Wed Apr 25 08:07:45 CEST 2018   EN: 3.440 GM2: 0.452  GM3:-0.0517  RAES: 1.80
     2s    -20.229985    2.439742
     2p    -15.503117    2.137023
 no old-style atom pair restraining (fixing) potential

molecular fragmentation (1/2 indicates fragments):
111111111122222222222222222222222222222222222222222222222222222222222222
222222222222222222222222222222222222222222222222222222222222222222222222
222222222222222222222222222222222222222222222222222222222222222222222222
222222222222222222222222222222222222222222222222222222222222222222222222
222222222222222222222222222222222222222222222222222222222222222222222222
222222222222222222222222222222222222222222222222222222222222222222222222
222222222222222222222222222222222222222222222222222222222222222222222222
222222222222222222222222222222222222222222222222222222222222222222222222
2222222222222222221122222222222222
# atoms in fragment 1/2:    12   598
 fragment masses (1/2) :       73.09     3997.73
CMA distance (Bohr)    :  28.953
constraining FC (au)   :  0.0500
           ------------------------------------------------- 
          |        Self-Consistent Charge Iterations        |
           ------------------------------------------------- 

 Ncao       : 1462
 Nao        : 1462
 Nshell     : 894
 Nel        : 1628
 T(el)      :   500.0
 intcut     :    35.0
 scfconv/Eh :  0.100E-06
   qconv/e  :  0.100E-04
 intneglect :  0.100E-08
 broydamp   :      0.400
 iter      E             dE          RMSdq      gap      omega  full diag
   1   -932.4786071 -0.932479E+03  0.465E+00    3.30       0.0  T
   2   -934.8844284 -0.240582E+01  0.214E+00    1.89       1.0  T
   3   -935.0551325 -0.170704E+00  0.126E+00    1.91       1.0  T
   4   -935.2164471 -0.161315E+00  0.253E-01    1.20       1.0  T
   5   -935.2244852 -0.803809E-02  0.128E-01    1.37       1.0  T
   6   -935.2258195 -0.133428E-02  0.513E-02    1.32       1.0  T
   7   -935.2261647 -0.345216E-03  0.212E-02    1.31       1.0  T
   8   -935.2262034 -0.387551E-04  0.904E-03    1.30       1.0  T
   9   -935.2262137 -0.103034E-04  0.402E-03    1.30       1.0  T
  10   -935.2262152 -0.143552E-05  0.151E-03    1.29       2.7  T
  11   -935.2262155 -0.349917E-06  0.694E-04    1.30       5.8  T
  12   -935.2262156 -0.533472E-07  0.257E-04    1.29      15.8  T
  13   -935.2262156 -0.640910E-08  0.135E-04    1.29      29.9  T
  14   -935.2262156 -0.204750E-08  0.490E-05    1.29      82.6  T
  15   -935.2262156 -0.296268E-09  0.215E-05    1.29     188.6  T
speedup  1.56
cpu  time for SCC   27.89 s
wall time for SCC   17.83 s

   *** convergence criteria satisfied after 15 iterations ***

          eigenvalues
 #    :         802        803        804        805        806        807        808        809
 occ. :        2.000      2.000      2.000      2.000      2.000      2.000      2.000      2.000
 eps  :       -10.137    -10.029     -9.989     -9.935     -9.807     -9.713     -9.705     -9.671
 #    :         810        811        812        813        814        815        816        817
 occ. :        2.000      2.000      2.000      2.000      2.000      0.000      0.000      0.000
 eps  :        -9.643     -9.623     -9.620     -9.544     -9.455     -8.160     -8.067     -7.910
 #    :         818        819        820        821        822        823        824        825
 occ. :        0.000      0.000      0.000      0.000      0.000      0.000      0.000      0.000
 eps  :        -7.788     -7.777     -7.715     -7.711     -7.650     -7.588     -7.575     -7.560


   #   Z            q   n(s)   n(p)   n(d)      C6AA      α(0)
   1   7 N     -0.398  1.334  4.063  0.000    30.311     8.177
   2   6 C      0.036  1.061  2.903  0.000    19.997     6.371
   3   6 C      0.203  1.093  2.704  0.000    23.688     7.971
   4   8 O     -0.378  1.757  4.621  0.000    21.247     6.180
   5   6 C     -0.121  1.045  3.076  0.000    22.868     6.818
   6   1 H      0.164  0.836  0.000  0.000     1.309     1.792
   7   1 H      0.063  0.937  0.000  0.000     2.163     2.300
   8   1 H      0.049  0.951  0.000  0.000     2.332     2.388
   9   1 H      0.068  0.932  0.000  0.000     2.107     2.270
  10   1 H      0.055  0.945  0.000  0.000     2.261     2.351
  11   7 N     -0.397  1.329  4.067  0.000    30.276     8.172
  12   6 C      0.020  1.069  2.912  0.000    20.267     6.413
  13   6 C      0.261  1.049  2.690  0.000    22.608     7.789
  14   8 O     -0.492  1.758  4.734  0.000    23.617     6.516
  15   6 C     -0.082  1.063  3.019  0.000    22.078     6.691
  16   6 C     -0.069  1.053  3.017  0.000    21.832     6.653
  17   6 C     -0.083  1.053  3.029  0.000    22.083     6.691
  18   6 C     -0.031  1.053  2.978  0.000    21.234     6.579
  19   7 N     -0.177  1.255  3.922  0.000    24.821     7.399
  20   1 H      0.182  0.818  0.000  0.000     1.201     1.717
  21   1 H      0.024  0.976  0.000  0.000     2.668     2.554
  22   1 H      0.073  0.927  0.000  0.000     2.051     2.240
  23   1 H      0.043  0.957  0.000  0.000     2.409     2.427
  24   1 H      0.035  0.965  0.000  0.000     2.519     2.482
  25   1 H      0.055  0.945  0.000  0.000     2.260     2.351
  26   1 H      0.082  0.918  0.000  0.000     1.961     2.190
  27   1 H      0.056  0.944  0.000  0.000     2.249     2.345
  28   1 H      0.099  0.901  0.000  0.000     1.797     2.096
  29   1 H      0.101  0.899  0.000  0.000     1.773     2.082
  30   1 H      0.268  0.732  0.000  0.000     0.817     1.416
  31   1 H      0.270  0.730  0.000  0.000     0.810     1.410
  32   1 H      0.282  0.718  0.000  0.000     0.771     1.376
  33   7 N     -0.153  1.249  3.904  0.000    24.318     7.324
  34   6 C      0.017  1.052  2.931  0.000    20.253     6.401
  35   6 C      0.204  1.085  2.711  0.000    23.657     7.966
  36   8 O     -0.369  1.756  4.613  0.000    21.066     6.154
  37   6 C     -0.084  1.056  3.028  0.000    22.072     6.684
  38   6 C     -0.016  1.058  2.958  0.000    20.816     6.487
  39   6 C     -0.128  1.047  3.081  0.000    23.010     6.840
  40   6 C     -0.121  1.042  3.079  0.000    22.879     6.820
  41   1 H      0.235  0.765  0.000  0.000     0.943     1.522
  42   1 H      0.098  0.902  0.000  0.000     1.800     2.098
  43   1 H      0.077  0.923  0.000  0.000     2.008     2.216
  44   1 H      0.055  0.945  0.000  0.000     2.254     2.348
  45   1 H      0.031  0.969  0.000  0.000     2.566     2.505
  46   1 H      0.054  0.946  0.000  0.000     2.274     2.358
  47   1 H      0.041  0.959  0.000  0.000     2.434     2.440
  48   1 H      0.056  0.944  0.000  0.000     2.248     2.345
  49   1 H      0.041  0.959  0.000  0.000     2.435     2.440
  50   1 H      0.053  0.947  0.000  0.000     2.283     2.363
  51   1 H      0.041  0.959  0.000  0.000     2.434     2.440
  52   7 N     -0.382  1.294  4.088  0.000    29.873     8.117
  53   6 C      0.038  1.052  2.911  0.000    19.950     6.361
  54   6 C      0.268  1.045  2.687  0.000    22.480     7.768
  55   8 O     -0.524  1.753  4.770  0.000    24.312     6.611
  56   6 C     -0.010  1.058  2.952  0.000    20.716     6.474
  57   6 C     -0.109  1.038  3.071  0.000    22.645     6.785
  58   6 C     -0.111  1.034  3.077  0.000    22.674     6.789
  59   1 H      0.161  0.839  0.000  0.000     1.328     1.805
  60   1 H      0.025  0.975  0.000  0.000     2.654     2.548
  61   1 H      0.005  0.995  0.000  0.000     2.979     2.699
  62   1 H      0.034  0.966  0.000  0.000     2.532     2.489
  63   1 H      0.041  0.959  0.000  0.000     2.431     2.438
  64   1 H      0.053  0.947  0.000  0.000     2.280     2.361
  65   1 H      0.026  0.974  0.000  0.000     2.637     2.540
  66   1 H      0.071  0.929  0.000  0.000     2.074     2.252
  67   1 H      0.021  0.979  0.000  0.000     2.721     2.579
  68   7 N     -0.158  1.244  3.915  0.000    24.425     7.340
  69   6 C      0.035  1.052  2.913  0.000    19.952     6.352
  70   6 C      0.204  1.089  2.707  0.000    23.662     7.967
  71   8 O     -0.363  1.741  4.622  0.000    20.954     6.137
  72   6 C     -0.020  1.062  2.957  0.000    20.890     6.501
  73   6 C     -0.133  1.047  3.086  0.000    23.108     6.854
  74   6 C     -0.128  1.043  3.086  0.000    23.004     6.836
  75   1 H      0.248  0.752  0.000  0.000     0.891     1.479
  76   1 H      0.076  0.924  0.000  0.000     2.020     2.222
  77   1 H      0.063  0.937  0.000  0.000     2.169     2.303
  78   1 H      0.065  0.935  0.000  0.000     2.138     2.287
  79   1 H      0.057  0.943  0.000  0.000     2.232     2.337
  80   1 H      0.050  0.950  0.000  0.000     2.322     2.383
  81   1 H      0.055  0.945  0.000  0.000     2.253     2.347
  82   1 H      0.042  0.958  0.000  0.000     2.423     2.434
  83   1 H      0.066  0.934  0.000  0.000     2.126     2.280
  84   7 N     -0.413  1.305  4.108  0.000    30.742     8.235
  85   6 C      0.051  1.053  2.897  0.000    19.736     6.327
  86   6 C      0.267  1.050  2.682  0.000    22.485     7.766
  87   8 O     -0.522  1.756  4.766  0.000    24.268     6.605
  88   6 C     -0.054  1.055  2.998  0.000    21.530     6.604
  89   6 C     -0.079  1.062  3.017  0.000    22.016     6.680
  90   6 C      0.362  1.032  2.606  0.000    20.854     7.474
  91   8 O     -0.612  1.742  4.870  0.000    26.423     6.892
  92   8 O     -0.637  1.782  4.856  0.000    27.057     6.974
  93   1 H      0.195  0.805  0.000  0.000     1.131     1.666
  94   1 H     -0.007  1.007  0.000  0.000     3.182     2.790
  95   1 H      0.079  0.921  0.000  0.000     1.994     2.208
  96   1 H      0.013  0.987  0.000  0.000     2.838     2.634
  97   1 H     -0.004  1.004  0.000  0.000     3.126     2.765
  98   1 H      0.030  0.970  0.000  0.000     2.592     2.518
  99   7 N     -0.170  1.247  3.924  0.000    24.681     7.378
 100   6 C      0.019  1.064  2.917  0.000    20.256     6.409
 101   6 C      0.207  1.085  2.708  0.000    23.610     7.957
 102   8 O     -0.366  1.756  4.610  0.000    21.021     6.147
 103   6 C     -0.085  1.065  3.020  0.000    22.128     6.699
 104   6 C     -0.089  1.061  3.028  0.000    22.204     6.711
 105   6 C     -0.029  1.059  2.970  0.000    21.193     6.572
 106   7 N     -0.140  1.217  3.923  0.000    24.035     7.281
 107   6 C      0.233  1.025  2.741  0.000    23.108     7.870
 108   7 N     -0.217  1.239  3.978  0.000    25.748     7.536
 109   7 N     -0.259  1.241  4.018  0.000    26.732     7.679
 110   1 H      0.234  0.766  0.000  0.000     0.947     1.525
 111   1 H      0.097  0.903  0.000  0.000     1.816     2.108
 112   1 H      0.077  0.923  0.000  0.000     2.009     2.216
 113   1 H      0.088  0.912  0.000  0.000     1.901     2.156
 114   1 H      0.073  0.927  0.000  0.000     2.048     2.238
 115   1 H      0.078  0.922  0.000  0.000     1.998     2.210
 116   1 H      0.089  0.911  0.000  0.000     1.885     2.147
 117   1 H      0.091  0.909  0.000  0.000     1.867     2.137
 118   1 H      0.228  0.772  0.000  0.000     0.975     1.547
 119   1 H      0.237  0.763  0.000  0.000     0.936     1.516
 120   1 H      0.227  0.773  0.000  0.000     0.976     1.548
 121   1 H      0.254  0.746  0.000  0.000     0.870     1.461
 122   1 H      0.249  0.751  0.000  0.000     0.887     1.476
 123   7 N     -0.396  1.317  4.079  0.000    30.254     8.169
 124   6 C      0.034  1.054  2.912  0.000    20.022     6.374
 125   6 C      0.264  1.052  2.684  0.000    22.547     7.776
 126   8 O     -0.487  1.737  4.750  0.000    23.492     6.498
 127   6 C     -0.127  1.045  3.082  0.000    22.979     6.834
 128   1 H      0.170  0.830  0.000  0.000     1.273     1.768
 129   1 H      0.047  0.953  0.000  0.000     2.363     2.404
 130   1 H      0.043  0.957  0.000  0.000     2.405     2.425
 131   1 H      0.053  0.947  0.000  0.000     2.286     2.364
 132   1 H      0.053  0.947  0.000  0.000     2.278     2.360
 133   7 N     -0.163  1.237  3.927  0.000    24.534     7.356
 134   6 C      0.017  1.059  2.924  0.000    20.289     6.413
 135   6 C      0.278  1.048  2.674  0.000    22.299     7.734
 136   8 O     -0.494  1.744  4.751  0.000    23.652     6.521
 137   6 C     -0.083  1.064  3.019  0.000    22.069     6.687
 138   6 C     -0.013  1.060  2.954  0.000    20.778     6.484
 139   6 C     -0.121  1.044  3.078  0.000    22.870     6.817
 140   6 C     -0.116  1.038  3.077  0.000    22.765     6.803
 141   1 H      0.217  0.783  0.000  0.000     1.024     1.585
 142   1 H      0.081  0.919  0.000  0.000     1.968     2.194
 143   1 H      0.066  0.934  0.000  0.000     2.131     2.283
 144   1 H      0.072  0.928  0.000  0.000     2.062     2.246
 145   1 H      0.036  0.964  0.000  0.000     2.497     2.471
 146   1 H      0.042  0.958  0.000  0.000     2.428     2.437
 147   1 H      0.047  0.953  0.000  0.000     2.355     2.400
 148   1 H      0.047  0.953  0.000  0.000     2.353     2.399
 149   1 H      0.043  0.957  0.000  0.000     2.406     2.426
 150   1 H      0.044  0.956  0.000  0.000     2.400     2.423
 151   1 H      0.033  0.967  0.000  0.000     2.546     2.495
 152   7 N     -0.188  1.252  3.936  0.000    25.072     7.437
 153   6 C      0.004  1.074  2.922  0.000    20.507     6.448
 154   6 C      0.271  1.042  2.687  0.000    22.419     7.753
 155   8 O     -0.493  1.747  4.746  0.000    23.627     6.517
 156   6 C     -0.081  1.058  3.023  0.000    22.043     6.685
 157   6 C     -0.087  1.056  3.030  0.000    22.155     6.702
 158   6 C     -0.097  1.056  3.041  0.000    22.352     6.732
 159   6 C     -0.054  1.060  2.994  0.000    21.653     6.643
 160   7 N     -0.145  1.227  3.918  0.000    24.137     7.297
 161   1 H      0.208  0.792  0.000  0.000     1.067     1.618
 162   1 H      0.095  0.905  0.000  0.000     1.830     2.116
 163   1 H      0.079  0.921  0.000  0.000     1.992     2.207
 164   1 H      0.053  0.947  0.000  0.000     2.286     2.364
 165   1 H      0.067  0.933  0.000  0.000     2.120     2.277
 166   1 H      0.067  0.933  0.000  0.000     2.123     2.279
 167   1 H      0.085  0.915  0.000  0.000     1.932     2.174
 168   1 H      0.085  0.915  0.000  0.000     1.928     2.172
 169   1 H      0.116  0.884  0.000  0.000     1.648     2.008
 170   1 H      0.123  0.877  0.000  0.000     1.592     1.973
 171   1 H      0.299  0.701  0.000  0.000     0.716     1.326
 172   1 H      0.299  0.701  0.000  0.000     0.715     1.325
 173   1 H      0.291  0.709  0.000  0.000     0.741     1.349
 174   7 N     -0.187  1.243  3.945  0.000    25.060     7.435
 175   6 C      0.006  1.077  2.916  0.000    20.490     6.448
 176   6 C      0.263  1.051  2.687  0.000    22.572     7.779
 177   8 O     -0.496  1.753  4.743  0.000    23.689     6.526
 178   6 C     -0.026  1.078  2.948  0.000    21.007     6.520
 179   6 C     -0.077  1.053  3.023  0.000    21.969     6.674
 180   6 C     -0.129  1.043  3.086  0.000    23.044     6.846
 181   6 C     -0.104  1.036  3.069  0.000    22.557     6.773
 182   1 H      0.226  0.774  0.000  0.000     0.983     1.553
 183   1 H      0.067  0.933  0.000  0.000     2.115     2.274
 184   1 H      0.038  0.962  0.000  0.000     2.474     2.460
 185   1 H      0.076  0.924  0.000  0.000     2.019     2.222
 186   1 H      0.024  0.976  0.000  0.000     2.668     2.554
 187   1 H      0.050  0.950  0.000  0.000     2.323     2.384
 188   1 H      0.045  0.955  0.000  0.000     2.382     2.414
 189   1 H      0.075  0.925  0.000  0.000     2.029     2.228
 190   1 H      0.036  0.964  0.000  0.000     2.508     2.477
 191   1 H      0.030  0.970  0.000  0.000     2.584     2.514
 192   1 H      0.043  0.957  0.000  0.000     2.405     2.425
 193   7 N     -0.186  1.255  3.931  0.000    25.035     7.431
 194   6 C      0.022  1.059  2.919  0.000    20.224     6.405
 195   6 C      0.265  1.051  2.684  0.000    22.524     7.773
 196   8 O     -0.455  1.738  4.717  0.000    22.807     6.403
 197   6 C     -0.090  1.061  3.029  0.000    22.201     6.707
 198   6 C     -0.014  1.060  2.954  0.000    20.793     6.486
 199   6 C     -0.119  1.043  3.076  0.000    22.823     6.812
 200   6 C     -0.121  1.047  3.074  0.000    22.874     6.819
 201   1 H      0.227  0.773  0.000  0.000     0.980     1.551
 202   1 H      0.069  0.931  0.000  0.000     2.101     2.267
 203   1 H      0.073  0.927  0.000  0.000     2.055     2.242
 204   1 H      0.081  0.919  0.000  0.000     1.971     2.196
 205   1 H      0.029  0.971  0.000  0.000     2.599     2.521
 206   1 H      0.032  0.968  0.000  0.000     2.553     2.499
 207   1 H      0.050  0.950  0.000  0.000     2.319     2.381
 208   1 H      0.043  0.957  0.000  0.000     2.406     2.425
 209   1 H      0.042  0.958  0.000  0.000     2.424     2.435
 210   1 H      0.049  0.951  0.000  0.000     2.336     2.390
 211   1 H      0.042  0.958  0.000  0.000     2.424     2.435
 212   7 N     -0.179  1.235  3.944  0.000    24.878     7.408
 213   6 C      0.011  1.061  2.928  0.000    20.389     6.427
 214   6 C      0.268  1.044  2.688  0.000    22.485     7.768
 215   8 O     -0.469  1.742  4.726  0.000    23.104     6.445
 216   6 C     -0.111  1.065  3.047  0.000    22.625     6.771
 217   6 C      0.288  1.034  2.678  0.000    22.121     7.701
 218   8 O     -0.477  1.750  4.727  0.000    23.283     6.469
 219   7 N     -0.285  1.263  4.022  0.000    27.363     7.769
 220   1 H      0.195  0.805  0.000  0.000     1.134     1.668
 221   1 H      0.117  0.883  0.000  0.000     1.640     2.003
 222   1 H      0.099  0.901  0.000  0.000     1.793     2.094
 223   1 H      0.082  0.918  0.000  0.000     1.956     2.187
 224   1 H      0.237  0.763  0.000  0.000     0.937     1.516
 225   1 H      0.236  0.764  0.000  0.000     0.939     1.518
 226   7 N     -0.177  1.238  3.939  0.000    24.822     7.399
 227   6 C      0.014  1.045  2.941  0.000    20.285     6.403
 228   6 C      0.263  1.038  2.699  0.000    22.575     7.784
 229   8 O     -0.464  1.736  4.728  0.000    22.993     6.429
 230   6 C     -0.121  1.065  3.057  0.000    22.791     6.792
 231   6 C      0.290  1.026  2.684  0.000    22.087     7.697
 232   8 O     -0.492  1.764  4.728  0.000    23.618     6.516
 233   7 N     -0.288  1.269  4.019  0.000    27.429     7.778
 234   1 H      0.220  0.780  0.000  0.000     1.008     1.573
 235   1 H      0.112  0.888  0.000  0.000     1.683     2.029
 236   1 H      0.114  0.886  0.000  0.000     1.660     2.015
 237   1 H      0.066  0.934  0.000  0.000     2.129     2.282
 238   1 H      0.238  0.762  0.000  0.000     0.933     1.513
 239   1 H      0.240  0.760  0.000  0.000     0.922     1.504
 240   7 N     -0.159  1.246  3.913  0.000    24.444     7.343
 241   6 C      0.007  1.071  2.922  0.000    20.450     6.437
 242   6 C      0.281  1.055  2.663  0.000    22.237     7.723
 243   8 O     -0.453  1.729  4.724  0.000    22.760     6.396
 244   6 C     -0.021  1.069  2.952  0.000    20.920     6.506
 245   6 C     -0.060  1.047  3.013  0.000    21.642     6.622
 246   6 C     -0.112  1.036  3.075  0.000    22.691     6.793
 247   6 C     -0.133  1.042  3.090  0.000    23.112     6.856
 248   1 H      0.215  0.785  0.000  0.000     1.030     1.590
 249   1 H      0.095  0.905  0.000  0.000     1.832     2.117
 250   1 H      0.055  0.945  0.000  0.000     2.264     2.353
 251   1 H      0.040  0.960  0.000  0.000     2.455     2.450
 252   1 H      0.029  0.971  0.000  0.000     2.601     2.522
 253   1 H      0.049  0.951  0.000  0.000     2.334     2.389
 254   1 H      0.045  0.955  0.000  0.000     2.385     2.415
 255   1 H      0.042  0.958  0.000  0.000     2.417     2.431
 256   1 H      0.052  0.948  0.000  0.000     2.299     2.371
 257   1 H      0.067  0.933  0.000  0.000     2.115     2.274
 258   1 H      0.045  0.955  0.000  0.000     2.382     2.414
 259   7 N     -0.209  1.275  3.934  0.000    25.539     7.506
 260   6 C     -0.003  1.076  2.926  0.000    20.604     6.458
 261   6 C      0.277  1.035  2.689  0.000    22.318     7.735
 262   8 O     -0.438  1.737  4.701  0.000    22.454     6.353
 263   6 C     -0.101  1.062  3.039  0.000    22.428     6.742
 264   6 C     -0.090  1.054  3.036  0.000    22.220     6.711
 265   6 C     -0.043  1.062  2.981  0.000    21.440     6.608
 266   7 N     -0.155  1.212  3.944  0.000    24.358     7.330
 267   6 C      0.226  1.029  2.745  0.000    23.237     7.892
 268   7 N     -0.238  1.237  4.001  0.000    26.224     7.605
 269   7 N     -0.248  1.263  3.985  0.000    26.457     7.639
 270   1 H      0.209  0.791  0.000  0.000     1.061     1.614
 271   1 H      0.075  0.925  0.000  0.000     2.031     2.228
 272   1 H      0.086  0.914  0.000  0.000     1.921     2.167
 273   1 H      0.107  0.893  0.000  0.000     1.719     2.050
 274   1 H      0.056  0.944  0.000  0.000     2.246     2.344
 275   1 H      0.094  0.906  0.000  0.000     1.840     2.121
 276   1 H      0.114  0.886  0.000  0.000     1.661     2.016
 277   1 H      0.077  0.923  0.000  0.000     2.008     2.216
 278   1 H      0.206  0.794  0.000  0.000     1.074     1.623
 279   1 H      0.261  0.739  0.000  0.000     0.843     1.438
 280   1 H      0.231  0.769  0.000  0.000     0.959     1.534
 281   1 H      0.211  0.789  0.000  0.000     1.053     1.608
 282   1 H      0.234  0.766  0.000  0.000     0.949     1.526
 283   7 N     -0.191  1.233  3.958  0.000    25.132     7.446
 284   6 C     -0.015  1.071  2.944  0.000    20.845     6.501
 285   6 C      0.280  1.029  2.692  0.000    22.273     7.730
 286   8 O     -0.493  1.738  4.754  0.000    23.622     6.516
 287   6 C      0.101  1.054  2.845  0.000    19.015     6.225
 288   8 O     -0.485  1.721  4.764  0.000    22.569     6.413
 289   6 C     -0.164  1.054  3.110  0.000    23.758     6.952
 290   1 H      0.207  0.793  0.000  0.000     1.072     1.622
 291   1 H      0.093  0.907  0.000  0.000     1.846     2.125
 292   1 H      0.069  0.931  0.000  0.000     2.101     2.267
 293   1 H      0.326  0.674  0.000  0.000     0.647     1.264
 294   1 H      0.078  0.922  0.000  0.000     1.997     2.210
 295   1 H      0.082  0.918  0.000  0.000     1.962     2.190
 296   1 H      0.060  0.940  0.000  0.000     2.194     2.316
 297   7 N     -0.184  1.246  3.939  0.000    24.991     7.425
 298   6 C      0.011  1.051  2.938  0.000    20.368     6.421
 299   6 C      0.274  1.035  2.691  0.000    22.376     7.748
 300   8 O     -0.488  1.733  4.755  0.000    23.518     6.502
 301   6 C     -0.082  1.058  3.025  0.000    22.063     6.686
 302   6 C     -0.020  1.061  2.958  0.000    20.888     6.501
 303   6 C     -0.121  1.041  3.080  0.000    22.884     6.821
 304   6 C     -0.121  1.044  3.078  0.000    22.882     6.821
 305   1 H      0.239  0.761  0.000  0.000     0.927     1.508
 306   1 H      0.093  0.907  0.000  0.000     1.850     2.127
 307   1 H      0.072  0.928  0.000  0.000     2.067     2.248
 308   1 H      0.048  0.952  0.000  0.000     2.345     2.395
 309   1 H      0.032  0.968  0.000  0.000     2.559     2.502
 310   1 H      0.055  0.945  0.000  0.000     2.263     2.352
 311   1 H      0.035  0.965  0.000  0.000     2.520     2.483
 312   1 H      0.038  0.962  0.000  0.000     2.473     2.459
 313   1 H      0.057  0.943  0.000  0.000     2.231     2.336
 314   1 H      0.047  0.953  0.000  0.000     2.354     2.399
 315   1 H      0.037  0.963  0.000  0.000     2.484     2.465
 316   7 N     -0.199  1.250  3.950  0.000    25.330     7.475
 317   6 C      0.007  1.057  2.937  0.000    20.457     6.437
 318   6 C      0.279  1.040  2.682  0.000    22.285     7.732
 319   8 O     -0.469  1.733  4.735  0.000    23.108     6.445
 320   6 C     -0.095  1.061  3.034  0.000    22.292     6.717
 321   6 C     -0.088  1.052  3.037  0.000    22.176     6.704
 322   6 C     -0.024  1.055  2.969  0.000    21.046     6.539
 323   7 N     -0.164  1.271  3.894  0.000    24.557     7.360
 324   6 C      0.236  1.030  2.734  0.000    23.060     7.863
 325   7 N     -0.252  1.255  3.997  0.000    26.560     7.654
 326   7 N     -0.254  1.248  4.006  0.000    26.602     7.660
 327   1 H      0.243  0.757  0.000  0.000     0.912     1.496
 328   1 H      0.090  0.910  0.000  0.000     1.880     2.144
 329   1 H      0.088  0.912  0.000  0.000     1.899     2.155
 330   1 H      0.079  0.921  0.000  0.000     1.986     2.204
 331   1 H      0.073  0.927  0.000  0.000     2.050     2.239
 332   1 H      0.077  0.923  0.000  0.000     2.008     2.216
 333   1 H      0.075  0.925  0.000  0.000     2.033     2.230
 334   1 H      0.085  0.915  0.000  0.000     1.926     2.170
 335   1 H      0.262  0.738  0.000  0.000     0.837     1.433
 336   1 H      0.235  0.765  0.000  0.000     0.942     1.520
 337   1 H      0.214  0.786  0.000  0.000     1.038     1.596
 338   1 H      0.219  0.781  0.000  0.000     1.015     1.578
 339   1 H      0.222  0.778  0.000  0.000     0.999     1.565
 340   7 N     -0.208  1.261  3.947  0.000    25.529     7.504
 341   6 C      0.021  1.060  2.919  0.000    20.229     6.405
 342   6 C      0.270  1.049  2.681  0.000    22.437     7.758
 343   8 O     -0.501  1.750  4.750  0.000    23.796     6.540
 344   6 C     -0.151  1.046  3.105  0.000    23.469     6.908
 345   1 H      0.222  0.778  0.000  0.000     1.000     1.566
 346   1 H      0.077  0.923  0.000  0.000     2.009     2.217
 347   1 H      0.068  0.932  0.000  0.000     2.111     2.272
 348   1 H      0.082  0.918  0.000  0.000     1.963     2.191
 349   1 H      0.070  0.930  0.000  0.000     2.086     2.259
 350   7 N     -0.197  1.261  3.936  0.000    25.279     7.467
 351   6 C      0.031  1.060  2.909  0.000    20.040     6.372
 352   6 C      0.276  1.039  2.686  0.000    22.340     7.739
 353   8 O     -0.522  1.750  4.772  0.000    24.266     6.605
 354   6 C     -0.067  1.054  3.012  0.000    21.779     6.644
 355   6 C     -0.086  1.056  3.030  0.000    22.142     6.700
 356   6 C      0.288  1.047  2.665  0.000    22.117     7.700
 357   8 O     -0.509  1.756  4.753  0.000    23.977     6.565
 358   7 N     -0.286  1.264  4.022  0.000    27.375     7.771
 359   1 H      0.239  0.761  0.000  0.000     0.928     1.509
 360   1 H      0.057  0.943  0.000  0.000     2.232     2.336
 361   1 H      0.070  0.930  0.000  0.000     2.082     2.257
 362   1 H      0.066  0.934  0.000  0.000     2.128     2.281
 363   1 H      0.061  0.939  0.000  0.000     2.188     2.313
 364   1 H      0.047  0.953  0.000  0.000     2.363     2.404
 365   1 H      0.227  0.773  0.000  0.000     0.978     1.549
 366   1 H      0.242  0.758  0.000  0.000     0.917     1.500
 367   7 N     -0.200  1.255  3.945  0.000    25.346     7.477
 368   6 C      0.025  1.054  2.921  0.000    20.150     6.391
 369   6 C      0.269  1.044  2.687  0.000    22.456     7.761
 370   8 O     -0.485  1.741  4.744  0.000    23.447     6.492
 371   6 C     -0.147  1.052  3.095  0.000    23.369     6.889
 372   1 H      0.251  0.749  0.000  0.000     0.878     1.468
 373   1 H      0.060  0.940  0.000  0.000     2.198     2.318
 374   1 H      0.070  0.930  0.000  0.000     2.087     2.259
 375   1 H      0.078  0.922  0.000  0.000     1.999     2.211
 376   1 H      0.086  0.914  0.000  0.000     1.920     2.167
 377   7 N     -0.184  1.252  3.932  0.000    24.996     7.425
 378   6 C      0.003  1.070  2.927  0.000    20.526     6.451
 379   6 C      0.276  1.041  2.684  0.000    22.335     7.739
 380   8 O     -0.460  1.744  4.716  0.000    22.915     6.418
 381   6 C     -0.076  1.055  3.021  0.000    21.952     6.670
 382   6 C     -0.092  1.057  3.034  0.000    22.244     6.715
 383   6 C     -0.033  1.057  2.975  0.000    21.243     6.577
 384   7 N     -0.137  1.214  3.923  0.000    23.968     7.271
 385   6 C      0.230  1.020  2.750  0.000    23.163     7.880
 386   7 N     -0.242  1.225  4.017  0.000    26.324     7.620
 387   7 N     -0.260  1.233  4.027  0.000    26.748     7.681
 388   1 H      0.218  0.782  0.000  0.000     1.020     1.582
 389   1 H      0.096  0.904  0.000  0.000     1.821     2.110
 390   1 H      0.052  0.948  0.000  0.000     2.298     2.371
 391   1 H      0.066  0.934  0.000  0.000     2.127     2.280
 392   1 H      0.084  0.916  0.000  0.000     1.941     2.179
 393   1 H      0.076  0.924  0.000  0.000     2.024     2.225
 394   1 H      0.093  0.907  0.000  0.000     1.853     2.129
 395   1 H      0.096  0.904  0.000  0.000     1.826     2.113
 396   1 H      0.232  0.768  0.000  0.000     0.956     1.532
 397   1 H      0.251  0.749  0.000  0.000     0.880     1.469
 398   1 H      0.251  0.749  0.000  0.000     0.878     1.468
 399   1 H      0.240  0.760  0.000  0.000     0.922     1.504
 400   1 H      0.250  0.750  0.000  0.000     0.884     1.473
 401   7 N     -0.178  1.237  3.942  0.000    24.864     7.406
 402   6 C      0.029  1.059  2.912  0.000    20.085     6.380
 403   6 C      0.278  1.042  2.680  0.000    22.298     7.735
 404   8 O     -0.456  1.741  4.715  0.000    22.825     6.406
 405   6 C     -0.070  1.055  3.015  0.000    21.832     6.652
 406   6 C     -0.094  1.080  3.014  0.000    22.292     6.724
 407   6 C      0.368  1.032  2.600  0.000    20.764     7.456
 408   8 O     -0.646  1.772  4.874  0.000    27.281     7.003
 409   8 O     -0.637  1.776  4.861  0.000    27.057     6.974
 410   1 H      0.188  0.812  0.000  0.000     1.171     1.695
 411   1 H      0.055  0.945  0.000  0.000     2.253     2.347
 412   1 H      0.064  0.936  0.000  0.000     2.149     2.292
 413   1 H      0.040  0.960  0.000  0.000     2.450     2.448
 414   1 H      0.014  0.986  0.000  0.000     2.834     2.633
 415   1 H      0.015  0.985  0.000  0.000     2.811     2.622
 416   7 N     -0.172  1.233  3.939  0.000    24.724     7.385
 417   6 C      0.017  1.063  2.920  0.000    20.277     6.409
 418   6 C      0.199  1.083  2.718  0.000    23.765     7.983
 419   8 O     -0.349  1.737  4.612  0.000    20.688     6.098
 420   6 C      0.067  1.039  2.894  0.000    19.665     6.353
 421   8 O     -0.475  1.729  4.745  0.000    22.351     6.382
 422   1 H      0.204  0.796  0.000  0.000     1.085     1.631
 423   1 H      0.105  0.895  0.000  0.000     1.741     2.064
 424   1 H      0.063  0.937  0.000  0.000     2.162     2.299
 425   1 H      0.059  0.941  0.000  0.000     2.208     2.324
 426   1 H      0.360  0.640  0.000  0.000     0.566     1.182
 427   7 N     -0.388  1.302  4.086  0.000    30.032     8.139
 428   6 C      0.065  1.040  2.895  0.000    19.499     6.287
 429   6 C      0.194  1.095  2.711  0.000    23.853     7.998
 430   8 O     -0.368  1.753  4.616  0.000    21.057     6.152
 431   6 C     -0.045  1.050  2.994  0.000    21.348     6.574
 432   6 C     -0.082  1.062  3.020  0.000    22.050     6.684
 433   6 C      0.367  1.026  2.607  0.000    20.773     7.459
 434   8 O     -0.596  1.769  4.827  0.000    26.033     6.841
 435   8 O     -0.641  1.774  4.866  0.000    27.137     6.984
 436   1 H      0.176  0.824  0.000  0.000     1.237     1.742
 437   1 H      0.018  0.982  0.000  0.000     2.762     2.599
 438   1 H      0.041  0.959  0.000  0.000     2.438     2.442
 439   1 H      0.047  0.953  0.000  0.000     2.353     2.399
 440   1 H      0.001  0.999  0.000  0.000     3.035     2.724
 441   1 H      0.004  0.996  0.000  0.000     2.990     2.704
 442   7 N     -0.391  1.310  4.081  0.000    30.132     8.153
 443   6 C      0.035  1.060  2.906  0.000    20.004     6.370
 444   6 C      0.275  1.047  2.678  0.000    22.361     7.746
 445   8 O     -0.491  1.739  4.752  0.000    23.586     6.511
 446   6 C     -0.017  1.067  2.951  0.000    20.853     6.496
 447   6 C     -0.115  1.041  3.074  0.000    22.768     6.805
 448   6 C     -0.105  1.040  3.065  0.000    22.564     6.775
 449   1 H      0.150  0.850  0.000  0.000     1.404     1.856
 450   1 H      0.042  0.958  0.000  0.000     2.428     2.437
 451   1 H      0.017  0.983  0.000  0.000     2.786     2.610
 452   1 H      0.044  0.956  0.000  0.000     2.396     2.421
 453   1 H      0.051  0.949  0.000  0.000     2.311     2.377
 454   1 H      0.044  0.956  0.000  0.000     2.390     2.418
 455   1 H      0.028  0.972  0.000  0.000     2.619     2.531
 456   1 H      0.038  0.962  0.000  0.000     2.475     2.460
 457   1 H      0.043  0.957  0.000  0.000     2.415     2.430
 458   7 N     -0.171  1.257  3.914  0.000    24.703     7.382
 459   6 C      0.037  1.056  2.907  0.000    19.910     6.345
 460   6 C      0.201  1.085  2.714  0.000    23.726     7.977
 461   8 O     -0.345  1.750  4.595  0.000    20.616     6.088
 462   6 C     -0.105  1.061  3.044  0.000    22.494     6.750
 463   6 C      0.293  1.033  2.675  0.000    22.043     7.690
 464   8 O     -0.471  1.754  4.717  0.000    23.154     6.451
 465   7 N     -0.287  1.263  4.024  0.000    27.402     7.775
 466   1 H      0.231  0.769  0.000  0.000     0.960     1.535
 467   1 H      0.092  0.908  0.000  0.000     1.857     2.131
 468   1 H      0.083  0.917  0.000  0.000     1.950     2.184
 469   1 H      0.077  0.923  0.000  0.000     2.005     2.215
 470   1 H      0.221  0.779  0.000  0.000     1.006     1.571
 471   1 H      0.233  0.767  0.000  0.000     0.954     1.530
 472   7 N     -0.400  1.312  4.088  0.000    30.367     8.184
 473   6 C      0.045  1.057  2.898  0.000    19.844     6.346
 474   6 C      0.199  1.099  2.702  0.000    23.760     7.983
 475   8 O     -0.385  1.755  4.629  0.000    21.381     6.199
 476   6 C     -0.073  1.059  3.014  0.000    21.895     6.663
 477   6 C     -0.070  1.052  3.018  0.000    21.850     6.656
 478   6 C     -0.024  1.061  2.963  0.000    21.099     6.557
 479   7 N     -0.149  1.225  3.923  0.000    24.217     7.309
 480   6 C      0.215  1.033  2.752  0.000    23.451     7.928
 481   7 N     -0.249  1.238  4.011  0.000    26.485     7.643
 482   7 N     -0.249  1.233  4.016  0.000    26.481     7.643
 483   1 H      0.175  0.825  0.000  0.000     1.240     1.745
 484   1 H      0.050  0.950  0.000  0.000     2.317     2.380
 485   1 H      0.050  0.950  0.000  0.000     2.318     2.381
 486   1 H      0.067  0.933  0.000  0.000     2.121     2.278
 487   1 H      0.066  0.934  0.000  0.000     2.129     2.282
 488   1 H      0.041  0.959  0.000  0.000     2.437     2.441
 489   1 H      0.083  0.917  0.000  0.000     1.944     2.180
 490   1 H      0.082  0.918  0.000  0.000     1.958     2.188
 491   1 H      0.224  0.776  0.000  0.000     0.992     1.560
 492   1 H      0.225  0.775  0.000  0.000     0.986     1.555
 493   1 H      0.277  0.723  0.000  0.000     0.786     1.389
 494   1 H      0.232  0.768  0.000  0.000     0.958     1.534
 495   1 H      0.271  0.729  0.000  0.000     0.807     1.407
 496   7 N     -0.393  1.307  4.087  0.000    30.189     8.160
 497   6 C      0.053  1.044  2.903  0.000    19.705     6.323
 498   6 C      0.195  1.097  2.708  0.000    23.846     7.998
 499   8 O     -0.404  1.766  4.638  0.000    21.759     6.254
 500   6 C     -0.047  1.055  2.993  0.000    21.402     6.584
 501   6 C     -0.102  1.066  3.036  0.000    22.441     6.745
 502   6 C      0.367  1.028  2.606  0.000    20.785     7.461
 503   8 O     -0.621  1.761  4.860  0.000    26.642     6.920
 504   8 O     -0.638  1.779  4.859  0.000    27.064     6.975
 505   1 H      0.176  0.824  0.000  0.000     1.236     1.741
 506   1 H      0.041  0.959  0.000  0.000     2.432     2.439
 507   1 H      0.050  0.950  0.000  0.000     2.318     2.381
 508   1 H      0.041  0.959  0.000  0.000     2.439     2.442
 509   1 H      0.043  0.957  0.000  0.000     2.411     2.428
 510   1 H      0.017  0.983  0.000  0.000     2.781     2.608
 511   7 N     -0.391  1.316  4.075  0.000    30.121     8.151
 512   6 C      0.032  1.057  2.911  0.000    20.049     6.376
 513   6 C      0.284  1.048  2.667  0.000    22.183     7.714
 514   8 O     -0.486  1.747  4.739  0.000    23.473     6.496
 515   6 C     -0.069  1.057  3.012  0.000    21.804     6.645
 516   6 C      0.003  1.055  2.942  0.000    20.491     6.438
 517   6 C     -0.098  1.037  3.062  0.000    22.440     6.756
 518   6 C     -0.091  1.037  3.054  0.000    22.288     6.732
 519   1 H      0.157  0.843  0.000  0.000     1.355     1.824
 520   1 H      0.049  0.951  0.000  0.000     2.328     2.386
 521   1 H      0.043  0.957  0.000  0.000     2.412     2.429
 522   1 H      0.036  0.964  0.000  0.000     2.501     2.473
 523   1 H      0.014  0.986  0.000  0.000     2.819     2.626
 524   1 H      0.029  0.971  0.000  0.000     2.605     2.524
 525   1 H      0.041  0.959  0.000  0.000     2.433     2.439
 526   1 H      0.022  0.978  0.000  0.000     2.707     2.573
 527   1 H      0.029  0.971  0.000  0.000     2.603     2.523
 528   1 H      0.019  0.981  0.000  0.000     2.741     2.589
 529   1 H      0.041  0.959  0.000  0.000     2.430     2.438
 530   7 N     -0.170  1.243  3.927  0.000    24.675     7.378
 531   6 C      0.047  1.047  2.906  0.000    19.787     6.332
 532   6 C      0.212  1.078  2.709  0.000    23.507     7.942
 533   8 O     -0.381  1.751  4.630  0.000    21.311     6.189
 534   6 C     -0.074  1.049  3.025  0.000    21.888     6.656
 535   6 C     -0.095  1.058  3.037  0.000    22.318     6.727
 536   6 C      0.353  1.035  2.612  0.000    21.008     7.501
 537   8 O     -0.591  1.770  4.821  0.000    25.898     6.823
 538   8 O     -0.581  1.763  4.818  0.000    25.662     6.792
 539   1 H      0.217  0.783  0.000  0.000     1.022     1.583
 540   1 H      0.051  0.949  0.000  0.000     2.305     2.374
 541   1 H      0.058  0.942  0.000  0.000     2.224     2.332
 542   1 H      0.085  0.915  0.000  0.000     1.929     2.172
 543   1 H      0.033  0.967  0.000  0.000     2.539     2.492
 544   1 H      0.042  0.958  0.000  0.000     2.425     2.435
 545   7 N     -0.420  1.310  4.110  0.000    30.924     8.259
 546   6 C      0.054  1.049  2.897  0.000    19.686     6.320
 547   6 C      0.204  1.095  2.702  0.000    23.672     7.969
 548   8 O     -0.399  1.755  4.644  0.000    21.668     6.241
 549   6 C     -0.035  1.049  2.987  0.000    21.193     6.553
 550   6 C     -0.095  1.066  3.030  0.000    22.333     6.731
 551   6 C      0.358  1.041  2.600  0.000    20.923     7.485
 552   8 O     -0.645  1.784  4.861  0.000    27.253     6.999
 553   8 O     -0.627  1.760  4.867  0.000    26.788     6.939
 554   1 H      0.199  0.801  0.000  0.000     1.112     1.652
 555   1 H      0.028  0.972  0.000  0.000     2.609     2.526
 556   1 H      0.008  0.992  0.000  0.000     2.931     2.677
 557   1 H      0.040  0.960  0.000  0.000     2.446     2.446
 558   1 H      0.049  0.951  0.000  0.000     2.328     2.386
 559   1 H     -0.003  1.003  0.000  0.000     3.115     2.760
 560   7 N     -0.382  1.304  4.078  0.000    29.871     8.117
 561   6 C      0.034  1.062  2.903  0.000    20.008     6.371
 562   6 C      0.198  1.093  2.709  0.000    23.786     7.987
 563   8 O     -0.347  1.741  4.606  0.000    20.655     6.093
 564   6 C     -0.055  1.055  3.000  0.000    21.556     6.610
 565   6 C     -0.098  1.078  3.020  0.000    22.376     6.736
 566   6 C      0.364  1.030  2.605  0.000    20.824     7.467
 567   8 O     -0.624  1.756  4.868  0.000    26.723     6.931
 568   8 O     -0.649  1.793  4.856  0.000    27.348     7.011
 569   1 H      0.155  0.845  0.000  0.000     1.369     1.833
 570   1 H      0.058  0.942  0.000  0.000     2.226     2.333
 571   1 H      0.026  0.974  0.000  0.000     2.646     2.544
 572   1 H      0.044  0.956  0.000  0.000     2.401     2.423
 573   1 H      0.030  0.970  0.000  0.000     2.580     2.512
 574   1 H      0.015  0.985  0.000  0.000     2.810     2.622
 575   7 N     -0.401  1.322  4.080  0.000    30.412     8.190
 576   6 C      0.040  1.055  2.905  0.000    19.919     6.358
 577   6 C      0.203  1.094  2.703  0.000    23.693     7.972
 578   8 O     -0.390  1.764  4.626  0.000    21.476     6.213
 579   6 C     -0.137  1.047  3.090  0.000    23.193     6.867
 580   1 H      0.190  0.810  0.000  0.000     1.157     1.685
 581   1 H      0.049  0.951  0.000  0.000     2.328     2.386
 582   1 H      0.056  0.944  0.000  0.000     2.242     2.342
 583   1 H      0.065  0.935  0.000  0.000     2.136     2.286
 584   1 H      0.061  0.939  0.000  0.000     2.182     2.310
 585   1 H      0.173  0.827  0.000  0.000     1.253     1.753
 586   1 H      0.078  0.922  0.000  0.000     1.998     2.210
 587   1 H      0.200  0.800  0.000  0.000     1.106     1.647
 588   1 H      0.070  0.930  0.000  0.000     2.081     2.256
 589   1 H      0.175  0.825  0.000  0.000     1.245     1.748
 590   1 H      0.078  0.922  0.000  0.000     2.002     2.212
 591   1 H      0.184  0.816  0.000  0.000     1.194     1.711
 592   1 H      0.079  0.921  0.000  0.000     1.988     2.204
 593   1 H      0.182  0.818  0.000  0.000     1.205     1.719
 594   1 H      0.070  0.930  0.000  0.000     2.082     2.256
 595   1 H      0.191  0.809  0.000  0.000     1.151     1.681
 596   1 H      0.067  0.933  0.000  0.000     2.113     2.273
 597   1 H      0.171  0.829  0.000  0.000     1.266     1.763
 598   1 H      0.066  0.934  0.000  0.000     2.124     2.279
 599   1 H      0.182  0.818  0.000  0.000     1.205     1.719
 600   1 H      0.076  0.924  0.000  0.000     2.024     2.224
 601   1 H      0.155  0.845  0.000  0.000     1.366     1.830
 602   1 H      0.069  0.931  0.000  0.000     2.095     2.263
 603   1 H      0.182  0.818  0.000  0.000     1.204     1.719
 604   1 H      0.094  0.906  0.000  0.000     1.842     2.122
 605   1 H      0.178  0.822  0.000  0.000     1.226     1.734
 606   1 H      0.083  0.917  0.000  0.000     1.951     2.184
 607   1 H      0.194  0.806  0.000  0.000     1.138     1.671
 608   1 H      0.078  0.922  0.000  0.000     1.995     2.209
 609   1 H      0.175  0.825  0.000  0.000     1.241     1.745
 610   1 H      0.079  0.921  0.000  0.000     1.989     2.206

 Mol. C6AA /au·bohr⁶  :    3251798.567160
 Mol. C8AA /au·bohr⁸  :   70982044.147513
 Mol. α(0) /au        :       2683.660530

 
molecular dipole:
                 x           y           z       tot (Debye)
 q only:      -26.512      34.107      38.710
   full:      -30.363      31.046      37.685     146.147
molecular quadrupole (traceless):
                xx          xy          yy          xz          yz          zz
 q only:    -3558.817   -7140.916   10566.220     -91.905    7988.148   -7007.403
  q+dip:    -3186.939   -8069.225    9700.714      17.296    7940.139   -6513.775
   full:    -3184.795   -8063.542    9700.448      24.807    7941.194   -6515.652
speedup  1.59
cpu  time for grad   32.82 s
wall time for grad   20.58 s

SCC energy    :    -935.2587498
rep           :      11.1286954
ES            :       3.3022064
AES           :      -0.1722298
AXC           :       0.3261568
disp          :      -0.7702270
XB            :       0.0000000
fix           :       0.0000000
Gborn         :       0.0000000
Gsasa         :       0.0000000
Ghb           :       0.0000000
Gshift        :       0.0000000
Gsolv         :      -0.9228466     -579.09
Etot ala COSMO:    -935.2587498
grad norm     :       0.8145854
total E       :    -924.0629128
atomizationE  :     166.1929007   104287.62
(atE without considering molecular charge,
 total energy contains solvation terms)
H-L gap (eV)  :          1.2946

------------------------------------------------------------------------
 * finished run on 2019/05/11 at 23:18:59.131     
------------------------------------------------------------------------
 total:
 * wall-time:     0 d,  0 h,  0 min, 22.033 sec
 *  cpu-time:     0 d,  0 h,  0 min, 34.486 sec
 * ratio c/w:     1.565 speedup
 SCF:
 * wall-time:     0 d,  0 h,  0 min, 21.296 sec
 *  cpu-time:     0 d,  0 h,  0 min, 33.969 sec
 * ratio c/w:     1.595 speedup

