      -----------------------------------------------------------      
     |                   =====================                   |     
     |                           x T B                           |     
     |                   =====================                   |     
     |                         S. Grimme                         |     
     |          Mulliken Center for Theoretical Chemistry        |     
     |                    University of Bonn                     |     
     |                 Version 6.0.1 (SAW181210)                 |     
      -----------------------------------------------------------      

   This program is distributed in the hope that it will be useful,
   but WITHOUT ANY WARRANTY; without even the implied warranty of
   MERCHANTABILITY or FITNESS FOR A PARTICULAR PURPOSE.
   
   FOR NON-COMMERCIAL, ACADEMIA USE ONLY.
   
   Cite this work as:
   S. Grimme, C. Bannwarth, P. Shushkov, J. Comput. Theory Chem., 2017,
   13, 1989-2009.
   C. Bannwarth, S. Ehlert and S. Grimme., ChemRxiv, 2018, preprint.
   http://doi.org/10.26434/chemrxiv.7246238.v1
   
   for sTDA-xTB:
   S. Grimme and C. Bannwarth, J. Chem. Phys., 2016, 145, 054103.
   
   in the mass-spec context:
   V. Asgeirsson, C. Bauer and S. Grimme, Chem. Sci., 2017, 8, 4879.
   
   if GBSA is used:
   P. Shushkov, F. März and S. Grimme, unpublished.
   
   for ANC optimizer:
   S. Grimme, unpublished.
   Rational Function algorithm used in ANCopt:
   F. Eckert, P. Pulay, H.-J. Werner, J. Comput. Chem., 1997, 18, 1473.
   
   with help from (in alphabetical order)
   C. Bannwarth, F. Bohle, G. Brandenburg, E. Caldeweyher, M. Checinski,
   S. Dohm, S. Ehlert, S. Ehrlich, F. März, H. Neugebauer, J. Pisarek,
   P. Pracht, P. Shushkov, and S. Spicher.
   
 * started run on 2019/05/11 at 08:36:40.268     
========================================================================
 # omp threads = 2
========================================================================
number of atoms            : 225
number of electrons        : 586
charge                     : 2
spin                       : .0
first test random number   : .7396

########################################################################
# WARNING! Please study the warnings concerning your input carefully
#  - Process number higher than OMP_NUM_THREADS, I hope you know what you are doing.
########################################################################

           ------------------------------------------------- 
          |                 G F N 2 - x T B                 |
          | Geometry, Frequencies, Noncovalent interactions |
          |            JCTC 2018 parametrisation            |
           ------------------------------------------------- 
 
      method parameters     
 k(s)        :  1.8500
 k(p)        :  2.2300
 k(d)        :  2.2300
 k(f)        :  2.0000
 kEN (H0ij)  : -2.0000
 D4 a1       :  0.5200
 D4 a2       :  5.0000
 D4 s6       :  1.0000
 D4 s8       :  2.7000
 D4 s9       :  5.0000
 alphaj      :  2.0000

 Solvent             : h2o
 Using internal parameter file: .param_gbsa2_h2o
 Gsolv ref. state (COSMO-RS): gsolv [1 M gas/solution]
 temperature (mdtemp)       :    298.150000000000     
 dielectric constant        :    80.2000000000000     
 rho                        :    1.00000000000000     
 mass                       :    18.0000000000000     
 surface tension            :    15.5689454083859     
 probe radius               :   0.975313790000000     
 vdW radii scaling          :    1.00000000000000     
 Gshift (Eh)                :   1.857443126794793E-003
 c1                         :    1.55243817000000     
 soset                      :   0.130326360000000     
 HB correction              :  T

            Z     q(EN)     CN     RAES       Cart. coordinates
     1  N   5.0   -0.12    4.08    3.09    65.82894   -19.18974   -55.33812
     2  C   4.0    0.00    4.30    4.19    66.14107   -16.40507   -54.95659
     3  C   4.0    0.15    3.39    3.08    64.38100   -15.22970   -52.95668
     4  O   6.0   -0.29    1.24    1.80    64.99953   -13.26848   -51.93695
     5  C   4.0   -0.04    4.32    4.23    65.69633   -15.00595   -57.47256
     6  C   4.0   -0.03    4.07    3.74    66.54427   -12.25005   -57.30611
     7  S   6.0    0.00    2.45    3.10    65.90238   -10.52304   -60.23031
     8  C   4.0   -0.06    3.88    3.44    62.61344    -9.69225   -59.69676
     9  H   1.0    0.07    1.02    1.43    67.34246   -19.87833   -56.36294
    10  H   1.0    0.08    1.02    1.43    65.77953   -20.15771   -53.64150
    11  H   1.0    0.07    1.02    1.43    64.21520   -19.60465   -56.35487
    12  H   1.0    0.05    1.05    1.44    68.07201   -16.03278   -54.32054
    13  H   1.0    0.05    1.03    1.43    66.77064   -15.90543   -58.98439
    14  H   1.0    0.04    1.03    1.43    63.69424   -15.06638   -57.96431
    15  H   1.0    0.06    1.07    1.44    65.61388   -11.24798   -55.76998
    16  H   1.0    0.06    1.07    1.44    68.57901   -12.11914   -57.03146
    17  H   1.0    0.06    1.05    1.44    62.03303    -8.53966   -61.28961
    18  H   1.0    0.05    1.04    1.43    61.46710   -11.38963   -59.61970
    19  H   1.0    0.05    1.04    1.43    62.46109    -8.61504   -57.95677
    20  N   5.0   -0.14    3.45    2.05    62.12964   -16.35338   -52.61954
    21  C   4.0    0.03    4.40    4.39    60.20696   -15.24859   -51.00449
    22  C   4.0    0.15    3.36    3.07    59.92730   -16.78665   -48.53975
    23  O   6.0   -0.27    1.22    1.80    61.60381   -16.74114   -46.95454
    24  C   4.0   -0.05    4.35    4.29    57.76720   -14.81790   -52.49402
    25  C   4.0   -0.02    4.18    3.95    58.05118   -12.88531   -54.64799
    26  C   4.0   -0.07    4.10    3.81    55.60271   -12.79377   -56.17937
    27  C   4.0   -0.07    4.10    3.80    58.68553   -10.24573   -53.66586
    28  H   1.0    0.08    1.06    1.44    61.70145   -18.06379   -53.34419
    29  H   1.0    0.07    1.08    1.44    60.99050   -13.43385   -50.38417
    30  H   1.0    0.05    1.03    1.43    57.12739   -16.60335   -53.31007
    31  H   1.0    0.04    1.03    1.43    56.32929   -14.13025   -51.19031
    32  H   1.0    0.04    1.05    1.44    59.57825   -13.49915   -55.89873
    33  H   1.0    0.05    1.00    1.43    55.81262   -11.52792   -57.78391
    34  H   1.0    0.05    1.00    1.43    55.09802   -14.65352   -56.89232
    35  H   1.0    0.05    1.00    1.43    54.05798   -12.09971   -55.01729
    36  H   1.0    0.05    1.00    1.43    58.58564    -8.88723   -55.20481
    37  H   1.0    0.05    1.00    1.43    57.34582    -9.66874   -52.21988
    38  H   1.0    0.05    1.00    1.43    60.57857   -10.15975   -52.86974
    39  N   5.0   -0.14    3.46    2.05    57.72975   -18.01593   -48.22088
    40  C   4.0    0.04    4.40    4.38    56.96083   -19.07458   -45.81526
    41  C   4.0    0.15    3.39    3.08    57.27627   -21.96455   -45.76299
    42  O   6.0   -0.28    1.22    1.80    55.89212   -23.35968   -46.98017
    43  C   4.0   -0.03    4.28    4.16    54.16775   -18.48071   -45.30177
    44  C   4.0   -0.04    4.17    3.94    53.59350   -15.66005   -45.03644
    45  C   4.0   -0.04    4.16    3.93    50.75806   -15.22463   -44.63074
    46  C   4.0   -0.03    4.12    3.84    50.18624   -12.41884   -44.27723
    47  N   5.0   -0.11    4.01    2.88    47.43775   -11.98653   -43.83166
    48  H   1.0    0.08    1.07    1.44    56.57733   -18.37333   -49.69765
    49  H   1.0    0.07    1.06    1.44    58.18020   -18.23115   -44.37497
    50  H   1.0    0.06    1.03    1.43    53.05426   -19.31348   -46.82787
    51  H   1.0    0.06    1.03    1.43    53.66119   -19.45837   -43.55789
    52  H   1.0    0.06    1.03    1.43    54.67174   -14.91525   -43.44534
    53  H   1.0    0.04    1.03    1.43    54.21174   -14.66795   -46.73287
    54  H   1.0    0.05    1.03    1.43    49.73679   -15.96289   -46.26219
    55  H   1.0    0.05    1.03    1.43    50.17053   -16.28634   -42.96516
    56  H   1.0    0.05    1.02    1.43    51.24146   -11.70178   -42.66145
    57  H   1.0    0.05    1.02    1.43    50.75122   -11.37037   -45.95851
    58  H   1.0    0.07    1.02    1.43    47.07657   -10.08588   -43.58774
    59  H   1.0    0.07    1.02    1.43    46.39042   -12.63258   -45.34286
    60  H   1.0    0.07    1.02    1.43    46.85421   -12.94034   -42.23379
    61  N   5.0   -0.12    3.50    2.08    59.14840   -22.78296   -44.27305
    62  C   4.0    0.04    4.38    4.35    59.48406   -25.39246   -43.48669
    63  C   4.0    0.16    3.41    3.08    59.78095   -25.23970   -40.60239
    64  O   6.0   -0.27    1.26    1.80    58.53870   -23.72260   -39.39409
    65  C   4.0   -0.04    4.24    4.08    61.61707   -26.67681   -44.97561
    66  C   4.0   -0.01    4.18    3.96    60.81244   -27.11150   -47.71955
    67  C   4.0    0.26    3.09    3.02    63.13722   -27.48740   -49.49318
    68  O   6.0   -0.27    1.16    1.80    64.01998   -25.53979   -50.48887
    69  O   6.0   -0.25    1.16    1.80    63.93143   -29.68606   -49.76894
    70  H   1.0    0.11    1.09    1.44    60.22038   -21.50545   -43.33550
    71  H   1.0    0.07    1.06    1.44    57.70661   -26.38534   -43.89998
    72  H   1.0    0.06    1.03    1.43    63.29706   -25.47749   -44.92465
    73  H   1.0    0.05    1.03    1.43    62.07906   -28.51785   -44.17188
    74  H   1.0    0.07    1.02    1.43    59.61816   -28.78980   -47.84047
    75  H   1.0    0.08    1.03    1.43    59.75307   -25.48922   -48.41238
    76  N   5.0   -0.15    3.46    2.05    61.50316   -26.76579   -39.51801
    77  C   4.0    0.04    4.43    4.43    61.99245   -26.64986   -36.82695
    78  C   4.0    0.15    3.42    3.08    64.57260   -25.47064   -36.23715
    79  O   6.0   -0.28    1.23    1.80    64.88820   -24.06698   -34.44274
    80  C   4.0   -0.03    4.32    4.23    61.76166   -29.27998   -35.62238
    81  C   4.0   -0.00    3.57    3.15    61.98494   -29.15427   -32.79220
    82  C   4.0   -0.02    3.48    3.10    60.20566   -27.82808   -31.38819
    83  C   4.0   -0.02    3.46    3.10    63.94549   -30.36511   -31.54300
    84  C   4.0   -0.02    3.37    3.07    60.38568   -27.71678   -28.78584
    85  C   4.0   -0.02    3.37    3.07    64.12337   -30.26389   -28.93609
    86  C   4.0   -0.02    3.37    3.07    62.34326   -28.94048   -27.55150
    87  H   1.0    0.07    1.07    1.44    62.27023   -28.19896   -40.51259
    88  H   1.0    0.07    1.07    1.44    60.57909   -25.36884   -36.02522
    89  H   1.0    0.06    1.03    1.43    59.91215   -30.04722   -36.12921
    90  H   1.0    0.05    1.03    1.43    63.22267   -30.51475   -36.39166
    91  H   1.0    0.06    1.03    1.43    58.66892   -26.88169   -32.34328
    92  H   1.0    0.06    1.03    1.43    65.33194   -31.41314   -32.61411
    93  H   1.0    0.07    1.03    1.43    58.99079   -26.67965   -27.71563
    94  H   1.0    0.07    1.03    1.43    65.65209   -31.22082   -27.98222
    95  H   1.0    0.07    1.03    1.43    62.47450   -28.86591   -25.51712
    96  N   5.0   -0.15    3.49    2.07    66.47160   -26.10525   -37.81299
    97  C   4.0    0.04    4.42    4.41    69.01148   -25.15579   -37.40372
    98  C   4.0    0.16    3.41    3.08    69.19640   -22.30184   -37.88581
    99  O   6.0   -0.28    1.22    1.80    70.78779   -21.00243   -36.84183
   100  C   4.0   -0.05    4.27    4.13    70.90495   -26.55503   -39.09263
   101  C   4.0   -0.04    4.20    4.00    73.62354   -26.02433   -38.27324
   102  C   4.0   -0.05    4.17    3.93    75.52155   -27.09010   -40.17305
   103  C   4.0   -0.03    4.12    3.85    78.19381   -26.26775   -39.46819
   104  N   5.0   -0.11    4.01    2.89    80.06978   -27.28122   -41.30489
   105  H   1.0    0.08    1.07    1.44    66.18778   -27.29342   -39.27569
   106  H   1.0    0.07    1.06    1.44    69.48856   -25.43248   -35.40640
   107  H   1.0    0.05    1.03    1.43    70.53739   -28.57840   -38.94689
   108  H   1.0    0.05    1.03    1.43    70.60352   -25.97706   -41.05108
   109  H   1.0    0.06    1.03    1.43    73.86585   -23.99161   -38.04603
   110  H   1.0    0.05    1.03    1.43    73.92656   -26.86833   -36.41804
   111  H   1.0    0.05    1.03    1.43    75.36941   -29.14424   -40.16807
   112  H   1.0    0.04    1.03    1.43    75.02664   -26.42106   -42.05781
   113  H   1.0    0.05    1.02    1.43    78.31698   -24.21135   -39.44648
   114  H   1.0    0.06    1.02    1.43    78.66417   -26.95053   -37.58210
   115  H   1.0    0.07    1.02    1.43    81.85443   -26.61682   -40.89566
   116  H   1.0    0.07    1.02    1.43    80.09497   -29.22706   -41.21874
   117  H   1.0    0.06    1.02    1.43    79.60545   -26.77421   -43.12961
   118  N   5.0   -0.13    3.50    2.07    67.67946   -21.42868   -39.73084
   119  C   4.0    0.04    4.42    4.42    67.31488   -18.75777   -40.22567
   120  C   4.0    0.16    3.43    3.09    64.49932   -18.21790   -39.87374
   121  O   6.0   -0.28    1.25    1.80    62.90870   -19.58428   -40.84994
   122  C   4.0   -0.03    4.25    4.10    68.11766   -18.07542   -42.93472
   123  C   4.0   -0.02    4.17    3.94    68.60170   -15.24676   -43.21149
   124  C   4.0    0.25    3.11    3.03    70.91187   -14.35252   -41.63331
   125  O   6.0   -0.31    1.32    1.80    72.95648   -15.49866   -42.00791
   126  O   6.0   -0.27    1.16    1.80    70.59952   -12.57560   -40.14194
   127  H   1.0    0.10    1.09    1.44    66.27005   -22.53750   -40.39264
   128  H   1.0    0.07    1.06    1.44    68.45956   -17.69493   -38.86879
   129  H   1.0    0.05    1.03    1.43    69.85539   -19.09304   -43.37336
   130  H   1.0    0.06    1.03    1.43    66.63893   -18.66545   -44.24911
   131  H   1.0    0.06    1.02    1.43    68.98960   -14.79806   -45.18836
   132  H   1.0    0.07    1.02    1.43    66.95829   -14.14061   -42.64022
   133  N   5.0   -0.14    3.46    2.05    63.94629   -16.22943   -38.41234
   134  C   4.0    0.04    4.41    4.39    61.37540   -15.45290   -37.88881
   135  C   4.0    0.16    3.39    3.08    60.43532   -13.57787   -39.90127
   136  O   6.0   -0.30    1.23    1.80    58.42684   -13.89525   -40.97356
   137  C   4.0   -0.03    4.31    4.21    61.15828   -14.34313   -35.21158
   138  C   4.0   -0.00    3.55    3.14    61.33059   -16.36359   -33.20806
   139  C   4.0   -0.02    3.46    3.10    63.62471   -16.95672   -32.07916
   140  C   4.0   -0.02    3.46    3.10    59.18269   -17.67574   -32.45492
   141  C   4.0   -0.01    3.37    3.07    63.77570   -18.82945   -30.25908
   142  C   4.0   -0.02    3.37    3.07    59.33062   -19.54953   -30.63711
   143  C   4.0   -0.02    3.37    3.07    61.63101   -20.14024   -29.54044
   144  H   1.0    0.08    1.06    1.44    65.36136   -15.16019   -37.71000
   145  H   1.0    0.07    1.06    1.44    60.18532   -17.14129   -38.06708
   146  H   1.0    0.06    1.03    1.43    62.66440   -12.95723   -34.94377
   147  H   1.0    0.06    1.03    1.43    59.34465   -13.37599   -35.05868
   148  H   1.0    0.07    1.03    1.43    65.31362   -15.93460   -32.60623
   149  H   1.0    0.06    1.03    1.43    57.37808   -17.21800   -33.29123
   150  H   1.0    0.07    1.03    1.43    65.57304   -19.26491   -29.39793
   151  H   1.0    0.06    1.03    1.43    57.64512   -20.54909   -30.06609
   152  H   1.0    0.06    1.03    1.43    61.75483   -21.61190   -28.13257
   153  N   5.0   -0.13    3.46    2.05    61.93825   -11.57355   -40.31417
   154  C   4.0    0.04    4.32    4.24    61.37435    -9.68394   -42.25391
   155  C   4.0    0.15    3.38    3.07    63.68711    -7.92815   -42.40055
   156  O   6.0   -0.29    1.21    1.80    65.50929    -8.45506   -43.70742
   157  C   4.0   -0.06    4.14    3.87    58.86986    -8.36799   -41.67918
   158  H   1.0    0.09    1.07    1.44    63.64364   -11.46374   -39.47255
   159  H   1.0    0.06    1.05    1.44    61.24262   -10.66033   -44.08081
   160  H   1.0    0.04    1.00    1.43    58.59535    -6.78593   -42.95506
   161  H   1.0    0.06    1.01    1.43    57.35742    -9.72869   -41.94616
   162  H   1.0    0.06    1.00    1.43    58.80214    -7.72957   -39.72684
   163  N   5.0   -0.13    3.56    2.12    63.51424    -5.84100   -40.97925
   164  C   4.0    0.03    4.30    4.20    65.53135    -4.07116   -40.50883
   165  C   4.0    0.09    3.23    3.04    66.16503    -4.30011   -37.69828
   166  O   6.0   -0.26    1.15    1.80    64.77132    -5.44495   -36.24488
   167  C   4.0   -0.04    4.33    4.25    64.68421    -1.35643   -41.13410
   168  C   4.0   -0.02    4.19    3.99    63.25008    -1.15490   -43.64869
   169  C   4.0   -0.06    4.10    3.80    62.12097     1.48920   -43.91642
   170  C   4.0   -0.07    4.10    3.80    64.95691    -1.78040   -45.88791
   171  H   1.0    0.09    1.09    1.44    61.99395    -5.60266   -39.85532
   172  H   1.0    0.05    1.05    1.44    67.15283    -4.61151   -41.66920
   173  H   1.0    0.06    1.03    1.43    63.46027    -0.67804   -39.61427
   174  H   1.0    0.05    1.03    1.43    66.34555    -0.13984   -41.21437
   175  H   1.0    0.05    1.06    1.44    61.68612    -2.51062   -43.63901
   176  H   1.0    0.05    1.00    1.43    61.02545     1.61919   -45.64948
   177  H   1.0    0.06    1.00    1.43    60.87519     1.91302   -42.33678
   178  H   1.0    0.06    1.00    1.43    63.60413     2.90945   -43.97890
   179  H   1.0    0.05    1.00    1.43    63.91986    -1.57577   -47.65055
   180  H   1.0    0.05    1.00    1.43    66.58710    -0.52934   -45.94726
   181  H   1.0    0.06    1.00    1.43    65.63409    -3.71728   -45.78038
   182  N   5.0   -0.18    3.20    1.96    77.72236    -3.42999   -51.74731
   183  C   4.0    0.03    4.21    4.03    77.22887    -5.68656   -50.27154
   184  C   4.0    0.09    3.19    3.03    77.15446    -8.02143   -52.01355
   185  O   6.0   -0.27    1.13    1.80    75.17777    -8.99765   -52.70395
   186  C   4.0   -0.03    4.34    4.28    74.76569    -5.49938   -48.78200
   187  C   4.0   -0.04    4.07    3.75    74.92046    -3.48789   -46.74369
   188  S   6.0   -0.02    2.46    3.10    72.13252    -3.38022   -44.74384
   189  C   4.0   -0.05    3.89    3.45    72.93129    -6.02854   -42.68876
   190  H   1.0    0.10    1.02    1.43    76.23146    -2.49990   -52.49490
   191  H   1.0    0.05    1.05    1.44    78.82715    -5.89004   -48.96517
   192  H   1.0    0.06    1.03    1.43    73.20524    -5.09548   -50.07135
   193  H   1.0    0.06    1.03    1.43    74.39987    -7.34833   -47.93760
   194  H   1.0    0.05    1.07    1.44    76.54351    -3.80293   -45.51556
   195  H   1.0    0.05    1.08    1.44    75.08192    -1.61626   -47.56984
   196  H   1.0    0.06    1.04    1.43    71.40719    -6.26549   -41.34245
   197  H   1.0    0.06    1.03    1.43    73.10583    -7.74846   -43.79068
   198  H   1.0    0.06    1.04    1.43    74.68837    -5.58151   -41.73422
   199  N   5.0   -0.18    3.24    1.96    78.63582   -15.62312   -52.94448
   200  C   4.0    0.03    4.22    4.04    78.77405   -17.95040   -51.50017
   201  C   4.0    0.09    3.21    3.04    80.42895   -19.77944   -53.02722
   202  O   6.0   -0.25    1.13    1.80    79.98975   -20.11419   -55.29240
   203  C   4.0   -0.04    4.25    4.10    76.11630   -19.03520   -51.06600
   204  C   4.0   -0.05    4.16    3.93    75.95439   -20.83890   -48.81986
   205  C   4.0   -0.04    4.18    3.95    76.20980   -19.46788   -46.28686
   206  C   4.0   -0.04    4.12    3.85    75.52374   -21.20281   -44.08181
   207  N   5.0   -0.11    4.03    2.94    75.58861   -19.76259   -41.68416
   208  H   1.0    0.11    1.03    1.43    78.26255   -15.85310   -54.80065
   209  H   1.0    0.05    1.05    1.44    79.68075   -17.47255   -49.70707
   210  H   1.0    0.05    1.03    1.43    74.83468   -17.44724   -50.75591
   211  H   1.0    0.06    1.03    1.43    75.54029   -20.01587   -52.78750
   212  H   1.0    0.05    1.03    1.43    74.11432   -21.76767   -48.89559
   213  H   1.0    0.05    1.02    1.43    77.40110   -22.30099   -48.99719
   214  H   1.0    0.05    1.03    1.43    78.14134   -18.80183   -46.04751
   215  H   1.0    0.05    1.03    1.43    74.96894   -17.82180   -46.25573
   216  H   1.0    0.04    1.02    1.43    73.62826   -21.96979   -44.37160
   217  H   1.0    0.04    1.02    1.43    76.86031   -22.76872   -43.99119
   218  H   1.0    0.07    1.02    1.43    75.16150   -20.87956   -40.16423
   219  H   1.0    0.07    1.03    1.43    77.35245   -19.00776   -41.43891
   220  H   1.0    0.11    1.11    1.44    74.33229   -18.16082   -41.76420
   221  H   1.0    0.07    1.04    1.44    67.73982    -3.50812   -37.01719
   222  H   1.0    0.10    1.07    1.44    78.51664    -2.28015   -50.77799
   223  H   1.0    0.07    1.05    1.44    78.76615    -8.79669   -52.62387
   224  H   1.0    0.10    1.08    1.44    77.40068   -14.63733   -52.31583
   225  H   1.0    0.07    1.04    1.43    81.85373   -20.69179   -52.18539

  Z AO/shell   Hii/eV     exponent
  1     Wed Apr 25 08:07:45 CEST 2018   EN: 2.200 GM2: 0.406  GM3: 0.0800  RAES: 1.40
     1s    -10.707211    1.230000
  6     Wed Apr 25 08:07:45 CEST 2018   EN: 2.550 GM2: 0.538  GM3: 0.1500  RAES: 3.00
     2s    -13.970922    2.096432
     2p    -10.063292    1.800000
  7     Wed Apr 25 08:07:45 CEST 2018   EN: 3.040 GM2: 0.461  GM3:-0.0640  RAES: 1.90
     2s    -16.686243    2.339881
     2p    -12.523956    2.014332
  8     Wed Apr 25 08:07:45 CEST 2018   EN: 3.440 GM2: 0.452  GM3:-0.0517  RAES: 1.80
     2s    -20.229985    2.439742
     2p    -15.503117    2.137023
 16     Tue Apr 24 11:44:34 CEST 2018   EN: 2.580 GM2: 0.340  GM3:-0.0502  RAES: 3.10
     3s    -20.029654    1.981333
     3p    -11.377694    2.025643
     3d     -0.420282    1.702555
 no old-style atom pair restraining (fixing) potential

molecular fragmentation (1/2 indicates fragments):
111111111111111111111111111111111111111111111111111111111111111111111111
111111111111111111111111111111111111111111111111111111111111111111111111
111111111111111111111111111111111111122222222222222222222222222222222222
222212222
# atoms in fragment 1/2:   182    43
 fragment masses (1/2) :     1240.54      264.41
CMA distance (Bohr)    :  15.289
constraining FC (au)   :  0.0500
           ------------------------------------------------- 
          |        Self-Consistent Charge Iterations        |
           ------------------------------------------------- 

 Ncao       : 549
 Nao        : 547
 Nshell     : 331
 Nel        : 586
 T(el)      :   500.0
 intcut     :    35.0
 scfconv/Eh :  0.100E-06
   qconv/e  :  0.100E-04
 intneglect :  0.100E-08
 broydamp   :      0.400
 iter      E             dE          RMSdq      gap      omega  full diag
   1   -331.9329246 -0.331933E+03  0.438E+00    2.96       0.0  T
   2   -332.6277200 -0.694795E+00  0.215E+00    1.66       1.0  T
   3   -332.6660836 -0.383636E-01  0.117E+00    2.00       1.0  T
   4   -332.7116171 -0.455335E-01  0.256E-01    1.52       1.0  T
   5   -332.7146580 -0.304091E-02  0.128E-01    1.61       1.0  T
   6   -332.7151496 -0.491623E-03  0.551E-02    1.61       1.0  T
   7   -332.7153145 -0.164890E-03  0.222E-02    1.62       1.0  T
   8   -332.7153328 -0.182861E-04  0.112E-02    1.63       1.0  T
   9   -332.7153383 -0.555631E-05  0.484E-03    1.63       1.4  T
  10   -332.7153393 -0.940487E-06  0.225E-03    1.63       3.0  T
  11   -332.7153394 -0.145023E-06  0.997E-04    1.63       6.7  T
  12   -332.7153394 -0.249972E-07  0.456E-04    1.63      14.6  T
  13   -332.7153394 -0.124870E-07  0.234E-04    1.63      28.5  T
  14   -332.7153394 -0.142785E-08  0.840E-05    1.63      79.3  T
  15   -332.7153394 -0.368686E-09  0.347E-05    1.63     192.3  T
speedup  2.00
cpu  time for SCC    4.11 s
wall time for SCC    2.06 s

   *** convergence criteria satisfied after 15 iterations ***

          eigenvalues
 #    :         281        282        283        284        285        286        287        288
 occ. :        2.000      2.000      2.000      2.000      2.000      2.000      2.000      2.000
 eps  :       -10.992    -10.852    -10.833    -10.823    -10.728    -10.699    -10.263    -10.250
 #    :         289        290        291        292        293        294        295        296
 occ. :        2.000      2.000      2.000      2.000      2.000      0.000      0.000      0.000
 eps  :       -10.109     -9.980     -9.777     -9.712     -9.702     -8.075     -7.872     -7.821
 #    :         297        298        299        300        301        302        303        304
 occ. :        0.000      0.000      0.000      0.000      0.000      0.000      0.000      0.000
 eps  :        -6.702     -6.630     -6.574     -6.502     -6.398     -6.365     -6.318     -6.297


   #   Z            q   n(s)   n(p)   n(d)      C6AA      α(0)
   1   7 N     -0.152  1.232  3.919  0.000    24.270     7.317
   2   6 C     -0.027  1.080  2.946  0.000    21.069     6.539
   3   6 C      0.281  1.028  2.691  0.000    22.250     7.724
   4   8 O     -0.454  1.754  4.700  0.000    22.800     6.402
   5   6 C     -0.088  1.059  3.029  0.000    22.154     6.697
   6   6 C     -0.015  1.063  2.953  0.000    20.857     6.503
   7  16 S     -0.232  1.927  4.252  0.053   150.992    20.682
   8   6 C     -0.059  1.054  3.005  0.000    21.714     6.647
   9   1 H      0.320  0.680  0.000  0.000     0.657     1.270
  10   1 H      0.292  0.708  0.000  0.000     0.738     1.346
  11   1 H      0.299  0.701  0.000  0.000     0.717     1.327
  12   1 H      0.138  0.862  0.000  0.000     1.472     1.897
  13   1 H      0.105  0.895  0.000  0.000     1.740     2.063
  14   1 H      0.083  0.917  0.000  0.000     1.953     2.185
  15   1 H      0.068  0.932  0.000  0.000     2.110     2.272
  16   1 H      0.069  0.931  0.000  0.000     2.100     2.266
  17   1 H      0.058  0.942  0.000  0.000     2.219     2.329
  18   1 H      0.066  0.934  0.000  0.000     2.125     2.279
  19   1 H      0.057  0.943  0.000  0.000     2.230     2.335
  20   7 N     -0.169  1.237  3.932  0.000    24.653     7.374
  21   6 C      0.004  1.066  2.930  0.000    20.526     6.452
  22   6 C      0.269  1.044  2.688  0.000    22.459     7.760
  23   8 O     -0.491  1.761  4.730  0.000    23.579     6.510
  24   6 C     -0.091  1.063  3.028  0.000    22.228     6.712
  25   6 C     -0.010  1.057  2.953  0.000    20.725     6.475
  26   6 C     -0.121  1.043  3.078  0.000    22.876     6.819
  27   6 C     -0.117  1.040  3.077  0.000    22.793     6.807
  28   1 H      0.212  0.788  0.000  0.000     1.044     1.601
  29   1 H      0.101  0.899  0.000  0.000     1.777     2.085
  30   1 H      0.058  0.942  0.000  0.000     2.227     2.334
  31   1 H      0.070  0.930  0.000  0.000     2.089     2.260
  32   1 H      0.037  0.963  0.000  0.000     2.496     2.471
  33   1 H      0.041  0.959  0.000  0.000     2.430     2.438
  34   1 H      0.043  0.957  0.000  0.000     2.408     2.427
  35   1 H      0.051  0.949  0.000  0.000     2.309     2.376
  36   1 H      0.042  0.958  0.000  0.000     2.424     2.435
  37   1 H      0.047  0.953  0.000  0.000     2.351     2.398
  38   1 H      0.033  0.967  0.000  0.000     2.544     2.494
  39   7 N     -0.175  1.243  3.932  0.000    24.787     7.394
  40   6 C      0.017  1.064  2.919  0.000    20.289     6.414
  41   6 C      0.274  1.044  2.682  0.000    22.367     7.744
  42   8 O     -0.485  1.746  4.739  0.000    23.461     6.494
  43   6 C     -0.072  1.055  3.017  0.000    21.872     6.657
  44   6 C     -0.077  1.052  3.025  0.000    21.961     6.672
  45   6 C     -0.092  1.055  3.037  0.000    22.257     6.717
  46   6 C     -0.050  1.060  2.991  0.000    21.572     6.630
  47   7 N     -0.148  1.231  3.917  0.000    24.188     7.305
  48   1 H      0.220  0.780  0.000  0.000     1.010     1.574
  49   1 H      0.066  0.934  0.000  0.000     2.132     2.283
  50   1 H      0.068  0.932  0.000  0.000     2.110     2.272
  51   1 H      0.051  0.949  0.000  0.000     2.312     2.378
  52   1 H      0.068  0.932  0.000  0.000     2.110     2.272
  53   1 H      0.056  0.944  0.000  0.000     2.246     2.343
  54   1 H      0.080  0.920  0.000  0.000     1.982     2.202
  55   1 H      0.073  0.927  0.000  0.000     2.055     2.242
  56   1 H      0.116  0.884  0.000  0.000     1.644     2.005
  57   1 H      0.123  0.877  0.000  0.000     1.593     1.974
  58   1 H      0.304  0.696  0.000  0.000     0.701     1.311
  59   1 H      0.299  0.701  0.000  0.000     0.716     1.326
  60   1 H      0.296  0.704  0.000  0.000     0.726     1.335
  61   7 N     -0.168  1.246  3.922  0.000    24.630     7.371
  62   6 C      0.020  1.064  2.916  0.000    20.251     6.409
  63   6 C      0.272  1.045  2.683  0.000    22.400     7.751
  64   8 O     -0.472  1.748  4.724  0.000    23.165     6.453
  65   6 C     -0.055  1.053  3.003  0.000    21.569     6.612
  66   6 C     -0.092  1.065  3.027  0.000    22.248     6.716
  67   6 C      0.368  1.025  2.606  0.000    20.754     7.455
  68   8 O     -0.637  1.757  4.880  0.000    27.038     6.972
  69   8 O     -0.647  1.778  4.870  0.000    27.312     7.007
  70   1 H      0.206  0.794  0.000  0.000     1.078     1.627
  71   1 H      0.078  0.922  0.000  0.000     1.997     2.210
  72   1 H      0.042  0.958  0.000  0.000     2.419     2.432
  73   1 H      0.042  0.958  0.000  0.000     2.417     2.431
  74   1 H      0.011  0.989  0.000  0.000     2.875     2.651
  75   1 H      0.028  0.972  0.000  0.000     2.615     2.529
  76   7 N     -0.192  1.246  3.946  0.000    25.173     7.452
  77   6 C      0.019  1.062  2.918  0.000    20.259     6.409
  78   6 C      0.274  1.042  2.684  0.000    22.376     7.746
  79   8 O     -0.477  1.755  4.722  0.000    23.274     6.468
  80   6 C     -0.079  1.057  3.021  0.000    21.992     6.675
  81   6 C      0.012  1.079  2.909  0.000    27.755     8.642
  82   6 C     -0.036  1.079  2.957  0.000    28.898     8.816
  83   6 C     -0.042  1.081  2.961  0.000    29.051     8.839
  84   6 C     -0.030  1.080  2.950  0.000    28.747     8.792
  85   6 C     -0.033  1.081  2.952  0.000    28.824     8.804
  86   6 C     -0.035  1.080  2.954  0.000    28.862     8.810
  87   1 H      0.203  0.797  0.000  0.000     1.090     1.636
  88   1 H      0.085  0.915  0.000  0.000     1.928     2.171
  89   1 H      0.067  0.933  0.000  0.000     2.115     2.274
  90   1 H      0.062  0.938  0.000  0.000     2.175     2.306
  91   1 H      0.029  0.971  0.000  0.000     2.593     2.518
  92   1 H      0.045  0.955  0.000  0.000     2.387     2.416
  93   1 H      0.033  0.967  0.000  0.000     2.544     2.494
  94   1 H      0.043  0.957  0.000  0.000     2.415     2.430
  95   1 H      0.035  0.965  0.000  0.000     2.512     2.479
  96   7 N     -0.190  1.244  3.946  0.000    25.131     7.445
  97   6 C      0.011  1.065  2.924  0.000    20.390     6.430
  98   6 C      0.278  1.044  2.678  0.000    22.297     7.732
  99   8 O     -0.466  1.740  4.727  0.000    23.051     6.437
 100   6 C     -0.087  1.060  3.028  0.000    22.160     6.701
 101   6 C     -0.081  1.051  3.030  0.000    22.038     6.683
 102   6 C     -0.105  1.056  3.049  0.000    22.508     6.754
 103   6 C     -0.058  1.061  2.998  0.000    21.717     6.652
 104   7 N     -0.145  1.227  3.917  0.000    24.119     7.294
 105   1 H      0.207  0.793  0.000  0.000     1.073     1.623
 106   1 H      0.090  0.910  0.000  0.000     1.884     2.146
 107   1 H      0.078  0.922  0.000  0.000     1.995     2.209
 108   1 H      0.067  0.933  0.000  0.000     2.116     2.275
 109   1 H      0.061  0.939  0.000  0.000     2.191     2.315
 110   1 H      0.068  0.932  0.000  0.000     2.104     2.268
 111   1 H      0.089  0.911  0.000  0.000     1.884     2.147
 112   1 H      0.088  0.912  0.000  0.000     1.896     2.153
 113   1 H      0.119  0.881  0.000  0.000     1.619     1.990
 114   1 H      0.125  0.875  0.000  0.000     1.577     1.964
 115   1 H      0.306  0.694  0.000  0.000     0.695     1.306
 116   1 H      0.298  0.702  0.000  0.000     0.721     1.330
 117   1 H      0.296  0.704  0.000  0.000     0.725     1.333
 118   7 N     -0.177  1.244  3.933  0.000    24.837     7.402
 119   6 C      0.028  1.059  2.913  0.000    20.116     6.387
 120   6 C      0.274  1.043  2.682  0.000    22.362     7.744
 121   8 O     -0.488  1.743  4.745  0.000    23.529     6.503
 122   6 C     -0.061  1.054  3.007  0.000    21.673     6.628
 123   6 C     -0.091  1.061  3.030  0.000    22.229     6.713
 124   6 C      0.367  1.026  2.606  0.000    20.773     7.459
 125   8 O     -0.598  1.729  4.870  0.000    26.079     6.847
 126   8 O     -0.630  1.781  4.849  0.000    26.874     6.950
 127   1 H      0.189  0.811  0.000  0.000     1.162     1.688
 128   1 H      0.056  0.944  0.000  0.000     2.252     2.347
 129   1 H      0.078  0.922  0.000  0.000     1.998     2.210
 130   1 H      0.049  0.951  0.000  0.000     2.337     2.390
 131   1 H      0.042  0.958  0.000  0.000     2.417     2.431
 132   1 H      0.000  1.000  0.000  0.000     3.050     2.731
 133   7 N     -0.180  1.248  3.932  0.000    24.890     7.410
 134   6 C      0.025  1.064  2.912  0.000    20.168     6.395
 135   6 C      0.273  1.043  2.684  0.000    22.388     7.748
 136   8 O     -0.445  1.727  4.718  0.000    22.603     6.374
 137   6 C     -0.077  1.057  3.020  0.000    21.963     6.671
 138   6 C      0.010  1.080  2.911  0.000    27.799     8.648
 139   6 C     -0.039  1.079  2.959  0.000    28.963     8.826
 140   6 C     -0.041  1.082  2.960  0.000    29.028     8.836
 141   6 C     -0.027  1.081  2.947  0.000    28.685     8.783
 142   6 C     -0.031  1.080  2.951  0.000    28.775     8.797
 143   6 C     -0.029  1.080  2.949  0.000    28.726     8.789
 144   1 H      0.189  0.811  0.000  0.000     1.163     1.690
 145   1 H      0.084  0.916  0.000  0.000     1.938     2.177
 146   1 H      0.053  0.947  0.000  0.000     2.288     2.365
 147   1 H      0.075  0.925  0.000  0.000     2.034     2.231
 148   1 H      0.024  0.976  0.000  0.000     2.670     2.555
 149   1 H      0.045  0.955  0.000  0.000     2.386     2.416
 150   1 H      0.035  0.965  0.000  0.000     2.520     2.482
 151   1 H      0.039  0.961  0.000  0.000     2.469     2.457
 152   1 H      0.034  0.966  0.000  0.000     2.527     2.486
 153   7 N     -0.170  1.238  3.932  0.000    24.673     7.377
 154   6 C      0.023  1.064  2.913  0.000    20.195     6.400
 155   6 C      0.272  1.040  2.688  0.000    22.399     7.750
 156   8 O     -0.486  1.756  4.730  0.000    23.483     6.497
 157   6 C     -0.142  1.043  3.099  0.000    23.299     6.883
 158   1 H      0.171  0.829  0.000  0.000     1.265     1.762
 159   1 H      0.072  0.928  0.000  0.000     2.068     2.249
 160   1 H      0.077  0.923  0.000  0.000     2.012     2.218
 161   1 H      0.096  0.904  0.000  0.000     1.821     2.110
 162   1 H      0.062  0.938  0.000  0.000     2.176     2.307
 163   7 N     -0.160  1.232  3.928  0.000    24.454     7.344
 164   6 C      0.028  1.058  2.914  0.000    20.116     6.388
 165   6 C      0.197  1.087  2.716  0.000    23.804     7.991
 166   8 O     -0.370  1.754  4.616  0.000    21.085     6.156
 167   6 C     -0.075  1.062  3.013  0.000    21.936     6.667
 168   6 C     -0.009  1.057  2.952  0.000    20.703     6.472
 169   6 C     -0.119  1.043  3.077  0.000    22.842     6.815
 170   6 C     -0.116  1.039  3.077  0.000    22.783     6.806
 171   1 H      0.221  0.779  0.000  0.000     1.006     1.571
 172   1 H      0.090  0.910  0.000  0.000     1.876     2.142
 173   1 H      0.058  0.942  0.000  0.000     2.222     2.331
 174   1 H      0.069  0.931  0.000  0.000     2.100     2.266
 175   1 H      0.043  0.957  0.000  0.000     2.415     2.430
 176   1 H      0.050  0.950  0.000  0.000     2.314     2.379
 177   1 H      0.044  0.956  0.000  0.000     2.396     2.421
 178   1 H      0.043  0.957  0.000  0.000     2.407     2.426
 179   1 H      0.045  0.955  0.000  0.000     2.381     2.413
 180   1 H      0.043  0.957  0.000  0.000     2.405     2.425
 181   1 H      0.038  0.962  0.000  0.000     2.476     2.461
 182   7 N     -0.382  1.310  4.072  0.000    29.874     8.118
 183   6 C      0.035  1.058  2.907  0.000    19.997     6.370
 184   6 C      0.200  1.094  2.706  0.000    23.736     7.979
 185   8 O     -0.360  1.753  4.607  0.000    20.896     6.129
 186   6 C     -0.061  1.048  3.013  0.000    21.648     6.620
 187   6 C     -0.008  1.062  2.946  0.000    20.721     6.481
 188  16 S     -0.221  1.916  4.260  0.046   150.509    20.648
 189   6 C     -0.045  1.051  2.994  0.000    21.443     6.606
 190   1 H      0.166  0.834  0.000  0.000     1.299     1.785
 191   1 H      0.060  0.940  0.000  0.000     2.197     2.318
 192   1 H      0.057  0.943  0.000  0.000     2.239     2.340
 193   1 H      0.038  0.962  0.000  0.000     2.474     2.460
 194   1 H      0.047  0.953  0.000  0.000     2.353     2.399
 195   1 H      0.058  0.942  0.000  0.000     2.220     2.330
 196   1 H      0.044  0.956  0.000  0.000     2.396     2.420
 197   1 H      0.044  0.956  0.000  0.000     2.391     2.418
 198   1 H      0.055  0.945  0.000  0.000     2.254     2.348
 199   7 N     -0.388  1.324  4.064  0.000    30.044     8.141
 200   6 C      0.032  1.060  2.908  0.000    20.057     6.380
 201   6 C      0.201  1.090  2.709  0.000    23.717     7.976
 202   8 O     -0.381  1.769  4.612  0.000    21.307     6.189
 203   6 C     -0.073  1.059  3.014  0.000    21.891     6.661
 204   6 C     -0.081  1.053  3.027  0.000    22.040     6.684
 205   6 C     -0.092  1.054  3.038  0.000    22.259     6.717
 206   6 C     -0.043  1.057  2.986  0.000    21.443     6.610
 207   7 N     -0.161  1.238  3.923  0.000    24.471     7.347
 208   1 H      0.159  0.841  0.000  0.000     1.343     1.816
 209   1 H      0.067  0.933  0.000  0.000     2.114     2.274
 210   1 H      0.053  0.947  0.000  0.000     2.289     2.366
 211   1 H      0.050  0.950  0.000  0.000     2.324     2.384
 212   1 H      0.062  0.938  0.000  0.000     2.181     2.309
 213   1 H      0.064  0.936  0.000  0.000     2.157     2.297
 214   1 H      0.075  0.925  0.000  0.000     2.033     2.230
 215   1 H      0.064  0.936  0.000  0.000     2.149     2.293
 216   1 H      0.097  0.903  0.000  0.000     1.815     2.107
 217   1 H      0.122  0.878  0.000  0.000     1.599     1.978
 218   1 H      0.263  0.737  0.000  0.000     0.835     1.432
 219   1 H      0.285  0.715  0.000  0.000     0.760     1.366
 220   1 H      0.295  0.705  0.000  0.000     0.728     1.337
 221   1 H      0.075  0.925  0.000  0.000     2.033     2.230
 222   1 H      0.187  0.813  0.000  0.000     1.172     1.696
 223   1 H      0.083  0.917  0.000  0.000     1.946     2.182
 224   1 H      0.175  0.825  0.000  0.000     1.242     1.746
 225   1 H      0.078  0.922  0.000  0.000     1.996     2.209

 Mol. C6AA /au·bohr⁶  :     464280.319333
 Mol. C8AA /au·bohr⁸  :   10688868.274625
 Mol. α(0) /au        :       1028.583836

 
molecular dipole:
                 x           y           z       tot (Debye)
 q only:      133.339     -35.277     -90.831
   full:      132.891     -35.931     -90.001     418.057
molecular quadrupole (traceless):
                xx          xy          yy          xz          yz          zz
 q only:     7024.349   -3987.874   -6087.818   -8981.212    2280.093    -936.530
  q+dip:     6991.247   -4026.101   -5993.274   -8854.231    2312.651    -997.973
   full:     6987.875   -4026.789   -5990.488   -8857.502    2310.586    -997.388
speedup  2.00
cpu  time for grad    4.94 s
wall time for grad    2.47 s

SCC energy    :    -332.7279789
rep           :       4.1178240
ES            :       1.2451723
AES           :      -0.0701579
AXC           :       0.1352669
disp          :      -0.2429308
XB            :       0.0000000
fix           :       0.0000000
Gborn         :       0.0000000
Gsasa         :       0.0000000
Ghb           :       0.0000000
Gshift        :       0.0000000
Gsolv         :      -0.5220937     -327.62
Etot ala COSMO:    -332.7279789
grad norm     :       0.3405111
total E       :    -328.5962887
atomizationE  :      61.2583156    38440.17
(atE without considering molecular charge,
 total energy contains solvation terms)
H-L gap (eV)  :          1.6271

------------------------------------------------------------------------
 * finished run on 2019/05/11 at 08:36:43.227     
------------------------------------------------------------------------
 total:
 * wall-time:     0 d,  0 h,  0 min,  2.957 sec
 *  cpu-time:     0 d,  0 h,  0 min,  5.706 sec
 * ratio c/w:     1.930 speedup
 SCF:
 * wall-time:     0 d,  0 h,  0 min,  2.757 sec
 *  cpu-time:     0 d,  0 h,  0 min,  5.511 sec
 * ratio c/w:     1.999 speedup

