      -----------------------------------------------------------      
     |                   =====================                   |     
     |                           x T B                           |     
     |                   =====================                   |     
     |                         S. Grimme                         |     
     |          Mulliken Center for Theoretical Chemistry        |     
     |                    University of Bonn                     |     
     |                 Version 6.0.1 (SAW181210)                 |     
      -----------------------------------------------------------      

   This program is distributed in the hope that it will be useful,
   but WITHOUT ANY WARRANTY; without even the implied warranty of
   MERCHANTABILITY or FITNESS FOR A PARTICULAR PURPOSE.
   
   FOR NON-COMMERCIAL, ACADEMIA USE ONLY.
   
   Cite this work as:
   S. Grimme, C. Bannwarth, P. Shushkov, J. Comput. Theory Chem., 2017,
   13, 1989-2009.
   C. Bannwarth, S. Ehlert and S. Grimme., ChemRxiv, 2018, preprint.
   http://doi.org/10.26434/chemrxiv.7246238.v1
   
   for sTDA-xTB:
   S. Grimme and C. Bannwarth, J. Chem. Phys., 2016, 145, 054103.
   
   in the mass-spec context:
   V. Asgeirsson, C. Bauer and S. Grimme, Chem. Sci., 2017, 8, 4879.
   
   if GBSA is used:
   P. Shushkov, F. März and S. Grimme, unpublished.
   
   for ANC optimizer:
   S. Grimme, unpublished.
   Rational Function algorithm used in ANCopt:
   F. Eckert, P. Pulay, H.-J. Werner, J. Comput. Chem., 1997, 18, 1473.
   
   with help from (in alphabetical order)
   C. Bannwarth, F. Bohle, G. Brandenburg, E. Caldeweyher, M. Checinski,
   S. Dohm, S. Ehlert, S. Ehrlich, F. März, H. Neugebauer, J. Pisarek,
   P. Pracht, P. Shushkov, and S. Spicher.
   
 * started run on 2019/05/12 at 13:13:13.674     
========================================================================
 # omp threads = 2
========================================================================
number of atoms            : 432
number of electrons        : 1178
charge                     : 0
spin                       : .0
first test random number   : .3152

########################################################################
# WARNING! Please study the warnings concerning your input carefully
#  - Process number higher than OMP_NUM_THREADS, I hope you know what you are doing.
########################################################################

           ------------------------------------------------- 
          |                 G F N 2 - x T B                 |
          | Geometry, Frequencies, Noncovalent interactions |
          |            JCTC 2018 parametrisation            |
           ------------------------------------------------- 
 
      method parameters     
 k(s)        :  1.8500
 k(p)        :  2.2300
 k(d)        :  2.2300
 k(f)        :  2.0000
 kEN (H0ij)  : -2.0000
 D4 a1       :  0.5200
 D4 a2       :  5.0000
 D4 s6       :  1.0000
 D4 s8       :  2.7000
 D4 s9       :  5.0000
 alphaj      :  2.0000

 Solvent             : h2o
 Using internal parameter file: .param_gbsa2_h2o
 Gsolv ref. state (COSMO-RS): gsolv [1 M gas/solution]
 temperature (mdtemp)       :    298.150000000000     
 dielectric constant        :    80.2000000000000     
 rho                        :    1.00000000000000     
 mass                       :    18.0000000000000     
 surface tension            :    15.5689454083859     
 probe radius               :   0.975313790000000     
 vdW radii scaling          :    1.00000000000000     
 Gshift (Eh)                :   1.857443126794793E-003
 c1                         :    1.55243817000000     
 soset                      :   0.130326360000000     
 HB correction              :  T

            Z     q(EN)     CN     RAES       Cart. coordinates
     1  N   5.0   -0.21    3.24    1.97    39.15767    74.05200   143.46092
     2  C   4.0    0.03    4.30    4.20    37.11724    75.10005   141.97409
     3  C   4.0    0.15    3.39    3.08    36.76283    77.95250   142.38882
     4  O   6.0   -0.30    1.23    1.80    35.75205    79.28295   140.80748
     5  C   4.0   -0.04    4.34    4.26    34.72403    73.57924   142.57126
     6  C   4.0   -0.01    3.56    3.14    32.44466    74.33522   141.06415
     7  C   4.0   -0.03    3.48    3.10    30.66471    75.95564   142.10151
     8  C   4.0   -0.04    3.46    3.10    32.00483    73.30545   138.69157
     9  C   4.0   -0.04    3.37    3.07    28.46164    76.53073   140.82318
    10  C   4.0   -0.04    3.38    3.07    29.79012    73.86115   137.41443
    11  C   4.0   -0.04    3.37    3.07    28.01529    75.47070   138.47354
    12  H   1.0    0.08    1.02    1.43    38.69742    72.81068   144.88472
    13  H   1.0    0.05    1.05    1.44    37.57873    74.86401   139.96789
    14  H   1.0    0.04    1.03    1.43    35.17125    71.59508   142.22195
    15  H   1.0    0.04    1.03    1.43    34.32845    73.75586   144.59331
    16  H   1.0    0.05    1.03    1.43    30.96138    76.67720   143.98657
    17  H   1.0    0.05    1.03    1.43    33.36082    72.00449   137.90176
    18  H   1.0    0.05    1.03    1.43    27.07895    77.75049   141.68921
    19  H   1.0    0.05    1.03    1.43    29.40512    73.00215   135.60672
    20  H   1.0    0.05    1.03    1.43    26.28772    75.89491   137.47552
    21  N   5.0   -0.15    3.44    2.04    37.72519    78.90623   144.54270
    22  C   4.0    0.04    4.29    4.18    37.91248    81.61923   144.94115
    23  C   4.0    0.09    3.21    3.04    39.56969    82.90382   142.90154
    24  O   6.0   -0.29    1.14    1.80    39.11545    85.05413   142.21005
    25  C   4.0   -0.05    4.25    4.09    39.04730    82.20916   147.55010
    26  C   4.0   -0.05    4.15    3.91    37.18210    82.08244   149.76649
    27  C   4.0   -0.05    4.16    3.92    35.46230    84.40934   149.90788
    28  C   4.0   -0.03    4.11    3.83    33.86508    84.37908   152.31449
    29  N   5.0   -0.11    4.03    2.94    32.49222    86.79352   152.67438
    30  H   1.0    0.08    1.07    1.44    38.37244    77.74000   145.90750
    31  H   1.0    0.06    1.05    1.44    36.03609    82.47730   144.76210
    32  H   1.0    0.04    1.03    1.43    40.58622    80.87804   147.89166
    33  H   1.0    0.05    1.03    1.43    39.86866    84.09939   147.49098
    34  H   1.0    0.04    1.02    1.43    36.04905    80.36513   149.66978
    35  H   1.0    0.04    1.03    1.43    38.28194    81.97507   151.50641
    36  H   1.0    0.04    1.03    1.43    36.65353    86.09133   149.91643
    37  H   1.0    0.05    1.03    1.43    34.21311    84.46723   148.27300
    38  H   1.0    0.05    1.02    1.43    32.47956    82.85410   152.24369
    39  H   1.0    0.05    1.02    1.43    35.05375    84.07279   153.96952
    40  H   1.0    0.11    1.12    1.45    31.08861    86.67524   154.18391
    41  H   1.0    0.06    1.02    1.43    33.69467    88.24743   153.09890
    42  H   1.0    0.08    1.03    1.43    31.41737    87.26437   151.12874
    43  N   5.0   -0.20    3.21    1.96    37.78884    82.85757   134.75080
    44  C   4.0    0.03    4.28    4.15    35.71875    84.47490   133.97353
    45  C   4.0    0.16    3.53    3.13    36.05679    87.18382   134.95648
    46  O   6.0   -0.30    1.44    1.80    35.32794    87.74489   137.09310
    47  C   4.0   -0.04    4.33    4.25    33.25285    83.53419   135.21650
    48  C   4.0   -0.05    4.18    3.97    32.41266    80.86130   134.54620
    49  C   4.0   -0.05    4.18    3.95    31.05861    80.69375   132.00311
    50  C   4.0   -0.04    4.12    3.85    30.73952    77.94510   131.21108
    51  N   5.0   -0.12    4.01    2.89    33.02030    77.11928   129.74873
    52  H   1.0    0.11    1.03    1.43    38.52853    83.21367   136.47034
    53  H   1.0    0.04    1.04    1.44    35.62221    84.44351   131.91090
    54  H   1.0    0.06    1.04    1.43    33.59692    83.59431   137.24531
    55  H   1.0    0.05    1.03    1.43    31.77619    84.88563   134.72949
    56  H   1.0    0.04    1.03    1.43    34.04259    79.61413   134.61079
    57  H   1.0    0.04    1.03    1.43    31.13087    80.20644   136.02267
    58  H   1.0    0.04    1.03    1.43    29.20768    81.58145   132.14525
    59  H   1.0    0.04    1.03    1.43    32.11444    81.71917   130.56346
    60  H   1.0    0.04    1.03    1.43    30.53674    76.77902   132.89672
    61  H   1.0    0.05    1.02    1.43    29.04967    77.70509   130.05995
    62  H   1.0    0.05    1.02    1.43    32.82881    77.65756   127.88979
    63  H   1.0    0.05    1.02    1.43    34.63053    78.03097   130.44106
    64  H   1.0    0.05    1.02    1.43    33.20947    75.18741   129.82044
    65  N   5.0   -0.13    3.47    2.06    36.90732    89.00237   133.42364
    66  C   4.0    0.04    4.44    4.44    36.67255    91.56881   134.38108
    67  C   4.0    0.16    3.61    3.17    33.94026    91.77810   135.35065
    68  O   6.0   -0.31    1.44    1.80    32.22639    90.82126   134.11740
    69  C   4.0    0.03    4.14    3.88    37.12862    93.52562   132.29318
    70  O   6.0   -0.25    2.06    1.83    39.60727    93.21625   131.39143
    71  H   1.0    0.08    1.05    1.44    37.64601    88.71463   131.69270
    72  H   1.0    0.05    1.05    1.44    38.02544    91.87727   135.91806
    73  H   1.0    0.04    1.01    1.43    35.75075    93.25285   130.76491
    74  H   1.0    0.04    1.01    1.43    36.84794    95.41296   133.10672
    75  H   1.0    0.12    1.02    1.43    40.04503    94.60772   130.30112
    76  N   5.0   -0.15    3.42    2.03    33.48942    93.15811   137.41953
    77  C   4.0    0.03    4.41    4.39    30.94447    93.35667   138.47346
    78  C   4.0    0.16    3.56    3.15    28.95873    93.26100   136.37065
    79  O   6.0   -0.32    1.34    1.80    27.28635    91.65904   136.38312
    80  C   4.0   -0.05    4.34    4.27    30.70233    95.79470   140.03142
    81  C   4.0   -0.02    4.19    3.98    27.97049    96.61401   140.58562
    82  C   4.0   -0.07    4.11    3.82    26.44470    94.55860   141.90985
    83  C   4.0   -0.07    4.11    3.82    28.01601    98.98922   142.22867
    84  H   1.0    0.08    1.06    1.44    34.91919    93.81045   138.50243
    85  H   1.0    0.05    1.05    1.44    30.56800    91.71382   139.68294
    86  H   1.0    0.04    1.03    1.43    31.66573    95.52916   141.83412
    87  H   1.0    0.04    1.03    1.43    31.63357    97.34468   139.03867
    88  H   1.0    0.05    1.05    1.44    27.01339    97.08889   138.81266
    89  H   1.0    0.06    1.00    1.43    24.53776    95.23418   142.29129
    90  H   1.0    0.05    1.00    1.43    26.30387    92.85571   140.77057
    91  H   1.0    0.04    1.00    1.43    27.29808    94.08230   143.71939
    92  H   1.0    0.06    1.00    1.43    26.11061    99.67944   142.57636
    93  H   1.0    0.05    1.00    1.43    28.86729    98.59977   144.05909
    94  H   1.0    0.05    1.00    1.43    29.06230   100.52047   141.34130
    95  N   5.0   -0.14    3.50    2.08    29.13752    95.04959   134.59463
    96  C   4.0    0.03    4.32    4.24    27.30043    95.38501   132.58135
    97  C   4.0    0.16    3.47    3.10    26.47497    92.84285   131.43877
    98  O   6.0   -0.30    1.24    1.80    24.23268    92.33524   131.10748
    99  C   4.0   -0.07    4.12    3.84    28.46478    97.03443   130.51916
   100  H   1.0    0.07    1.07    1.44    30.42503    96.44335   134.79859
   101  H   1.0    0.05    1.05    1.44    25.58809    96.29384   133.32731
   102  H   1.0    0.05    1.00    1.43    27.12396    97.26395   128.97985
   103  H   1.0    0.04    1.00    1.43    28.89785    98.89733   131.27085
   104  H   1.0    0.04    1.00    1.43    30.17652    96.16945   129.78519
   105  N   5.0   -0.14    3.52    2.09    28.37726    91.37120   130.66956
   106  C   4.0    0.03    4.48    4.50    27.95604    89.05686   129.25062
   107  C   4.0    0.16    3.47    3.10    26.03397    87.37126   130.61573
   108  O   6.0   -0.30    1.22    1.80    24.24597    86.36795   129.55617
   109  C   4.0   -0.02    4.32    4.23    30.44604    87.59266   128.80922
   110  C   4.0   -0.05    4.18    3.96    32.66100    89.25036   127.91406
   111  C   4.0   -0.07    4.12    3.85    29.96760    85.43313   126.95281
   112  C   4.0   -0.08    4.01    3.63    32.27488    90.60272   125.40123
   113  H   1.0    0.11    1.12    1.45    30.09211    91.57953   131.50539
   114  H   1.0    0.05    1.05    1.44    27.09080    89.57204   127.43897
   115  H   1.0    0.05    1.06    1.44    31.00359    86.81278   130.64366
   116  H   1.0    0.05    1.03    1.43    33.07234    90.64493   129.37110
   117  H   1.0    0.04    1.03    1.43    34.31017    88.02442   127.75066
   118  H   1.0    0.04    1.00    1.43    31.72581    84.45041   126.56441
   119  H   1.0    0.05    1.00    1.43    28.57904    84.12245   127.70492
   120  H   1.0    0.05    1.00    1.43    29.22868    86.16477   125.18244
   121  H   1.0    0.04    1.00    1.43    33.90995    91.77379   124.97858
   122  H   1.0    0.04    1.00    1.43    32.04326    89.26591   123.86164
   123  H   1.0    0.04    1.00    1.43    30.61811    91.81795   125.45797
   124  N   5.0   -0.15    3.49    2.07    26.59559    86.91768   133.06367
   125  C   4.0    0.03    4.42    4.41    24.97099    85.30716   134.56488
   126  C   4.0    0.15    3.47    3.10    22.56985    86.61892   135.47468
   127  O   6.0   -0.32    1.32    1.80    20.61042    85.42959   135.83358
   128  C   4.0   -0.05    4.25    4.10    26.40793    84.13917   136.79875
   129  C   4.0   -0.04    4.19    3.97    26.90786    85.93553   139.02476
   130  C   4.0   -0.01    4.21    4.03    29.62592    85.68111   139.96843
   131  N   5.0   -0.14    3.42    2.03    29.89591    86.86128   142.42165
   132  C   4.0    0.10    3.35    3.06    32.07132    87.41712   143.52498
   133  N   5.0   -0.17    3.27    1.97    34.26592    87.31431   142.32521
   134  N   5.0   -0.19    3.25    1.97    32.02339    87.98800   146.01111
   135  H   1.0    0.10    1.07    1.44    27.82097    88.06711   133.97891
   136  H   1.0    0.06    1.06    1.44    24.34526    83.77761   133.30874
   137  H   1.0    0.04    1.03    1.43    25.30858    82.52226   137.43893
   138  H   1.0    0.04    1.04    1.43    28.19473    83.43597   136.06964
   139  H   1.0    0.06    1.04    1.43    26.58717    87.89251   138.47764
   140  H   1.0    0.05    1.02    1.43    25.60545    85.52769   140.57272
   141  H   1.0    0.05    1.02    1.43    30.13180    83.67788   140.11840
   142  H   1.0    0.06    1.03    1.43    30.88841    86.62258   138.63531
   143  H   1.0    0.11    1.12    1.45    28.33448    86.90521   143.56097
   144  H   1.0    0.12    1.06    1.44    34.41764    87.09010   140.42588
   145  H   1.0    0.11    1.04    1.43    35.90544    87.64527   143.24060
   146  H   1.0    0.11    1.05    1.44    30.28676    88.13700   146.80484
   147  H   1.0    0.08    1.03    1.43    33.41015    89.08037   146.72790
   148  N   5.0   -0.14    3.56    2.12    22.75229    89.09861   135.87074
   149  C   4.0    0.04    4.46    4.47    20.61398    90.57539   136.71027
   150  C   4.0    0.16    3.50    3.12    18.33088    89.94637   135.04263
   151  O   6.0   -0.31    1.25    1.80    16.20946    89.59464   135.91371
   152  C   4.0   -0.04    4.29    4.18    21.32570    93.36973   136.55507
   153  C   4.0   -0.03    4.23    4.06    19.21602    95.11567   137.46313
   154  C   4.0    0.15    3.24    3.04    18.57089    94.55779   140.20382
   155  O   6.0   -0.29    1.20    1.80    19.75648    95.45697   141.96856
   156  N   5.0   -0.19    3.19    1.95    16.62146    92.96001   140.52124
   157  H   1.0    0.12    1.12    1.45    24.39772    90.04513   135.60634
   158  H   1.0    0.05    1.05    1.44    20.12702    90.06201   138.66218
   159  H   1.0    0.05    1.03    1.43    22.99407    93.67777   137.72512
   160  H   1.0    0.06    1.03    1.43    21.78733    93.81814   134.59371
   161  H   1.0    0.05    1.03    1.43    19.86272    97.06886   137.35564
   162  H   1.0    0.05    1.03    1.43    17.54096    94.90127   136.28230
   163  H   1.0    0.10    1.04    1.43    15.80999    92.06878   139.03980
   164  H   1.0    0.10    1.03    1.43    16.04436    92.55537   142.28945
   165  N   5.0   -0.13    3.54    2.10    18.89844    89.77887   132.59389
   166  C   4.0    0.04    4.42    4.41    17.05953    89.10221   130.67893
   167  C   4.0    0.16    3.46    3.10    15.82429    86.58023   131.39218
   168  O   6.0   -0.31    1.29    1.80    13.53054    86.34235   131.64201
   169  C   4.0   -0.03    4.28    4.16    18.39312    88.92479   128.11930
   170  C   4.0   -0.03    4.17    3.94    16.56663    88.34812   125.96329
   171  C   4.0    0.25    3.09    3.02    15.20832    90.75866   124.91385
   172  O   6.0   -0.28    1.18    1.80    15.00503    92.61125   126.35626
   173  O   6.0   -0.27    1.16    1.80    14.43544    90.60115   122.69172
   174  H   1.0    0.10    1.09    1.44    20.62499    90.33181   131.97679
   175  H   1.0    0.07    1.05    1.44    15.56297    90.53515   130.55914
   176  H   1.0    0.07    1.03    1.43    19.28051    90.75340   127.75073
   177  H   1.0    0.06    1.03    1.43    19.88220    87.49584   128.21016
   178  H   1.0    0.06    1.02    1.43    17.54428    87.47422   124.37433
   179  H   1.0    0.06    1.03    1.43    15.07602    87.06017   126.58455
   180  N   5.0   -0.14    3.53    2.10    17.44570    84.67023   131.66756
   181  C   4.0    0.03    4.40    4.38    16.71986    82.04313   132.03563
   182  C   4.0    0.16    3.46    3.10    14.92279    81.76264   134.28209
   183  O   6.0   -0.31    1.25    1.80    13.11593    80.31705   134.24478
   184  C   4.0   -0.04    4.27    4.15    19.10750    80.43939   132.37848
   185  C   4.0   -0.03    4.16    3.92    18.63287    77.63282   131.97321
   186  C   4.0    0.25    3.08    3.02    21.10692    76.12894   131.35565
   187  O   6.0   -0.32    1.26    1.80    20.75731    73.87393   130.72078
   188  O   6.0   -0.30    1.18    1.80    23.16970    77.21220   131.50945
   189  H   1.0    0.10    1.08    1.44    19.30986    85.02438   131.46837
   190  H   1.0    0.05    1.05    1.44    15.68120    81.40962   130.34939
   191  H   1.0    0.06    1.03    1.43    20.49630    81.06871   130.98123
   192  H   1.0    0.06    1.03    1.43    19.89962    80.78917   134.24902
   193  H   1.0    0.05    1.02    1.43    17.72907    76.80200   133.63037
   194  H   1.0    0.05    1.03    1.43    17.35954    77.34610   130.37285
   195  N   5.0   -0.14    3.53    2.10    15.56769    83.15942   136.27688
   196  C   4.0    0.03    4.51    4.55    14.01270    83.32538   138.51708
   197  C   4.0    0.16    3.53    3.13    11.29607    83.99913   137.78860
   198  O   6.0   -0.31    1.26    1.80     9.48512    82.67762   138.35247
   199  C   4.0   -0.02    4.30    4.19    15.05327    85.34742   140.31003
   200  C   4.0   -0.07    4.14    3.87    13.25419    85.68405   142.54310
   201  C   4.0   -0.07    4.11    3.83    17.70148    84.64636   141.20866
   202  H   1.0    0.11    1.11    1.45    17.08644    84.31404   136.13959
   203  H   1.0    0.05    1.05    1.44    13.96499    81.47704   139.45868
   204  H   1.0    0.06    1.06    1.44    15.16841    87.12158   139.25555
   205  H   1.0    0.04    1.00    1.43    13.74476    87.37801   143.59647
   206  H   1.0    0.05    1.01    1.43    11.31459    85.88814   141.90455
   207  H   1.0    0.04    1.00    1.43    13.36707    84.06143   143.79926
   208  H   1.0    0.04    1.00    1.43    18.46524    86.14177   142.39716
   209  H   1.0    0.05    1.00    1.43    17.67298    82.91374   142.31371
   210  H   1.0    0.06    1.01    1.43    18.98292    84.40590   139.62519
   211  N   5.0   -0.14    3.52    2.09    11.05653    86.21561   136.59903
   212  C   4.0    0.04    4.35    4.30     8.58936    87.12337   135.82891
   213  C   4.0    0.17    3.47    3.10     7.24806    85.13178   134.20742
   214  O   6.0   -0.30    1.28    1.80     5.06953    84.48592   134.63808
   215  C   4.0   -0.06    4.11    3.82     8.84192    89.60714   134.40303
   216  H   1.0    0.11    1.08    1.44    12.58506    87.17972   135.97910
   217  H   1.0    0.05    1.05    1.44     7.41487    87.38731   137.52073
   218  H   1.0    0.05    1.00    1.43     7.00181    90.22915   133.73777
   219  H   1.0    0.05    1.00    1.43     9.62405    91.05180   135.63491
   220  H   1.0    0.07    1.00    1.43    10.09022    89.37591   132.78583
   221  N   5.0   -0.13    3.41    2.03     8.64817    84.18331   132.33510
   222  C   4.0    0.02    4.25    4.09     7.61007    82.43944   130.50441
   223  C   4.0    0.16    3.38    3.07     6.26939    80.20819   131.75814
   224  O   6.0   -0.29    1.23    1.80     4.16783    79.51182   131.06771
   225  H   1.0    0.12    1.11    1.44    10.40548    84.87609   132.02680
   226  H   1.0    0.06    1.02    1.43     6.24395    83.39291   129.27293
   227  H   1.0    0.05    1.03    1.43     9.16112    81.71818   129.35324
   228  N   5.0   -0.14    3.48    2.07     7.58202    79.00803   133.54926
   229  C   4.0    0.04    4.52    4.56     6.59516    76.67896   134.61265
   230  C   4.0    0.16    3.47    3.10     4.45878    77.20781   136.48963
   231  O   6.0   -0.28    1.22    1.80     2.60776    75.82265   136.58247
   232  C   4.0   -0.02    4.32    4.23     8.71127    75.01417   135.71829
   233  C   4.0   -0.05    4.18    3.96     7.96265    72.21359   135.63789
   234  C   4.0   -0.07    4.14    3.87     9.38492    75.79755   138.41027
   235  C   4.0   -0.07    4.01    3.63     7.98119    71.09100   132.98573
   236  H   1.0    0.11    1.08    1.44     9.35283    79.57169   134.01056
   237  H   1.0    0.06    1.07    1.44     5.68496    75.67372   133.04233
   238  H   1.0    0.05    1.06    1.44    10.37774    75.29939   134.52180
   239  H   1.0    0.04    1.03    1.43     9.32551    71.17754   136.78712
   240  H   1.0    0.06    1.03    1.43     6.09475    72.02125   136.48926
   241  H   1.0    0.04    1.00    1.43    11.01773    74.72320   139.04167
   242  H   1.0    0.06    1.00    1.43     9.85966    77.79544   138.48580
   243  H   1.0    0.05    1.00    1.43     7.80930    75.43872   139.67907
   244  H   1.0    0.05    1.00    1.43     7.55469    69.08606   133.07787
   245  H   1.0    0.05    1.00    1.43     6.59636    72.01661   131.78385
   246  H   1.0    0.04    1.00    1.43     9.83742    71.33954   132.13880
   247  N   5.0   -0.14    3.51    2.09     4.78508    79.22084   137.97964
   248  C   4.0    0.04    4.41    4.40     2.81140    80.05614   139.67522
   249  C   4.0    0.16    3.45    3.10     0.44136    80.86853   138.23060
   250  O   6.0   -0.28    1.23    1.80    -1.61670    80.89845   139.28552
   251  C   4.0   -0.04    4.25    4.10     3.69611    82.23274   141.37783
   252  C   4.0   -0.05    4.16    3.93     4.49713    81.44347   144.04492
   253  C   4.0   -0.01    4.19    3.99     2.28465    80.51286   145.66283
   254  N   5.0   -0.14    3.40    2.02     2.95568    80.67266   148.32552
   255  C   4.0    0.10    3.33    3.06     1.40776    80.24342   150.25403
   256  N   5.0   -0.18    3.25    1.97    -1.00131    79.65340   149.91841
   257  N   5.0   -0.18    3.24    1.97     2.31242    80.39494   152.61295
   258  H   1.0    0.11    1.09    1.44     6.31384    80.35017   137.76327
   259  H   1.0    0.06    1.06    1.44     2.20529    78.42758   140.80968
   260  H   1.0    0.06    1.03    1.43     5.28156    83.15568   140.43585
   261  H   1.0    0.05    1.04    1.43     2.16880    83.61139   141.52105
   262  H   1.0    0.04    1.02    1.43     5.95063    79.99082   143.91652
   263  H   1.0    0.04    1.03    1.43     5.31269    83.11381   144.93759
   264  H   1.0    0.05    1.02    1.43     0.62085    81.68219   145.28747
   265  H   1.0    0.05    1.02    1.43     1.81133    78.55360   145.20365
   266  H   1.0    0.08    1.07    1.44     4.77032    81.12119   148.71534
   267  H   1.0    0.09    1.02    1.43    -1.82149    79.49104   148.19209
   268  H   1.0    0.09    1.03    1.43    -2.13094    79.41150   151.42676
   269  H   1.0    0.09    1.03    1.43     4.10255    80.95273   152.96008
   270  H   1.0    0.09    1.03    1.43     1.13162    80.30201   154.09952
   271  N   5.0   -0.12    3.50    2.08     0.74470    81.48730   135.80039
   272  C   4.0    0.05    4.25    4.10    -1.43557    82.14072   134.27737
   273  C   4.0    0.10    3.22    3.04    -2.90549    79.70154   133.69497
   274  O   6.0   -0.26    1.11    1.80    -5.13055    79.43356   134.26506
   275  C   4.0   -0.06    4.09    3.79    -0.62532    83.48737   131.86662
   276  H   1.0    0.12    1.10    1.44     2.47120    81.90584   135.09515
   277  H   1.0    0.07    1.05    1.44    -2.71272    83.34115   135.39038
   278  H   1.0    0.05    1.00    1.43    -2.26063    83.87008   130.68581
   279  H   1.0    0.06    1.00    1.43     0.28545    85.26537   132.34559
   280  H   1.0    0.07    1.00    1.43     0.71559    82.33431   130.82105
   281  N   5.0   -0.15    3.43    2.04    10.18226    73.32920   149.13368
   282  C   4.0    0.02    4.37    4.33    12.43740    72.54338   147.75577
   283  C   4.0    0.08    3.19    3.03    14.76153    72.48209   149.50219
   284  O   6.0   -0.29    1.12    1.80    15.60055    74.38253   150.54205
   285  C   4.0   -0.04    4.34    4.27    12.67343    74.56871   145.70823
   286  C   4.0   -0.03    4.27    4.14    11.75057    76.94998   147.05374
   287  C   4.0    0.00    4.24    4.07     9.62250    75.99938   148.77550
   288  H   1.0    0.03    1.04    1.44    12.13630    70.63966   147.01550
   289  H   1.0    0.04    1.02    1.43    14.59830    74.77280   145.03205
   290  H   1.0    0.03    1.02    1.43    11.41021    74.10531   144.14771
   291  H   1.0    0.07    1.03    1.43    13.25415    77.75574   148.20314
   292  H   1.0    0.04    1.02    1.43    11.09303    78.38860   145.74323
   293  H   1.0    0.05    1.02    1.43     9.61978    77.00947   150.57508
   294  H   1.0    0.04    1.02    1.43     7.77749    76.20344   147.86200
   295  N   5.0   -0.19    3.26    1.97    23.89324    64.19366   141.75127
   296  C   4.0    0.03    4.21    4.01    21.62075    65.66695   142.18258
   297  C   4.0    0.08    3.20    3.04    19.40418    63.82775   142.44632
   298  O   6.0   -0.29    1.14    1.80    19.18896    62.09162   140.92917
   299  C   4.0   -0.05    4.24    4.08    21.19811    67.57863   140.00212
   300  C   4.0   -0.05    4.20    4.00    22.09094    66.59671   137.43670
   301  C   4.0   -0.05    4.16    3.92    21.22927    68.33139   135.28272
   302  C   4.0   -0.04    4.10    3.81    21.99936    67.28985   132.68952
   303  N   5.0   -0.12    4.02    2.91    20.77514    68.73414   130.61065
   304  H   1.0    0.10    1.03    1.43    23.78874    62.84903   140.39781
   305  H   1.0    0.04    1.05    1.44    21.85471    66.69502   143.95682
   306  H   1.0    0.04    1.03    1.43    19.19089    68.04883   139.94122
   307  H   1.0    0.04    1.02    1.43    22.20704    69.31645   140.46170
   308  H   1.0    0.04    1.03    1.43    24.14791    66.49516   137.44424
   309  H   1.0    0.05    1.03    1.43    21.33116    64.70015   137.16436
   310  H   1.0    0.04    1.04    1.43    19.18442    68.55381   135.38425
   311  H   1.0    0.05    1.03    1.43    22.04793    70.20292   135.54325
   312  H   1.0    0.04    1.02    1.43    24.04133    67.46138   132.47149
   313  H   1.0    0.04    1.02    1.43    21.48593    65.30013   132.53745
   314  H   1.0    0.06    1.02    1.43    21.43466    68.19923   128.86596
   315  H   1.0    0.06    1.02    1.43    18.83987    68.62240   130.67105
   316  H   1.0    0.10    1.08    1.44    21.14546    70.69671   130.78598
   317  N   5.0   -0.17    3.24    1.96    20.50714    86.06213   157.39666
   318  C   4.0    0.04    4.30    4.21    22.56024    87.67193   156.58359
   319  C   4.0    0.18    3.42    3.08    21.57328    90.19475   155.51151
   320  O   6.0   -0.24    1.23    1.80    19.35545    90.82255   155.58694
   321  C   4.0   -0.02    4.30    4.19    24.12041    86.24340   154.61736
   322  C   4.0    0.24    3.17    3.03    26.82567    87.21627   154.15303
   323  O   6.0   -0.31    1.32    1.80    28.50903    86.47255   155.66298
   324  O   6.0   -0.30    1.21    1.80    27.27363    88.54675   152.26455
   325  H   1.0    0.13    1.07    1.44    19.88429    84.82974   156.07757
   326  H   1.0    0.06    1.05    1.44    23.71095    88.14073   158.25714
   327  H   1.0    0.06    1.04    1.43    24.30206    84.29454   155.27198
   328  H   1.0    0.09    1.03    1.43    23.08790    86.25063   152.83110
   329  N   5.0   -0.13    3.58    2.14    23.42690    91.61697   154.52340
   330  C   4.0    0.05    4.41    4.39    23.02764    94.03449   153.29846
   331  C   4.0    0.17    3.48    3.11    21.42847    93.53238   150.94711
   332  O   6.0   -0.26    1.21    1.80    19.49396    94.68520   150.45998
   333  C   4.0   -0.04    4.24    4.07    25.51307    95.35039   152.53503
   334  C   4.0   -0.03    4.18    3.96    27.79510    94.68519   154.17477
   335  C   4.0    0.25    3.09    3.02    27.39374    94.85543   157.10912
   336  O   6.0   -0.27    1.16    1.80    25.77951    96.35297   157.94295
   337  O   6.0   -0.26    1.16    1.80    28.81960    93.46965   158.38423
   338  H   1.0    0.10    1.13    1.45    25.22154    91.00925   154.62990
   339  H   1.0    0.08    1.05    1.44    21.94578    95.24808   154.58583
   340  H   1.0    0.05    1.03    1.43    25.95538    94.85413   150.58039
   341  H   1.0    0.06    1.03    1.43    25.17342    97.37948   152.63287
   342  H   1.0    0.07    1.03    1.43    28.45703    92.77358   153.77057
   343  H   1.0    0.05    1.03    1.43    29.33416    95.98799   153.73685
   344  N   5.0   -0.13    3.54    2.11    22.46097    91.78113   149.40293
   345  C   4.0    0.04    4.43    4.42    20.88699    90.51525   147.55085
   346  C   4.0    0.17    3.49    3.11    19.18584    88.63791   148.96894
   347  O   6.0   -0.26    1.32    1.80    19.39730    88.24611   151.22947
   348  C   4.0   -0.04    4.25    4.10    22.52212    89.27693   145.54033
   349  C   4.0    0.25    3.14    3.03    24.05602    87.04579   146.71056
   350  O   6.0   -0.30    1.26    1.80    22.83412    85.40198   147.86550
   351  O   6.0   -0.32    1.25    1.80    26.37403    87.06618   146.32223
   352  H   1.0    0.10    1.09    1.44    23.84303    90.70056   150.17952
   353  H   1.0    0.06    1.06    1.44    19.67150    91.98421   146.73309
   354  H   1.0    0.04    1.02    1.43    21.34286    88.52053   144.02780
   355  H   1.0    0.05    1.03    1.43    23.81092    90.67777   144.75399
   356  N   5.0   -0.15    3.37    2.01    17.26733    87.63008   147.61819
   357  C   4.0    0.02    4.27    4.14    15.32686    86.22421   148.90492
   358  C   4.0    0.16    3.35    3.06    15.90896    83.45936   149.41077
   359  O   6.0   -0.29    1.24    1.80    14.24301    82.09398   150.29059
   360  H   1.0    0.07    1.06    1.44    17.18066    87.81260   145.72624
   361  H   1.0    0.08    1.04    1.43    15.08230    87.08477   150.77694
   362  H   1.0    0.04    1.03    1.43    13.54150    86.37096   147.88492
   363  N   5.0   -0.13    3.49    2.07    18.19192    82.58738   148.81157
   364  C   4.0    0.05    4.36    4.30    18.91331    80.10976   149.72323
   365  C   4.0    0.10    3.23    3.04    19.31238    80.17298   152.59422
   366  O   6.0   -0.28    1.18    1.80    19.81523    82.11575   153.74250
   367  C   4.0   -0.03    4.33    4.26    21.39535    79.28017   148.49213
   368  C   4.0   -0.01    3.55    3.14    21.13734    78.65493   145.72839
   369  C   4.0   -0.04    3.47    3.10    19.51349    76.75556   144.92269
   370  C   4.0   -0.04    3.46    3.10    22.61478    79.88961   143.94611
   371  C   4.0   -0.05    3.38    3.07    19.37089    76.10649   142.39106
   372  C   4.0   -0.04    3.38    3.07    22.45484    79.25311   141.41410
   373  C   4.0   -0.04    3.37    3.07    20.83856    77.35587   140.62562
   374  H   1.0    0.12    1.10    1.44    19.63523    83.81202   148.45655
   375  H   1.0    0.06    1.05    1.44    17.37786    78.78715   149.30151
   376  H   1.0    0.07    1.04    1.43    22.74858    80.81546   148.72992
   377  H   1.0    0.05    1.03    1.43    22.10833    77.62380   149.50272
   378  H   1.0    0.05    1.03    1.43    18.39745    75.75343   146.30898
   379  H   1.0    0.06    1.03    1.43    23.87967    81.37181   144.55836
   380  H   1.0    0.04    1.03    1.43    18.13908    74.60207   141.78894
   381  H   1.0    0.05    1.03    1.43    23.58863    80.25038   140.04337
   382  H   1.0    0.05    1.03    1.43    20.72279    76.87444   138.64645
   383  N   5.0   -0.12    4.09    3.12    16.76808    62.05228   132.28998
   384  C   4.0    0.00    4.22    4.04    15.89431    63.26771   134.70528
   385  C   4.0    0.08    3.20    3.04    14.32033    61.20377   136.10465
   386  O   6.0   -0.29    1.14    1.80    12.15856    60.79780   135.43250
   387  C   4.0   -0.03    4.32    4.23    14.19293    65.53642   134.07039
   388  C   4.0   -0.02    3.55    3.14    14.32195    67.53194   136.09560
   389  C   4.0   -0.04    3.48    3.11    13.91076    66.87866   138.60310
   390  C   4.0   -0.05    3.47    3.10    14.92217    70.02567   135.50924
   391  C   4.0   -0.05    3.38    3.07    14.09909    68.68857   140.47857
   392  C   4.0   -0.05    3.37    3.07    15.13613    71.83529   137.38827
   393  C   4.0   -0.05    3.38    3.07    14.71730    71.16053   139.87709
   394  H   1.0    0.05    1.02    1.43    17.65313    63.32612   131.10839
   395  H   1.0    0.06    1.02    1.43    17.97085    60.55411   132.64733
   396  H   1.0    0.07    1.02    1.43    15.18766    61.36895   131.35248
   397  H   1.0    0.04    1.04    1.43    17.52107    63.84427   135.83450
   398  H   1.0    0.04    1.03    1.43    14.70872    66.38791   132.26884
   399  H   1.0    0.06    1.04    1.43    12.24223    64.86461   133.91929
   400  H   1.0    0.06    1.03    1.43    13.42092    64.96257   139.09906
   401  H   1.0    0.05    1.03    1.43    15.20690    70.61035   133.57446
   402  H   1.0    0.05    1.03    1.43    13.78875    68.19857   142.43368
   403  H   1.0    0.05    1.03    1.43    15.60761    73.76361   136.90921
   404  H   1.0    0.04    1.03    1.43    14.83391    72.55027   141.36150
   405  N   5.0   -0.20    3.25    1.97    23.42690   110.43093   147.45700
   406  C   4.0    0.04    4.21    4.02    23.02764   108.01340   148.68195
   407  C   4.0    0.09    3.22    3.04    21.42847   108.51551   151.03330
   408  O   6.0   -0.26    1.11    1.80    19.49396   107.36270   151.52043
   409  C   4.0   -0.04    4.22    4.04    25.51307   106.69750   149.44538
   410  C   4.0   -0.03    4.18    3.96    27.79510   107.36271   147.80564
   411  C   4.0    0.25    3.09    3.02    27.39374   107.19247   144.87129
   412  O   6.0   -0.29    1.17    1.80    25.77951   105.69493   144.03746
   413  O   6.0   -0.28    1.16    1.80    28.81960   108.57825   143.59618
   414  H   1.0    0.09    1.04    1.44    25.22154   111.03864   147.35051
   415  H   1.0    0.07    1.05    1.44    21.94578   106.79981   147.39458
   416  H   1.0    0.05    1.03    1.43    25.95538   107.19376   151.40002
   417  H   1.0    0.06    1.03    1.43    25.17342   104.66842   149.34754
   418  H   1.0    0.05    1.02    1.43    28.45703   109.27432   148.20983
   419  H   1.0    0.05    1.03    1.43    29.33416   106.05991   148.24356
   420  H   1.0    0.09    1.07    1.44    40.21583    73.19078   142.44547
   421  H   1.0    0.06    1.04    1.43    41.02543    81.96942   142.14076
   422  H   1.0    0.09    1.09    1.44    37.26226    81.24087   134.79025
   423  H   1.0    0.07    1.05    1.44    -2.04353    78.26477   132.82101
   424  H   1.0    0.09    1.10    1.44     9.01357    72.09577   149.06038
   425  H   1.0    0.05    1.04    1.44    15.65414    70.84908   149.83019
   426  H   1.0    0.09    1.08    1.44    25.16010    65.22775   141.28405
   427  H   1.0    0.05    1.04    1.43    18.15269    64.05065   143.84459
   428  H   1.0    0.10    1.07    1.44    21.00632    85.13701   158.73364
   429  H   1.0    0.06    1.05    1.44    19.16408    78.58258   153.60403
   430  H   1.0    0.06    1.04    1.43    15.09018    60.23515   137.53300
   431  H   1.0    0.11    1.07    1.44    22.86632   110.35415   145.85313
   432  H   1.0    0.06    1.05    1.44    21.95356   109.84784   152.26627

  Z AO/shell   Hii/eV     exponent
  1     Wed Apr 25 08:07:45 CEST 2018   EN: 2.200 GM2: 0.406  GM3: 0.0800  RAES: 1.40
     1s    -10.707211    1.230000
  6     Wed Apr 25 08:07:45 CEST 2018   EN: 2.550 GM2: 0.538  GM3: 0.1500  RAES: 3.00
     2s    -13.970922    2.096432
     2p    -10.063292    1.800000
  7     Wed Apr 25 08:07:45 CEST 2018   EN: 3.040 GM2: 0.461  GM3:-0.0640  RAES: 1.90
     2s    -16.686243    2.339881
     2p    -12.523956    2.014332
  8     Wed Apr 25 08:07:45 CEST 2018   EN: 3.440 GM2: 0.452  GM3:-0.0517  RAES: 1.80
     2s    -20.229985    2.439742
     2p    -15.503117    2.137023
 no old-style atom pair restraining (fixing) potential

molecular fragmentation (1/2 indicates fragments):
111111111111111111111111111111111111111111222222222222222222222222222222
222222222222222222222222222222222222222222222222222222222222222222222222
222222222222222222222222222222222222222222222222222222222222222222222222
222222222222222222222222222222222222222222222222222222222222222222222222
222222222222222222222222222222222222222222222222222222222222222222222222
222222222222222222222222222222222222222222222222222222222221122222222222
# atoms in fragment 1/2:    44   388
 fragment masses (1/2) :      278.37     2699.07
CMA distance (Bohr)    :  17.000
constraining FC (au)   :  0.0500
           ------------------------------------------------- 
          |        Self-Consistent Charge Iterations        |
           ------------------------------------------------- 

 Ncao       : 1062
 Nao        : 1062
 Nshell     : 642
 Nel        : 1178
 T(el)      :   500.0
 intcut     :    35.0
 scfconv/Eh :  0.100E-06
   qconv/e  :  0.100E-04
 intneglect :  0.100E-08
 broydamp   :      0.400
 iter      E             dE          RMSdq      gap      omega  full diag
   1   -674.7921237 -0.674792E+03  0.467E+00    2.86       0.0  T
   2   -676.4173373 -0.162521E+01  0.221E+00    1.22       1.0  T
   3   -676.5227178 -0.105381E+00  0.126E+00    1.23       1.0  T
   4   -676.6354260 -0.112708E+00  0.272E-01    0.67       1.0  T
   5   -676.6417621 -0.633612E-02  0.140E-01    0.89       1.0  T
   6   -676.6427959 -0.103381E-02  0.590E-02    0.91       1.0  T
   7   -676.6431700 -0.374097E-03  0.255E-02    0.92       1.0  T
   8   -676.6432113 -0.412369E-04  0.129E-02    0.93       1.0  T
   9   -676.6432301 -0.187941E-04  0.564E-03    0.94       1.0  T
  10   -676.6432328 -0.277155E-05  0.250E-03    0.94       1.9  T
  11   -676.6432335 -0.631823E-06  0.106E-03    0.94       4.5  T
  12   -676.6432336 -0.980821E-07  0.495E-04    0.94       9.7  T
  13   -676.6432336 -0.280845E-07  0.258E-04    0.94      18.7  T
  14   -676.6432336 -0.634236E-08  0.104E-04    0.94      46.4  T
  15   -676.6432336 -0.146963E-08  0.464E-05    0.94     103.6  T
  16   -676.6432336 -0.218165E-09  0.207E-05    0.94     232.7  T
speedup  1.94
cpu  time for SCC    9.43 s
wall time for SCC    4.87 s

   *** convergence criteria satisfied after 16 iterations ***

          eigenvalues
 #    :         577        578        579        580        581        582        583        584
 occ. :        2.000      2.000      2.000      2.000      2.000      2.000      2.000      2.000
 eps  :       -10.324    -10.320    -10.314    -10.256     -9.983     -9.957     -9.866     -9.825
 #    :         585        586        587        588        589        590        591        592
 occ. :        2.000      2.000      2.000      2.000      2.000      0.000      0.000      0.000
 eps  :        -9.795     -9.788     -9.777     -9.760     -9.292     -8.349     -7.934     -7.829
 #    :         593        594        595        596        597        598        599        600
 occ. :        0.000      0.000      0.000      0.000      0.000      0.000      0.000      0.000
 eps  :        -7.797     -7.695     -7.671     -7.654     -6.894     -6.867     -6.794     -6.691


   #   Z            q   n(s)   n(p)   n(d)      C6AA      α(0)
   1   7 N     -0.396  1.316  4.080  0.000    30.270     8.171
   2   6 C      0.030  1.060  2.910  0.000    20.089     6.384
   3   6 C      0.263  1.050  2.687  0.000    22.573     7.780
   4   8 O     -0.479  1.741  4.738  0.000    23.328     6.476
   5   6 C     -0.071  1.057  3.014  0.000    21.850     6.653
   6   6 C      0.011  1.081  2.908  0.000    27.764     8.643
   7   6 C     -0.035  1.079  2.956  0.000    28.862     8.810
   8   6 C     -0.045  1.080  2.964  0.000    29.112     8.848
   9   6 C     -0.035  1.080  2.955  0.000    28.864     8.810
  10   6 C     -0.041  1.080  2.960  0.000    29.016     8.833
  11   6 C     -0.037  1.080  2.957  0.000    28.917     8.818
  12   1 H      0.157  0.843  0.000  0.000     1.352     1.822
  13   1 H      0.058  0.942  0.000  0.000     2.228     2.334
  14   1 H      0.055  0.945  0.000  0.000     2.264     2.353
  15   1 H      0.035  0.965  0.000  0.000     2.515     2.480
  16   1 H      0.011  0.989  0.000  0.000     2.876     2.652
  17   1 H      0.054  0.946  0.000  0.000     2.270     2.356
  18   1 H      0.017  0.983  0.000  0.000     2.776     2.606
  19   1 H      0.065  0.935  0.000  0.000     2.137     2.286
  20   1 H      0.038  0.962  0.000  0.000     2.480     2.463
  21   7 N     -0.174  1.239  3.935  0.000    24.775     7.393
  22   6 C      0.017  1.064  2.919  0.000    20.309     6.418
  23   6 C      0.202  1.089  2.710  0.000    23.712     7.975
  24   8 O     -0.355  1.748  4.607  0.000    20.802     6.115
  25   6 C     -0.081  1.059  3.022  0.000    22.038     6.683
  26   6 C     -0.077  1.052  3.025  0.000    21.976     6.674
  27   6 C     -0.097  1.057  3.041  0.000    22.359     6.732
  28   6 C     -0.033  1.053  2.980  0.000    21.254     6.580
  29   7 N     -0.170  1.243  3.928  0.000    24.674     7.378
  30   1 H      0.215  0.785  0.000  0.000     1.034     1.593
  31   1 H      0.095  0.905  0.000  0.000     1.830     2.116
  32   1 H      0.078  0.922  0.000  0.000     1.998     2.211
  33   1 H      0.072  0.928  0.000  0.000     2.068     2.249
  34   1 H      0.066  0.934  0.000  0.000     2.133     2.284
  35   1 H      0.069  0.931  0.000  0.000     2.096     2.264
  36   1 H      0.076  0.924  0.000  0.000     2.026     2.226
  37   1 H      0.076  0.924  0.000  0.000     2.021     2.223
  38   1 H      0.094  0.906  0.000  0.000     1.844     2.124
  39   1 H      0.105  0.895  0.000  0.000     1.739     2.062
  40   1 H      0.283  0.717  0.000  0.000     0.766     1.371
  41   1 H      0.265  0.735  0.000  0.000     0.826     1.424
  42   1 H      0.250  0.750  0.000  0.000     0.883     1.472
  43   7 N     -0.378  1.311  4.067  0.000    29.779     8.105
  44   6 C      0.021  1.062  2.918  0.000    20.247     6.410
  45   6 C      0.269  1.053  2.678  0.000    22.466     7.763
  46   8 O     -0.484  1.739  4.745  0.000    23.426     6.489
  47   6 C     -0.085  1.058  3.028  0.000    22.118     6.694
  48   6 C     -0.084  1.053  3.031  0.000    22.094     6.692
  49   6 C     -0.099  1.054  3.046  0.000    22.394     6.737
  50   6 C     -0.051  1.060  2.991  0.000    21.576     6.630
  51   7 N     -0.149  1.235  3.914  0.000    24.221     7.310
  52   1 H      0.144  0.856  0.000  0.000     1.441     1.881
  53   1 H      0.064  0.936  0.000  0.000     2.149     2.292
  54   1 H      0.062  0.938  0.000  0.000     2.171     2.304
  55   1 H      0.032  0.968  0.000  0.000     2.551     2.498
  56   1 H      0.071  0.929  0.000  0.000     2.078     2.254
  57   1 H      0.056  0.944  0.000  0.000     2.244     2.343
  58   1 H      0.062  0.938  0.000  0.000     2.170     2.304
  59   1 H      0.083  0.917  0.000  0.000     1.948     2.182
  60   1 H      0.121  0.879  0.000  0.000     1.609     1.984
  61   1 H      0.118  0.882  0.000  0.000     1.627     1.995
  62   1 H      0.297  0.703  0.000  0.000     0.723     1.332
  63   1 H      0.295  0.705  0.000  0.000     0.728     1.337
  64   1 H      0.309  0.691  0.000  0.000     0.687     1.298
  65   7 N     -0.154  1.236  3.918  0.000    24.321     7.324
  66   6 C      0.017  1.063  2.920  0.000    20.283     6.411
  67   6 C      0.276  1.047  2.677  0.000    22.338     7.740
  68   8 O     -0.475  1.731  4.744  0.000    23.238     6.463
  69   6 C      0.074  1.036  2.890  0.000    19.557     6.336
  70   8 O     -0.470  1.713  4.757  0.000    22.255     6.368
  71   1 H      0.231  0.769  0.000  0.000     0.962     1.537
  72   1 H      0.085  0.915  0.000  0.000     1.932     2.174
  73   1 H      0.047  0.953  0.000  0.000     2.361     2.403
  74   1 H      0.038  0.962  0.000  0.000     2.479     2.462
  75   1 H      0.351  0.649  0.000  0.000     0.585     1.202
  76   7 N     -0.174  1.248  3.926  0.000    24.758     7.390
  77   6 C      0.012  1.066  2.922  0.000    20.387     6.430
  78   6 C      0.289  1.041  2.670  0.000    22.100     7.698
  79   8 O     -0.489  1.731  4.759  0.000    23.547     6.506
  80   6 C     -0.091  1.065  3.026  0.000    22.233     6.712
  81   6 C     -0.006  1.056  2.951  0.000    20.657     6.465
  82   6 C     -0.110  1.036  3.074  0.000    22.663     6.788
  83   6 C     -0.103  1.038  3.066  0.000    22.521     6.766
  84   1 H      0.230  0.770  0.000  0.000     0.964     1.538
  85   1 H      0.088  0.912  0.000  0.000     1.897     2.154
  86   1 H      0.077  0.923  0.000  0.000     2.008     2.216
  87   1 H      0.065  0.935  0.000  0.000     2.139     2.287
  88   1 H      0.025  0.975  0.000  0.000     2.662     2.551
  89   1 H      0.030  0.970  0.000  0.000     2.582     2.513
  90   1 H      0.046  0.954  0.000  0.000     2.366     2.405
  91   1 H      0.035  0.965  0.000  0.000     2.511     2.478
  92   1 H      0.021  0.979  0.000  0.000     2.718     2.578
  93   1 H      0.034  0.966  0.000  0.000     2.528     2.487
  94   1 H      0.035  0.965  0.000  0.000     2.513     2.479
  95   7 N     -0.178  1.244  3.935  0.000    24.862     7.405
  96   6 C      0.022  1.061  2.916  0.000    20.206     6.402
  97   6 C      0.280  1.041  2.679  0.000    22.256     7.725
  98   8 O     -0.522  1.759  4.763  0.000    24.284     6.607
  99   6 C     -0.135  1.044  3.091  0.000    23.153     6.860
 100   1 H      0.216  0.784  0.000  0.000     1.029     1.589
 101   1 H      0.049  0.951  0.000  0.000     2.329     2.387
 102   1 H      0.064  0.936  0.000  0.000     2.149     2.293
 103   1 H      0.073  0.927  0.000  0.000     2.048     2.238
 104   1 H      0.082  0.918  0.000  0.000     1.963     2.191
 105   7 N     -0.185  1.254  3.931  0.000    25.019     7.429
 106   6 C      0.016  1.067  2.917  0.000    20.308     6.417
 107   6 C      0.281  1.045  2.674  0.000    22.244     7.723
 108   8 O     -0.490  1.752  4.738  0.000    23.574     6.510
 109   6 C     -0.034  1.070  2.964  0.000    21.143     6.540
 110   6 C     -0.071  1.054  3.018  0.000    21.866     6.657
 111   6 C     -0.129  1.041  3.088  0.000    23.023     6.841
 112   6 C     -0.115  1.035  3.081  0.000    22.771     6.805
 113   1 H      0.241  0.759  0.000  0.000     0.917     1.500
 114   1 H      0.067  0.933  0.000  0.000     2.123     2.279
 115   1 H      0.063  0.937  0.000  0.000     2.161     2.299
 116   1 H      0.040  0.960  0.000  0.000     2.443     2.444
 117   1 H      0.071  0.929  0.000  0.000     2.070     2.250
 118   1 H      0.084  0.916  0.000  0.000     1.941     2.178
 119   1 H      0.052  0.948  0.000  0.000     2.298     2.370
 120   1 H      0.046  0.954  0.000  0.000     2.372     2.408
 121   1 H      0.046  0.954  0.000  0.000     2.377     2.411
 122   1 H      0.052  0.948  0.000  0.000     2.299     2.371
 123   1 H      0.023  0.977  0.000  0.000     2.695     2.567
 124   7 N     -0.186  1.246  3.941  0.000    25.040     7.432
 125   6 C      0.016  1.060  2.924  0.000    20.303     6.416
 126   6 C      0.270  1.045  2.685  0.000    22.445     7.758
 127   8 O     -0.498  1.739  4.759  0.000    23.746     6.533
 128   6 C     -0.086  1.058  3.028  0.000    22.137     6.698
 129   6 C     -0.080  1.049  3.031  0.000    22.026     6.682
 130   6 C     -0.022  1.055  2.967  0.000    21.042     6.545
 131   7 N     -0.158  1.229  3.929  0.000    24.408     7.338
 132   6 C      0.227  1.021  2.752  0.000    23.234     7.892
 133   7 N     -0.238  1.229  4.009  0.000    26.235     7.607
 134   7 N     -0.276  1.255  4.021  0.000    27.141     7.737
 135   1 H      0.212  0.788  0.000  0.000     1.045     1.601
 136   1 H      0.097  0.903  0.000  0.000     1.812     2.105
 137   1 H      0.076  0.924  0.000  0.000     2.022     2.224
 138   1 H      0.105  0.895  0.000  0.000     1.740     2.063
 139   1 H      0.055  0.945  0.000  0.000     2.253     2.347
 140   1 H      0.039  0.961  0.000  0.000     2.468     2.457
 141   1 H      0.090  0.910  0.000  0.000     1.875     2.141
 142   1 H      0.093  0.907  0.000  0.000     1.848     2.126
 143   1 H      0.227  0.773  0.000  0.000     0.979     1.550
 144   1 H      0.260  0.740  0.000  0.000     0.846     1.441
 145   1 H      0.253  0.747  0.000  0.000     0.872     1.463
 146   1 H      0.212  0.788  0.000  0.000     1.048     1.603
 147   1 H      0.239  0.761  0.000  0.000     0.927     1.508
 148   7 N     -0.196  1.253  3.943  0.000    25.244     7.462
 149   6 C      0.028  1.058  2.915  0.000    20.108     6.384
 150   6 C      0.281  1.040  2.679  0.000    22.245     7.723
 151   8 O     -0.495  1.737  4.758  0.000    23.673     6.523
 152   6 C     -0.068  1.053  3.015  0.000    21.786     6.644
 153   6 C     -0.098  1.056  3.042  0.000    22.358     6.731
 154   6 C      0.291  1.037  2.672  0.000    22.072     7.693
 155   8 O     -0.503  1.761  4.742  0.000    23.843     6.547
 156   7 N     -0.286  1.264  4.022  0.000    27.383     7.772
 157   1 H      0.237  0.763  0.000  0.000     0.935     1.515
 158   1 H      0.057  0.943  0.000  0.000     2.237     2.339
 159   1 H      0.070  0.930  0.000  0.000     2.088     2.260
 160   1 H      0.068  0.932  0.000  0.000     2.112     2.273
 161   1 H      0.072  0.928  0.000  0.000     2.060     2.245
 162   1 H      0.054  0.946  0.000  0.000     2.273     2.357
 163   1 H      0.230  0.770  0.000  0.000     0.964     1.538
 164   1 H      0.208  0.792  0.000  0.000     1.067     1.618
 165   7 N     -0.180  1.249  3.932  0.000    24.908     7.412
 166   6 C      0.036  1.058  2.906  0.000    19.969     6.363
 167   6 C      0.282  1.043  2.675  0.000    22.225     7.720
 168   8 O     -0.498  1.734  4.764  0.000    23.732     6.531
 169   6 C     -0.055  1.053  3.002  0.000    21.565     6.611
 170   6 C     -0.094  1.066  3.028  0.000    22.290     6.722
 171   6 C      0.370  1.025  2.605  0.000    20.726     7.450
 172   8 O     -0.647  1.775  4.872  0.000    27.311     7.007
 173   8 O     -0.649  1.773  4.876  0.000    27.358     7.013
 174   1 H      0.215  0.785  0.000  0.000     1.031     1.591
 175   1 H      0.058  0.942  0.000  0.000     2.220     2.330
 176   1 H      0.043  0.957  0.000  0.000     2.403     2.424
 177   1 H      0.057  0.943  0.000  0.000     2.235     2.338
 178   1 H      0.038  0.962  0.000  0.000     2.480     2.463
 179   1 H      0.016  0.984  0.000  0.000     2.802     2.618
 180   7 N     -0.174  1.247  3.927  0.000    24.774     7.392
 181   6 C      0.025  1.066  2.909  0.000    20.169     6.395
 182   6 C      0.278  1.039  2.683  0.000    22.290     7.731
 183   8 O     -0.481  1.729  4.752  0.000    23.370     6.482
 184   6 C     -0.057  1.051  3.006  0.000    21.593     6.615
 185   6 C     -0.099  1.064  3.034  0.000    22.387     6.737
 186   6 C      0.364  1.025  2.610  0.000    20.818     7.467
 187   8 O     -0.604  1.725  4.878  0.000    26.211     6.864
 188   8 O     -0.598  1.764  4.834  0.000    26.072     6.846
 189   1 H      0.206  0.794  0.000  0.000     1.078     1.626
 190   1 H      0.058  0.942  0.000  0.000     2.221     2.331
 191   1 H      0.051  0.949  0.000  0.000     2.308     2.376
 192   1 H      0.052  0.948  0.000  0.000     2.295     2.369
 193   1 H      0.037  0.963  0.000  0.000     2.494     2.470
 194   1 H      0.028  0.972  0.000  0.000     2.610     2.527
 195   7 N     -0.181  1.245  3.937  0.000    24.923     7.414
 196   6 C      0.020  1.064  2.917  0.000    20.245     6.406
 197   6 C      0.277  1.043  2.680  0.000    22.314     7.736
 198   8 O     -0.472  1.727  4.745  0.000    23.173     6.454
 199   6 C     -0.029  1.063  2.966  0.000    21.045     6.524
 200   6 C     -0.124  1.041  3.083  0.000    22.926     6.827
 201   6 C     -0.113  1.038  3.075  0.000    22.716     6.796
 202   1 H      0.218  0.782  0.000  0.000     1.020     1.582
 203   1 H      0.087  0.913  0.000  0.000     1.909     2.161
 204   1 H      0.048  0.952  0.000  0.000     2.347     2.396
 205   1 H      0.037  0.963  0.000  0.000     2.492     2.469
 206   1 H      0.053  0.947  0.000  0.000     2.285     2.364
 207   1 H      0.063  0.937  0.000  0.000     2.166     2.302
 208   1 H      0.018  0.982  0.000  0.000     2.759     2.598
 209   1 H      0.056  0.944  0.000  0.000     2.249     2.345
 210   1 H      0.063  0.937  0.000  0.000     2.162     2.299
 211   7 N     -0.181  1.247  3.934  0.000    24.918     7.414
 212   6 C      0.025  1.059  2.915  0.000    20.151     6.392
 213   6 C      0.277  1.041  2.682  0.000    22.311     7.735
 214   8 O     -0.479  1.733  4.746  0.000    23.333     6.476
 215   6 C     -0.128  1.041  3.087  0.000    23.010     6.839
 216   1 H      0.206  0.794  0.000  0.000     1.075     1.624
 217   1 H      0.077  0.923  0.000  0.000     2.010     2.217
 218   1 H      0.066  0.934  0.000  0.000     2.132     2.283
 219   1 H      0.067  0.933  0.000  0.000     2.121     2.278
 220   1 H      0.055  0.945  0.000  0.000     2.253     2.347
 221   7 N     -0.183  1.246  3.937  0.000    24.958     7.420
 222   6 C     -0.024  1.051  2.974  0.000    21.074     6.548
 223   6 C      0.280  1.036  2.684  0.000    22.266     7.727
 224   8 O     -0.494  1.747  4.747  0.000    23.650     6.520
 225   1 H      0.221  0.779  0.000  0.000     1.007     1.572
 226   1 H      0.073  0.927  0.000  0.000     2.048     2.238
 227   1 H      0.078  0.922  0.000  0.000     1.997     2.210
 228   7 N     -0.183  1.249  3.934  0.000    24.957     7.420
 229   6 C      0.016  1.066  2.917  0.000    20.299     6.414
 230   6 C      0.281  1.039  2.679  0.000    22.238     7.722
 231   8 O     -0.499  1.750  4.749  0.000    23.758     6.535
 232   6 C     -0.026  1.068  2.958  0.000    21.004     6.519
 233   6 C     -0.068  1.052  3.016  0.000    21.802     6.647
 234   6 C     -0.124  1.041  3.084  0.000    22.941     6.830
 235   6 C     -0.119  1.040  3.079  0.000    22.835     6.815
 236   1 H      0.218  0.782  0.000  0.000     1.019     1.581
 237   1 H      0.078  0.922  0.000  0.000     2.002     2.213
 238   1 H      0.059  0.941  0.000  0.000     2.215     2.327
 239   1 H      0.064  0.936  0.000  0.000     2.157     2.297
 240   1 H      0.038  0.962  0.000  0.000     2.477     2.461
 241   1 H      0.064  0.936  0.000  0.000     2.155     2.296
 242   1 H      0.044  0.956  0.000  0.000     2.400     2.423
 243   1 H      0.041  0.959  0.000  0.000     2.442     2.444
 244   1 H      0.062  0.938  0.000  0.000     2.175     2.306
 245   1 H      0.023  0.977  0.000  0.000     2.692     2.566
 246   1 H      0.057  0.943  0.000  0.000     2.232     2.336
 247   7 N     -0.180  1.244  3.936  0.000    24.906     7.412
 248   6 C      0.017  1.062  2.921  0.000    20.302     6.416
 249   6 C      0.275  1.043  2.682  0.000    22.357     7.743
 250   8 O     -0.496  1.745  4.752  0.000    23.702     6.527
 251   6 C     -0.076  1.055  3.021  0.000    21.942     6.669
 252   6 C     -0.083  1.054  3.028  0.000    22.075     6.689
 253   6 C     -0.025  1.054  2.971  0.000    21.100     6.555
 254   7 N     -0.136  1.207  3.929  0.000    23.950     7.268
 255   6 C      0.234  1.017  2.750  0.000    23.102     7.869
 256   7 N     -0.241  1.223  4.018  0.000    26.303     7.617
 257   7 N     -0.261  1.234  4.026  0.000    26.760     7.683
 258   1 H      0.214  0.786  0.000  0.000     1.037     1.595
 259   1 H      0.091  0.909  0.000  0.000     1.870     2.139
 260   1 H      0.067  0.933  0.000  0.000     2.121     2.278
 261   1 H      0.060  0.940  0.000  0.000     2.204     2.322
 262   1 H      0.074  0.926  0.000  0.000     2.043     2.235
 263   1 H      0.074  0.926  0.000  0.000     2.039     2.233
 264   1 H      0.084  0.916  0.000  0.000     1.941     2.179
 265   1 H      0.084  0.916  0.000  0.000     1.941     2.179
 266   1 H      0.224  0.776  0.000  0.000     0.992     1.560
 267   1 H      0.248  0.752  0.000  0.000     0.893     1.480
 268   1 H      0.257  0.743  0.000  0.000     0.857     1.450
 269   1 H      0.240  0.760  0.000  0.000     0.923     1.505
 270   1 H      0.254  0.746  0.000  0.000     0.866     1.458
 271   7 N     -0.180  1.249  3.931  0.000    24.904     7.412
 272   6 C      0.037  1.056  2.907  0.000    19.956     6.361
 273   6 C      0.210  1.088  2.702  0.000    23.553     7.948
 274   8 O     -0.361  1.753  4.608  0.000    20.911     6.131
 275   6 C     -0.128  1.041  3.087  0.000    23.020     6.841
 276   1 H      0.220  0.780  0.000  0.000     1.011     1.575
 277   1 H      0.078  0.922  0.000  0.000     1.998     2.211
 278   1 H      0.066  0.934  0.000  0.000     2.134     2.284
 279   1 H      0.069  0.931  0.000  0.000     2.097     2.265
 280   1 H      0.074  0.926  0.000  0.000     2.043     2.235
 281   7 N     -0.278  1.244  4.034  0.000    27.172     7.742
 282   6 C      0.028  1.063  2.909  0.000    20.091     6.380
 283   6 C      0.196  1.091  2.713  0.000    23.826     7.994
 284   8 O     -0.382  1.768  4.614  0.000    21.329     6.192
 285   6 C     -0.058  1.053  3.005  0.000    21.596     6.612
 286   6 C     -0.064  1.050  3.014  0.000    21.699     6.628
 287   6 C      0.009  1.049  2.942  0.000    20.482     6.453
 288   1 H      0.048  0.952  0.000  0.000     2.347     2.396
 289   1 H      0.041  0.959  0.000  0.000     2.432     2.439
 290   1 H      0.060  0.940  0.000  0.000     2.197     2.318
 291   1 H      0.043  0.957  0.000  0.000     2.410     2.428
 292   1 H      0.035  0.965  0.000  0.000     2.513     2.479
 293   1 H      0.035  0.965  0.000  0.000     2.522     2.484
 294   1 H      0.037  0.963  0.000  0.000     2.486     2.466
 295   7 N     -0.397  1.328  4.069  0.000    30.289     8.174
 296   6 C      0.035  1.057  2.908  0.000    20.011     6.373
 297   6 C      0.199  1.090  2.712  0.000    23.765     7.984
 298   8 O     -0.354  1.739  4.615  0.000    20.784     6.112
 299   6 C     -0.075  1.057  3.018  0.000    21.930     6.667
 300   6 C     -0.075  1.051  3.024  0.000    21.938     6.668
 301   6 C     -0.097  1.054  3.043  0.000    22.358     6.732
 302   6 C     -0.052  1.061  2.991  0.000    21.608     6.636
 303   7 N     -0.158  1.232  3.926  0.000    24.398     7.336
 304   1 H      0.177  0.823  0.000  0.000     1.231     1.738
 305   1 H      0.039  0.961  0.000  0.000     2.462     2.454
 306   1 H      0.043  0.957  0.000  0.000     2.405     2.425
 307   1 H      0.046  0.954  0.000  0.000     2.367     2.406
 308   1 H      0.062  0.938  0.000  0.000     2.173     2.305
 309   1 H      0.070  0.930  0.000  0.000     2.085     2.258
 310   1 H      0.074  0.926  0.000  0.000     2.037     2.232
 311   1 H      0.063  0.937  0.000  0.000     2.170     2.304
 312   1 H      0.120  0.880  0.000  0.000     1.612     1.986
 313   1 H      0.121  0.879  0.000  0.000     1.606     1.982
 314   1 H      0.294  0.706  0.000  0.000     0.733     1.341
 315   1 H      0.271  0.729  0.000  0.000     0.807     1.407
 316   1 H      0.299  0.701  0.000  0.000     0.718     1.328
 317   7 N     -0.406  1.327  4.079  0.000    30.536     8.207
 318   6 C      0.060  1.052  2.888  0.000    19.589     6.304
 319   6 C      0.286  1.047  2.667  0.000    22.151     7.707
 320   8 O     -0.493  1.748  4.746  0.000    23.641     6.519
 321   6 C     -0.089  1.065  3.024  0.000    22.190     6.706
 322   6 C      0.356  1.032  2.612  0.000    20.960     7.492
 323   8 O     -0.586  1.756  4.830  0.000    25.783     6.808
 324   8 O     -0.606  1.761  4.846  0.000    26.272     6.872
 325   1 H      0.188  0.812  0.000  0.000     1.167     1.692
 326   1 H      0.002  0.998  0.000  0.000     3.024     2.720
 327   1 H      0.043  0.957  0.000  0.000     2.416     2.431
 328   1 H      0.032  0.968  0.000  0.000     2.552     2.498
 329   7 N     -0.211  1.249  3.962  0.000    25.598     7.514
 330   6 C      0.048  1.054  2.898  0.000    19.774     6.333
 331   6 C      0.291  1.045  2.664  0.000    22.064     7.692
 332   8 O     -0.493  1.746  4.748  0.000    23.638     6.519
 333   6 C     -0.054  1.054  3.001  0.000    21.549     6.609
 334   6 C     -0.096  1.070  3.027  0.000    22.345     6.731
 335   6 C      0.369  1.026  2.605  0.000    20.744     7.453
 336   8 O     -0.649  1.779  4.870  0.000    27.367     7.014
 337   8 O     -0.647  1.768  4.880  0.000    27.308     7.006
 338   1 H      0.197  0.803  0.000  0.000     1.122     1.659
 339   1 H      0.034  0.966  0.000  0.000     2.531     2.488
 340   1 H      0.042  0.958  0.000  0.000     2.424     2.435
 341   1 H      0.039  0.961  0.000  0.000     2.465     2.455
 342   1 H      0.035  0.965  0.000  0.000     2.517     2.481
 343   1 H      0.042  0.958  0.000  0.000     2.428     2.437
 344   7 N     -0.194  1.266  3.928  0.000    25.199     7.456
 345   6 C      0.044  1.055  2.901  0.000    19.835     6.341
 346   6 C      0.289  1.041  2.670  0.000    22.097     7.698
 347   8 O     -0.490  1.765  4.725  0.000    23.566     6.509
 348   6 C     -0.103  1.068  3.036  0.000    22.471     6.749
 349   6 C      0.371  1.021  2.608  0.000    20.707     7.447
 350   8 O     -0.600  1.764  4.836  0.000    26.124     6.853
 351   8 O     -0.584  1.733  4.851  0.000    25.721     6.800
 352   1 H      0.199  0.801  0.000  0.000     1.111     1.651
 353   1 H      0.051  0.949  0.000  0.000     2.314     2.379
 354   1 H      0.038  0.962  0.000  0.000     2.481     2.463
 355   1 H      0.049  0.951  0.000  0.000     2.336     2.390
 356   7 N     -0.193  1.238  3.955  0.000    25.188     7.454
 357   6 C     -0.026  1.048  2.977  0.000    21.092     6.550
 358   6 C      0.277  1.039  2.684  0.000    22.321     7.737
 359   8 O     -0.490  1.736  4.754  0.000    23.568     6.509
 360   1 H      0.197  0.803  0.000  0.000     1.122     1.659
 361   1 H      0.081  0.919  0.000  0.000     1.970     2.195
 362   1 H      0.103  0.897  0.000  0.000     1.759     2.074
 363   7 N     -0.169  1.250  3.920  0.000    24.667     7.376
 364   6 C      0.039  1.058  2.903  0.000    19.917     6.354
 365   6 C      0.203  1.089  2.709  0.000    23.690     7.971
 366   8 O     -0.390  1.769  4.621  0.000    21.476     6.213
 367   6 C     -0.069  1.052  3.017  0.000    21.809     6.647
 368   6 C      0.015  1.081  2.904  0.000    27.676     8.629
 369   6 C     -0.041  1.079  2.962  0.000    29.024     8.835
 370   6 C     -0.033  1.079  2.954  0.000    28.824     8.804
 371   6 C     -0.035  1.079  2.956  0.000    28.875     8.812
 372   6 C     -0.030  1.078  2.952  0.000    28.741     8.791
 373   6 C     -0.033  1.079  2.954  0.000    28.827     8.805
 374   1 H      0.212  0.788  0.000  0.000     1.046     1.602
 375   1 H      0.108  0.892  0.000  0.000     1.716     2.049
 376   1 H      0.055  0.945  0.000  0.000     2.255     2.348
 377   1 H      0.070  0.930  0.000  0.000     2.085     2.258
 378   1 H      0.040  0.960  0.000  0.000     2.447     2.446
 379   1 H      0.017  0.983  0.000  0.000     2.778     2.607
 380   1 H      0.063  0.937  0.000  0.000     2.158     2.297
 381   1 H      0.038  0.962  0.000  0.000     2.479     2.462
 382   1 H      0.052  0.948  0.000  0.000     2.297     2.370
 383   7 N     -0.143  1.231  3.913  0.000    24.094     7.290
 384   6 C     -0.017  1.083  2.934  0.000    20.911     6.515
 385   6 C      0.200  1.083  2.717  0.000    23.748     7.981
 386   8 O     -0.322  1.764  4.557  0.000    20.176     6.022
 387   6 C     -0.103  1.057  3.046  0.000    22.454     6.745
 388   6 C      0.010  1.074  2.916  0.000    27.799     8.648
 389   6 C     -0.041  1.079  2.962  0.000    29.012     8.833
 390   6 C     -0.045  1.082  2.962  0.000    29.108     8.848
 391   6 C     -0.032  1.080  2.952  0.000    28.808     8.802
 392   6 C     -0.028  1.080  2.948  0.000    28.695     8.784
 393   6 C     -0.037  1.080  2.957  0.000    28.911     8.817
 394   1 H      0.309  0.691  0.000  0.000     0.687     1.299
 395   1 H      0.310  0.690  0.000  0.000     0.685     1.296
 396   1 H      0.303  0.697  0.000  0.000     0.704     1.315
 397   1 H      0.145  0.855  0.000  0.000     1.427     1.868
 398   1 H      0.106  0.894  0.000  0.000     1.729     2.057
 399   1 H      0.107  0.893  0.000  0.000     1.725     2.054
 400   1 H      0.045  0.955  0.000  0.000     2.389     2.417
 401   1 H      0.062  0.938  0.000  0.000     2.177     2.307
 402   1 H      0.029  0.971  0.000  0.000     2.605     2.524
 403   1 H      0.025  0.975  0.000  0.000     2.657     2.549
 404   1 H      0.026  0.974  0.000  0.000     2.646     2.544
 405   7 N     -0.378  1.300  4.079  0.000    29.780     8.105
 406   6 C      0.049  1.054  2.898  0.000    19.782     6.336
 407   6 C      0.201  1.095  2.704  0.000    23.726     7.977
 408   8 O     -0.381  1.755  4.627  0.000    21.310     6.189
 409   6 C     -0.051  1.053  2.998  0.000    21.485     6.599
 410   6 C     -0.088  1.067  3.021  0.000    22.189     6.708
 411   6 C      0.373  1.024  2.603  0.000    20.684     7.443
 412   8 O     -0.641  1.775  4.866  0.000    27.156     6.987
 413   8 O     -0.653  1.772  4.881  0.000    27.464     7.026
 414   1 H      0.166  0.834  0.000  0.000     1.295     1.783
 415   1 H      0.035  0.965  0.000  0.000     2.515     2.480
 416   1 H      0.034  0.966  0.000  0.000     2.529     2.487
 417   1 H      0.028  0.972  0.000  0.000     2.622     2.532
 418   1 H      0.026  0.974  0.000  0.000     2.642     2.542
 419   1 H      0.026  0.974  0.000  0.000     2.640     2.541
 420   1 H      0.185  0.815  0.000  0.000     1.185     1.705
 421   1 H      0.080  0.920  0.000  0.000     1.979     2.200
 422   1 H      0.201  0.799  0.000  0.000     1.101     1.644
 423   1 H      0.074  0.926  0.000  0.000     2.038     2.232
 424   1 H      0.183  0.817  0.000  0.000     1.199     1.715
 425   1 H      0.069  0.931  0.000  0.000     2.096     2.264
 426   1 H      0.186  0.814  0.000  0.000     1.180     1.702
 427   1 H      0.055  0.945  0.000  0.000     2.261     2.351
 428   1 H      0.188  0.812  0.000  0.000     1.167     1.692
 429   1 H      0.088  0.912  0.000  0.000     1.898     2.154
 430   1 H      0.105  0.895  0.000  0.000     1.744     2.065
 431   1 H      0.174  0.826  0.000  0.000     1.249     1.750
 432   1 H      0.082  0.918  0.000  0.000     1.959     2.189

 Mol. C6AA /au·bohr⁶  :    1730122.490161
 Mol. C8AA /au·bohr⁸  :   38472828.443997
 Mol. α(0) /au        :       1971.374876

 
molecular dipole:
                 x           y           z       tot (Debye)
 q only:       19.282     -78.060     -27.011
   full:       21.228     -74.065     -26.334     206.960
molecular quadrupole (traceless):
                xx          xy          yy          xz          yz          zz
 q only:    11804.456     -91.474   -9732.376    2491.799  -19860.658   -2072.080
  q+dip:    11392.757     284.046   -9179.175    2944.547  -18961.614   -2213.582
   full:    11392.689     278.342   -9177.604    2944.086  -18963.134   -2215.085
speedup  1.95
cpu  time for grad   11.71 s
wall time for grad    6.01 s

SCC energy    :    -676.6596809
rep           :       8.1343512
ES            :       2.7597566
AES           :      -0.1960415
AXC           :       0.2200630
disp          :      -0.5684434
XB            :       0.0000000
fix           :       0.0000000
Gborn         :       0.0000000
Gsasa         :       0.0000000
Ghb           :       0.0000000
Gshift        :       0.0000000
Gsolv         :      -0.9888594     -620.52
Etot ala COSMO:    -676.6596809
grad norm     :       0.5611329
total E       :    -668.4706645
atomizationE  :     121.9155794    76503.18
(atE without considering molecular charge,
 total energy contains solvation terms)
H-L gap (eV)  :          0.9430

------------------------------------------------------------------------
 * finished run on 2019/05/12 at 13:13:20.344     
------------------------------------------------------------------------
 total:
 * wall-time:     0 d,  0 h,  0 min,  6.669 sec
 *  cpu-time:     0 d,  0 h,  0 min, 12.779 sec
 * ratio c/w:     1.916 speedup
 SCF:
 * wall-time:     0 d,  0 h,  0 min,  6.338 sec
 *  cpu-time:     0 d,  0 h,  0 min, 12.365 sec
 * ratio c/w:     1.951 speedup

