      -----------------------------------------------------------      
     |                   =====================                   |     
     |                           x T B                           |     
     |                   =====================                   |     
     |                         S. Grimme                         |     
     |          Mulliken Center for Theoretical Chemistry        |     
     |                    University of Bonn                     |     
     |                 Version 6.0.1 (SAW181210)                 |     
      -----------------------------------------------------------      

   This program is distributed in the hope that it will be useful,
   but WITHOUT ANY WARRANTY; without even the implied warranty of
   MERCHANTABILITY or FITNESS FOR A PARTICULAR PURPOSE.
   
   FOR NON-COMMERCIAL, ACADEMIA USE ONLY.
   
   Cite this work as:
   S. Grimme, C. Bannwarth, P. Shushkov, J. Comput. Theory Chem., 2017,
   13, 1989-2009.
   C. Bannwarth, S. Ehlert and S. Grimme., ChemRxiv, 2018, preprint.
   http://doi.org/10.26434/chemrxiv.7246238.v1
   
   for sTDA-xTB:
   S. Grimme and C. Bannwarth, J. Chem. Phys., 2016, 145, 054103.
   
   in the mass-spec context:
   V. Asgeirsson, C. Bauer and S. Grimme, Chem. Sci., 2017, 8, 4879.
   
   if GBSA is used:
   P. Shushkov, F. März and S. Grimme, unpublished.
   
   for ANC optimizer:
   S. Grimme, unpublished.
   Rational Function algorithm used in ANCopt:
   F. Eckert, P. Pulay, H.-J. Werner, J. Comput. Chem., 1997, 18, 1473.
   
   with help from (in alphabetical order)
   C. Bannwarth, F. Bohle, G. Brandenburg, E. Caldeweyher, M. Checinski,
   S. Dohm, S. Ehlert, S. Ehrlich, F. März, H. Neugebauer, J. Pisarek,
   P. Pracht, P. Shushkov, and S. Spicher.
   
 * started run on 2019/05/10 at 10:20:22.899     
========================================================================
 # omp threads = 2
========================================================================
number of atoms            : 78
number of electrons        : 214
charge                     : -1
spin                       : .0
first test random number   : .6745

########################################################################
# WARNING! Please study the warnings concerning your input carefully
#  - Process number higher than OMP_NUM_THREADS, I hope you know what you are doing.
########################################################################

           ------------------------------------------------- 
          |                 G F N 2 - x T B                 |
          | Geometry, Frequencies, Noncovalent interactions |
          |            JCTC 2018 parametrisation            |
           ------------------------------------------------- 
 
      method parameters     
 k(s)        :  1.8500
 k(p)        :  2.2300
 k(d)        :  2.2300
 k(f)        :  2.0000
 kEN (H0ij)  : -2.0000
 D4 a1       :  0.5200
 D4 a2       :  5.0000
 D4 s6       :  1.0000
 D4 s8       :  2.7000
 D4 s9       :  5.0000
 alphaj      :  2.0000

 Solvent             : h2o
 Using internal parameter file: .param_gbsa2_h2o
 Gsolv ref. state (COSMO-RS): gsolv [1 M gas/solution]
 temperature (mdtemp)       :    298.150000000000     
 dielectric constant        :    80.2000000000000     
 rho                        :    1.00000000000000     
 mass                       :    18.0000000000000     
 surface tension            :    15.5689454083859     
 probe radius               :   0.975313790000000     
 vdW radii scaling          :    1.00000000000000     
 Gshift (Eh)                :   1.857443126794793E-003
 c1                         :    1.55243817000000     
 soset                      :   0.130326360000000     
 HB correction              :  T

            Z     q(EN)     CN     RAES       Cart. coordinates
     1  N   5.0   -0.20    3.24    1.96    78.63539    52.83710    -8.78026
     2  C   4.0    0.02    4.30    4.20    78.81607    54.12036   -11.19732
     3  C   4.0    0.14    3.40    3.08    78.57785    52.15307   -13.32712
     4  O   6.0   -0.30    1.24    1.80    78.84046    49.89820   -12.93144
     5  C   4.0   -0.05    4.27    4.14    81.35817    55.48634   -11.41733
     6  C   4.0   -0.06    4.18    3.97    81.54773    57.74714    -9.62849
     7  C   4.0   -0.06    4.17    3.94    84.11290    59.05736    -9.88606
     8  C   4.0   -0.05    4.12    3.84    84.22359    61.42584    -8.24633
     9  N   5.0   -0.13    4.01    2.89    86.73298    62.68407    -8.48132
    10  H   1.0    0.08    1.02    1.43    80.26428    52.27633    -7.94044
    11  H   1.0    0.03    1.05    1.44    77.23101    55.44458   -11.33893
    12  H   1.0    0.04    1.03    1.43    82.85572    54.12802   -11.00315
    13  H   1.0    0.05    1.03    1.43    81.60079    56.12636   -13.36357
    14  H   1.0    0.03    1.03    1.43    80.03519    59.07412   -10.07526
    15  H   1.0    0.03    1.03    1.43    81.27573    57.10282    -7.69021
    16  H   1.0    0.03    1.03    1.43    85.58385    57.73077    -9.31717
    17  H   1.0    0.04    1.03    1.43    84.39605    59.55237   -11.86705
    18  H   1.0    0.03    1.02    1.43    82.75985    62.75175    -8.83439
    19  H   1.0    0.03    1.02    1.43    83.90573    60.92654    -6.27253
    20  H   1.0    0.04    1.02    1.43    86.79449    64.29686    -7.39233
    21  H   1.0    0.04    1.02    1.43    88.14817    61.48223    -7.90074
    22  H   1.0    0.04    1.02    1.43    87.06301    63.16863   -10.33983
    23  N   5.0   -0.15    3.47    2.06    78.09618    53.10911   -15.64382
    24  C   4.0    0.03    4.42    4.41    78.61919    51.63347   -17.89268
    25  C   4.0    0.14    3.40    3.08    80.63817    53.06384   -19.40580
    26  O   6.0   -0.31    1.25    1.80    81.08990    55.29766   -18.94867
    27  C   4.0   -0.05    4.23    4.06    76.20103    51.18192   -19.45526
    28  C   4.0   -0.05    4.16    3.92    75.95588    48.50836   -20.52573
    29  C   4.0   -0.05    4.16    3.93    75.60155    46.49910   -18.46989
    30  C   4.0   -0.04    4.12    3.83    75.08527    43.91682   -19.64179
    31  N   5.0   -0.12    4.01    2.90    74.86741    41.91230   -17.68945
    32  H   1.0    0.09    1.09    1.44    78.28373    54.99400   -15.92782
    33  H   1.0    0.05    1.07    1.44    79.42078    49.83604   -17.25933
    34  H   1.0    0.04    1.03    1.43    74.59186    51.55801   -18.22156
    35  H   1.0    0.04    1.03    1.43    76.14592    52.53874   -21.00882
    36  H   1.0    0.03    1.03    1.43    74.31323    48.49082   -21.77270
    37  H   1.0    0.05    1.02    1.43    77.60520    48.07290   -21.68923
    38  H   1.0    0.05    1.03    1.43    77.28885    46.40289   -17.29286
    39  H   1.0    0.04    1.03    1.43    74.02543    47.04335   -17.25858
    40  H   1.0    0.03    1.02    1.43    73.34146    43.99128   -20.73682
    41  H   1.0    0.04    1.02    1.43    76.62831    43.42864   -20.92289
    42  H   1.0    0.05    1.02    1.43    74.66410    40.17537   -18.52084
    43  H   1.0    0.06    1.03    1.43    76.47532    41.88865   -16.60574
    44  H   1.0    0.10    1.08    1.44    73.30831    42.11541   -16.38035
    45  N   5.0   -0.14    3.48    2.06    81.84178    51.70875   -21.14317
    46  C   4.0    0.03    4.35    4.30    83.61547    52.71732   -22.94531
    47  C   4.0    0.24    3.21    3.04    83.23104    51.24075   -25.49480
    48  O   6.0   -0.30    1.16    1.80    84.24651    52.15796   -27.40505
    49  C   4.0   -0.03    4.25    4.10    86.36837    52.42685   -22.08320
    50  C   4.0   -0.02    4.19    3.97    87.19942    49.68548   -21.77253
    51  C   4.0    0.24    3.10    3.02    90.02344    49.58207   -20.95309
    52  O   6.0   -0.30    1.16    1.80    90.54930    50.45002   -18.81888
    53  O   6.0   -0.30    1.16    1.80    91.54834    48.64549   -22.48581
    54  O   6.0   -0.31    1.22    1.80    81.92556    49.28850   -25.35560
    55  H   1.0    0.09    1.10    1.44    81.26820    49.94958   -21.66452
    56  H   1.0    0.05    1.05    1.44    83.22519    54.73170   -23.24587
    57  H   1.0    0.05    1.03    1.43    87.55983    53.33753   -23.50612
    58  H   1.0    0.06    1.02    1.43    86.64526    53.40133   -20.28087
    59  H   1.0    0.05    1.02    1.43    86.06197    48.75830   -20.31875
    60  H   1.0    0.06    1.02    1.43    87.00604    48.64955   -23.54998
    61  N   5.0   -0.21    3.23    1.96    67.66244    40.22756   -21.93491
    62  C   4.0    0.03    4.26    4.11    67.18455    40.60803   -19.27091
    63  C   4.0    0.07    3.25    3.04    64.39861    40.00371   -18.80958
    64  O   6.0   -0.31    1.15    1.80    62.82883    40.36668   -20.48612
    65  C   4.0   -0.05    4.25    4.10    67.74162    43.33150   -18.42903
    66  C   4.0   -0.04    4.17    3.95    67.54611    43.64341   -15.55987
    67  C   4.0    0.24    3.14    3.03    68.93146    41.50614   -14.12771
    68  O   6.0   -0.32    1.30    1.80    71.28791    41.53072   -14.15742
    69  O   6.0   -0.31    1.16    1.80    67.61628    39.84122   -13.07501
    70  H   1.0    0.10    1.05    1.44    66.05451    40.26934   -22.97472
    71  H   1.0    0.05    1.06    1.44    68.38480    39.29639   -18.20750
    72  H   1.0    0.04    1.03    1.43    69.64188    43.81068   -19.05650
    73  H   1.0    0.04    1.02    1.43    66.40343    44.61680   -19.33679
    74  H   1.0    0.04    1.02    1.43    68.38960    45.44234   -15.00849
    75  H   1.0    0.04    1.02    1.43    65.56943    43.67345   -14.97623
    76  H   1.0    0.08    1.07    1.44    77.88254    53.86011    -7.64923
    77  H   1.0    0.08    1.08    1.44    68.69179    41.45421   -22.50790
    78  H   1.0    0.05    1.04    1.43    63.84588    39.31076   -17.14064

  Z AO/shell   Hii/eV     exponent
  1     Wed Apr 25 08:07:45 CEST 2018   EN: 2.200 GM2: 0.406  GM3: 0.0800  RAES: 1.40
     1s    -10.707211    1.230000
  6     Wed Apr 25 08:07:45 CEST 2018   EN: 2.550 GM2: 0.538  GM3: 0.1500  RAES: 3.00
     2s    -13.970922    2.096432
     2p    -10.063292    1.800000
  7     Wed Apr 25 08:07:45 CEST 2018   EN: 3.040 GM2: 0.461  GM3:-0.0640  RAES: 1.90
     2s    -16.686243    2.339881
     2p    -12.523956    2.014332
  8     Wed Apr 25 08:07:45 CEST 2018   EN: 3.440 GM2: 0.452  GM3:-0.0517  RAES: 1.80
     2s    -20.229985    2.439742
     2p    -15.503117    2.137023
 no old-style atom pair restraining (fixing) potential

molecular fragmentation (1/2 indicates fragments):
111111111111111111111111111111111111111111111111111111111111222222222222
222122
# atoms in fragment 1/2:    61    17
 fragment masses (1/2) :      403.48      130.12
CMA distance (Bohr)    :  18.160
constraining FC (au)   :  0.0500
           ------------------------------------------------- 
          |        Self-Consistent Charge Iterations        |
           ------------------------------------------------- 

 Ncao       : 189
 Nao        : 189
 Nshell     : 115
 Nel        : 214
 T(el)      :   500.0
 intcut     :    35.0
 scfconv/Eh :  0.100E-06
   qconv/e  :  0.100E-04
 intneglect :  0.100E-08
 broydamp   :      0.400
 iter      E             dE          RMSdq      gap      omega  full diag
   1   -123.4722760 -0.123472E+03  0.486E+00    3.92       0.0  T
   2   -123.8191994 -0.346923E+00  0.228E+00    2.18       1.0  T
   3   -123.8398408 -0.206415E-01  0.129E+00    2.34       1.0  T
   4   -123.8572218 -0.173810E-01  0.289E-01    1.62       1.0  T
   5   -123.8585758 -0.135392E-02  0.150E-01    1.78       1.0  T
   6   -123.8587454 -0.169679E-03  0.581E-02    1.76       1.0  T
   7   -123.8587967 -0.512531E-04  0.173E-02    1.78       1.0  T
   8   -123.8588015 -0.480832E-05  0.747E-03    1.79       1.5  T
   9   -123.8588022 -0.689889E-06  0.293E-03    1.79       3.9  T
  10   -123.8588023 -0.749943E-07  0.842E-04    1.79      13.4  T
  11   -123.8588023 -0.145982E-07  0.359E-04    1.79      31.5  T
  12   -123.8588023 -0.181944E-08  0.127E-04    1.79      89.3  T
  13   -123.8588023 -0.133269E-09  0.562E-05    1.79     201.5  T
  14   -123.8588023 -0.335518E-10  0.184E-05    1.79     615.4  T
speedup  1.99
cpu  time for SCC    0.32 s
wall time for SCC    0.16 s

   *** convergence criteria satisfied after 14 iterations ***

          eigenvalues
 #    :          95         96         97         98         99        100        101        102
 occ. :        2.000      2.000      2.000      2.000      2.000      2.000      2.000      2.000
 eps  :       -10.956    -10.940    -10.934    -10.787    -10.631    -10.554    -10.529    -10.165
 #    :         103        104        105        106        107        108        109        110
 occ. :        2.000      2.000      2.000      2.000      2.000      0.000      0.000      0.000
 eps  :       -10.156     -9.951     -9.876     -9.733     -9.603     -7.813     -5.953     -5.830
 #    :         111        112        113        114        115        116        117        118
 occ. :        0.000      0.000      0.000      0.000      0.000      0.000      0.000      0.000
 eps  :        -4.957     -4.782     -4.527     -2.086     -1.632     -0.396      0.509      0.607


   #   Z            q   n(s)   n(p)   n(d)      C6AA      α(0)
   1   7 N     -0.389  1.321  4.068  0.000    30.061     8.143
   2   6 C      0.027  1.062  2.911  0.000    20.135     6.391
   3   6 C      0.270  1.052  2.678  0.000    22.436     7.757
   4   8 O     -0.475  1.748  4.726  0.000    23.227     6.462
   5   6 C     -0.069  1.055  3.014  0.000    21.808     6.648
   6   6 C     -0.070  1.051  3.018  0.000    21.830     6.652
   7   6 C     -0.088  1.053  3.035  0.000    22.177     6.704
   8   6 C     -0.049  1.060  2.989  0.000    21.548     6.626
   9   7 N     -0.147  1.230  3.917  0.000    24.172     7.302
  10   1 H      0.161  0.839  0.000  0.000     1.331     1.807
  11   1 H      0.049  0.951  0.000  0.000     2.330     2.387
  12   1 H      0.036  0.964  0.000  0.000     2.502     2.474
  13   1 H      0.030  0.970  0.000  0.000     2.586     2.515
  14   1 H      0.057  0.943  0.000  0.000     2.240     2.341
  15   1 H      0.059  0.941  0.000  0.000     2.216     2.328
  16   1 H      0.069  0.931  0.000  0.000     2.097     2.264
  17   1 H      0.065  0.935  0.000  0.000     2.142     2.289
  18   1 H      0.120  0.880  0.000  0.000     1.610     1.984
  19   1 H      0.123  0.877  0.000  0.000     1.588     1.970
  20   1 H      0.309  0.691  0.000  0.000     0.687     1.298
  21   1 H      0.297  0.703  0.000  0.000     0.724     1.333
  22   1 H      0.294  0.706  0.000  0.000     0.730     1.339
  23   7 N     -0.195  1.263  3.932  0.000    25.236     7.461
  24   6 C      0.017  1.063  2.920  0.000    20.292     6.414
  25   6 C      0.269  1.044  2.687  0.000    22.448     7.759
  26   8 O     -0.507  1.743  4.765  0.000    23.949     6.561
  27   6 C     -0.074  1.057  3.017  0.000    21.917     6.665
  28   6 C     -0.069  1.051  3.018  0.000    21.830     6.652
  29   6 C     -0.082  1.052  3.031  0.000    22.071     6.689
  30   6 C     -0.031  1.053  2.978  0.000    21.223     6.576
  31   7 N     -0.166  1.242  3.924  0.000    24.578     7.363
  32   1 H      0.206  0.794  0.000  0.000     1.074     1.624
  33   1 H      0.070  0.930  0.000  0.000     2.091     2.261
  34   1 H      0.080  0.920  0.000  0.000     1.974     2.197
  35   1 H      0.041  0.959  0.000  0.000     2.436     2.441
  36   1 H      0.065  0.935  0.000  0.000     2.139     2.287
  37   1 H      0.037  0.963  0.000  0.000     2.488     2.467
  38   1 H      0.063  0.937  0.000  0.000     2.160     2.298
  39   1 H      0.075  0.925  0.000  0.000     2.033     2.229
  40   1 H      0.097  0.903  0.000  0.000     1.811     2.104
  41   1 H      0.101  0.899  0.000  0.000     1.780     2.086
  42   1 H      0.280  0.720  0.000  0.000     0.775     1.379
  43   1 H      0.279  0.721  0.000  0.000     0.781     1.384
  44   1 H      0.299  0.701  0.000  0.000     0.717     1.327
  45   7 N     -0.184  1.255  3.929  0.000    24.989     7.424
  46   6 C      0.017  1.071  2.912  0.000    20.298     6.417
  47   6 C      0.369  1.024  2.607  0.000    20.740     7.453
  48   8 O     -0.637  1.773  4.863  0.000    27.039     6.972
  49   6 C     -0.031  1.048  2.983  0.000    21.132     6.544
  50   6 C     -0.077  1.062  3.016  0.000    21.978     6.675
  51   6 C      0.370  1.027  2.603  0.000    20.731     7.451
  52   8 O     -0.642  1.764  4.878  0.000    27.176     6.989
  53   8 O     -0.653  1.774  4.878  0.000    27.451     7.025
  54   8 O     -0.616  1.759  4.857  0.000    26.511     6.903
  55   1 H      0.204  0.796  0.000  0.000     1.086     1.632
  56   1 H      0.025  0.975  0.000  0.000     2.659     2.550
  57   1 H      0.010  0.990  0.000  0.000     2.893     2.660
  58   1 H      0.033  0.967  0.000  0.000     2.545     2.495
  59   1 H      0.015  0.985  0.000  0.000     2.811     2.622
  60   1 H     -0.008  1.008  0.000  0.000     3.192     2.794
  61   7 N     -0.394  1.329  4.065  0.000    30.195     8.161
  62   6 C      0.042  1.053  2.905  0.000    19.881     6.351
  63   6 C      0.207  1.086  2.707  0.000    23.604     7.957
  64   8 O     -0.381  1.755  4.626  0.000    21.299     6.188
  65   6 C     -0.060  1.059  3.001  0.000    21.649     6.624
  66   6 C     -0.101  1.065  3.036  0.000    22.419     6.742
  67   6 C      0.368  1.026  2.606  0.000    20.760     7.457
  68   8 O     -0.597  1.743  4.854  0.000    26.052     6.843
  69   8 O     -0.637  1.785  4.852  0.000    27.057     6.974
  70   1 H      0.172  0.828  0.000  0.000     1.261     1.759
  71   1 H      0.049  0.951  0.000  0.000     2.331     2.387
  72   1 H      0.064  0.936  0.000  0.000     2.154     2.295
  73   1 H      0.046  0.954  0.000  0.000     2.367     2.406
  74   1 H      0.042  0.958  0.000  0.000     2.420     2.433
  75   1 H      0.016  0.984  0.000  0.000     2.801     2.617
  76   1 H      0.188  0.812  0.000  0.000     1.167     1.692
  77   1 H      0.190  0.810  0.000  0.000     1.159     1.686
  78   1 H      0.054  0.946  0.000  0.000     2.270     2.356

 Mol. C6AA /au·bohr⁶  :      54370.897298
 Mol. C8AA /au·bohr⁸  :    1183590.826996
 Mol. α(0) /au        :        344.773489

 
molecular dipole:
                 x           y           z       tot (Debye)
 q only:      -81.943     -35.686      33.869
   full:      -81.877     -35.090      33.822     242.193
molecular quadrupole (traceless):
                xx          xy          yy          xz          yz          zz
 q only:    -5987.363   -4413.398    2954.539    4345.334    2402.483    3032.824
  q+dip:    -6000.371   -4339.692    3003.505    4337.777    2379.747    2996.865
   full:    -6001.025   -4338.887    3004.271    4337.547    2380.395    2996.754
speedup  1.99
cpu  time for grad    0.42 s
wall time for grad    0.21 s

SCC energy    :    -123.8589318
rep           :       1.3613991
ES            :       0.8247984
AES           :      -0.0313585
AXC           :       0.0359741
disp          :      -0.0709829
XB            :       0.0000000
fix           :       0.0000000
Gborn         :       0.0000000
Gsasa         :       0.0000000
Ghb           :       0.0000000
Gshift        :       0.0000000
Gsolv         :      -0.3531205     -221.59
Etot ala COSMO:    -123.8589318
grad norm     :       0.2883026
total E       :    -122.4966679
atomizationE  :      21.5843326    13544.37
(atE without considering molecular charge,
 total energy contains solvation terms)
H-L gap (eV)  :          1.7893

------------------------------------------------------------------------
 * finished run on 2019/05/10 at 10:20:23.239     
------------------------------------------------------------------------
 total:
 * wall-time:     0 d,  0 h,  0 min,  0.339 sec
 *  cpu-time:     0 d,  0 h,  0 min,  0.572 sec
 * ratio c/w:     1.686 speedup
 SCF:
 * wall-time:     0 d,  0 h,  0 min,  0.241 sec
 *  cpu-time:     0 d,  0 h,  0 min,  0.481 sec
 * ratio c/w:     1.995 speedup

