      -----------------------------------------------------------      
     |                   =====================                   |     
     |                           x T B                           |     
     |                   =====================                   |     
     |                         S. Grimme                         |     
     |          Mulliken Center for Theoretical Chemistry        |     
     |                    University of Bonn                     |     
     |                 Version 6.0.1 (SAW181210)                 |     
      -----------------------------------------------------------      

   This program is distributed in the hope that it will be useful,
   but WITHOUT ANY WARRANTY; without even the implied warranty of
   MERCHANTABILITY or FITNESS FOR A PARTICULAR PURPOSE.
   
   FOR NON-COMMERCIAL, ACADEMIA USE ONLY.
   
   Cite this work as:
   S. Grimme, C. Bannwarth, P. Shushkov, J. Comput. Theory Chem., 2017,
   13, 1989-2009.
   C. Bannwarth, S. Ehlert and S. Grimme., ChemRxiv, 2018, preprint.
   http://doi.org/10.26434/chemrxiv.7246238.v1
   
   for sTDA-xTB:
   S. Grimme and C. Bannwarth, J. Chem. Phys., 2016, 145, 054103.
   
   in the mass-spec context:
   V. Asgeirsson, C. Bauer and S. Grimme, Chem. Sci., 2017, 8, 4879.
   
   if GBSA is used:
   P. Shushkov, F. März and S. Grimme, unpublished.
   
   for ANC optimizer:
   S. Grimme, unpublished.
   Rational Function algorithm used in ANCopt:
   F. Eckert, P. Pulay, H.-J. Werner, J. Comput. Chem., 1997, 18, 1473.
   
   with help from (in alphabetical order)
   C. Bannwarth, F. Bohle, G. Brandenburg, E. Caldeweyher, M. Checinski,
   S. Dohm, S. Ehlert, S. Ehrlich, F. März, H. Neugebauer, J. Pisarek,
   P. Pracht, P. Shushkov, and S. Spicher.
   
 * started run on 2019/05/05 at 22:32:59.980     
========================================================================
 # omp threads = 2
========================================================================
number of atoms            : 1031
number of electrons        : 2700
charge                     : 5
spin                       : .0
first test random number   : .3426

########################################################################
# WARNING! Please study the warnings concerning your input carefully
#  - Process number higher than OMP_NUM_THREADS, I hope you know what you are doing.
########################################################################

           ------------------------------------------------- 
          |                 G F N 2 - x T B                 |
          | Geometry, Frequencies, Noncovalent interactions |
          |            JCTC 2018 parametrisation            |
           ------------------------------------------------- 
 
      method parameters     
 k(s)        :  1.8500
 k(p)        :  2.2300
 k(d)        :  2.2300
 k(f)        :  2.0000
 kEN (H0ij)  : -2.0000
 D4 a1       :  0.5200
 D4 a2       :  5.0000
 D4 s6       :  1.0000
 D4 s8       :  2.7000
 D4 s9       :  5.0000
 alphaj      :  2.0000

 Solvent             : h2o
 Using internal parameter file: .param_gbsa2_h2o
 Gsolv ref. state (COSMO-RS): gsolv [1 M gas/solution]
 temperature (mdtemp)       :    298.150000000000     
 dielectric constant        :    80.2000000000000     
 rho                        :    1.00000000000000     
 mass                       :    18.0000000000000     
 surface tension            :    15.5689454083859     
 probe radius               :   0.975313790000000     
 vdW radii scaling          :    1.00000000000000     
 Gshift (Eh)                :   1.857443126794793E-003
 c1                         :    1.55243817000000     
 soset                      :   0.130326360000000     
 HB correction              :  T

            Z     q(EN)     CN     RAES       Cart. coordinates
     1  N   5.0   -0.12    3.40    2.02    45.48759    72.23477   143.81759
     2  C   4.0    0.04    4.56    4.62    43.29551    73.50089   144.91741
     3  C   4.0    0.16    3.47    3.10    41.68924    75.35471   143.52658
     4  O   6.0   -0.26    1.25    1.80    42.62844    77.09704   142.36439
     5  C   4.0   -0.02    4.46    4.48    44.48982    75.28857   146.83549
     6  C   4.0   -0.03    4.28    4.16    46.68001    73.75222   147.83137
     7  C   4.0   -0.00    4.38    4.35    47.35653    71.78124   145.84149
     8  H   1.0    0.06    1.07    1.44    42.18624    71.84549   145.44087
     9  H   1.0    0.07    1.04    1.43    45.13421    77.01389   145.91141
    10  H   1.0    0.05    1.02    1.43    43.14811    75.74777   148.32837
    11  H   1.0    0.06    1.03    1.43    48.28250    75.00133   148.17341
    12  H   1.0    0.05    1.03    1.43    46.11876    72.83004   149.58504
    13  H   1.0    0.07    1.02    1.43    49.27271    72.07226   145.14607
    14  H   1.0    0.05    1.02    1.43    47.16378    69.87640   146.60305
    15  N   5.0   -0.14    3.59    2.15    39.24016    74.92385   143.73822
    16  C   4.0    0.04    4.45    4.47    37.21626    75.62305   142.04314
    17  C   4.0    0.16    3.50    3.12    36.19581    78.18552   142.76124
    18  O   6.0   -0.26    1.30    1.80    34.43270    79.16251   141.55559
    19  C   4.0   -0.03    4.42    4.41    35.10733    73.73522   142.32660
    20  C   4.0    0.00    3.64    3.19    32.69982    74.54780   141.10206
    21  C   4.0   -0.02    3.53    3.13    30.88190    76.01612   142.40786
    22  C   4.0   -0.03    3.46    3.10    32.22550    73.84104   138.64919
    23  C   4.0   -0.03    3.36    3.07    28.65391    76.75500   141.22867
    24  C   4.0   -0.02    3.38    3.07    29.98428    74.54402   137.49457
    25  C   4.0   -0.03    3.37    3.07    28.21361    76.01990   138.75880
    26  H   1.0    0.10    1.11    1.45    38.51261    73.97710   145.25190
    27  H   1.0    0.07    1.06    1.44    37.85310    75.62683   140.08538
    28  H   1.0    0.05    1.04    1.43    35.68558    71.95698   141.46299
    29  H   1.0    0.05    1.04    1.43    34.73127    73.45365   144.33160
    30  H   1.0    0.05    1.03    1.43    31.23150    76.56792   144.34105
    31  H   1.0    0.06    1.03    1.43    33.60122    72.73744   137.62118
    32  H   1.0    0.05    1.04    1.43    27.28386    77.88883   142.22833
    33  H   1.0    0.06    1.03    1.43    29.60445    73.93742   135.58406
    34  H   1.0    0.06    1.03    1.43    26.49774    76.59059   137.81393
    35  N   5.0   -0.14    3.53    2.10    37.17847    79.06424   144.90608
    36  C   4.0    0.04    4.25    4.10    37.52240    81.71931   145.54858
    37  C   4.0    0.11    3.22    3.04    39.04552    82.93818   143.38863
    38  O   6.0   -0.22    1.11    1.80    38.33309    84.91106   142.38140
    39  C   4.0   -0.04    4.26    4.12    39.02284    81.89316   148.06570
    40  C   4.0   -0.04    4.15    3.89    37.51673    81.87427   150.53746
    41  C   4.0   -0.04    4.20    4.00    36.21093    84.41784   150.90029
    42  C   4.0   -0.03    4.11    3.82    34.46293    84.52744   153.18308
    43  N   5.0   -0.11    4.00    2.87    32.43904    86.45496   152.72009
    44  H   1.0    0.08    1.09    1.44    37.79263    77.91151   146.32526
    45  H   1.0    0.07    1.05    1.44    35.72527    82.69063   145.80747
    46  H   1.0    0.05    1.03    1.43    40.30785    80.28501   148.14318
    47  H   1.0    0.06    1.04    1.43    40.09432    83.65250   148.03924
    48  H   1.0    0.05    1.04    1.43    36.08243    80.39650   150.46754
    49  H   1.0    0.05    1.03    1.43    38.78851    81.54923   152.12483
    50  H   1.0    0.06    1.03    1.43    37.65090    85.87104   151.14595
    51  H   1.0    0.06    1.04    1.43    35.07898    84.82413   149.22788
    52  H   1.0    0.05    1.02    1.43    33.58043    82.69063   153.47787
    53  H   1.0    0.06    1.02    1.43    35.53252    85.07168   154.85737
    54  H   1.0    0.08    1.01    1.43    32.13290    87.51321   154.34715
    55  H   1.0    0.08    1.02    1.43    32.98139    87.66250   151.26689
    56  H   1.0    0.07    1.01    1.43    30.76285    85.56112   152.21554
    57  N   5.0   -0.18    3.23    1.96     3.96087    71.49589   150.77556
    58  C   4.0    0.03    4.45    4.46     6.37594    72.65618   151.46720
    59  C   4.0    0.14    3.57    3.15     8.70975    71.46188   150.29557
    60  O   6.0   -0.32    1.36    1.80     9.09525    69.19043   150.46943
    61  C   4.0   -0.02    4.40    4.39     6.85593    72.42186   154.31124
    62  C   4.0   -0.04    4.24    4.07     4.60337    73.46310   155.77767
    63  C   4.0   -0.07    4.16    3.92     9.25399    73.82214   155.04446
    64  C   4.0   -0.06    4.02    3.66     4.64873    72.92263   158.58013
    65  H   1.0    0.12    1.07    1.44     3.66796    69.78191   151.60515
    66  H   1.0    0.04    1.07    1.44     6.19452    74.56859   150.72076
    67  H   1.0    0.05    1.06    1.44     7.09403    70.42820   154.77422
    68  H   1.0    0.05    1.03    1.43     4.55802    75.50967   155.54145
    69  H   1.0    0.05    1.04    1.43     2.88183    72.62784   155.01422
    70  H   1.0    0.04    1.00    1.43     9.55067    73.62561   157.07402
    71  H   1.0    0.05    1.01    1.43    10.84514    73.00956   154.01833
    72  H   1.0    0.05    1.00    1.43     9.04423    75.81203   154.55502
    73  H   1.0    0.06    1.00    1.43     2.96876    73.74089   159.44752
    74  H   1.0    0.04    1.00    1.43     4.66762    70.88362   158.86926
    75  H   1.0    0.06    1.00    1.43     6.34192    73.76356   159.39838
    76  N   5.0   -0.10    3.74    2.33    10.28389    72.99066   149.08615
    77  C   4.0    0.04    4.63    4.70    12.41928    71.99856   147.69342
    78  C   4.0    0.15    3.49    3.11    14.57168    71.78880   149.57370
    79  O   6.0   -0.32    1.29    1.80    15.16316    73.62561   150.87572
    80  C   4.0   -0.04    4.39    4.37    12.84258    74.03946   145.71488
    81  C   4.0   -0.03    4.33    4.26    12.27566    76.42241   147.13406
    82  C   4.0   -0.01    4.38    4.35    10.12515    75.75911   148.90285
    83  H   1.0    0.06    1.05    1.44    12.09614    70.22789   146.69187
    84  H   1.0    0.04    1.03    1.43    14.79277    74.00356   145.05158
    85  H   1.0    0.04    1.03    1.43    11.55378    73.78246   144.12940
    86  H   1.0    0.05    1.03    1.43    13.93862    77.01767   148.19231
    87  H   1.0    0.05    1.03    1.43    11.71252    77.90206   145.81692
    88  H   1.0    0.05    1.02    1.43    10.39727    76.63406   150.74722
    89  H   1.0    0.05    1.02    1.43     8.31479    76.33926   148.10727
    90  N   5.0   -0.14    3.54    2.11    15.76220    69.60806   149.72866
    91  C   4.0    0.04    4.64    4.71    18.02610    69.42475   151.21965
    92  C   4.0    0.14    3.53    3.13    20.28243    68.92020   149.59071
    93  O   6.0   -0.30    1.29    1.80    20.10101    67.52936   147.71799
    94  C   4.0   -0.02    4.36    4.31    17.80689    67.28936   153.08670
    95  C   4.0   -0.07    4.19    3.98    20.35046    66.78292   154.32258
    96  C   4.0   -0.08    4.16    3.91    15.83779    67.98667   155.01989
    97  H   1.0    0.12    1.15    1.45    15.20851    67.97911   148.85938
    98  H   1.0    0.06    1.09    1.44    18.29066    71.24078   152.15506
    99  H   1.0    0.04    1.06    1.44    17.23619    65.55081   152.13995
   100  H   1.0    0.03    1.00    1.43    20.14826    65.23334   155.66429
   101  H   1.0    0.05    1.02    1.43    21.71484    66.27647   152.86560
   102  H   1.0    0.06    1.00    1.43    20.97029    68.48556   155.30335
   103  H   1.0    0.04    1.00    1.43    15.66394    66.45221   156.38238
   104  H   1.0    0.04    1.00    1.43    16.41983    69.71388   155.97798
   105  H   1.0    0.05    1.01    1.43    14.03688    68.28525   154.06558
   106  N   5.0   -0.14    3.53    2.10    22.38002    70.08427   150.33337
   107  C   4.0    0.04    4.55    4.60    24.82911    69.49845   149.29024
   108  C   4.0    0.14    3.58    3.15    26.20483    67.96399   151.24233
   109  O   6.0   -0.32    1.34    1.80    26.46750    68.79547   153.40795
   110  C   4.0   -0.02    4.34    4.27    26.40703    71.88140   148.91040
   111  C   4.0   -0.07    4.16    3.93    29.19816    71.20676   148.66285
   112  C   4.0   -0.07    4.10    3.81    25.47917    73.37239   146.63329
   113  H   1.0    0.10    1.08    1.44    22.42349    71.46377   151.67885
   114  H   1.0    0.07    1.07    1.44    24.56644    68.49312   147.51201
   115  H   1.0    0.05    1.06    1.44    26.19727    73.09460   150.56203
   116  H   1.0    0.04    1.00    1.43    30.28475    72.93586   148.39451
   117  H   1.0    0.05    1.02    1.43    29.81232    70.25056   150.38061
   118  H   1.0    0.04    1.00    1.43    29.44571    69.96143   147.03958
   119  H   1.0    0.04    1.00    1.43    26.64325    75.05802   146.41597
   120  H   1.0    0.04    1.00    1.43    25.63035    72.19131   144.95143
   121  H   1.0    0.05    1.00    1.43    23.51386    73.91096   146.93942
   122  N   5.0   -0.15    3.46    2.06    27.13835    65.75868   150.51100
   123  C   4.0    0.04    4.56    4.62    28.46872    64.20533   152.35160
   124  C   4.0    0.14    3.52    3.12    31.16347    63.76691   151.50122
   125  O   6.0   -0.31    1.32    1.80    31.60189    62.07183   149.97810
   126  C   4.0   -0.01    4.35    4.29    27.21772    61.62207   152.61238
   127  C   4.0   -0.07    4.20    4.00    28.98840    59.88731   154.01833
   128  C   4.0   -0.08    4.11    3.82    24.64959    61.82805   153.88227
   129  H   1.0    0.10    1.07    1.44    27.00796    65.02925   148.73088
   130  H   1.0    0.06    1.08    1.44    28.50085    65.26547   154.11660
   131  H   1.0    0.05    1.06    1.44    26.85490    60.81705   150.75100
   132  H   1.0    0.03    1.00    1.43    28.10400    58.03726   154.20920
   133  H   1.0    0.06    1.04    1.43    30.74584    59.71912   152.95631
   134  H   1.0    0.04    1.00    1.43    29.36634    60.68099   155.88160
   135  H   1.0    0.03    1.00    1.43    23.82189    59.94778   154.03156
   136  H   1.0    0.04    1.00    1.43    24.89336    62.63875   155.76066
   137  H   1.0    0.05    1.00    1.43    23.43449    63.04126   152.74466
   138  N   5.0   -0.13    3.44    2.04    32.97761    65.24846   152.42530
   139  C   4.0    0.04    4.38    4.35    35.62889    64.76469   151.69586
   140  C   4.0    0.16    3.43    3.09    36.94792    63.15464   153.70275
   141  O   6.0   -0.31    1.31    1.80    36.55108    63.57038   155.97042
   142  C   4.0   -0.03    4.25    4.10    37.18036    67.18921   151.25366
   143  C   4.0   -0.03    4.17    3.94    35.78952    69.71010   150.97210
   144  C   4.0    0.23    3.11    3.03    37.32587    71.61305   149.41496
   145  O   6.0   -0.32    1.22    1.80    38.14034    70.85905   147.32304
   146  O   6.0   -0.30    1.15    1.80    37.74161    73.81836   150.24833
   147  H   1.0    0.11    1.09    1.44    32.69982    66.73000   153.62527
   148  H   1.0    0.06    1.07    1.44    35.58354    63.74424   149.90629
   149  H   1.0    0.07    1.04    1.43    38.45781    67.40652   152.85426
   150  H   1.0    0.06    1.04    1.43    38.26128    66.92464   149.52079
   151  H   1.0    0.04    1.03    1.43    33.99239    69.39263   150.01589
   152  H   1.0    0.06    1.03    1.43    35.46071    70.51701   152.83915
   153  N   5.0   -0.14    3.47    2.06    38.51639    61.34995   152.88828
   154  C   4.0    0.03    4.49    4.52    40.25305    60.06305   154.62872
   155  C   4.0    0.17    3.61    3.17    41.82152    62.03970   155.87404
   156  O   6.0   -0.28    1.31    1.80    42.23726    64.05982   154.81769
   157  C   4.0   -0.04    4.32    4.24    42.04829    58.32261   153.24166
   158  C   4.0   -0.04    4.26    4.11    43.58842    56.68233   155.00666
   159  C   4.0   -0.00    4.19    3.98    43.90211    53.95168   154.08258
   160  N   5.0   -0.13    3.37    2.01    45.59342    53.61341   151.91507
   161  C   4.0    0.10    3.34    3.06    47.88566    54.63765   151.66374
   162  N   5.0   -0.16    3.29    1.98    48.83997    56.15321   153.44575
   163  N   5.0   -0.16    3.23    1.96    49.22169    54.17466   149.57937
   164  H   1.0    0.08    1.05    1.44    38.63167    60.74146   151.06280
   165  H   1.0    0.05    1.09    1.44    39.17024    58.93866   155.97231
   166  H   1.0    0.04    1.04    1.43    40.95981    57.08295   152.00767
   167  H   1.0    0.06    1.04    1.43    43.35409    59.45834   152.12483
   168  H   1.0    0.06    1.09    1.44    45.46870    57.49869   155.20130
   169  H   1.0    0.05    1.04    1.43    42.65489    56.61997   156.84158
   170  H   1.0    0.06    1.03    1.43    44.65989    52.82540   155.63216
   171  H   1.0    0.05    1.03    1.43    42.05018    53.23547   153.53078
   172  H   1.0    0.08    1.06    1.44    44.96414    52.49848   150.47321
   173  H   1.0    0.09    1.08    1.44    47.81385    56.54438   155.02934
   174  H   1.0    0.11    1.02    1.43    50.59552    56.91855   153.22087
   175  H   1.0    0.09    1.03    1.43    48.49037    53.04839   148.19609
   176  H   1.0    0.11    1.02    1.43    50.97536    54.94756   149.36772
   177  N   5.0   -0.14    3.57    2.13    42.71726    61.50113   158.13227
   178  C   4.0    0.04    4.42    4.41    44.55785    63.18488   159.22831
   179  C   4.0    0.10    3.35    3.06    46.77639    63.08094   157.47086
   180  O   6.0   -0.28    1.16    1.80    47.46236    61.02492   156.55624
   181  C   4.0   -0.03    4.38    4.34    45.28917    62.27025   161.80967
   182  C   4.0   -0.01    3.55    3.14    47.19024    63.83116   163.25909
   183  C   4.0   -0.03    3.46    3.10    46.91245    66.42765   163.56712
   184  C   4.0   -0.03    3.49    3.11    49.18957    62.63119   164.47608
   185  C   4.0   -0.01    3.42    3.09    48.65477    67.77880   164.96930
   186  C   4.0   -0.03    3.47    3.10    50.91489    63.94455   165.88770
   187  C   4.0    0.09    3.48    3.10    50.64843    66.49757   166.12959
   188  O   6.0   -0.20    2.12    1.84    52.41344    67.69754   167.56956
   189  H   1.0    0.10    1.09    1.44    42.22593    59.97612   159.20563
   190  H   1.0    0.04    1.07    1.44    43.86054    65.11051   159.45130
   191  H   1.0    0.04    1.04    1.43    43.58275    62.18899   162.96052
   192  H   1.0    0.05    1.04    1.44    46.09420    60.38430   161.60936
   193  H   1.0    0.06    1.03    1.43    45.33075    67.39141   162.70918
   194  H   1.0    0.06    1.03    1.43    49.38610    60.60729   164.30222
   195  H   1.0    0.07    1.03    1.43    48.47525    69.80270   165.16394
   196  H   1.0    0.07    1.03    1.43    52.46446    62.97323   166.79666
   197  H   1.0    0.14    1.03    1.43    53.64554    66.47300   168.21207
   198  N   5.0   -0.17    3.21    1.96    48.05951    46.32663   159.35492
   199  C   4.0    0.03    4.36    4.31    45.61420    46.20758   158.15494
   200  C   4.0    0.14    3.46    3.10    45.73326    46.67623   155.31658
   201  O   6.0   -0.27    1.20    1.80    47.12221    48.35809   154.41518
   202  C   4.0   -0.05    4.38    4.34    43.78684    48.05006   159.43429
   203  C   4.0   -0.03    4.19    3.97    42.29585    47.26583   161.78511
   204  C   4.0   -0.07    4.11    3.82    41.89711    49.44657   163.61625
   205  C   4.0   -0.07    4.15    3.90    39.76739    46.30962   160.88560
   206  H   1.0    0.10    1.02    1.43    48.72280    48.09164   159.75932
   207  H   1.0    0.04    1.12    1.45    44.85831    44.30274   158.36281
   208  H   1.0    0.05    1.04    1.44    44.88666    49.70168   159.98798
   209  H   1.0    0.05    1.05    1.44    42.38088    48.57918   158.02455
   210  H   1.0    0.05    1.06    1.44    43.34086    45.82396   162.82068
   211  H   1.0    0.04    1.00    1.43    40.82942    48.77005   165.24142
   212  H   1.0    0.05    1.00    1.43    43.73204    50.15333   164.22663
   213  H   1.0    0.04    1.00    1.43    40.85021    50.94134   162.66005
   214  H   1.0    0.04    1.00    1.43    38.65056    45.73326   162.51643
   215  H   1.0    0.04    1.00    1.43    38.80174    47.81952   159.87082
   216  H   1.0    0.04    1.00    1.43    40.06597    44.70147   159.63460
   217  N   5.0   -0.09    3.63    2.19    44.25360    45.18902   153.89550
   218  C   4.0    0.03    4.52    4.57    43.52417    45.48381   151.18563
   219  C   4.0    0.15    3.63    3.19    41.60988    47.45669   150.45998
   220  O   6.0   -0.30    1.33    1.80    39.69936    47.63999   151.69586
   221  C   4.0   -0.02    4.52    4.56    41.74972    43.25016   150.70942
   222  C   4.0   -0.03    4.31    4.22    41.25461    42.11254   153.26811
   223  C   4.0   -0.01    4.44    4.44    43.46559    42.74182   154.92540
   224  H   1.0    0.06    1.04    1.44    45.36854    45.68412   150.29179
   225  H   1.0    0.07    1.08    1.44    39.99983    43.92101   149.85338
   226  H   1.0    0.06    1.02    1.43    42.66434    41.88767   149.46598
   227  H   1.0    0.05    1.03    1.43    39.52551    42.91568   154.04668
   228  H   1.0    0.05    1.03    1.43    41.05997    40.07164   153.07914
   229  H   1.0    0.04    1.05    1.44    42.89678    42.91001   156.89828
   230  H   1.0    0.06    1.02    1.43    44.96036    41.33776   154.74021
   231  N   5.0   -0.09    3.69    2.26    42.06341    48.91934   148.45687
   232  C   4.0    0.03    4.58    4.64    40.41368    51.12276   148.03546
   233  C   4.0    0.16    3.51    3.12    38.38600    50.53505   146.06637
   234  O   6.0   -0.26    1.26    1.80    38.66001    48.69257   144.65852
   235  C   4.0   -0.04    4.41    4.40    42.04640    52.90099   146.40085
   236  C   4.0   -0.03    4.29    4.18    44.29329    51.31740   145.59205
   237  C   4.0    0.00    4.34    4.28    43.80007    48.59808   146.33093
   238  H   1.0    0.06    1.06    1.44    39.80330    51.80495   149.88172
   239  H   1.0    0.06    1.05    1.44    40.96737    53.53783   144.76624
   240  H   1.0    0.04    1.02    1.43    42.65111    54.52048   147.51957
   241  H   1.0    0.06    1.03    1.43    44.52005    51.46669   143.55114
   242  H   1.0    0.04    1.04    1.43    45.98270    52.01471   146.54258
   243  H   1.0    0.08    1.02    1.43    42.91568    47.55306   144.79269
   244  H   1.0    0.05    1.02    1.43    45.53484    47.65511   146.91674
   245  N   5.0   -0.13    3.47    2.06    36.38100    52.03927   145.95865
   246  C   4.0    0.04    4.45    4.46    33.91113    51.29283   145.03836
   247  C   4.0    0.16    3.43    3.09    33.80153    51.48558   142.20755
   248  O   6.0   -0.25    1.23    1.80    35.03741    53.07673   141.02269
   249  C   4.0   -0.04    4.45    4.46    31.87590    52.67233   146.46321
   250  C   4.0   -0.02    4.22    4.04    31.28252    51.82951   149.10883
   251  C   4.0   -0.07    4.14    3.88    31.05009    54.21246   150.68864
   252  C   4.0   -0.08    4.13    3.86    28.85612    50.29695   149.04269
   253  H   1.0    0.08    1.06    1.44    36.41502    53.88176   146.52557
   254  H   1.0    0.06    1.08    1.44    33.50862    49.30673   145.40496
   255  H   1.0    0.05    1.06    1.44    32.43337    54.65087   146.58604
   256  H   1.0    0.05    1.05    1.44    30.12979    52.49659   145.38418
   257  H   1.0    0.05    1.06    1.44    32.72816    50.62387   149.94408
   258  H   1.0    0.04    1.00    1.43    30.61734    53.68900   152.63316
   259  H   1.0    0.04    1.00    1.43    32.83399    55.24047   150.61872
   260  H   1.0    0.04    1.00    1.43    29.53642    55.38031   149.92141
   261  H   1.0    0.04    1.00    1.43    28.40447    49.67523   150.95320
   262  H   1.0    0.04    1.00    1.43    27.33678    51.47802   148.31136
   263  H   1.0    0.05    1.00    1.43    29.12824    48.66422   147.81814
   264  N   5.0   -0.14    3.53    2.10    32.12534    49.94735   141.14552
   265  C   4.0    0.05    4.41    4.41    31.38457    50.15522   138.51502
   266  C   4.0    0.15    3.45    3.10    30.26585    52.76493   137.98968
   267  O   6.0   -0.27    1.24    1.80    30.84789    53.90632   136.04704
   268  C   4.0   -0.03    4.30    4.20    29.47217    48.09730   137.83472
   269  C   4.0    0.26    3.19    3.03    29.94082    45.64822   139.24446
   270  O   6.0   -0.28    1.21    1.80    29.03375    45.40445   141.41008
   271  O   6.0   -0.23    1.17    1.80    31.21638    43.96825   138.18810
   272  H   1.0    0.10    1.11    1.45    31.23339    48.51493   142.07716
   273  H   1.0    0.08    1.06    1.44    33.04753    49.88310   137.33016
   274  H   1.0    0.04    1.04    1.43    27.57866    48.75493   138.31093
   275  H   1.0    0.06    1.03    1.43    29.59500    47.70613   135.81649
   276  N   5.0   -0.14    3.47    2.06    28.67470    53.73247   139.69043
   277  C   4.0    0.04    4.43    4.43    27.64291    56.24391   139.25579
   278  C   4.0    0.15    3.50    3.12    26.97017    57.84640   141.54614
   279  O   6.0   -0.31    1.30    1.80    26.39191    56.86752   143.53602
   280  C   4.0   -0.04    4.40    4.39    24.90092    56.09463   138.28448
   281  C   4.0   -0.05    4.25    4.11    24.16582    53.80428   136.69900
   282  C   4.0   -0.04    4.18    3.95    24.73273    54.09341   133.87763
   283  C   4.0   -0.03    4.13    3.86    23.83511    51.77660   132.43388
   284  N   5.0   -0.11    4.06    3.04    24.22440    49.46925   134.02503
   285  H   1.0    0.08    1.05    1.44    28.09834    52.85752   141.30804
   286  H   1.0    0.07    1.08    1.44    29.16036    57.04705   138.11818
   287  H   1.0    0.05    1.07    1.44    23.65181    56.10785   139.92098
   288  H   1.0    0.04    1.04    1.43    24.55321    57.75758   137.12040
   289  H   1.0    0.04    1.05    1.44    25.21083    52.16400   137.38119
   290  H   1.0    0.04    1.03    1.43    22.14192    53.48302   136.89931
   291  H   1.0    0.05    1.03    1.43    23.75197    55.74692   133.14064
   292  H   1.0    0.07    1.03    1.43    26.76419    54.29561   133.59796
   293  H   1.0    0.05    1.02    1.43    21.83011    51.95613   132.00114
   294  H   1.0    0.06    1.02    1.43    24.91604    51.57629   130.69345
   295  H   1.0    0.08    1.01    1.43    24.04676    47.85353   132.92143
   296  H   1.0    0.06    1.02    1.43    26.01964    49.49948   134.82628
   297  H   1.0    0.05    1.02    1.43    22.88458    49.41066   135.46311
   298  N   5.0   -0.14    3.52    2.09    26.94938    60.32950   141.17576
   299  C   4.0    0.04    4.47    4.50    27.46906    62.36285   142.93698
   300  C   4.0    0.13    3.48    3.11    25.15603    63.92754   143.50201
   301  O   6.0   -0.32    1.30    1.80    24.84990    64.90642   145.59394
   302  C   4.0    0.05    4.26    4.12    29.49295    64.09950   141.82393
   303  O   6.0   -0.23    2.11    1.84    31.58866    62.56316   141.09261
   304  C   4.0   -0.07    4.09    3.78    30.36034    66.06104   143.75712
   305  H   1.0    0.07    1.08    1.44    26.52419    61.07783   139.45233
   306  H   1.0    0.06    1.06    1.44    28.18337    61.58995   144.70765
   307  H   1.0    0.04    1.04    1.43    28.74273    65.12752   140.20444
   308  H   1.0    0.12    1.01    1.43    32.92470    63.61951   140.36506
   309  H   1.0    0.04    1.00    1.43    31.80031    67.27802   142.92753
   310  H   1.0    0.05    1.00    1.43    28.76352    67.22133   144.34861
   311  H   1.0    0.06    1.00    1.43    31.15024    65.11996   145.41063
   312  N   5.0   -0.14    3.57    2.13    23.53654    64.18832   141.62929
   313  C   4.0    0.04    4.46    4.48    21.35579    65.77758   141.95054
   314  C   4.0    0.15    3.43    3.09    19.08434    64.05415   142.27369
   315  O   6.0   -0.32    1.30    1.80    18.11491    62.99401   140.45010
   316  C   4.0   -0.04    4.26    4.12    21.10824    67.63518   139.72445
   317  C   4.0   -0.05    4.26    4.12    22.20239    66.55237   137.29993
   318  C   4.0   -0.05    4.18    3.96    21.80744    68.20399   134.99446
   319  C   4.0   -0.04    4.14    3.89    21.74130    66.61284   132.57561
   320  N   5.0   -0.11    4.00    2.86    20.49597    68.02069   130.47613
   321  H   1.0    0.07    1.08    1.44    23.69149    63.33605   139.90775
   322  H   1.0    0.07    1.08    1.44    21.51642    66.90953   143.66453
   323  H   1.0    0.05    1.05    1.44    19.11647    68.04903   139.40508
   324  H   1.0    0.04    1.03    1.43    22.12491    69.36995   140.17420
   325  H   1.0    0.04    1.04    1.43    24.23196    66.30103   137.54559
   326  H   1.0    0.05    1.04    1.43    21.30666    64.73445   136.92576
   327  H   1.0    0.04    1.07    1.44    20.01409    69.20365   135.16643
   328  H   1.0    0.04    1.03    1.43    23.35512    69.55325   134.84328
   329  H   1.0    0.05    1.02    1.43    23.66693    66.15553   132.00303
   330  H   1.0    0.03    1.06    1.44    20.67927    64.88185   132.92143
   331  H   1.0    0.07    1.01    1.43    20.46573    66.91520   128.85096
   332  H   1.0    0.06    1.02    1.43    18.64971    68.47422   130.97313
   333  H   1.0    0.07    1.01    1.43    21.48051    69.67986   130.10196
   334  N   5.0   -0.13    3.64    2.20    18.26987    63.71211   144.61506
   335  C   4.0    0.04    4.53    4.58    15.94551    62.30049   145.10639
   336  C   4.0    0.16    3.48    3.11    13.81579    64.10328   145.52780
   337  O   6.0   -0.32    1.38    1.80    14.18617    66.14986   146.56903
   338  C   4.0   -0.03    4.44    4.45    16.21574    60.73201   147.45532
   339  C   4.0   -0.02    3.65    3.20    18.55522    59.27692   147.46854
   340  C   4.0   -0.03    3.61    3.17    20.85880    60.52414   147.22855
   341  C   4.0   -0.05    3.48    3.10    18.49286    56.69178   147.58760
   342  C   4.0   -0.02    3.38    3.07    23.11135    59.20889   147.14162
   343  C   4.0   -0.05    3.38    3.07    20.73407    55.34629   147.52335
   344  C   4.0   -0.03    3.41    3.08    23.05466    56.59918   147.30603
   345  H   1.0    0.10    1.13    1.45    19.15804    64.37540   146.19109
   346  H   1.0    0.06    1.08    1.44    15.53544    61.07972   143.49823
   347  H   1.0    0.05    1.04    1.43    16.22141    61.97356   149.09938
   348  H   1.0    0.04    1.04    1.44    14.63782    59.41298   147.57248
   349  H   1.0    0.07    1.09    1.44    20.88525    62.56127   147.10761
   350  H   1.0    0.04    1.03    1.43    16.70896    55.71101   147.73122
   351  H   1.0    0.07    1.03    1.43    24.88580    60.19911   146.94887
   352  H   1.0    0.05    1.03    1.43    20.69250    53.30917   147.64240
   353  H   1.0    0.06    1.03    1.43    24.79509    55.53338   147.26634
   354  N   5.0   -0.13    3.57    2.13    11.57646    63.34361   144.71710
   355  C   4.0    0.04    4.51    4.55     9.29178    64.64941   145.46543
   356  C   4.0    0.15    3.50    3.11     8.45274    63.35495   147.83137
   357  O   6.0   -0.32    1.35    1.80     9.15761    61.20444   148.23388
   358  C   4.0   -0.04    4.40    4.38     7.28111    64.34517   143.46044
   359  C   4.0   -0.02    4.24    4.07     7.78756    66.16497   141.28725
   360  C   4.0   -0.06    4.07    3.74     6.62916    65.30704   138.76825
   361  C   4.0   -0.07    4.11    3.81     6.99010    68.81815   142.07338
   362  H   1.0    0.11    1.11    1.45    11.28922    61.83939   143.54736
   363  H   1.0    0.05    1.07    1.44     9.57902    66.67142   145.73944
   364  H   1.0    0.06    1.03    1.43     7.31135    62.41765   142.73478
   365  H   1.0    0.05    1.03    1.43     5.43107    64.76658   144.26357
   366  H   1.0    0.04    1.12    1.45     9.80957    66.19521   140.89041
   367  H   1.0    0.06    1.00    1.43     7.07135    66.70166   137.31694
   368  H   1.0    0.06    1.00    1.43     7.42662    63.47967   138.25235
   369  H   1.0    0.06    1.00    1.43     4.58825    65.14641   138.98934
   370  H   1.0    0.05    1.00    1.43     7.35292    70.11639   140.51624
   371  H   1.0    0.06    1.00    1.43     4.98132    68.80870   142.52502
   372  H   1.0    0.04    1.00    1.43     8.08047    69.38318   143.72689
   373  N   5.0   -0.12    3.53    2.10     7.02033    64.64563   149.43575
   374  C   4.0    0.04    4.39    4.36     6.10759    63.52503   151.79980
   375  C   4.0    0.07    3.19    3.03     3.41096    64.49446   152.13995
   376  O   6.0   -0.28    1.22    1.80     2.74388    66.51268   151.09304
   377  C   4.0   -0.02    4.24    4.09     8.11826    63.46456   153.93330
   378  C   4.0   -0.08    4.15    3.89     8.84770    60.77170   154.57391
   379  C   4.0   -0.06    4.18    3.95    10.45396    64.99712   153.26433
   380  H   1.0    0.11    1.08    1.44     6.45530    66.46733   149.16174
   381  H   1.0    0.04    1.11    1.45     5.78256    61.49168   151.83570
   382  H   1.0    0.04    1.06    1.44     7.27167    64.33194   155.59814
   383  H   1.0    0.04    1.00    1.43    10.25932    60.79815   156.07436
   384  H   1.0    0.03    1.00    1.43     7.17151    59.75502   155.20508
   385  H   1.0    0.04    1.03    1.43     9.62437    59.87030   152.89395
   386  H   1.0    0.03    1.00    1.43    11.79567    64.88941   154.82336
   387  H   1.0    0.06    1.01    1.43    11.29867    64.22045   151.55413
   388  H   1.0    0.08    1.05    1.44     9.90216    66.95677   152.94686
   389  N   5.0   -0.19    3.26    1.97     1.65540    62.07561   165.12425
   390  C   4.0    0.03    4.35    4.29     3.03490    59.72857   165.09402
   391  C   4.0    0.16    3.46    3.10     4.98699    59.82872   167.21996
   392  O   6.0   -0.31    1.28    1.80     6.50255    61.58617   167.32578
   393  C   4.0   -0.05    4.39    4.37     4.30669    59.41109   162.51076
   394  C   4.0   -0.02    4.20    4.00     4.65062    56.67288   161.69818
   395  C   4.0   -0.06    4.13    3.87     2.06169    55.40488   161.70385
   396  C   4.0   -0.08    4.10    3.79     5.96020    56.52359   159.14516
   397  H   1.0    0.09    1.10    1.44     2.66829    63.52881   165.88392
   398  H   1.0    0.05    1.07    1.44     1.79902    58.11852   165.43984
   399  H   1.0    0.04    1.04    1.43     3.14828    60.34651   161.08780
   400  H   1.0    0.04    1.04    1.43     6.17184    60.28226   162.58446
   401  H   1.0    0.05    1.06    1.44     5.87327    55.65243   163.00398
   402  H   1.0    0.05    1.00    1.43     2.27523    53.43956   161.12559
   403  H   1.0    0.06    1.01    1.43     1.27557    55.49558   163.60491
   404  H   1.0    0.05    1.00    1.43     0.82770    56.39509   160.38482
   405  H   1.0    0.04    1.00    1.43     6.17751    54.54505   158.61793
   406  H   1.0    0.04    1.00    1.43     4.81124    57.50247   157.74298
   407  H   1.0    0.03    1.00    1.43     7.80835    57.42121   159.28689
   408  N   5.0   -0.13    3.50    2.08     4.90951    58.00325   168.94717
   409  C   4.0    0.04    4.46    4.48     6.88049    57.79349   170.84256
   410  C   4.0    0.17    3.56    3.14     9.39950    57.56294   169.46306
   411  O   6.0   -0.30    1.32    1.80     9.62626    56.15132   167.59601
   412  C   4.0    0.06    4.21    4.02     6.60081    55.42566   172.54521
   413  O   6.0   -0.24    2.31    1.89     8.22220    53.43767   171.65326
   414  C   4.0   -0.06    4.12    3.84     3.85882    54.48836   172.70394
   415  H   1.0    0.10    1.11    1.44     3.52623    56.66532   169.07567
   416  H   1.0    0.05    1.05    1.44     6.77656    59.44322   172.07089
   417  H   1.0    0.06    1.04    1.43     7.15450    55.94534   174.45950
   418  H   1.0    0.12    1.02    1.43     7.62315    51.80117   172.28065
   419  H   1.0    0.06    1.00    1.43     3.75111    52.82729   173.91526
   420  H   1.0    0.06    1.00    1.43     2.65318    55.96423   173.48629
   421  H   1.0    0.08    1.06    1.44     3.17474    53.99136   170.82556
   422  N   5.0   -0.15    3.47    2.06    11.26844    58.96890   170.36635
   423  C   4.0    0.04    4.43    4.43    13.84980    58.47757   169.66149
   424  C   4.0    0.09    3.30    3.05    14.48286    55.69589   169.88069
   425  O   6.0   -0.32    1.47    1.80    15.80378    54.69434   168.24797
   426  C   4.0   -0.05    4.49    4.53    15.59213    59.86841   171.39625
   427  C   4.0   -0.05    4.10    3.81    15.59024    62.63308   170.84256
   428  S   6.0   -0.06    2.57    3.10    17.84846    63.29070   168.38970
   429  C   4.0   -0.07    3.91    3.48    20.60557    61.47467   169.25708
   430  H   1.0    0.08    1.06    1.44    11.04356    60.44855   171.58145
   431  H   1.0    0.05    1.07    1.44    14.09925    59.12952   167.72263
   432  H   1.0    0.04    1.04    1.43    14.97986    59.59251   173.34456
   433  H   1.0    0.04    1.10    1.44    17.51020    59.15598   171.15248
   434  H   1.0    0.04    1.08    1.44    13.72130    63.21700   170.20384
   435  H   1.0    0.04    1.07    1.44    16.11558    63.68565   172.53387
   436  H   1.0    0.04    1.04    1.43    22.07767    61.77514   167.84735
   437  H   1.0    0.05    1.04    1.43    21.26698    62.10017   171.10524
   438  H   1.0    0.04    1.05    1.44    20.09913    59.47912   169.33078
   439  N   5.0   -0.19    3.28    1.98    11.02088    50.68056   168.87536
   440  C   4.0    0.03    4.30    4.20    10.23287    49.49003   166.50753
   441  C   4.0    0.15    3.47    3.10    12.03377    50.39899   164.45907
   442  O   6.0   -0.32    1.35    1.80    13.30367    48.83241   163.23831
   443  C   4.0   -0.04    4.28    4.16     7.51166    50.19490   165.80455
   444  C   4.0   -0.03    4.20    4.01     5.48587    49.34641   167.68672
   445  C   4.0    0.15    3.23    3.04     3.11049    50.99425   167.62625
   446  O   6.0   -0.32    1.31    1.80     3.27112    53.28838   167.36169
   447  N   5.0   -0.17    3.17    1.95     0.90140    49.82829   167.87758
   448  H   1.0    0.12    1.17    1.46     9.64327    51.68023   169.77865
   449  H   1.0    0.05    1.05    1.44    10.26688    47.43968   166.70973
   450  H   1.0    0.07    1.04    1.43     7.39072    52.24525   165.65527
   451  H   1.0    0.05    1.03    1.43     7.06569    49.32941   163.99042
   452  H   1.0    0.05    1.03    1.43     4.92652    47.41511   167.24075
   453  H   1.0    0.05    1.03    1.43     6.26633    49.43145   169.59157
   454  H   1.0    0.10    1.02    1.43     0.84093    47.91400   168.09868
   455  H   1.0    0.11    1.02    1.43    -0.73510    50.84686   167.84924
   456  N   5.0   -0.14    3.50    2.08    12.24542    52.90477   164.17372
   457  C   4.0    0.04    4.54    4.59    13.86681    53.87987   162.21030
   458  C   4.0    0.17    3.62    3.18    16.40471    52.64588   162.27833
   459  O   6.0   -0.31    1.30    1.80    17.32501    51.69156   160.32435
   460  C   4.0   -0.04    4.40    4.39    14.34680    56.66721   162.36147
   461  C   4.0   -0.02    3.56    3.15    15.64504    57.66688   160.03144
   462  C   4.0   -0.04    3.48    3.11    14.89671    56.89776   157.61826
   463  C   4.0   -0.05    3.46    3.10    17.60847    59.36574   160.21097
   464  C   4.0   -0.05    3.37    3.07    16.08913    57.83128   155.46397
   465  C   4.0   -0.05    3.38    3.07    18.78388    60.35218   158.03778
   466  C   4.0   -0.05    3.37    3.07    18.05633    59.55471   155.66618
   467  H   1.0    0.11    1.10    1.44    11.34402    54.23325   165.24142
   468  H   1.0    0.04    1.07    1.44    12.83691    53.49625   160.46797
   469  H   1.0    0.04    1.04    1.43    12.54967    57.65176   162.56745
   470  H   1.0    0.05    1.04    1.44    15.55244    57.05650   163.98475
   471  H   1.0    0.04    1.03    1.43    13.36981    55.55794   157.41984
   472  H   1.0    0.04    1.03    1.43    18.25853    59.95156   162.05345
   473  H   1.0    0.04    1.03    1.43    15.47686    57.20767   153.61960
   474  H   1.0    0.04    1.03    1.43    20.26542    61.74302   158.22864
   475  H   1.0    0.04    1.03    1.43    18.99930    60.25769   153.99755
   476  N   5.0   -0.15    3.57    2.13    17.55555    52.70824   164.51198
   477  C   4.0    0.03    4.40    4.38    19.95362    51.42511   164.85402
   478  C   4.0    0.16    3.53    3.13    19.74197    48.77572   163.70885
   479  O   6.0   -0.32    1.38    1.80    21.23863    48.11620   162.03644
   480  C   4.0   -0.05    4.32    4.23    20.78699    51.32307   167.61680
   481  C   4.0   -0.03    4.15    3.90    23.61213    50.97914   168.27632
   482  C   4.0   -0.07    4.08    3.77    23.98629    50.95646   171.15248
   483  C   4.0   -0.07    4.08    3.76    24.92926    48.66044   167.13114
   484  H   1.0    0.13    1.33    1.51    16.88659    53.61153   166.07857
   485  H   1.0    0.04    1.06    1.44    21.43516    52.50037   163.91105
   486  H   1.0    0.05    1.04    1.43    20.20495    53.09374   168.49363
   487  H   1.0    0.05    1.04    1.43    19.79677    49.74326   168.49363
   488  H   1.0    0.04    1.06    1.44    24.53998    52.59863   167.40704
   489  H   1.0    0.05    1.00    1.43    25.98940    50.71269   171.56633
   490  H   1.0    0.04    1.00    1.43    23.32111    52.74414   171.92916
   491  H   1.0    0.05    1.00    1.43    22.90726    49.39744   171.95750
   492  H   1.0    0.05    1.00    1.43    26.89836    48.63966   167.73774
   493  H   1.0    0.05    1.00    1.43    23.97495    46.95591   167.78499
   494  H   1.0    0.05    1.00    1.43    24.82911    48.77761   165.07701
   495  N   5.0   -0.13    3.48    2.06    17.87303    47.28472   164.48931
   496  C   4.0    0.05    4.43    4.42    17.72185    44.72036   163.48019
   497  C   4.0    0.18    3.51    3.12    17.80122    44.68824   160.58324
   498  O   6.0   -0.31    1.38    1.80    19.44717    43.41834   159.44941
   499  C   4.0    0.03    4.17    3.93    15.39749    43.33142   164.40049
   500  O   6.0   -0.23    2.07    1.83    15.26521    40.99194   163.09847
   501  H   1.0    0.09    1.06    1.44    16.50298    47.77038   165.75353
   502  H   1.0    0.06    1.06    1.44    19.36780    43.71503   164.20396
   503  H   1.0    0.05    1.01    1.43    15.54678    42.99127   166.42627
   504  H   1.0    0.06    1.02    1.43    13.71374    44.44824   163.99609
   505  H   1.0    0.13    1.01    1.43    13.77610    40.04140   163.65405
   506  N   5.0   -0.13    3.51    2.08    16.07023    46.11309   159.40027
   507  C   4.0    0.04    4.51    4.55    15.97763    46.21892   156.63371
   508  C   4.0    0.16    3.53    3.13    18.44184    47.18268   155.55090
   509  O   6.0   -0.31    1.29    1.80    18.92938    46.84442   153.32480
   510  C   4.0   -0.02    4.38    4.34    13.88760    47.89510   155.51311
   511  C   4.0   -0.04    4.26    4.12    11.99031    48.74548   157.49921
   512  C   4.0   -0.07    4.12    3.84    12.60447    46.52883   153.32858
   513  C   4.0   -0.08    4.03    3.67    10.07413    50.60875   156.46553
   514  H   1.0    0.11    1.11    1.45    14.73986    47.18835   160.28656
   515  H   1.0    0.05    1.07    1.44    15.56378    44.27250   156.10270
   516  H   1.0    0.05    1.08    1.44    14.77010    49.61287   154.79501
   517  H   1.0    0.05    1.03    1.43    10.96797    47.09953   158.20030
   518  H   1.0    0.06    1.05    1.44    12.99942    49.65822   159.04501
   519  H   1.0    0.04    1.00    1.43    11.12860    47.74015   152.55569
   520  H   1.0    0.06    1.00    1.43    14.00854    46.11687   151.87727
   521  H   1.0    0.05    1.00    1.43    11.78055    44.77517   154.02589
   522  H   1.0    0.04    1.00    1.43     8.77589    51.14165   157.97353
   523  H   1.0    0.03    1.00    1.43    11.06624    52.27549   155.77200
   524  H   1.0    0.04    1.00    1.43     9.03478    49.71869   154.92540
   525  N   5.0   -0.13    3.57    2.13    20.01220    48.39588   157.05890
   526  C   4.0    0.04    4.68    4.74    22.54443    48.67745   156.15561
   527  C   4.0    0.15    3.61    3.17    24.28109    46.44379   156.56002
   528  O   6.0   -0.32    1.31    1.80    25.38469    45.57263   154.74210
   529  C   4.0   -0.02    4.48    4.51    23.86157    50.91111   157.30457
   530  C   4.0   -0.05    4.28    4.17    23.06788    53.23169   155.86082
   531  C   4.0   -0.08    4.27    4.15    26.66403    50.62009   157.09103
   532  C   4.0   -0.07    4.05    3.71    22.07578    55.24047   157.59936
   533  H   1.0    0.13    1.11    1.45    19.60213    49.14421   158.78611
   534  H   1.0    0.06    1.11    1.45    22.21940    48.90800   154.13550
   535  H   1.0    0.05    1.07    1.44    23.35512    51.05851   159.29634
   536  H   1.0    0.03    1.04    1.43    24.69116    53.99325   154.84792
   537  H   1.0    0.04    1.05    1.44    21.57878    52.73091   154.53045
   538  H   1.0    0.03    1.00    1.43    27.57488    52.26226   157.93574
   539  H   1.0    0.04    1.04    1.43    27.23851    48.90989   158.08502
   540  H   1.0    0.04    1.01    1.43    27.17426    50.48025   155.10115
   541  H   1.0    0.04    1.02    1.43    21.52398    56.88075   156.48254
   542  H   1.0    0.06    1.00    1.43    20.44306    54.50159   158.61604
   543  H   1.0    0.03    1.00    1.43    23.55543    55.76392   158.93351
   544  N   5.0   -0.14    3.51    2.08    24.48518    45.47437   158.86926
   545  C   4.0    0.03    4.41    4.40    25.90625    43.13866   159.32279
   546  C   4.0    0.16    3.48    3.11    25.11635    41.04674   157.48976
   547  O   6.0   -0.29    1.24    1.80    26.61679    39.42346   156.78489
   548  C   4.0   -0.04    4.30    4.20    25.57555    42.17679   162.02510
   549  C   4.0   -0.04    4.21    4.02    26.93615    39.65023   162.51643
   550  C   4.0   -0.00    4.22    4.05    27.09678    38.90946   165.28488
   551  N   5.0   -0.14    3.45    2.05    27.62401    41.12044   166.84201
   552  C   4.0    0.10    3.33    3.06    28.19093    41.03351   169.27976
   553  N   5.0   -0.17    3.26    1.97    28.33455    38.77907   170.39092
   554  N   5.0   -0.18    3.20    1.96    28.61612    43.18402   170.56855
   555  H   1.0    0.11    1.10    1.44    23.70283    46.24348   160.45474
   556  H   1.0    0.04    1.06    1.44    27.89991    43.58464   159.06012
   557  H   1.0    0.03    1.05    1.44    26.34278    43.57519   163.32901
   558  H   1.0    0.06    1.03    1.43    23.56866    41.89711   162.39360
   559  H   1.0    0.07    1.03    1.43    25.92137    38.15357   161.52999
   560  H   1.0    0.05    1.03    1.43    28.86178    39.78818   161.79834
   561  H   1.0    0.06    1.03    1.43    25.30343    38.09310   165.88581
   562  H   1.0    0.05    1.03    1.43    28.61612    37.54319   165.54755
   563  H   1.0    0.07    1.10    1.44    27.55220    42.85143   165.99731
   564  H   1.0    0.10    1.04    1.43    28.01141    37.17847   169.36669
   565  H   1.0    0.10    1.02    1.43    28.76730    38.65434   172.26553
   566  H   1.0    0.08    1.02    1.43    28.50274    44.88477   169.66904
   567  H   1.0    0.10    1.02    1.43    29.05265    43.11221   172.44505
   568  N   5.0   -0.13    3.54    2.11    22.73340    41.10910   156.72820
   569  C   4.0    0.05    4.39    4.37    21.73185    39.41212   154.82903
   570  C   4.0    0.18    3.46    3.10    23.05844    39.32898   152.24010
   571  O   6.0   -0.24    1.24    1.80    22.96584    37.35988   151.01745
   572  C   4.0    0.05    4.18    3.96    18.97285    40.03951   154.36415
   573  O   6.0   -0.22    2.11    1.84    18.56845    40.32486   151.72043
   574  H   1.0    0.13    1.19    1.46    21.41815    42.34309   157.40661
   575  H   1.0    0.08    1.06    1.44    22.01153    37.53941   155.63972
   576  H   1.0    0.06    1.01    1.43    17.79177    38.50884   155.07658
   577  H   1.0    0.06    1.03    1.43    18.49853    41.79885   155.32413
   578  H   1.0    0.13    1.01    1.43    16.79210    40.72926   151.39161
   579  N   5.0   -0.14    3.51    2.08    24.15448    41.42279   151.33681
   580  C   4.0    0.04    4.43    4.43    25.35634    41.46626   148.81403
   581  C   4.0    0.16    3.36    3.07    28.21928    41.11666   148.83482
   582  O   6.0   -0.24    1.20    1.80    29.44949    41.29618   146.84304
   583  C   4.0   -0.03    4.35    4.29    24.68549    43.88511   147.42130
   584  C   4.0   -0.03    4.24    4.09    22.01153    44.70903   147.92019
   585  C   4.0   -0.01    4.25    4.10    21.77720    47.38866   147.00556
   586  N   5.0   -0.14    3.37    2.01    20.43361    47.67590   144.58860
   587  C   4.0    0.09    3.33    3.06    21.52587    47.78361   142.31337
   588  N   5.0   -0.17    3.27    1.97    24.00141    47.56251   142.07527
   589  N   5.0   -0.18    3.23    1.96    20.13881    48.10675   140.23845
   590  H   1.0    0.11    1.08    1.44    24.24329    43.09898   152.28546
   591  H   1.0    0.08    1.07    1.44    24.58156    39.87133   147.76712
   592  H   1.0    0.05    1.04    1.43    25.94783    45.39122   148.03924
   593  H   1.0    0.07    1.03    1.43    24.89525    43.57708   145.39551
   594  H   1.0    0.06    1.03    1.43    20.68872    43.51472   146.88840
   595  H   1.0    0.07    1.04    1.44    21.60335    44.63533   149.93842
   596  H   1.0    0.05    1.03    1.43    20.74730    48.47714   148.41908
   597  H   1.0    0.04    1.05    1.44    23.66882    48.16533   146.75801
   598  H   1.0    0.08    1.06    1.44    18.51176    47.80251   144.65474
   599  H   1.0    0.09    1.04    1.43    25.10123    47.30740   143.63807
   600  H   1.0    0.09    1.03    1.43    24.81399    47.64755   140.32916
   601  H   1.0    0.09    1.02    1.43    18.22263    48.27494   140.37640
   602  H   1.0    0.08    1.03    1.43    20.99108    48.18612   138.51124
   603  N   5.0   -0.11    3.64    2.19    29.17737    40.59131   151.10060
   604  C   4.0    0.04    4.31    4.22    31.78141    40.22849   151.79791
   605  C   4.0    0.11    3.25    3.04    31.97227    37.34287   151.93208
   606  O   6.0   -0.22    1.19    1.80    30.12223    36.09943   151.37839
   607  C   4.0   -0.04    4.38    4.35    32.07054    41.44736   154.37738
   608  C   4.0   -0.03    4.06    3.73    31.64913    44.31029   154.44919
   609  S   6.0   -0.02    2.52    3.10    34.56876    46.00916   154.97265
   610  C   4.0   -0.07    3.90    3.46    33.55208    48.29951   157.24599
   611  H   1.0    0.11    1.10    1.44    28.04920    40.38722   152.65017
   612  H   1.0    0.06    1.04    1.44    33.20248    41.03540   150.54502
   613  H   1.0    0.07    1.04    1.43    30.70049    40.59320   155.65673
   614  H   1.0    0.05    1.06    1.44    33.98294    41.09020   155.05390
   615  H   1.0    0.05    1.07    1.44    30.85734    44.92634   152.65017
   616  H   1.0    0.05    1.07    1.44    30.35278    44.76761   155.98176
   617  H   1.0    0.04    1.07    1.44    35.15079    49.49192   157.75810
   618  H   1.0    0.04    1.04    1.43    32.05542    49.44846   156.41829
   619  H   1.0    0.04    1.04    1.43    32.84533    47.32063   158.91461
   620  N   5.0   -0.18    3.34    1.99    34.39868    46.45135   171.39625
   621  C   4.0    0.04    4.38    4.35    35.71582    48.68123   170.65737
   622  C   4.0    0.16    3.55    3.14    33.91680    50.74481   171.31878
   623  O   6.0   -0.30    1.29    1.80    31.62267    50.40844   171.12980
   624  C   4.0   -0.03    4.35    4.28    36.32998    48.65099   167.84168
   625  C   4.0   -0.01    3.56    3.14    34.04341    48.66422   166.14282
   626  C   4.0   -0.04    3.45    3.10    32.52029    46.51182   165.88203
   627  C   4.0   -0.03    3.45    3.10    33.41602    50.82040   164.77087
   628  C   4.0   -0.05    3.36    3.07    30.41325    46.54395   164.30600
   629  C   4.0   -0.05    3.36    3.07    31.30520    50.85253   163.19862
   630  C   4.0   -0.05    3.36    3.07    29.81043    48.72469   162.95485
   631  H   1.0    0.10    1.06    1.44    32.47683    46.55340   171.28665
   632  H   1.0    0.05    1.06    1.44    37.52240    48.93823   171.61357
   633  H   1.0    0.05    1.04    1.43    37.44870    50.32151   167.39381
   634  H   1.0    0.04    1.03    1.43    37.40901    46.94646   167.42216
   635  H   1.0    0.05    1.03    1.43    32.98517    44.81296   166.91382
   636  H   1.0    0.06    1.03    1.43    34.58010    52.48903   164.92772
   637  H   1.0    0.04    1.04    1.43    29.24540    44.87910   164.13026
   638  H   1.0    0.04    1.03    1.43    30.83466    52.54761   162.16494
   639  H   1.0    0.04    1.03    1.43    28.18337    48.75115   161.72275
   640  N   5.0   -0.12    3.57    2.13    34.95993    52.83674   172.20128
   641  C   4.0    0.04    4.48    4.50    33.46894    54.95512   172.99685
   642  C   4.0    0.15    3.47    3.10    32.58832    56.29872   170.64603
   643  O   6.0   -0.30    1.27    1.80    33.75051    56.04360   168.64481
   644  C   4.0   -0.04    4.37    4.33    35.13190    56.67477   174.54832
   645  C   4.0   -0.01    3.56    3.14    36.58698    55.33118   176.62702
   646  C   4.0   -0.04    3.46    3.10    35.34732    54.38820   178.74162
   647  C   4.0   -0.03    3.46    3.10    39.20048    55.05528   176.50607
   648  C   4.0   -0.02    3.41    3.08    36.66068    53.19012   180.68237
   649  C   4.0   -0.03    3.43    3.09    40.53840    53.87798   178.43548
   650  C   4.0    0.08    3.43    3.09    39.26473    52.93689   180.51985
   651  O   6.0   -0.20    2.09    1.84    40.58753    51.76148   182.43981
   652  H   1.0    0.10    1.08    1.44    36.85910    53.10886   172.38458
   653  H   1.0    0.05    1.06    1.44    31.83810    54.41277   174.13258
   654  H   1.0    0.05    1.04    1.43    36.50573    57.56861   173.29921
   655  H   1.0    0.04    1.03    1.43    33.95082    58.10907   175.43649
   656  H   1.0    0.06    1.03    1.43    33.32154    54.58851   178.88335
   657  H   1.0    0.06    1.03    1.43    40.20770    55.76959   174.88091
   658  H   1.0    0.08    1.03    1.43    35.65724    52.46257   182.30375
   659  H   1.0    0.07    1.03    1.43    42.56797    53.69656   178.31076
   660  H   1.0    0.14    1.02    1.43    42.39600    51.73503   182.03919
   661  N   5.0   -0.15    3.45    2.04    30.49451    57.67066   170.85201
   662  C   4.0    0.03    4.51    4.56    29.64224    59.26370   168.76576
   663  C   4.0    0.14    3.42    3.09    29.26997    61.93010   169.77298
   664  O   6.0   -0.32    1.21    1.80    27.45961    62.44032   171.21106
   665  C   4.0   -0.04    4.41    4.40    27.19883    58.26592   167.64893
   666  C   4.0   -0.03    4.26    4.11    26.40703    59.87408   165.41527
   667  C   4.0   -0.07    4.22    4.04    28.61990    59.90242   163.60113
   668  C   4.0   -0.08    4.11    3.82    24.05999    58.83473   164.11703
   669  H   1.0    0.08    1.05    1.44    29.36634    57.71790   172.41482
   670  H   1.0    0.05    1.09    1.44    31.08221    59.30149   167.29366
   671  H   1.0    0.04    1.03    1.43    27.47473    56.32895   167.00642
   672  H   1.0    0.05    1.03    1.43    25.71161    58.33206   169.07189
   673  H   1.0    0.05    1.06    1.44    25.91759    61.77703   166.03132
   674  H   1.0    0.04    1.00    1.43    28.12668    61.04382   161.95896
   675  H   1.0    0.06    1.04    1.43    30.25640    60.71123   164.55356
   676  H   1.0    0.03    1.01    1.43    29.03186    57.97112   163.01532
   677  H   1.0    0.04    1.01    1.43    23.57433    60.05549   162.52966
   678  H   1.0    0.03    1.00    1.43    24.45494    56.92988   163.44240
   679  H   1.0    0.04    1.00    1.43    22.50853    58.79315   165.47007
   680  N   5.0   -0.14    3.43    2.03    31.03497    63.58361   169.05110
   681  C   4.0    0.03    4.43    4.44    31.18426    66.20466   170.00353
   682  C   4.0    0.15    3.48    3.11    30.20160    68.15297   168.18939
   683  O   6.0   -0.31    1.30    1.80    30.87812    68.16430   165.91227
   684  C   4.0   -0.04    4.47    4.49    33.89412    66.95110   170.51753
   685  C   4.0   -0.02    4.24    4.09    35.17536    65.29948   172.44694
   686  C   4.0   -0.06    4.13    3.85    37.99672    65.32405   171.95939
   687  C   4.0   -0.08    4.18    3.97    34.54797    66.38418   175.02831
   688  H   1.0    0.10    1.07    1.44    32.42392    63.16598   167.78121
   689  H   1.0    0.05    1.07    1.44    30.00507    66.21789   171.69294
   690  H   1.0    0.05    1.04    1.43    34.96371    66.82071   168.76198
   691  H   1.0    0.05    1.05    1.44    33.92814    68.88807   171.21862
   692  H   1.0    0.04    1.06    1.44    34.54797    63.33983   172.35812
   693  H   1.0    0.05    1.00    1.43    38.92835    64.12785   173.35401
   694  H   1.0    0.05    1.00    1.43    38.35577    64.60217   170.06400
   695  H   1.0    0.07    1.00    1.43    38.68836    67.25724   172.11813
   696  H   1.0    0.04    1.01    1.43    35.44937    65.23145   176.47773
   697  H   1.0    0.05    1.00    1.43    35.25095    68.31737   175.13224
   698  H   1.0    0.04    1.00    1.43    32.50518    66.36529   175.28531
   699  N   5.0   -0.14    3.50    2.07    28.69738    69.87451   169.20984
   700  C   4.0    0.04    4.61    4.67    27.86401    71.95509   167.69428
   701  C   4.0    0.15    3.52    3.12    30.00129    73.85805   167.49964
   702  O   6.0   -0.28    1.24    1.80    31.09544    74.66496   169.40826
   703  C   4.0   -0.02    4.31    4.22    25.44138    73.12484   168.67883
   704  C   4.0   -0.06    4.17    3.95    24.80454    75.40951   167.09146
   705  C   4.0   -0.08    4.14    3.89    23.31166    71.21054   168.46907
   706  H   1.0    0.08    1.06    1.44    28.05676    69.85939   171.02776
   707  H   1.0    0.05    1.08    1.44    27.43504    71.26534   165.80078
   708  H   1.0    0.05    1.06    1.44    25.67004    73.68419   170.64792
   709  H   1.0    0.06    1.00    1.43    23.06222    76.25233   167.79822
   710  H   1.0    0.08    1.03    1.43    26.34656    76.76823   167.22374
   711  H   1.0    0.05    1.00    1.43    24.55510    74.81803   165.13370
   712  H   1.0    0.04    1.00    1.43    21.57500    72.05903   169.17961
   713  H   1.0    0.04    1.00    1.43    23.07733    70.68142   166.49242
   714  H   1.0    0.04    1.00    1.43    23.78976    69.54947   169.58779
   715  N   5.0   -0.14    3.52    2.09    30.61734    74.48922   165.14126
   716  C   4.0    0.04    4.44    4.44    32.51085    76.37516   164.54978
   717  C   4.0    0.16    3.46    3.10    35.08276    75.48699   165.39259
   718  O   6.0   -0.28    1.26    1.80    36.80241    76.99877   165.64771
   719  C   4.0   -0.01    4.35    4.29    31.88346    78.89984   165.84424
   720  C   4.0    0.16    3.22    3.04    29.44760    80.07525   164.85969
   721  O   6.0   -0.27    1.21    1.80    27.58622    80.31335   166.26187
   722  N   5.0   -0.17    3.16    1.95    29.43626    80.80846   162.42950
   723  H   1.0    0.10    1.07    1.44    29.80854    73.69931   163.58035
   724  H   1.0    0.05    1.06    1.44    32.55242    76.70398   162.51643
   725  H   1.0    0.09    1.04    1.43    31.66614    78.58236   167.86814
   726  H   1.0    0.07    1.03    1.43    33.41791    80.23020   165.50220
   727  H   1.0    0.11    1.02    1.43    27.85456    81.60782   161.67172
   728  H   1.0    0.08    1.02    1.43    31.00851    80.56658   161.34291
   729  N   5.0   -0.13    3.48    2.06    35.34732    73.02279   165.81967
   730  C   4.0    0.05    4.34    4.28    37.65846    71.96832   166.89304
   731  C   4.0    0.10    3.23    3.04    38.23294    72.91508   169.51409
   732  O   6.0   -0.25    1.16    1.80    40.16046    72.21588   170.61391
   733  C   4.0   -0.02    4.33    4.25    39.87133    71.99478   165.02977
   734  C   4.0    0.17    3.26    3.05    42.31474    70.96866   166.15604
   735  O   6.0   -0.28    1.21    1.80    42.37899    68.83516   167.08768
   736  N   5.0   -0.16    3.17    1.95    44.33108    72.45965   166.05400
   737  H   1.0    0.10    1.07    1.44    33.99239    71.70565   165.44173
   738  H   1.0    0.05    1.08    1.44    37.33910    69.95765   167.20862
   739  H   1.0    0.06    1.10    1.44    39.38756    70.83071   163.40082
   740  H   1.0    0.07    1.04    1.43    40.21715    73.93553   164.43072
   741  H   1.0    0.11    1.03    1.43    46.01105    71.85872   166.78154
   742  H   1.0    0.10    1.02    1.43    44.19880    74.20576   165.24709
   743  N   5.0   -0.18    3.26    1.97    30.20538    70.56237   178.57721
   744  C   4.0    0.03    4.48    4.51    28.98462    68.24934   179.38979
   745  C   4.0    0.15    3.49    3.11    26.39380    68.81248   180.33088
   746  O   6.0   -0.26    1.25    1.80    26.07066    70.48867   181.93526
   747  C   4.0   -0.03    4.56    4.61    30.42081    67.18354   181.55164
   748  C   4.0   -0.03    4.30    4.20    32.36723    65.43743   180.49528
   749  C   4.0   -0.06    4.12    3.85    34.21160    64.81571   182.60800
   750  C   4.0   -0.07    4.19    3.97    30.90836    63.15275   179.57121
   751  H   1.0    0.10    1.04    1.43    31.14079    71.42030   180.02663
   752  H   1.0    0.03    1.08    1.44    28.89013    66.93220   177.80998
   753  H   1.0    0.06    1.04    1.43    31.35055    68.69154   182.60233
   754  H   1.0    0.06    1.05    1.44    29.16036    66.13285   182.79508
   755  H   1.0    0.04    1.10    1.44    33.47838    66.20277   178.93815
   756  H   1.0    0.05    1.00    1.43    35.65724    63.54015   181.88234
   757  H   1.0    0.06    1.00    1.43    35.08465    66.55993   183.27129
   758  H   1.0    0.06    1.00    1.43    33.18548    63.91242   184.15001
   759  H   1.0    0.04    1.00    1.43    32.23117    61.79215   178.76996
   760  H   1.0    0.05    1.00    1.43    29.90869    62.30804   181.16047
   761  H   1.0    0.04    1.01    1.43    29.56098    63.75368   178.13313
   762  N   5.0   -0.14    3.48    2.06    24.55321    67.39330   179.39168
   763  C   4.0    0.04    4.44    4.44    21.90570    68.13596   179.73939
   764  C   4.0    0.08    3.21    3.04    20.20495    66.14041   180.93937
   765  O   6.0   -0.28    1.13    1.80    21.04399    64.01447   181.45149
   766  C   4.0   -0.02    4.30    4.20    20.77187    68.97689   177.22795
   767  C   4.0   -0.06    4.14    3.89    22.18349    71.27290   176.25285
   768  C   4.0   -0.07    4.17    3.93    20.96462    66.88307   175.29854
   769  H   1.0    0.08    1.05    1.44    24.81966    65.75868   178.40525
   770  H   1.0    0.07    1.08    1.44    21.95484    69.63451   181.15102
   771  H   1.0    0.04    1.06    1.44    18.78766    69.44743   177.51519
   772  H   1.0    0.04    1.00    1.43    21.35579    71.85683   174.45950
   773  H   1.0    0.06    1.00    1.43    22.01909    72.79602   177.63046
   774  H   1.0    0.05    1.00    1.43    24.16582    70.77780   175.98451
   775  H   1.0    0.04    1.00    1.43    20.14259    67.52936   173.52409
   776  H   1.0    0.04    1.01    1.43    22.94883    66.40686   175.02264
   777  H   1.0    0.05    1.00    1.43    19.93661    65.23712   175.99018
   778  N   5.0   -0.20    3.15    1.95    15.75087    60.57894   180.86756
   779  C   4.0    0.03    4.19    3.98    15.32379    58.51347   179.01563
   780  C   4.0    0.09    3.16    3.03    12.52510    57.82750   178.84744
   781  O   6.0   -0.27    1.12    1.80    11.80134    55.82817   177.91581
   782  C   4.0   -0.03    4.24    4.09    17.16249    56.25147   179.36523
   783  C   4.0   -0.03    4.01    3.63    19.95740    56.81272   178.80965
   784  S   6.0   -0.05    2.45    3.10    20.78699    57.86719   175.62735
   785  C   4.0   -0.06    3.85    3.40    24.15070    58.52103   175.67648
   786  H   1.0    0.11    1.02    1.43    15.81134    59.94211   182.68548
   787  H   1.0    0.04    1.08    1.44    15.88126    59.16354   177.14291
   788  H   1.0    0.06    1.03    1.43    17.04155    55.61652   181.32109
   789  H   1.0    0.06    1.03    1.43    16.57668    54.73969   178.09533
   790  H   1.0    0.06    1.07    1.44    20.57156    58.29427   180.10222
   791  H   1.0    0.05    1.07    1.44    21.02698    55.08740   179.15736
   792  H   1.0    0.05    1.04    1.43    24.73651    59.15976   173.80754
   793  H   1.0    0.05    1.04    1.43    24.52864    59.98935   177.07110
   794  H   1.0    0.04    1.04    1.43    25.16170    56.79760   176.17726
   795  N   5.0   -0.19    3.24    1.96     4.76400    67.02480   166.76454
   796  C   4.0    0.03    4.29    4.18     6.45152    68.28903   165.00331
   797  C   4.0    0.08    3.25    3.04     5.70508    70.99889   164.73308
   798  O   6.0   -0.30    1.15    1.80     7.33025    72.62595   164.49308
   799  C   4.0   -0.05    4.37    4.33     6.37783    67.04181   162.41439
   800  C   4.0   -0.04    4.07    3.75     8.11637    64.77792   162.16683
   801  S   6.0   -0.06    2.53    3.10    11.42339    65.61506   162.19707
   802  C   4.0   -0.07    3.90    3.46    12.75754    62.65386   163.13437
   803  H   1.0    0.08    1.09    1.44     3.74166    65.59806   165.96707
   804  H   1.0    0.04    1.09    1.44     8.37338    68.11895   165.72708
   805  H   1.0    0.04    1.03    1.43     4.45597    66.40119   162.04400
   806  H   1.0    0.04    1.05    1.44     6.94474    68.42509   160.99709
   807  H   1.0    0.06    1.08    1.44     7.77244    63.49668   163.74286
   808  H   1.0    0.03    1.07    1.44     7.72142    63.82360   160.38482
   809  H   1.0    0.04    1.04    1.43    14.80600    62.84662   163.24398
   810  H   1.0    0.05    1.04    1.43    12.00165    62.13041   164.97685
   811  H   1.0    0.04    1.05    1.44    12.26054    61.22334   161.73975
   812  N   5.0   -0.18    3.32    1.99     9.13305    74.70087   169.39692
   813  C   4.0    0.04    4.30    4.19    11.78244    75.33015   168.79032
   814  C   4.0    0.09    3.23    3.04    12.02811    77.36538   166.77965
   815  O   6.0   -0.26    1.11    1.80    13.92350    78.71842   166.63603
   816  C   4.0   -0.02    4.34    4.28    13.24509    73.05681   167.71885
   817  C   4.0   -0.05    4.25    4.09    11.79189    70.54725   168.04010
   818  C   4.0   -0.08    4.08    3.76    15.95307    73.02657   168.69961
   819  C   4.0   -0.07    4.10    3.80    10.59380    69.97844   170.58934
   820  H   1.0    0.09    1.13    1.45     8.63794    72.89240   168.94528
   821  H   1.0    0.06    1.06    1.44    12.54022    75.95376   170.60068
   822  H   1.0    0.05    1.08    1.44    13.39060    73.28357   165.67605
   823  H   1.0    0.06    1.06    1.44    10.26499    70.53024   166.65871
   824  H   1.0    0.04    1.03    1.43    13.10903    69.01090   167.65460
   825  H   1.0    0.03    1.00    1.43    16.93572    71.39763   167.90782
   826  H   1.0    0.06    1.00    1.43    16.89604    74.76512   168.12136
   827  H   1.0    0.04    1.00    1.43    15.92094    72.89618   170.75564
   828  H   1.0    0.05    1.00    1.43     9.64894    68.15108   170.49296
   829  H   1.0    0.05    1.00    1.43    12.06779    69.93309   172.02742
   830  H   1.0    0.05    1.08    1.44     9.22564    71.45432   171.03154
   831  N   5.0   -0.18    3.20    1.96    18.05255    82.53000   149.06536
   832  C   4.0    0.03    4.36    4.30    19.30544    80.17918   149.71543
   833  C   4.0    0.15    3.42    3.08    20.09724    80.05446   152.47632
   834  O   6.0   -0.29    1.25    1.80    21.75264    81.47364   153.26433
   835  C   4.0   -0.03    4.37    4.33    21.69783    79.86360   148.11672
   836  C   4.0   -0.02    3.54    3.14    21.24997    78.72220   145.56559
   837  C   4.0   -0.04    3.49    3.11    19.21095    77.10460   145.15363
   838  C   4.0   -0.04    3.46    3.10    22.88836    79.24755   143.57382
   839  C   4.0   -0.04    3.36    3.07    18.80466    76.05013   142.78958
   840  C   4.0   -0.03    3.37    3.07    22.50475    78.19497   141.21544
   841  C   4.0   -0.03    3.37    3.07    20.46573    76.58681   140.81860
   842  H   1.0    0.10    1.03    1.43    19.05222    83.65439   147.85972
   843  H   1.0    0.04    1.07    1.44    17.92783    78.69008   149.35827
   844  H   1.0    0.06    1.04    1.43    22.54821    81.71742   147.82948
   845  H   1.0    0.05    1.04    1.43    23.00741    78.63717   149.12772
   846  H   1.0    0.05    1.04    1.43    17.93728    76.66996   146.68809
   847  H   1.0    0.06    1.03    1.43    24.47762    80.49288   143.87617
   848  H   1.0    0.05    1.03    1.43    17.20784    74.81803   142.47778
   849  H   1.0    0.06    1.03    1.43    23.78598    78.62016   139.68476
   850  H   1.0    0.05    1.03    1.43    20.16905    75.75155   138.97989
   851  N   5.0   -0.14    3.44    2.04    18.96151    78.35182   153.92952
   852  C   4.0    0.04    4.47    4.50    20.15393    77.52223   156.31624
   853  C   4.0    0.14    3.40    3.08    22.26286    75.52857   155.85515
   854  O   6.0   -0.31    1.22    1.80    21.76586    73.40640   154.92351
   855  C   4.0   -0.02    4.27    4.14    18.18483    76.59815   158.24565
   856  C   4.0   -0.06    4.19    3.97    15.97385    75.39629   156.88883
   857  C   4.0   -0.07    4.16    3.93    19.34135    74.75000   160.09758
   858  H   1.0    0.08    1.08    1.44    17.26643    77.52223   153.53834
   859  H   1.0    0.06    1.07    1.44    21.11202    79.16818   157.10237
   860  H   1.0    0.05    1.06    1.44    17.50642    78.21765   159.32091
   861  H   1.0    0.04    1.00    1.43    14.60002    74.75378   158.28345
   862  H   1.0    0.05    1.02    1.43    15.11214    76.79279   155.64350
   863  H   1.0    0.06    1.00    1.43    16.65415    73.79569   155.78523
   864  H   1.0    0.04    1.00    1.43    17.89382    74.13962   161.42984
   865  H   1.0    0.05    1.02    1.43    20.06889    73.12673   159.05823
   866  H   1.0    0.05    1.00    1.43    20.87580    75.68352   161.10670
   867  N   5.0   -0.14    3.40    2.02    24.59856    76.26178   156.49388
   868  C   4.0    0.03    4.36    4.31    26.88702    74.72732   156.10270
   869  C   4.0    0.15    3.41    3.08    27.50307    72.98500   158.35903
   870  O   6.0   -0.31    1.27    1.80    27.27819    73.74089   160.55301
   871  C   4.0   -0.03    4.33    4.25    29.14902    76.47721   155.74554
   872  C   4.0   -0.02    3.50    3.11    29.48917    77.66396   153.15851
   873  C   4.0   -0.04    3.43    3.09    27.68449    79.34959   152.15128
   874  C   4.0   -0.05    3.44    3.09    31.69637    77.20097   151.76578
   875  C   4.0   -0.04    3.38    3.07    28.04920    80.47776   149.80425
   876  C   4.0   -0.05    3.41    3.08    32.07810    78.29324   149.41874
   877  C   4.0    0.06    3.43    3.09    30.25451    79.91273   148.43419
   878  O   6.0   -0.22    2.09    1.84    30.70994    80.96720   146.09471
   879  H   1.0    0.08    1.06    1.44    24.98407    77.96253   157.31213
   880  H   1.0    0.06    1.06    1.44    26.55632    73.53491   154.45675
   881  H   1.0    0.05    1.04    1.43    28.97328    78.02489   157.09481
   882  H   1.0    0.05    1.04    1.43    30.85734    75.39440   156.13483
   883  H   1.0    0.07    1.03    1.43    25.99507    79.76911   153.21709
   884  H   1.0    0.06    1.03    1.43    33.12690    75.96698   152.53868
   885  H   1.0    0.06    1.02    1.43    26.66025    81.76655   149.04647
   886  H   1.0    0.06    1.03    1.43    33.77696    77.89261   148.36049
   887  H   1.0    0.12    1.03    1.43    30.14869    79.81258   144.76057
   888  N   5.0   -0.13    3.54    2.10    28.30432    70.66252   157.85826
   889  C   4.0    0.04    4.55    4.60    28.97895    68.97122   159.91806
   890  C   4.0    0.15    3.56    3.14    31.37701    67.77502   159.21319
   891  O   6.0   -0.31    1.34    1.80    31.96471    67.45566   156.97576
   892  C   4.0   -0.03    4.48    4.50    27.08733    66.88307   160.25443
   893  C   4.0   -0.04    4.13    3.86    24.47384    67.88463   160.66261
   894  S   6.0   -0.06    2.57    3.10    22.55199    65.40908   161.93818
   895  C   4.0   -0.07    3.89    3.45    19.56055    67.02669   161.80212
   896  H   1.0    0.11    1.10    1.44    28.50085    69.91986   156.08947
   897  H   1.0    0.06    1.08    1.44    29.09800    70.03513   161.67739
   898  H   1.0    0.05    1.04    1.43    27.07032    65.70577   158.56501
   899  H   1.0    0.05    1.06    1.44    27.60890    65.75301   161.89660
   900  H   1.0    0.05    1.07    1.44    24.52108    69.45499   161.99487
   901  H   1.0    0.05    1.07    1.44    23.67071    68.50635   158.87115
   902  H   1.0    0.04    1.04    1.43    18.09035    65.77947   162.52777
   903  H   1.0    0.04    1.04    1.43    19.66638    68.73122   162.95296
   904  H   1.0    0.04    1.04    1.43    19.15615    67.52558   159.84436
   905  N   5.0   -0.12    3.71    2.29    32.77919    67.09094   161.13504
   906  C   4.0    0.05    4.65    4.71    35.04875    65.70955   160.68907
   907  C   4.0    0.15    3.66    3.20    34.54041    63.36818   162.06101
   908  O   6.0   -0.32    1.41    1.80    32.94359    63.30960   163.71830
   909  C   4.0    0.05    4.32    4.24    37.26918    67.03614   161.90416
   910  O   6.0   -0.25    2.24    1.87    36.93091    69.68364   161.53188
   911  C   4.0   -0.07    4.14    3.89    39.72204    66.25379   160.69474
   912  H   1.0    0.12    1.13    1.45    32.38612    67.46700   162.98508
   913  H   1.0    0.08    1.11    1.45    35.52118    65.43365   158.70296
   914  H   1.0    0.05    1.05    1.44    37.37500    66.55993   163.90538
   915  H   1.0    0.12    1.02    1.43    37.97782    70.26379   160.11837
   916  H   1.0    0.05    1.00    1.43    41.29618    67.23078   161.59614
   917  H   1.0    0.05    1.01    1.43    39.99227    64.22234   160.89883
   918  H   1.0    0.06    1.00    1.43    39.70125    66.72811   158.68974
   919  N   5.0   -0.14    3.66    2.22    35.85944    61.39531   161.40527
   920  C   4.0    0.04    4.61    4.67    35.70826    59.29582   163.04555
   921  C   4.0    0.14    3.53    3.13    38.34443    58.35096   163.23831
   922  O   6.0   -0.32    1.32    1.80    39.65212    58.25836   161.30701
   923  C   4.0   -0.03    4.41    4.40    34.03207    57.32484   161.89471
   924  C   4.0   -0.01    3.65    3.20    35.04686    56.30627   159.46263
   925  C   4.0   -0.04    3.51    3.12    34.76718    57.66499   157.24977
   926  C   4.0   -0.04    3.49    3.11    36.30919    53.97435   159.38516
   927  C   4.0   -0.05    3.51    3.12    35.67236    56.73713   155.00666
   928  C   4.0   -0.04    3.46    3.10    37.24083    53.03705   157.15717
   929  C   4.0    0.06    3.49    3.11    36.91013    54.43734   154.98587
   930  O   6.0   -0.25    2.15    1.85    37.81153    53.56428   152.73521
   931  H   1.0    0.10    1.08    1.44    36.97438    61.22712   159.84247
   932  H   1.0    0.05    1.08    1.44    34.96749    59.74558   164.91449
   933  H   1.0    0.04    1.04    1.43    33.84310    55.75447   163.21374
   934  H   1.0    0.04    1.05    1.44    32.18581    58.15443   161.51677
   935  H   1.0    0.06    1.03    1.43    33.82609    59.47534   157.28756
   936  H   1.0    0.05    1.03    1.43    36.54919    52.90288   161.10481
   937  H   1.0    0.05    1.03    1.43    35.42102    57.78971   153.27756
   938  H   1.0    0.05    1.03    1.43    38.21215    51.24181   157.10426
   939  H   1.0    0.11    1.03    1.43    37.43547    54.77749   151.38784
   940  N   5.0   -0.14    3.43    2.04    39.07764    57.64420   165.54944
   941  C   4.0    0.03    4.23    4.06    41.65145    56.84485   166.21085
   942  C   4.0    0.07    3.20    3.04    41.75538    54.57529   167.99664
   943  O   6.0   -0.30    1.14    1.80    39.97148    54.12175   169.40637
   944  C   4.0   -0.06    4.12    3.83    43.03095    59.02559   167.43161
   945  H   1.0    0.10    1.06    1.44    37.88712    57.60263   167.06500
   946  H   1.0    0.05    1.06    1.44    42.55474    56.20612   164.47419
   947  H   1.0    0.05    1.00    1.43    44.93957    58.42277   167.91916
   948  H   1.0    0.05    1.00    1.43    43.10843    60.59784   166.10313
   949  H   1.0    0.05    1.00    1.43    42.01617    59.59251   169.13236
   950  N   5.0   -0.12    4.05    3.01    17.41005    62.61559   131.37879
   951  C   4.0    0.00    4.30    4.19    16.11747    63.27511   133.83165
   952  C   4.0    0.15    3.37    3.07    14.58679    61.23231   135.28107
   953  O   6.0   -0.28    1.26    1.80    12.27755    61.01122   134.97494
   954  C   4.0   -0.02    4.33    4.25    14.44695    65.62215   133.50473
   955  C   4.0   -0.01    3.55    3.14    14.50176    67.32290   135.77429
   956  C   4.0   -0.03    3.47    3.10    13.19785    66.68228   137.95314
   957  C   4.0   -0.04    3.50    3.12    15.98519    69.52065   135.76673
   958  C   4.0   -0.03    3.41    3.08    13.33580    68.22619   140.05830
   959  C   4.0   -0.04    3.37    3.07    16.14015    71.07212   137.87378
   960  C   4.0   -0.04    3.37    3.07    14.79844    70.41827   140.01861
   961  H   1.0    0.07    1.02    1.43    16.69951    63.74943   129.93882
   962  H   1.0    0.05    1.04    1.43    19.34323    62.91606   131.55642
   963  H   1.0    0.07    1.01    1.43    17.07745    60.72587   130.94982
   964  H   1.0    0.04    1.07    1.44    17.72374    63.59636   135.08076
   965  H   1.0    0.05    1.04    1.43    15.11403    66.70118   131.88145
   966  H   1.0    0.07    1.04    1.43    12.49865    65.02310   133.20048
   967  H   1.0    0.07    1.03    1.43    12.07535    64.97964   138.00795
   968  H   1.0    0.05    1.04    1.43    17.02832    70.01576   134.08487
   969  H   1.0    0.05    1.04    1.43    12.30212    67.72919   141.74582
   970  H   1.0    0.05    1.03    1.43    17.28721    72.75964   137.83976
   971  H   1.0    0.05    1.03    1.43    14.88348    71.61069   141.67212
   972  N   5.0   -0.13    3.47    2.06    15.85669    59.86415   136.96482
   973  C   4.0    0.04    4.44    4.45    14.74175    57.65695   138.23849
   974  C   4.0    0.10    3.36    3.07    12.17361    58.18986   139.28918
   975  O   6.0   -0.31    1.24    1.80    11.88827    59.73943   140.98048
   976  C   4.0   -0.01    4.38    4.35    16.20629    56.86138   140.58742
   977  C   4.0   -0.08    4.15    3.89    15.68284    54.11750   141.12221
   978  C   4.0   -0.07    4.18    3.97    19.01820    57.32058   140.27562
   979  H   1.0    0.08    1.10    1.44    17.67272    60.22698   137.49961
   980  H   1.0    0.05    1.06    1.44    14.70963    56.23777   136.74750
   981  H   1.0    0.06    1.09    1.44    15.59024    57.99899   142.18991
   982  H   1.0    0.04    1.00    1.43    16.73163    53.55058   142.80218
   983  H   1.0    0.05    1.00    1.43    13.66272    53.86994   141.43780
   984  H   1.0    0.04    1.00    1.43    16.28566    52.99311   139.50461
   985  H   1.0    0.05    1.00    1.43    19.98952    56.72721   141.99338
   986  H   1.0    0.04    1.00    1.43    19.70228    56.22832   138.66935
   987  H   1.0    0.06    1.03    1.43    19.33757    59.32936   139.94680
   988  N   5.0   -0.17    3.23    1.96     6.76333    56.09982   143.92657
   989  C   4.0    0.03    4.51    4.56     7.16395    54.88850   146.35298
   990  C   4.0    0.09    3.68    3.22     5.28178    52.80414   146.83108
   991  O   6.0   -0.25    1.19    1.80     3.80402    52.26556   145.23615
   992  C   4.0   -0.02    4.50    4.54     6.42318    56.56091   148.52049
   993  C   4.0   -0.05    4.23    4.06     8.29590    56.04502   150.68801
   994  C   4.0   -0.06    4.38    4.35     3.67741    55.99399   149.15544
   995  C   4.0   -0.08    4.15    3.90    10.38215    54.23655   149.94345
   996  H   1.0    0.10    1.02    1.43     5.24966    57.29035   143.84153
   997  H   1.0    0.04    1.10    1.44     9.13682    54.30458   146.25093
   998  H   1.0    0.07    1.09    1.44     6.53278    58.57347   148.09530
   999  H   1.0    0.05    1.06    1.44     9.16706    57.82325   151.25870
  1000  H   1.0    0.03    1.03    1.43     7.27356    55.22110   152.27538
  1001  H   1.0    0.04    1.00    1.43     3.09348    57.18830   150.72958
  1002  H   1.0    0.07    1.01    1.43     2.51145    56.38895   147.50382
[...]
 745   6 C      0.277  1.041  2.682  0.000    22.318     7.738
 746   8 O     -0.513  1.766  4.747  0.000    24.078     6.579
 747   6 C     -0.058  1.050  3.008  0.000    21.579     6.606
 748   6 C     -0.033  1.054  2.979  0.000    21.117     6.534
 749   6 C     -0.115  1.044  3.070  0.000    22.740     6.798
 750   6 C     -0.118  1.046  3.072  0.000    22.800     6.804
 751   1 H      0.156  0.844  0.000  0.000     1.363     1.829
 752   1 H      0.037  0.963  0.000  0.000     2.486     2.466
 753   1 H      0.036  0.964  0.000  0.000     2.496     2.471
 754   1 H      0.028  0.972  0.000  0.000     2.614     2.528
 755   1 H      0.056  0.944  0.000  0.000     2.248     2.345
 756   1 H      0.043  0.957  0.000  0.000     2.414     2.430
 757   1 H      0.031  0.969  0.000  0.000     2.572     2.508
 758   1 H      0.035  0.965  0.000  0.000     2.522     2.484
 759   1 H      0.047  0.953  0.000  0.000     2.361     2.403
 760   1 H      0.040  0.960  0.000  0.000     2.451     2.448
 761   1 H      0.039  0.961  0.000  0.000     2.467     2.456
 762   7 N     -0.163  1.234  3.929  0.000    24.521     7.354
 763   6 C      0.020  1.059  2.921  0.000    20.238     6.405
 764   6 C      0.192  1.092  2.716  0.000    23.899     8.006
 765   8 O     -0.383  1.757  4.627  0.000    21.348     6.195
 766   6 C     -0.022  1.058  2.964  0.000    20.922     6.505
 767   6 C     -0.119  1.042  3.077  0.000    22.821     6.810
 768   6 C     -0.120  1.040  3.080  0.000    22.836     6.812
 769   1 H      0.206  0.794  0.000  0.000     1.077     1.626
 770   1 H      0.100  0.900  0.000  0.000     1.782     2.088
 771   1 H      0.057  0.943  0.000  0.000     2.231     2.336
 772   1 H      0.065  0.935  0.000  0.000     2.143     2.289
 773   1 H      0.038  0.962  0.000  0.000     2.475     2.460
 774   1 H      0.045  0.955  0.000  0.000     2.387     2.416
 775   1 H      0.073  0.927  0.000  0.000     2.052     2.240
 776   1 H      0.053  0.947  0.000  0.000     2.280     2.361
 777   1 H      0.043  0.957  0.000  0.000     2.405     2.425
 778   7 N     -0.383  1.331  4.052  0.000    29.900     8.121
 779   6 C      0.025  1.061  2.914  0.000    20.175     6.399
 780   6 C      0.192  1.092  2.716  0.000    23.897     8.006
 781   8 O     -0.378  1.755  4.622  0.000    21.240     6.179
 782   6 C     -0.068  1.056  3.012  0.000    21.801     6.647
 783   6 C     -0.009  1.064  2.945  0.000    20.751     6.487
 784  16 S     -0.220  1.903  4.265  0.052   150.463    20.645
 785   6 C     -0.055  1.053  3.002  0.000    21.641     6.636
 786   1 H      0.156  0.844  0.000  0.000     1.363     1.829
 787   1 H      0.096  0.904  0.000  0.000     1.820     2.110
 788   1 H      0.046  0.954  0.000  0.000     2.366     2.406
 789   1 H      0.070  0.930  0.000  0.000     2.081     2.256
 790   1 H      0.039  0.961  0.000  0.000     2.462     2.454
 791   1 H      0.049  0.951  0.000  0.000     2.335     2.390
 792   1 H      0.083  0.917  0.000  0.000     1.947     2.182
 793   1 H      0.042  0.958  0.000  0.000     2.421     2.433
 794   1 H      0.052  0.948  0.000  0.000     2.298     2.370
 795   7 N     -0.409  1.335  4.074  0.000    30.626     8.219
 796   6 C      0.038  1.049  2.913  0.000    19.952     6.362
 797   6 C      0.195  1.085  2.720  0.000    23.848     7.998
 798   8 O     -0.368  1.754  4.614  0.000    21.054     6.152
 799   6 C     -0.055  1.050  3.005  0.000    21.527     6.600
 800   6 C     -0.014  1.062  2.952  0.000    20.829     6.498
 801  16 S     -0.214  1.915  4.249  0.051   150.181    20.626
 802   6 C     -0.059  1.053  3.006  0.000    21.716     6.647
 803   1 H      0.172  0.828  0.000  0.000     1.263     1.760
 804   1 H      0.075  0.925  0.000  0.000     2.030     2.228
 805   1 H      0.043  0.957  0.000  0.000     2.410     2.428
 806   1 H      0.045  0.955  0.000  0.000     2.380     2.412
 807   1 H      0.066  0.934  0.000  0.000     2.135     2.285
 808   1 H      0.045  0.955  0.000  0.000     2.389     2.417
 809   1 H      0.082  0.918  0.000  0.000     1.961     2.190
 810   1 H      0.049  0.951  0.000  0.000     2.331     2.388
 811   1 H      0.057  0.943  0.000  0.000     2.240     2.340
 812   7 N     -0.426  1.339  4.086  0.000    31.106     8.283
 813   6 C      0.038  1.060  2.902  0.000    19.955     6.363
 814   6 C      0.202  1.092  2.706  0.000    23.707     7.975
 815   8 O     -0.403  1.762  4.641  0.000    21.746     6.252
 816   6 C     -0.013  1.064  2.949  0.000    20.766     6.481
 817   6 C     -0.073  1.053  3.020  0.000    21.897     6.662
 818   6 C     -0.117  1.043  3.073  0.000    22.794     6.808
 819   6 C     -0.135  1.044  3.091  0.000    23.161     6.864
 820   1 H      0.196  0.804  0.000  0.000     1.128     1.664
 821   1 H      0.051  0.949  0.000  0.000     2.306     2.375
 822   1 H      0.034  0.966  0.000  0.000     2.530     2.487
 823   1 H      0.052  0.948  0.000  0.000     2.293     2.368
 824   1 H      0.058  0.942  0.000  0.000     2.226     2.333
 825   1 H      0.062  0.938  0.000  0.000     2.181     2.310
 826   1 H      0.042  0.958  0.000  0.000     2.428     2.437
 827   1 H      0.047  0.953  0.000  0.000     2.358     2.402
 828   1 H      0.030  0.970  0.000  0.000     2.584     2.514
 829   1 H      0.046  0.954  0.000  0.000     2.366     2.406
 830   1 H      0.065  0.935  0.000  0.000     2.139     2.287
 831   7 N     -0.400  1.329  4.071  0.000    30.372     8.185
 832   6 C      0.038  1.054  2.908  0.000    19.950     6.361
 833   6 C      0.269  1.047  2.684  0.000    22.457     7.760
 834   8 O     -0.490  1.741  4.748  0.000    23.562     6.508
 835   6 C     -0.064  1.053  3.011  0.000    21.713     6.632
 836   6 C      0.005  1.086  2.909  0.000    27.903     8.665
 837   6 C     -0.047  1.080  2.967  0.000    29.173     8.857
 838   6 C     -0.042  1.080  2.962  0.000    29.034     8.836
 839   6 C     -0.038  1.084  2.954  0.000    28.941     8.822
 840   6 C     -0.036  1.085  2.951  0.000    28.886     8.813
 841   6 C     -0.040  1.084  2.956  0.000    28.995     8.830
 842   1 H      0.167  0.833  0.000  0.000     1.294     1.782
 843   1 H      0.028  0.972  0.000  0.000     2.615     2.529
 844   1 H      0.058  0.942  0.000  0.000     2.220     2.330
 845   1 H      0.044  0.956  0.000  0.000     2.394     2.420
 846   1 H      0.020  0.980  0.000  0.000     2.729     2.583
 847   1 H      0.028  0.972  0.000  0.000     2.619     2.531
 848   1 H      0.044  0.956  0.000  0.000     2.390     2.418
 849   1 H      0.054  0.946  0.000  0.000     2.268     2.355
 850   1 H      0.064  0.936  0.000  0.000     2.150     2.293
 851   7 N     -0.191  1.253  3.939  0.000    25.154     7.449
 852   6 C      0.019  1.069  2.913  0.000    20.267     6.410
 853   6 C      0.269  1.054  2.676  0.000    22.448     7.758
 854   8 O     -0.491  1.751  4.741  0.000    23.595     6.513
 855   6 C     -0.015  1.055  2.960  0.000    20.806     6.488
 856   6 C     -0.115  1.041  3.074  0.000    22.757     6.801
 857   6 C     -0.111  1.039  3.073  0.000    22.685     6.791
 858   1 H      0.215  0.785  0.000  0.000     1.034     1.593
 859   1 H      0.058  0.942  0.000  0.000     2.221     2.331
 860   1 H      0.040  0.960  0.000  0.000     2.445     2.445
 861   1 H      0.052  0.948  0.000  0.000     2.300     2.372
 862   1 H      0.048  0.952  0.000  0.000     2.350     2.397
 863   1 H      0.063  0.937  0.000  0.000     2.166     2.302
 864   1 H      0.052  0.948  0.000  0.000     2.289     2.366
 865   1 H      0.048  0.952  0.000  0.000     2.348     2.396
 866   1 H      0.036  0.964  0.000  0.000     2.504     2.474
 867   7 N     -0.161  1.252  3.909  0.000    24.475     7.348
 868   6 C      0.023  1.062  2.915  0.000    20.202     6.402
 869   6 C      0.266  1.046  2.688  0.000    22.505     7.769
 870   8 O     -0.505  1.743  4.762  0.000    23.895     6.554
 871   6 C     -0.081  1.055  3.026  0.000    22.029     6.680
 872   6 C     -0.004  1.087  2.917  0.000    28.126     8.699
 873   6 C     -0.047  1.089  2.957  0.000    29.158     8.855
 874   6 C     -0.039  1.087  2.953  0.000    28.979     8.828
 875   6 C     -0.062  1.088  2.974  0.000    29.543     8.912
 876   6 C     -0.056  1.081  2.975  0.000    29.380     8.888
 877   6 C      0.138  1.051  2.811  0.000    24.979     8.191
 878   8 O     -0.454  1.709  4.745  0.000    21.924     6.321
 879   1 H      0.210  0.790  0.000  0.000     1.058     1.611
 880   1 H      0.077  0.923  0.000  0.000     2.008     2.216
 881   1 H      0.076  0.924  0.000  0.000     2.021     2.223
 882   1 H      0.059  0.941  0.000  0.000     2.207     2.323
 883   1 H      0.060  0.940  0.000  0.000     2.193     2.316
 884   1 H      0.039  0.961  0.000  0.000     2.467     2.456
 885   1 H      0.069  0.931  0.000  0.000     2.097     2.265
 886   1 H      0.040  0.960  0.000  0.000     2.442     2.444
 887   1 H      0.321  0.679  0.000  0.000     0.662     1.279
 888   7 N     -0.170  1.249  3.921  0.000    24.682     7.379
 889   6 C      0.027  1.047  2.927  0.000    20.108     6.381
 890   6 C      0.271  1.028  2.701  0.000    22.420     7.757
 891   8 O     -0.510  1.736  4.774  0.000    24.004     6.569
 892   6 C     -0.055  1.041  3.014  0.000    21.503     6.591
 893   6 C     -0.001  1.054  2.947  0.000    20.597     6.461
 894  16 S     -0.183  1.901  4.236  0.046   148.827    20.533
 895   6 C     -0.062  1.055  3.007  0.000    21.758     6.654
 896   1 H      0.237  0.763  0.000  0.000     0.937     1.516
 897   1 H      0.065  0.935  0.000  0.000     2.143     2.289
 898   1 H      0.053  0.947  0.000  0.000     2.279     2.361
 899   1 H      0.069  0.931  0.000  0.000     2.096     2.264
 900   1 H      0.027  0.973  0.000  0.000     2.636     2.539
 901   1 H      0.040  0.960  0.000  0.000     2.445     2.445
 902   1 H      0.075  0.925  0.000  0.000     2.029     2.228
 903   1 H      0.044  0.956  0.000  0.000     2.395     2.420
 904   1 H      0.057  0.943  0.000  0.000     2.237     2.339
 905   7 N     -0.160  1.240  3.920  0.000    24.454     7.345
 906   6 C     -0.010  1.051  2.959  0.000    20.733     6.478
 907   6 C      0.269  1.027  2.704  0.000    22.475     7.771
 908   8 O     -0.482  1.728  4.754  0.000    23.397     6.485
 909   6 C      0.109  1.042  2.849  0.000    18.861     6.196
 910   8 O     -0.473  1.728  4.745  0.000    22.321     6.378
 911   6 C     -0.136  1.046  3.090  0.000    23.175     6.864
 912   1 H      0.246  0.754  0.000  0.000     0.899     1.486
 913   1 H      0.128  0.872  0.000  0.000     1.547     1.945
 914   1 H      0.041  0.959  0.000  0.000     2.441     2.443
 915   1 H      0.339  0.661  0.000  0.000     0.616     1.233
 916   1 H      0.060  0.940  0.000  0.000     2.195     2.317
 917   1 H      0.062  0.938  0.000  0.000     2.174     2.306
 918   1 H      0.056  0.944  0.000  0.000     2.248     2.345
 919   7 N     -0.162  1.229  3.933  0.000    24.509     7.353
 920   6 C      0.027  1.042  2.931  0.000    20.078     6.373
 921   6 C      0.262  1.041  2.697  0.000    22.578     7.783
 922   8 O     -0.484  1.735  4.749  0.000    23.425     6.489
 923   6 C     -0.089  1.049  3.040  0.000    22.169     6.700
 924   6 C     -0.001  1.077  2.924  0.000    28.037     8.685
 925   6 C     -0.041  1.079  2.962  0.000    29.015     8.834
 926   6 C     -0.040  1.084  2.956  0.000    28.995     8.831
 927   6 C     -0.075  1.075  3.000  0.000    29.884     8.965
 928   6 C     -0.055  1.070  2.985  0.000    29.357     8.885
 929   6 C      0.144  1.042  2.814  0.000    24.868     8.174
 930   8 O     -0.410  1.713  4.698  0.000    21.052     6.194
 931   1 H      0.221  0.779  0.000  0.000     1.003     1.569
 932   1 H      0.072  0.928  0.000  0.000     2.066     2.248
 933   1 H      0.075  0.925  0.000  0.000     2.035     2.231
 934   1 H      0.083  0.917  0.000  0.000     1.945     2.181
 935   1 H      0.041  0.959  0.000  0.000     2.435     2.440
 936   1 H      0.049  0.951  0.000  0.000     2.326     2.385
 937   1 H      0.041  0.959  0.000  0.000     2.435     2.440
 938   1 H      0.063  0.937  0.000  0.000     2.159     2.298
 939   1 H      0.316  0.684  0.000  0.000     0.674     1.290
 940   7 N     -0.159  1.239  3.920  0.000    24.436     7.342
 941   6 C      0.020  1.055  2.925  0.000    20.259     6.411
 942   6 C      0.192  1.089  2.718  0.000    23.892     8.005
 943   8 O     -0.352  1.749  4.603  0.000    20.750     6.107
 944   6 C     -0.132  1.045  3.087  0.000    23.089     6.850
 945   1 H      0.218  0.782  0.000  0.000     1.019     1.581
 946   1 H      0.103  0.897  0.000  0.000     1.760     2.075
 947   1 H      0.078  0.922  0.000  0.000     1.999     2.211
 948   1 H      0.078  0.922  0.000  0.000     1.995     2.209
 949   1 H      0.068  0.932  0.000  0.000     2.109     2.271
 950   7 N     -0.163  1.245  3.917  0.000    24.504     7.352
 951   6 C     -0.044  1.084  2.960  0.000    21.384     6.588
 952   6 C      0.269  1.032  2.700  0.000    22.465     7.761
 953   8 O     -0.474  1.774  4.700  0.000    23.224     6.461
 954   6 C     -0.099  1.059  3.041  0.000    22.384     6.734
 955   6 C      0.006  1.075  2.919  0.000    27.878     8.661
 956   6 C     -0.035  1.082  2.954  0.000    28.882     8.813
 957   6 C     -0.060  1.086  2.974  0.000    29.496     8.907
 958   6 C     -0.034  1.085  2.949  0.000    28.855     8.809
 959   6 C     -0.037  1.083  2.954  0.000    28.914     8.817
 960   6 C     -0.034  1.082  2.952  0.000    28.847     8.808
 961   1 H      0.304  0.696  0.000  0.000     0.702     1.312
 962   1 H      0.299  0.701  0.000  0.000     0.716     1.326
 963   1 H      0.316  0.684  0.000  0.000     0.669     1.281
 964   1 H      0.128  0.872  0.000  0.000     1.547     1.945
 965   1 H      0.099  0.901  0.000  0.000     1.791     2.093
 966   1 H      0.108  0.892  0.000  0.000     1.711     2.045
 967   1 H      0.046  0.954  0.000  0.000     2.365     2.405
 968   1 H      0.087  0.913  0.000  0.000     1.906     2.159
 969   1 H      0.024  0.976  0.000  0.000     2.673     2.557
 970   1 H      0.054  0.946  0.000  0.000     2.272     2.357
 971   1 H      0.014  0.986  0.000  0.000     2.827     2.629
 972   7 N     -0.152  1.246  3.907  0.000    24.296     7.321
 973   6 C      0.006  1.062  2.932  0.000    20.481     6.443
 974   6 C      0.221  1.076  2.703  0.000    23.336     7.913
 975   8 O     -0.379  1.744  4.636  0.000    21.272     6.184
 976   6 C     -0.031  1.058  2.972  0.000    21.070     6.526
 977   6 C     -0.141  1.045  3.096  0.000    23.267     6.876
 978   6 C     -0.163  1.052  3.111  0.000    23.723     6.944
 979   1 H      0.255  0.745  0.000  0.000     0.866     1.457
 980   1 H      0.104  0.896  0.000  0.000     1.752     2.070
 981   1 H      0.057  0.943  0.000  0.000     2.240     2.341
 982   1 H      0.071  0.929  0.000  0.000     2.075     2.253
 983   1 H      0.035  0.965  0.000  0.000     2.518     2.481
 984   1 H      0.078  0.922  0.000  0.000     1.999     2.211
 985   1 H      0.066  0.934  0.000  0.000     2.132     2.283
 986   1 H      0.088  0.912  0.000  0.000     1.894     2.152
 987   1 H      0.078  0.922  0.000  0.000     2.001     2.212
 988   7 N     -0.374  1.313  4.061  0.000    29.659     8.088
 989   6 C      0.020  1.054  2.926  0.000    20.241     6.405
 990   6 C      0.219  1.070  2.711  0.000    23.386     7.931
 991   8 O     -0.409  1.741  4.668  0.000    21.860     6.269
 992   6 C     -0.037  1.062  2.974  0.000    21.158     6.537
 993   6 C     -0.090  1.058  3.032  0.000    22.213     6.709
 994   6 C     -0.118  1.044  3.074  0.000    22.728     6.781
 995   6 C     -0.122  1.047  3.075  0.000    22.895     6.823
 996   1 H      0.133  0.867  0.000  0.000     1.525     1.934
 997   1 H      0.092  0.908  0.000  0.000     1.856     2.131
 998   1 H      0.063  0.937  0.000  0.000     2.162     2.300
 999   1 H      0.078  0.922  0.000  0.000     1.998     2.211
1000   1 H      0.032  0.968  0.000  0.000     2.558     2.501
1001   1 H      0.035  0.965  0.000  0.000     2.512     2.478
1002   1 H      0.029  0.971  0.000  0.000     2.597     2.520
1003   1 H      0.062  0.938  0.000  0.000     2.180     2.309
1004   1 H      0.054  0.946  0.000  0.000     2.270     2.356
1005   1 H      0.037  0.963  0.000  0.000     2.483     2.464
1006   1 H      0.054  0.946  0.000  0.000     2.265     2.353
1007   1 H      0.207  0.793  0.000  0.000     1.067     1.616
1008   1 H      0.069  0.931  0.000  0.000     2.090     2.261
1009   1 H      0.173  0.827  0.000  0.000     1.253     1.753
1010   1 H      0.070  0.930  0.000  0.000     2.081     2.256
1011   1 H      0.178  0.822  0.000  0.000     1.225     1.734
1012   1 H      0.073  0.927  0.000  0.000     2.054     2.241
1013   1 H      0.179  0.821  0.000  0.000     1.218     1.728
1014   1 H      0.096  0.904  0.000  0.000     1.819     2.109
1015   1 H      0.171  0.829  0.000  0.000     1.265     1.762
1016   1 H      0.080  0.920  0.000  0.000     1.977     2.199
1017   1 H      0.186  0.814  0.000  0.000     1.178     1.700
1018   1 H      0.070  0.930  0.000  0.000     2.081     2.256
1019   1 H      0.181  0.819  0.000  0.000     1.206     1.720
1020   1 H      0.084  0.916  0.000  0.000     1.935     2.175
1021   1 H      0.179  0.821  0.000  0.000     1.218     1.729
1022   1 H      0.080  0.920  0.000  0.000     1.982     2.201
1023   1 H      0.180  0.820  0.000  0.000     1.215     1.727
1024   1 H      0.068  0.932  0.000  0.000     2.111     2.272
1025   1 H      0.174  0.826  0.000  0.000     1.248     1.750
1026   1 H      0.069  0.931  0.000  0.000     2.097     2.264
1027   1 H      0.179  0.821  0.000  0.000     1.221     1.731
1028   1 H      0.090  0.910  0.000  0.000     1.877     2.142
1029   1 H      0.071  0.929  0.000  0.000     2.078     2.254
1030   1 H      0.179  0.821  0.000  0.000     1.217     1.728
1031   1 H      0.049  0.951  0.000  0.000     2.327     2.385

 Mol. C6AA /au·bohr⁶  :    9767112.257253
 Mol. C8AA /au·bohr⁸  :  221884705.423808
 Mol. α(0) /au        :       4713.265664

 
molecular dipole:
                 x           y           z       tot (Debye)
 q only:      118.066     294.029     738.743
   full:      116.102     294.366     745.120    2057.657
molecular quadrupole (traceless):
                xx          xy          yy          xz          yz          zz
 q only:   -60812.772   10464.718  -39227.406   26704.974   64220.175  100040.178
  q+dip:   -61842.092   10328.564  -40214.854   26430.406   64841.962  102056.946
   full:   -61841.240   10326.173  -40212.093   26434.448   64840.586  102053.333
speedup  1.98
cpu  time for grad    1 m 54.3 s
wall time for grad    0 m 57.7 s

SCC energy    :   -1532.6346363
rep           :      19.4635428
ES            :       4.4353919
AES           :      -0.1298702
AXC           :       0.5965008
disp          :      -1.4865925
XB            :       0.0000000
fix           :       0.0000000
Gborn         :       0.0000000
Gsasa         :       0.0000000
Ghb           :       0.0000000
Gshift        :       0.0000000
Gsolv         :      -1.4659538     -919.90
Etot ala COSMO:   -1532.6346363
grad norm     :       0.9063744
total E       :   -1512.9737291
atomizationE  :     285.3209190   179041.58
(atE without considering molecular charge,
 total energy contains solvation terms)
H-L gap (eV)  :          0.7570

------------------------------------------------------------------------
 * finished run on 2019/05/05 at 22:34:01.200     
------------------------------------------------------------------------
 total:
 * wall-time:     0 d,  0 h,  1 min,  1.217 sec
 *  cpu-time:     0 d,  0 h,  1 min, 58.662 sec
 * ratio c/w:     1.938 speedup
 SCF:
 * wall-time:     0 d,  0 h,  0 min, 59.308 sec
 *  cpu-time:     0 d,  0 h,  1 min, 56.869 sec
 * ratio c/w:     1.971 speedup

