      -----------------------------------------------------------      
     |                   =====================                   |     
     |                           x T B                           |     
     |                   =====================                   |     
     |                         S. Grimme                         |     
     |          Mulliken Center for Theoretical Chemistry        |     
     |                    University of Bonn                     |     
     |                 Version 6.0.1 (SAW181210)                 |     
      -----------------------------------------------------------      

   This program is distributed in the hope that it will be useful,
   but WITHOUT ANY WARRANTY; without even the implied warranty of
   MERCHANTABILITY or FITNESS FOR A PARTICULAR PURPOSE.
   
   FOR NON-COMMERCIAL, ACADEMIA USE ONLY.
   
   Cite this work as:
   S. Grimme, C. Bannwarth, P. Shushkov, J. Comput. Theory Chem., 2017,
   13, 1989-2009.
   C. Bannwarth, S. Ehlert and S. Grimme., ChemRxiv, 2018, preprint.
   http://doi.org/10.26434/chemrxiv.7246238.v1
   
   for sTDA-xTB:
   S. Grimme and C. Bannwarth, J. Chem. Phys., 2016, 145, 054103.
   
   in the mass-spec context:
   V. Asgeirsson, C. Bauer and S. Grimme, Chem. Sci., 2017, 8, 4879.
   
   if GBSA is used:
   P. Shushkov, F. März and S. Grimme, unpublished.
   
   for ANC optimizer:
   S. Grimme, unpublished.
   Rational Function algorithm used in ANCopt:
   F. Eckert, P. Pulay, H.-J. Werner, J. Comput. Chem., 1997, 18, 1473.
   
   with help from (in alphabetical order)
   C. Bannwarth, F. Bohle, G. Brandenburg, E. Caldeweyher, M. Checinski,
   S. Dohm, S. Ehlert, S. Ehrlich, F. März, H. Neugebauer, J. Pisarek,
   P. Pracht, P. Shushkov, and S. Spicher.
   
 * started run on 2019/05/04 at 19:50:11.738     
========================================================================
 # omp threads = 2
========================================================================
number of atoms            : 460
number of electrons        : 1228
charge                     : 3
spin                       : .0
first test random number   : .3549

########################################################################
# WARNING! Please study the warnings concerning your input carefully
#  - Process number higher than OMP_NUM_THREADS, I hope you know what you are doing.
########################################################################

           ------------------------------------------------- 
          |                 G F N 2 - x T B                 |
          | Geometry, Frequencies, Noncovalent interactions |
          |            JCTC 2018 parametrisation            |
           ------------------------------------------------- 
 
      method parameters     
 k(s)        :  1.8500
 k(p)        :  2.2300
 k(d)        :  2.2300
 k(f)        :  2.0000
 kEN (H0ij)  : -2.0000
 D4 a1       :  0.5200
 D4 a2       :  5.0000
 D4 s6       :  1.0000
 D4 s8       :  2.7000
 D4 s9       :  5.0000
 alphaj      :  2.0000

 Solvent             : h2o
 Using internal parameter file: .param_gbsa2_h2o
 Gsolv ref. state (COSMO-RS): gsolv [1 M gas/solution]
 temperature (mdtemp)       :    298.150000000000     
 dielectric constant        :    80.2000000000000     
 rho                        :    1.00000000000000     
 mass                       :    18.0000000000000     
 surface tension            :    15.5689454083859     
 probe radius               :   0.975313790000000     
 vdW radii scaling          :    1.00000000000000     
 Gshift (Eh)                :   1.857443126794793E-003
 c1                         :    1.55243817000000     
 soset                      :   0.130326360000000     
 HB correction              :  T

            Z     q(EN)     CN     RAES       Cart. coordinates
     1  N   5.0   -0.19    3.20    1.95    17.68783    72.00801    11.55945
     2  C   4.0    0.04    4.23    4.06    17.27021    73.12861    14.04444
     3  C   4.0    0.09    3.22    3.04    19.68150    74.26245    15.13482
     4  O   6.0   -0.25    1.11    1.80    19.67772    76.31091    16.26487
     5  C   4.0   -0.05    4.28    4.16    16.30833    71.18409    15.90204
     6  C   4.0   -0.04    4.22    4.04    13.68917    70.16363    15.28410
     7  C   4.0   -0.00    4.25    4.11    11.56890    72.07604    15.31812
     8  N   5.0   -0.14    3.44    2.04     9.35414    70.87039    14.32979
     9  C   4.0    0.10    3.36    3.07     7.60237    69.80081    15.77354
    10  N   5.0   -0.18    3.27    1.97     7.85370    69.81970    18.29822
    11  N   5.0   -0.18    3.24    1.97     5.62949    68.73689    14.63971
    12  H   1.0    0.09    1.02    1.43    17.56311    70.11261    11.36103
    13  H   1.0    0.06    1.05    1.44    15.93228    74.69520    13.83468
    14  H   1.0    0.04    1.03    1.43    17.65571    69.62317    15.95307
    15  H   1.0    0.05    1.03    1.43    16.25164    72.06659    17.76531
    16  H   1.0    0.05    1.03    1.43    13.74587    69.28302    13.41894
    17  H   1.0    0.04    1.03    1.43    13.24698    68.69910    16.66549
    18  H   1.0    0.06    1.03    1.43    11.26844    72.84705    17.20218
    19  H   1.0    0.05    1.03    1.43    11.99598    73.67475    14.08035
    20  H   1.0    0.09    1.06    1.44     9.24454    70.76646    12.40983
    21  H   1.0    0.11    1.06    1.44     9.21241    70.82126    19.19773
    22  H   1.0    0.12    1.05    1.44     6.28712    69.39263    19.29788
    23  H   1.0    0.09    1.02    1.43     5.37060    68.92397    12.74053
    24  H   1.0    0.12    1.07    1.44     4.12905    68.32493    15.76409
    25  N   5.0   -0.20    3.20    1.96    19.96495    68.89563    35.05253
    26  C   4.0    0.03    4.36    4.31    17.55555    70.26568    34.99772
    27  C   4.0    0.14    3.41    3.08    16.22519    70.23355    32.41636
    28  O   6.0   -0.33    1.28    1.80    13.94240    69.92364    32.35967
    29  C   4.0    0.06    4.24    4.07    17.92405    72.99822    35.87078
    30  O   6.0   -0.22    2.11    1.84    18.90482    72.91886    38.35766
    31  C   4.0   -0.06    4.08    3.77    15.54867    74.60638    35.64968
    32  H   1.0    0.11    1.02    1.43    21.55232    69.89718    35.42480
    33  H   1.0    0.06    1.05    1.44    16.25731    69.30948    36.30919
    34  H   1.0    0.06    1.04    1.43    19.41882    73.83726    34.70104
    35  H   1.0    0.13    1.01    1.43    17.59524    72.40107    39.55007
    36  H   1.0    0.06    1.00    1.43    15.88882    76.47343    36.43014
    37  H   1.0    0.05    1.00    1.43    15.00820    74.82559    33.68437
    38  H   1.0    0.06    1.00    1.43    13.98775    73.75222    36.67769
    39  N   5.0   -0.15    3.44    2.04    17.71240    70.56804    30.38679
    40  C   4.0    0.03    4.45    4.46    16.60124    70.35072    27.79220
    41  C   4.0    0.15    3.47    3.10    15.61858    67.66920    27.31410
    42  O   6.0   -0.32    1.29    1.80    13.59469    67.28558    26.16326
    43  C   4.0   -0.03    4.34    4.27    18.55900    71.17464    25.86279
    44  C   4.0   -0.05    4.17    3.93    18.92372    74.09615    25.97239
    45  C   4.0   -0.07    4.13    3.87    17.98452    70.33560    23.17182
    46  C   4.0   -0.06    4.03    3.67    21.28020    74.80291    24.45494
    47  H   1.0    0.08    1.05    1.44    19.59079    70.87984    30.59277
    48  H   1.0    0.05    1.05    1.44    14.93828    71.58849    27.70338
    49  H   1.0    0.04    1.06    1.44    20.34668    70.29025    26.43160
    50  H   1.0    0.05    1.02    1.43    17.25887    75.02590    25.19194
    51  H   1.0    0.05    1.03    1.43    19.17883    74.65740    27.93582
    52  H   1.0    0.04    1.00    1.43    19.61536    70.62662    21.96239
    53  H   1.0    0.05    1.01    1.43    17.50453    68.34194    23.10946
    54  H   1.0    0.05    1.00    1.43    16.39904    71.39763    22.40459
    55  H   1.0    0.06    1.00    1.43    21.73752    76.78523    24.75541
    56  H   1.0    0.06    1.00    1.43    22.88080    73.65207    25.03320
    57  H   1.0    0.06    1.00    1.43    20.98163    74.54780    22.44050
    58  N   5.0   -0.15    3.46    2.05    17.00753    65.76624    28.17770
    59  C   4.0    0.03    4.45    4.46    16.04377    63.19622    27.82432
    60  C   4.0    0.16    3.42    3.09    13.60414    62.68599    29.33422
    61  O   6.0   -0.32    1.28    1.80    12.02244    61.21578    28.47061
    62  C   4.0   -0.05    4.34    4.28    17.93917    61.17610    28.60289
    63  C   4.0   -0.02    4.16    3.92    20.52431    61.28003    27.20638
    64  C   4.0   -0.06    4.08    3.76    22.23074    59.08606    28.05109
    65  C   4.0   -0.07    4.12    3.84    20.11802    61.32728    24.37935
    66  H   1.0    0.08    1.06    1.44    18.75553    66.03458    28.92037
    67  H   1.0    0.05    1.06    1.44    15.53733    62.97890    25.83066
    68  H   1.0    0.05    1.03    1.43    18.26231    61.33484    30.63435
    69  H   1.0    0.05    1.03    1.43    17.05667    59.35062    28.22873
    70  H   1.0    0.05    1.06    1.44    21.47485    63.02992    27.74496
    71  H   1.0    0.06    1.00    1.43    24.00897    59.16921    27.03064
    72  H   1.0    0.06    1.00    1.43    22.58600    59.18811    30.06743
    73  H   1.0    0.05    1.00    1.43    21.34445    57.27381    27.63913
    74  H   1.0    0.05    1.00    1.43    21.83578    60.79437    23.37969
    75  H   1.0    0.04    1.00    1.43    18.61569    60.05171    23.80866
    76  H   1.0    0.04    1.01    1.43    19.63803    63.22834    23.78787
    77  N   5.0   -0.12    3.40    2.02    13.39438    63.84439    31.52441
    78  C   4.0    0.02    4.14    3.88    11.33647    63.47212    33.31020
    79  C   4.0    0.09    3.13    3.03    11.87882    61.33672    35.09977
    80  O   6.0   -0.28    1.18    1.80    13.75532    59.91376    34.90702
    81  H   1.0    0.09    1.07    1.44    14.92128    64.76280    32.23683
    82  H   1.0    0.06    1.03    1.43    11.06812    65.22767    34.35900
    83  H   1.0    0.06    1.03    1.43     9.61115    63.05071    32.25195
    84  N   5.0   -0.18    3.21    1.96     1.43430    59.14086    38.11388
    85  C   4.0    0.03    4.30    4.19     2.49444    61.16287    36.58509
    86  C   4.0    0.16    3.40    3.08     0.47432    63.07716    35.78196
    87  O   6.0   -0.30    1.27    1.80    -1.80847    62.66142    35.88968
    88  C   4.0    0.03    4.13    3.86     3.87205    60.07628    34.26829
    89  O   6.0   -0.24    2.07    1.83     2.02768    59.26936    32.51085
    90  H   1.0    0.10    1.02    1.43     0.47621    57.77270    37.18036
    91  H   1.0    0.05    1.06    1.44     3.83614    62.16631    37.80019
    92  H   1.0    0.05    1.01    1.43     4.93785    61.57105    33.32910
    93  H   1.0    0.05    1.01    1.43     5.12305    58.52481    34.83521
    94  H   1.0    0.12    1.01    1.43     1.03179    57.87853    33.22705
    95  N   5.0   -0.14    3.47    2.06     1.44186    65.35617    35.21126
    96  C   4.0    0.04    4.34    4.28    -0.14929    67.45377    34.48750
    97  C   4.0    0.14    3.51    3.12    -0.33259    67.68620    31.61889
    98  O   6.0   -0.32    1.35    1.80     1.58926    67.52747    30.18648
    99  C   4.0   -0.06    4.12    3.85     1.06014    69.87640    35.51173
   100  H   1.0    0.09    1.08    1.44     3.34104    65.63774    35.24528
   101  H   1.0    0.06    1.07    1.44    -2.01823    67.15330    35.29630
   102  H   1.0    0.06    1.00    1.43    -0.12661    71.48644    35.04119
   103  H   1.0    0.06    1.00    1.43     1.25856    69.74034    37.54696
   104  H   1.0    0.06    1.00    1.43     2.89695    70.14096    34.63490
   105  N   5.0   -0.09    3.68    2.24    -2.65129    67.96777    30.59844
   106  C   4.0    0.04    4.60    4.67    -2.93285    68.66697    27.95283
   107  C   4.0    0.16    3.48    3.11    -1.19431    70.84772    27.31032
   108  O   6.0   -0.31    1.32    1.80    -0.84471    72.55981    28.90525
   109  C   4.0   -0.03    4.34    4.27    -5.67674    69.52680    27.73551
   110  C   4.0   -0.04    4.28    4.16    -6.91640    67.71833    29.67437
   111  C   4.0   -0.01    4.33    4.26    -5.08525    67.80337    31.91558
   112  H   1.0    0.06    1.04    1.44    -2.56058    67.05126    26.70372
   113  H   1.0    0.06    1.03    1.43    -5.88083    71.49022    28.31943
   114  H   1.0    0.06    1.02    1.43    -6.41562    69.32082    25.83255
   115  H   1.0    0.05    1.01    1.43    -8.83069    68.29470    30.18270
   116  H   1.0    0.05    1.02    1.43    -6.99577    65.82671    28.86178
   117  H   1.0    0.05    1.02    1.43    -5.42540    69.47388    33.08154
   118  H   1.0    0.05    1.02    1.43    -5.17596    66.10261    33.07209
   119  N   5.0   -0.14    3.37    2.01    -0.06992    70.81748    25.02564
   120  C   4.0    0.03    4.26    4.11     1.86705    72.77524    24.49841
   121  C   4.0    0.15    3.30    3.05     4.54479    71.74534    24.62124
   122  O   6.0   -0.31    1.23    1.80     6.32113    72.76201    23.46662
   123  H   1.0    0.12    1.11    1.45    -0.58393    69.63451    23.58567
   124  H   1.0    0.06    1.02    1.43     1.55335    73.61238    22.63892
   125  H   1.0    0.07    1.04    1.43     1.64406    74.27190    25.91003
   126  N   5.0   -0.12    3.50    2.08     4.78290    69.65152    25.94027
   127  C   4.0    0.04    4.42    4.41     7.28678    68.30981    26.08389
   128  C   4.0    0.16    3.43    3.09     7.20175    66.12151    24.13558
   129  O   6.0   -0.29    1.29    1.80     5.21564    65.43932    23.11513
   130  C   4.0    0.06    4.22    4.04     7.77622    67.32527    28.72950
   131  O   6.0   -0.25    2.13    1.84     6.02634    65.28058    29.24162
   132  C   4.0   -0.06    4.06    3.74     7.79890    69.34916    30.74206
   133  H   1.0    0.11    1.09    1.44     3.28245    68.85028    26.80387
   134  H   1.0    0.06    1.06    1.44     8.70597    69.69309    25.52075
   135  H   1.0    0.07    1.05    1.44     9.62437    66.38229    28.68604
   136  H   1.0    0.16    1.09    1.44     4.41818    66.04403    29.70460
   137  H   1.0    0.06    1.00    1.43     7.80457    68.44587    32.58643
   138  H   1.0    0.05    1.00    1.43     9.48264    70.50190    30.54931
   139  H   1.0    0.06    1.00    1.43     6.12649    70.53969    30.58899
   140  N   5.0   -0.14    3.45    2.05     9.41650    65.02736    23.56677
   141  C   4.0    0.04    4.50    4.54     9.45997    62.91087    21.77720
   142  C   4.0    0.16    3.51    3.12     7.77244    60.77926    22.74285
   143  O   6.0   -0.32    1.29    1.80     6.21720    59.75691    21.32556
   144  C   4.0   -0.03    4.29    4.19    12.20952    61.99435    21.27642
   145  C   4.0   -0.05    4.19    3.99    13.49642    64.10706    19.79677
   146  C   4.0   -0.07    4.12    3.83    12.12070    59.50936    19.74764
   147  C   4.0   -0.07    3.99    3.60    16.40660    63.85762    19.64937
   148  H   1.0    0.11    1.09    1.44    11.04545    65.64341    24.38124
   149  H   1.0    0.06    1.05    1.44     8.61148    63.55526    19.99519
   150  H   1.0    0.05    1.05    1.44    13.13171    61.66743    23.09056
   151  H   1.0    0.04    1.03    1.43    12.71219    64.12407    17.88815
   152  H   1.0    0.05    1.03    1.43    13.05612    65.93443    20.64715
   153  H   1.0    0.05    1.00    1.43    14.02933    58.85362    19.37347
   154  H   1.0    0.05    1.00    1.43    11.12671    58.04482    20.78510
   155  H   1.0    0.05    1.00    1.43    11.16072    59.80983    17.95996
   156  H   1.0    0.04    1.00    1.43    17.13415    65.09350    18.17916
   157  H   1.0    0.04    1.00    1.43    17.21729    64.45288    21.42949
   158  H   1.0    0.05    1.00    1.43    16.96407    61.92443    19.26198
   159  N   5.0   -0.14    3.49    2.07     8.13716    59.96667    25.10312
   160  C   4.0    0.04    4.47    4.50     6.58758    57.79916    25.90625
   161  C   4.0    0.16    3.44    3.09     3.82103    58.49647    26.29365
   162  O   6.0   -0.28    1.22    1.80     2.15807    56.89587    25.91192
   163  C   4.0   -0.04    4.27    4.15     7.66284    56.65776    28.33833
   164  C   4.0   -0.04    4.22    4.03    10.12704    55.28960    27.71094
   165  C   4.0    0.00    4.26    4.11    11.61992    54.73213    30.10900
   166  N   5.0   -0.13    3.41    2.03    14.06145    53.62853    29.40792
   167  C   4.0    0.10    3.35    3.06    16.10613    54.08963    30.75340
   168  N   5.0   -0.17    3.29    1.98    15.99086    55.78471    32.61856
   169  N   5.0   -0.17    3.23    1.96    18.15271    52.66099    30.40758
   170  H   1.0    0.11    1.10    1.44     9.52422    60.61863    26.28231
   171  H   1.0    0.06    1.06    1.44     6.61026    56.39509    24.38124
   172  H   1.0    0.06    1.03    1.43     8.00110    58.17899    29.68382
   173  H   1.0    0.06    1.03    1.43     6.26444    55.37653    29.13579
   174  H   1.0    0.05    1.02    1.43     9.72831    53.55861    26.66592
   175  H   1.0    0.05    1.04    1.43    11.27788    56.50281    26.50719
   176  H   1.0    0.06    1.05    1.44    11.84480    56.52548    31.07843
   177  H   1.0    0.06    1.02    1.43    10.59002    53.44901    31.35622
   178  H   1.0    0.09    1.06    1.44    14.04822    52.42856    27.91692
   179  H   1.0    0.12    1.07    1.44    14.59624    57.03949    32.90769
   180  H   1.0    0.10    1.03    1.43    17.61414    56.00581    33.66547
   181  H   1.0    0.10    1.03    1.43    18.27365    51.45913    28.91659
   182  H   1.0    0.10    1.03    1.43    19.79299    53.08807    31.30331
   183  N   5.0   -0.13    3.43    2.03     3.37316    60.84540    27.01930
   184  C   4.0    0.03    4.26    4.11     0.81825    61.71278    27.44260
   185  C   4.0    0.16    3.32    3.06    -0.67274    62.11151    24.98407
   186  O   6.0   -0.31    1.26    1.80    -2.98766    62.36852    24.93115
   187  H   1.0    0.10    1.08    1.44     4.79046    62.09450    27.33489
   188  H   1.0    0.07    1.03    1.43    -0.19275    60.32950    28.59533
   189  H   1.0    0.07    1.03    1.43     0.86738    63.50991    28.44982
   190  N   5.0   -0.12    3.52    2.09     0.71054    62.31371    22.89025
   191  C   4.0    0.04    4.44    4.45    -0.45731    62.48190    20.42038
   192  C   4.0    0.14    3.42    3.09    -0.58770    59.98935    18.98797
   193  O   6.0   -0.32    1.29    1.80    -2.27334    59.68699    17.36658
   194  C   4.0   -0.02    4.31    4.21     1.04124    64.35273    18.80277
   195  C   4.0    0.26    3.13    3.03     0.73132    67.10039    19.63425
   196  O   6.0   -0.33    1.32    1.80    -1.09793    67.67865    21.03265
   197  O   6.0   -0.31    1.30    1.80     2.29035    68.61028    18.75175
   198  H   1.0    0.11    1.09    1.44     2.60404    62.57639    22.96962
   199  H   1.0    0.07    1.07    1.44    -2.38294    63.20377    20.68683
   200  H   1.0    0.06    1.03    1.43     3.05002    63.88597    18.85380
   201  H   1.0    0.05    1.03    1.43     0.42141    64.22612    16.83557
   202  N   5.0   -0.14    3.44    2.04     1.18675    58.27726    19.51520
   203  C   4.0    0.05    4.34    4.27     1.54391    56.12297    17.84279
   204  C   4.0    0.10    3.18    3.03     1.49288    53.50948    19.13725
   205  O   6.0   -0.23    1.13    1.80     1.52501    51.63487    17.76342
   206  C   4.0   -0.02    4.33    4.25     4.14606    56.38564    16.49353
   207  C   4.0   -0.00    3.56    3.14     4.18007    58.57584    14.70585
   208  C   4.0   -0.02    3.46    3.10     2.27145    58.95945    12.90683
   209  C   4.0   -0.03    3.50    3.12     6.10381    60.32950    14.83057
   210  C   4.0   -0.02    3.40    3.08     2.38294    61.09862    11.40450
   211  C   4.0   -0.03    3.37    3.07     6.24743    62.41387    13.28288
   212  C   4.0   -0.03    3.37    3.07     4.35204    62.80882    11.53867
   213  H   1.0    0.11    1.10    1.44     2.70420    58.83284    20.55077
   214  H   1.0    0.08    1.07    1.44     0.01323    56.11541    16.45384
   215  H   1.0    0.06    1.03    1.43     5.60115    56.63887    17.93161
   216  H   1.0    0.07    1.03    1.43     4.48621    54.62820    15.46741
   217  H   1.0    0.08    1.03    1.43     0.72188    57.64798    12.70463
   218  H   1.0    0.06    1.04    1.43     7.55323    60.04037    16.24219
   219  H   1.0    0.06    1.03    1.43     0.90896    61.38019    10.00799
   220  H   1.0    0.06    1.03    1.43     7.80268    63.71967    13.43595
   221  H   1.0    0.06    1.03    1.43     4.38227    64.42832    10.30279
   222  O   6.0   -0.29    1.95    1.82     1.51934    73.18909    17.35335
   223  H   1.0    0.16    1.00    1.43     2.67396    72.25556    18.40593
   224  H   1.0    0.14    0.97    1.43     2.46231    74.51567    16.54266
   225  O   6.0   -0.31    1.93    1.82    -4.09126    75.43786    31.88913
   226  H   1.0    0.16    1.01    1.43    -2.93852    74.37394    30.93103
   227  H   1.0    0.16    0.99    1.43    -4.02512    77.07247    31.08032
   228  O   6.0   -0.29    1.99    1.82     4.70542    65.87207    41.88200
   229  H   1.0    0.15    0.97    1.43     3.83236    67.05315    42.94969
   230  H   1.0    0.14    0.97    1.43     3.72843    64.31871    41.93113
   231  O   6.0   -0.32    2.01    1.83    -5.55201    59.67755    33.52752
   232  H   1.0    0.16    1.01    1.43    -4.39928    60.75847    34.44781
   233  H   1.0    0.14    0.96    1.43    -6.68396    58.93110    34.78041
   234  O   6.0   -0.33    2.02    1.83    10.54845    69.62128    36.43392
   235  H   1.0    0.15    1.01    1.43    11.66717    69.74412    34.98072
   236  H   1.0    0.15    1.01    1.43     9.54690    71.16141    36.43959
   237  O   6.0   -0.32    1.97    1.82    11.55189    72.06470    21.66949
   238  H   1.0    0.13    0.97    1.43    12.09047    71.15952    23.15481
   239  H   1.0    0.15    0.98    1.43    10.16862    73.14184    22.15893
   240  O   6.0   -0.31    1.95    1.82     6.79734    65.82860    37.20870
   241  H   1.0    0.15    1.00    1.43     8.11637    67.09283    37.06320
   242  H   1.0    0.16    1.03    1.43     6.12649    66.01569    38.90757
   243  O   6.0   -0.29    1.93    1.82    -6.89939    65.90230    21.13092
   244  H   1.0    0.15    0.98    1.43    -5.17029    66.43143    21.35579
   245  H   1.0    0.15    1.01    1.43    -6.88238    64.88374    19.59457
   246  O   6.0   -0.26    1.92    1.82    -6.52711    62.94110    42.47915
   247  H   1.0    0.15    0.97    1.43    -4.99833    62.03403    42.11632
   248  H   1.0    0.14    0.97    1.43    -6.45719    64.43588    41.43980
   249  O   6.0   -0.29    1.92    1.82    -5.18163    68.52146    39.53307
   250  H   1.0    0.14    0.97    1.43    -4.62227    69.63262    40.85965
   251  H   1.0    0.14    1.00    1.43    -5.91484    69.60050    38.26317
   252  O   6.0   -0.26    1.92    1.82    13.10903    67.92242    40.64989
   253  H   1.0    0.14    0.97    1.43    14.17672    69.25279    41.30941
   254  H   1.0    0.15    1.02    1.43    12.14527    68.61973    39.25339
   255  O   6.0   -0.32    2.00    1.83    -6.61971    72.68264    36.24683
   256  H   1.0    0.14    0.97    1.43    -6.06035    74.06025    37.29941
   257  H   1.0    0.14    0.98    1.43    -6.47987    73.31381    34.54230
   258  O   6.0   -0.28    2.00    1.83   -12.91513    66.02980    42.33553
   259  H   1.0    0.16    0.97    1.43   -13.85310    65.10062    43.59409
   260  H   1.0    0.15    0.97    1.43   -11.17335    65.97774    42.86087
   261  O   6.0   -0.33    2.04    1.83    -6.17933    62.98315    16.76565
   262  H   1.0    0.16    1.03    1.43    -7.77337    61.99853    16.56723
   263  H   1.0    0.16    1.02    1.43    -4.79972    61.76332    16.98297
   264  O   6.0   -0.30    1.93    1.82     3.56925    74.53372    31.88913
   265  H   1.0    0.16    1.01    1.43     3.91426    76.06397    30.93103
   266  H   1.0    0.16    0.99    1.43     2.12056    73.77369    31.08032
   267  O   6.0   -0.27    1.92    1.82     0.52201    81.61998    31.88913
   268  H   1.0    0.16    1.01    1.43    -0.97574    81.15364    30.93103
   269  H   1.0    0.16    0.99    1.43     1.90455    80.74540    31.08032
   270  O   6.0   -0.27    1.92    1.82   -11.83515    71.84991    36.43392
   271  H   1.0    0.15    1.01    1.43   -12.28813    70.81966    34.98072
   272  H   1.0    0.14    1.01    1.43   -10.00058    71.94722    36.43959
   273  O   6.0   -0.27    1.93    1.82    -3.83597    72.06486    19.80055
   274  H   1.0    0.16    1.01    1.43    -3.15468    70.41029    20.22196
   275  H   1.0    0.15    0.98    1.43    -2.39828    72.94119    19.11080
   276  O   6.0   -0.30    1.98    1.82   -10.22081    69.75920    21.66949
   277  H   1.0    0.13    0.97    1.43   -11.27401    69.74537    23.15481
   278  H   1.0    0.15    0.98    1.43    -8.59634    70.41858    22.15893
   279  O   6.0   -0.31    1.96    1.82    -4.72013    65.74110    12.74998
   280  H   1.0    0.15    1.03    1.43    -5.39891    64.79975    14.20885
   281  H   1.0    0.13    0.97    1.43    -2.95681    65.31438    12.72919
   282  O   6.0   -0.27    1.92    1.82    -2.47583    71.00028    12.44007
   283  H   1.0    0.14    0.99    1.43    -3.42778    69.45729    12.66305
   284  H   1.0    0.15    0.97    1.43    -1.42240    71.17326    13.90838
   285  O   6.0   -0.27    1.92    1.82    10.10421    77.04763    39.53307
   286  H   1.0    0.15    0.97    1.43     8.86224    76.97647    40.85965
   287  H   1.0    0.14    1.00    1.43     9.53635    75.87313    38.26317
   288  O   6.0   -0.32    2.00    1.83     7.21957    73.72162    36.24683
   289  H   1.0    0.14    0.97    1.43     5.74684    73.51724    37.29941
   290  H   1.0    0.14    0.98    1.43     6.60304    73.52714    34.54230
   291  N   5.0   -0.19    3.20    1.95   -13.33788    64.47366    11.55945
   292  C   4.0    0.03    4.23    4.06   -12.15859    64.27504    14.04444
   293  C   4.0    0.08    3.22    3.04   -12.38230    61.61988    15.13482
   294  O   6.0   -0.32    1.20    1.80   -10.60639    60.59892    16.26487
   295  C   4.0   -0.04    4.28    4.16   -13.36166    66.08030    15.90204
   296  C   4.0   -0.04    4.22    4.04   -12.93582    68.85879    15.28410
   297  C   4.0    0.00    4.25    4.11   -10.21950    69.73880    15.31812
   298  N   5.0   -0.13    3.44    2.04   -10.15624    72.25966    14.32979
   299  C   4.0    0.11    3.36    3.07   -10.20664    74.31153    15.77354
   300  N   5.0   -0.16    3.26    1.97   -10.31594    74.08442    18.29822
   301  N   5.0   -0.16    3.23    1.96   -10.14158    76.55205    14.63971
   302  H   1.0    0.10    1.02    1.43   -14.91698    65.52937    11.36103
   303  H   1.0    0.05    1.05    1.44   -10.13293    64.65042    13.83468
   304  H   1.0    0.05    1.03    1.43   -15.38714    65.69390    15.95307
   305  H   1.0    0.05    1.03    1.43   -12.56905    65.68815    17.76531
   306  H   1.0    0.06    1.03    1.43   -13.72680    69.25000    13.41894
   307  H   1.0    0.06    1.03    1.43   -13.98305    69.97401    16.66549
   308  H   1.0    0.06    1.03    1.43    -9.40155    69.61351    17.20218
   309  H   1.0    0.05    1.03    1.43    -9.04851    68.56958    14.08035
   310  H   1.0    0.09    1.06    1.44   -10.19144    72.40655    12.40983
   311  H   1.0    0.11    1.06    1.44   -10.12792    72.40697    19.19773
   312  H   1.0    0.11    1.04    1.43    -9.90251    75.65466    19.29788
   313  H   1.0    0.11    1.02    1.43    -9.85011    76.68272    12.74053
   314  H   1.0    0.11    1.03    1.43    -9.74812    78.05745    15.76409
   315  N   5.0   -0.19    3.30    1.98    -8.67904    56.74112    10.47664
   316  C   4.0    0.05    4.38    4.34    -5.94148    56.70549    10.65805
   317  C   4.0    0.15    3.42    3.08    -5.00759    55.50733    13.03911
   318  O   6.0   -0.26    1.20    1.80    -2.85173    54.53976    13.24131
   319  C   4.0   -0.03    4.37    4.32    -5.12696    59.44287    10.62404
   320  C   4.0    0.16    3.24    3.04    -5.19992    60.42765     7.88772
   321  O   6.0   -0.25    1.22    1.80    -5.64640    59.06851     6.05846
   322  N   5.0   -0.17    3.18    1.95    -4.82743    62.90963     7.67229
   323  H   1.0    0.10    1.03    1.43    -9.57336    58.40086    10.15539
   324  H   1.0    0.08    1.05    1.44    -5.13307    55.70197     9.02344
   325  H   1.0    0.05    1.04    1.43    -6.41436    60.57674    11.75599
   326  H   1.0    0.05    1.03    1.43    -3.21051    59.66310    11.36103
   327  H   1.0    0.12    1.03    1.43    -5.05520    63.71321     5.96020
   328  H   1.0    0.10    1.05    1.44    -4.86939    64.01615     9.23698
   329  N   5.0   -0.13    3.45    2.04    -6.68634    55.60809    14.98364
   330  C   4.0    0.04    4.28    4.16    -6.00710    54.65296    17.51776
   331  C   4.0    0.11    3.21    3.04    -5.76993    51.74917    17.47430
   332  O   6.0   -0.24    1.12    1.80    -4.48032    50.63803    19.06167
   333  C   4.0   -0.04    4.22    4.05    -7.97075    55.46591    19.45851
   334  C   4.0   -0.04    4.15    3.90    -7.12417    54.92913    22.24396
   335  C   4.0    0.00    4.17    3.94    -5.28509    56.93532    23.23229
   336  N   5.0   -0.12    3.39    2.02    -4.34004    56.19113    25.70594
   337  C   4.0    0.11    3.35    3.07    -4.76372    57.21474    27.95661
   338  N   5.0   -0.18    3.27    1.97    -6.04759    59.35251    28.23629
   339  N   5.0   -0.17    3.25    1.97    -4.03490    55.97132    30.05231
   340  H   1.0    0.10    1.08    1.44    -8.33776    56.53099    14.77199
   341  H   1.0    0.07    1.05    1.44    -4.14148    55.40878    17.99775
   342  H   1.0    0.06    1.03    1.43    -8.32719    57.48282    19.22985
   343  H   1.0    0.06    1.02    1.43    -9.72106    54.44495    19.06922
   344  H   1.0    0.05    1.02    1.43    -8.79465    54.88547    23.44394
   345  H   1.0    0.07    1.03    1.43    -6.22273    53.07762    22.31577
   346  H   1.0    0.06    1.02    1.43    -3.66555    57.11750    21.96051
   347  H   1.0    0.05    1.03    1.43    -6.20510    58.77355    23.35890
   348  H   1.0    0.10    1.07    1.44    -3.32421    54.55288    25.70216
   349  H   1.0    0.11    1.06    1.44    -5.86220    60.66382    26.85679
   350  H   1.0    0.11    1.08    1.44    -6.11859    59.98920    30.04853
   351  H   1.0    0.10    1.04    1.43    -2.75778    54.58154    29.83310
   352  H   1.0    0.11    1.06    1.44    -4.01349    56.99107    31.68503
   353  N   5.0   -0.19    3.20    1.96   -17.17184    64.05781    35.05253
   354  C   4.0    0.04    4.36    4.31   -14.78064    65.45938    34.99772
   355  C   4.0    0.15    3.41    3.08   -14.14328    66.62758    32.41636
   356  O   6.0   -0.31    1.27    1.80   -13.27028    68.75949    32.35967
   357  C   4.0    0.06    4.24    4.07   -12.59843    63.77398    35.87078
   358  O   6.0   -0.23    2.13    1.84   -13.15755    62.96430    38.35766
   359  C   4.0   -0.06    4.08    3.77   -10.01804    65.02705    35.64968
   360  H   1.0    0.11    1.02    1.43   -17.09815    62.18233    35.42480
   361  H   1.0    0.07    1.05    1.44   -14.95961    67.06179    36.30919
   362  H   1.0    0.05    1.04    1.43   -12.61919    62.05995    34.70104
   363  H   1.0    0.15    1.08    1.44   -12.95118    64.35732    39.55007
   364  H   1.0    0.06    1.00    1.43    -8.57120    63.79895    36.43014
   365  H   1.0    0.05    1.00    1.43    -9.55797    65.38550    33.68437
   366  H   1.0    0.06    1.00    1.43    -9.97730    66.80592    36.67769
   367  N   5.0   -0.15    3.41    2.03   -14.59721    65.17237    30.38679
   368  C   4.0    0.03    4.36    4.31   -14.22984    66.24332    27.79220
   369  C   4.0    0.09    3.24    3.04   -16.06077    68.43509    27.31410
   370  O   6.0   -0.29    1.11    1.80   -15.38105    70.37964    26.16326
   371  C   4.0   -0.02    4.33    4.26   -14.49518    64.13590    25.86279
   372  C   4.0   -0.05    4.17    3.94   -12.14743    62.35928    25.97239
   373  C   4.0   -0.06    4.13    3.87   -14.93457    65.05293    23.17182
   374  C   4.0   -0.07    4.03    3.67   -12.71360    59.96513    24.45494
   375  H   1.0    0.08    1.05    1.44   -15.26638    63.38974    30.59277
   376  H   1.0    0.05    1.05    1.44   -12.32642    67.06460    27.70338
   377  H   1.0    0.05    1.06    1.44   -16.15493    63.02992    26.43160
   378  H   1.0    0.05    1.02    1.43   -10.50982    63.33621    25.19194
   379  H   1.0    0.05    1.03    1.43   -11.78893    61.85773    27.93582
   380  H   1.0    0.05    1.00    1.43   -15.49796    63.49507    21.96239
   381  H   1.0    0.06    1.01    1.43   -16.42114    66.46544    23.10946
   382  H   1.0    0.05    1.00    1.43   -13.22209    65.89498    22.40459
   383  H   1.0    0.05    1.00    1.43   -11.22552    58.57792    24.75541
   384  H   1.0    0.05    1.00    1.43   -14.51056    59.15439    25.03320
   385  H   1.0    0.05    1.00    1.43   -12.78525    60.35126    22.44050
   386  N   5.0   -0.12    3.46    2.05     9.31855    79.51581    30.59844
   387  C   4.0    0.03    4.41    4.39     8.85381    78.92237    27.95283
   388  C   4.0    0.09    3.22    3.04     6.09596    79.33762    27.31032
   389  O   6.0   -0.30    1.21    1.80     4.43844    78.78434    28.90525
   390  C   4.0   -0.03    4.34    4.27     9.48112    76.11618    27.73551
   391  C   4.0   -0.05    4.28    4.16    11.66713    75.94684    29.67437
   392  C   4.0   -0.00    4.28    4.15    10.67791    77.49014    31.91558
   393  H   1.0    0.05    1.04    1.43    10.06692    80.05263    26.70372
   394  H   1.0    0.06    1.03    1.43     7.88279    74.95772    28.31943
   395  H   1.0    0.05    1.02    1.43    10.02895    75.57928    25.83255
   396  H   1.0    0.05    1.01    1.43    12.12513    74.00083    30.18270
   397  H   1.0    0.04    1.02    1.43    13.34500    76.82391    28.86178
   398  H   1.0    0.06    1.02    1.43     9.40128    76.36030    33.08154
   399  H   1.0    0.05    1.02    1.43    12.19616    78.26196    33.07209
   400  N   5.0   -0.17    3.22    1.96   -10.97555    81.86901    35.21126
   401  C   4.0    0.03    4.24    4.09    -8.36340    82.19818    34.48750
   402  C   4.0    0.15    3.51    3.12    -8.07046    82.24071    31.61889
   403  O   6.0   -0.30    1.34    1.80    -9.16885    80.65571    30.18648
   404  C   4.0   -0.06    4.13    3.85    -6.87006    79.93948    35.51173
   405  H   1.0    0.10    1.02    1.43   -11.68129    80.08349    35.24528
   406  H   1.0    0.05    1.06    1.44    -7.68915    83.96697    35.29630
   407  H   1.0    0.06    1.00    1.43    -4.88234    80.16221    35.04119
   408  H   1.0    0.06    1.00    1.43    -7.08710    79.83567    37.54696
   409  H   1.0    0.06    1.00    1.43    -7.55935    78.21647    34.63490
   410  N   5.0   -0.09    3.68    2.24    -6.66726    84.10797    30.59844
   411  C   4.0    0.04    4.60    4.67    -5.92096    84.00222    27.95283
   412  C   4.0    0.16    3.48    3.11    -4.90165    81.40622    27.31032
   413  O   6.0   -0.31    1.32    1.80    -3.59373    80.24741    28.90525
   414  C   4.0   -0.03    4.34    4.27    -3.80438    85.94858    27.73551
   415  C   4.0   -0.02    4.28    4.16    -4.75073    87.92639    29.67437
   416  C   4.0   -0.01    4.33    4.26    -5.59266    86.29805    31.91558
   417  H   1.0    0.06    1.04    1.43    -7.50634    84.48768    26.70372
   418  H   1.0    0.06    1.03    1.43    -2.00196    85.14361    28.31943
   419  H   1.0    0.06    1.02    1.43    -3.61333    86.69146    25.83255
   420  H   1.0    0.06    1.01    1.43    -3.29444    89.29603    30.18270
   421  H   1.0    0.06    1.02    1.43    -6.34924    88.94093    28.86178
   422  H   1.0    0.06    1.02    1.43    -3.97587    85.75737    33.08154
   423  H   1.0    0.06    1.02    1.43    -7.02020    87.22699    33.07209
   424  N   5.0   -0.14    3.35    2.00    -5.49003    80.44759    25.02564
   425  C   4.0    0.02    4.26    4.11    -4.76305    77.79125    24.49841
   426  C   4.0    0.15    3.30    3.05    -6.99384    75.98721    24.62124
   427  O   6.0   -0.29    1.24    1.80    -7.00154    73.94051    23.46662
   428  H   1.0    0.09    1.04    1.43    -6.25751    81.48422    23.58567
   429  H   1.0    0.06    1.02    1.43    -3.88121    77.64434    22.63892
   430  H   1.0    0.07    1.04    1.43    -3.35540    77.23603    25.91003
   431  N   5.0   -0.12    3.50    2.08    -8.92619    76.82791    25.94027
   432  C   4.0    0.04    4.33    4.26   -11.34008    75.33033    26.08389
   433  C   4.0    0.11    3.20    3.04   -13.19269    76.49813    24.13558
   434  O   6.0   -0.24    1.13    1.80   -12.79043    78.55924    23.11513
   435  C   4.0    0.06    4.21    4.02   -12.43744    75.39874    28.72950
   436  O   6.0   -0.21    2.11    1.84   -13.33325    77.93653    29.24162
   437  C   4.0   -0.06    4.06    3.73   -10.69604    74.36715    30.74206
   438  H   1.0    0.11    1.09    1.44    -8.86986    78.52795    26.80387
   439  H   1.0    0.06    1.06    1.44   -10.85172    73.40964    25.52075
   440  H   1.0    0.07    1.05    1.44   -14.17816    74.26968    28.68604
   441  H   1.0    0.16    1.09    1.44   -11.86800    78.94751    29.70460
   442  H   1.0    0.07    1.00    1.43   -11.48114    74.81389    32.58643
   443  H   1.0    0.06    1.00    1.43   -10.53961    72.33262    30.54931
   444  H   1.0    0.06    1.00    1.43    -8.82881    75.22024    30.58899
   445  H   1.0    0.11    1.07    1.44    16.54695    72.62510    10.45939
   446  H   1.0    0.07    1.05    1.44    21.32462    73.34822    14.94665
   447  H   1.0    0.11    1.07    1.44    19.90669    67.69243    36.25315
   448  H   1.0    0.07    1.05    1.44    10.70675    60.99115    36.54126
   449  H   1.0    0.10    1.07    1.44     2.68458    58.34365    38.94684
   450  H   1.0    0.07    1.04    1.43     1.43605    53.38969    21.02232
   451  H   1.0    0.12    1.07    1.44   -18.18470    64.70986    36.25315
   452  H   1.0    0.07    1.04    1.43   -17.84456    68.32731    27.92856
   453  H   1.0    0.09    1.15    1.45    10.46634    80.76618    30.70666
   454  H   1.0    0.06    1.04    1.43     5.61458    80.04713    25.62629
   455  H   1.0    0.11    1.07    1.44   -11.20780    82.46650    36.78658
   456  H   1.0    0.08    1.04    1.43   -14.77532    75.57777    23.66729
   457  H   1.0    0.11    1.07    1.44   -12.23301    65.15315    10.45939
   458  H   1.0    0.07    1.05    1.44   -13.99561    60.65401    14.94665
   459  H   1.0    0.12    1.07    1.44    -9.17618    55.73933     9.19530
   460  H   1.0    0.08    1.04    1.43    -6.66855    50.74752    16.14755

  Z AO/shell   Hii/eV     exponent
  1     Wed Apr 25 08:07:45 CEST 2018   EN: 2.200 GM2: 0.406  GM3: 0.0800  RAES: 1.40
     1s    -10.707211    1.230000
  6     Wed Apr 25 08:07:45 CEST 2018   EN: 2.550 GM2: 0.538  GM3: 0.1500  RAES: 3.00
     2s    -13.970922    2.096432
     2p    -10.063292    1.800000
  7     Wed Apr 25 08:07:45 CEST 2018   EN: 3.040 GM2: 0.461  GM3:-0.0640  RAES: 1.90
     2s    -16.686243    2.339881
     2p    -12.523956    2.014332
  8     Wed Apr 25 08:07:45 CEST 2018   EN: 3.440 GM2: 0.452  GM3:-0.0517  RAES: 1.80
     2s    -20.229985    2.439742
     2p    -15.503117    2.137023
 no old-style atom pair restraining (fixing) potential

molecular fragmentation (1/2 indicates fragments):
111111111111111111111111222222222222222222222222222222222222222222222222
222222222222222222222222222222222222222222222222222222222222222222222222
222222222222222222222222222222222222222222222222222222222222222222222222
222222222222222222222222222222222222222222222222222222222222222222222222
222222222222222222222222222222222222222222222222222222222222222222222222
222222222222222222222222222222222222222222222222222222222222222222222222
2222222222221122222222222222
# atoms in fragment 1/2:    26   434
 fragment masses (1/2) :      159.21     2881.25
CMA distance (Bohr)    :  17.456
constraining FC (au)   :  0.0500
           ------------------------------------------------- 
          |        Self-Consistent Charge Iterations        |
           ------------------------------------------------- 

 Ncao       : 1081
 Nao        : 1081
 Nshell     : 667
 Nel        : 1228
 T(el)      :   500.0
 intcut     :    35.0
 scfconv/Eh :  0.100E-06
   qconv/e  :  0.100E-04
 intneglect :  0.100E-08
 broydamp   :      0.400
 iter      E             dE          RMSdq      gap      omega  full diag
   1   -715.1553720 -0.715155E+03  0.487E+00    3.26       0.0  T
   2   -716.7858933 -0.163052E+01  0.230E+00    1.66       1.0  T
   3   -716.9011384 -0.115245E+00  0.122E+00    1.90       1.0  T
   4   -717.0445597 -0.143421E+00  0.299E-01    1.39       1.0  T
   5   -717.0496085 -0.504873E-02  0.126E-01    1.56       1.0  T
   6   -717.0515788 -0.197035E-02  0.430E-02    1.48       1.0  T
   7   -717.0517471 -0.168283E-03  0.223E-02    1.47       1.0  T
   8   -717.0517701 -0.229637E-04  0.858E-03    1.46       1.0  T
   9   -717.0517801 -0.100275E-04  0.367E-03    1.46       1.3  T
  10   -717.0517814 -0.135192E-05  0.169E-03    1.46       2.8  T
  11   -717.0517817 -0.269376E-06  0.778E-04    1.46       6.0  T
  12   -717.0517818 -0.499767E-07  0.334E-04    1.46      13.9  T
  13   -717.0517818 -0.139737E-07  0.155E-04    1.46      30.1  T
  14   -717.0517818 -0.197451E-08  0.725E-05    1.46      64.3  T
  15   -717.0517818 -0.598789E-09  0.297E-05    1.46     157.1  T
speedup  1.09
cpu  time for SCC   21.45 s
wall time for SCC   19.62 s

   *** convergence criteria satisfied after 15 iterations ***

          eigenvalues
 #    :         602        603        604        605        606        607        608        609
 occ. :        2.000      2.000      2.000      2.000      2.000      2.000      2.000      2.000
 eps  :       -10.787    -10.770    -10.737    -10.695    -10.407    -10.318    -10.050     -9.993
 #    :         610        611        612        613        614        615        616        617
 occ. :        2.000      2.000      2.000      2.000      2.000      0.000      0.000      0.000
 eps  :        -9.952     -9.913     -9.852     -9.843     -9.750     -8.294     -8.236     -7.902
 #    :         618        619        620        621        622        623        624        625
 occ. :        0.000      0.000      0.000      0.000      0.000      0.000      0.000      0.000
 eps  :        -7.860     -7.788     -7.766     -7.755     -7.677     -6.886     -6.828     -6.725


   #   Z            q   n(s)   n(p)   n(d)      C6AA      α(0)
   1   7 N     -0.400  1.319  4.082  0.000    30.387     8.187
   2   6 C      0.037  1.053  2.910  0.000    19.969     6.365
   3   6 C      0.196  1.094  2.709  0.000    23.811     7.992
   4   8 O     -0.395  1.770  4.625  0.000    21.579     6.228
   5   6 C     -0.075  1.052  3.023  0.000    21.926     6.665
   6   6 C     -0.084  1.052  3.033  0.000    22.101     6.692
   7   6 C     -0.031  1.047  2.984  0.000    21.195     6.567
   8   7 N     -0.147  1.211  3.935  0.000    24.173     7.302
   9   6 C      0.229  1.021  2.750  0.000    23.191     7.885
  10   7 N     -0.255  1.242  4.013  0.000    26.626     7.664
  11   7 N     -0.259  1.250  4.009  0.000    26.729     7.678
  12   1 H      0.174  0.826  0.000  0.000     1.251     1.752
  13   1 H      0.059  0.941  0.000  0.000     2.206     2.323
  14   1 H      0.064  0.936  0.000  0.000     2.148     2.292
  15   1 H      0.062  0.938  0.000  0.000     2.172     2.305
  16   1 H      0.064  0.936  0.000  0.000     2.153     2.295
  17   1 H      0.080  0.920  0.000  0.000     1.980     2.200
  18   1 H      0.096  0.904  0.000  0.000     1.825     2.112
  19   1 H      0.075  0.925  0.000  0.000     2.034     2.230
  20   1 H      0.231  0.769  0.000  0.000     0.961     1.536
  21   1 H      0.254  0.746  0.000  0.000     0.868     1.459
  22   1 H      0.215  0.785  0.000  0.000     1.032     1.591
  23   1 H      0.234  0.766  0.000  0.000     0.946     1.524
  24   1 H      0.246  0.754  0.000  0.000     0.897     1.484
  25   7 N     -0.393  1.307  4.086  0.000    30.170     8.158
  26   6 C      0.006  1.069  2.924  0.000    20.491     6.448
  27   6 C      0.259  1.050  2.692  0.000    22.646     7.792
  28   8 O     -0.469  1.731  4.738  0.000    23.119     6.447
  29   6 C      0.114  1.047  2.839  0.000    18.800     6.190
  30   8 O     -0.487  1.732  4.755  0.000    22.609     6.419
  31   6 C     -0.141  1.043  3.097  0.000    23.269     6.879
  32   1 H      0.159  0.841  0.000  0.000     1.339     1.812
  33   1 H      0.060  0.940  0.000  0.000     2.194     2.316
  34   1 H      0.039  0.961  0.000  0.000     2.469     2.457
  35   1 H      0.321  0.679  0.000  0.000     0.660     1.276
  36   1 H      0.053  0.947  0.000  0.000     2.282     2.362
  37   1 H      0.053  0.947  0.000  0.000     2.277     2.360
  38   1 H      0.067  0.933  0.000  0.000     2.115     2.274
  39   7 N     -0.182  1.255  3.927  0.000    24.950     7.419
  40   6 C      0.007  1.074  2.919  0.000    20.461     6.442
  41   6 C      0.267  1.047  2.686  0.000    22.498     7.768
  42   8 O     -0.492  1.742  4.750  0.000    23.600     6.513
  43   6 C     -0.029  1.068  2.961  0.000    21.060     6.527
  44   6 C     -0.068  1.057  3.011  0.000    21.803     6.648
  45   6 C     -0.125  1.038  3.087  0.000    22.959     6.832
  46   6 C     -0.113  1.037  3.076  0.000    22.723     6.798
  47   1 H      0.214  0.786  0.000  0.000     1.038     1.596
  48   1 H      0.086  0.914  0.000  0.000     1.917     2.165
  49   1 H      0.053  0.947  0.000  0.000     2.286     2.365
  50   1 H      0.049  0.951  0.000  0.000     2.327     2.386
  51   1 H      0.038  0.962  0.000  0.000     2.471     2.458
  52   1 H      0.057  0.943  0.000  0.000     2.232     2.336
  53   1 H      0.052  0.948  0.000  0.000     2.297     2.370
  54   1 H      0.063  0.937  0.000  0.000     2.169     2.303
  55   1 H      0.032  0.968  0.000  0.000     2.558     2.501
  56   1 H      0.041  0.959  0.000  0.000     2.430     2.438
  57   1 H      0.045  0.955  0.000  0.000     2.384     2.414
  58   7 N     -0.164  1.242  3.923  0.000    24.555     7.360
  59   6 C      0.005  1.067  2.928  0.000    20.494     6.445
  60   6 C      0.265  1.041  2.694  0.000    22.525     7.772
  61   8 O     -0.471  1.726  4.745  0.000    23.144     6.450
  62   6 C     -0.091  1.063  3.028  0.000    22.226     6.711
  63   6 C     -0.017  1.060  2.957  0.000    20.846     6.494
  64   6 C     -0.126  1.044  3.082  0.000    22.980     6.836
  65   6 C     -0.125  1.040  3.085  0.000    22.956     6.831
  66   1 H      0.214  0.786  0.000  0.000     1.037     1.595
  67   1 H      0.098  0.902  0.000  0.000     1.807     2.102
  68   1 H      0.062  0.938  0.000  0.000     2.173     2.305
  69   1 H      0.079  0.921  0.000  0.000     1.991     2.207
  70   1 H      0.036  0.964  0.000  0.000     2.502     2.473
  71   1 H      0.041  0.959  0.000  0.000     2.433     2.439
  72   1 H      0.046  0.954  0.000  0.000     2.377     2.411
  73   1 H      0.052  0.948  0.000  0.000     2.292     2.367
  74   1 H      0.043  0.957  0.000  0.000     2.409     2.427
  75   1 H      0.054  0.946  0.000  0.000     2.266     2.354
  76   1 H      0.042  0.958  0.000  0.000     2.422     2.434
  77   7 N     -0.134  1.224  3.910  0.000    23.905     7.261
  78   6 C     -0.039  1.052  2.987  0.000    21.348     6.592
  79   6 C      0.192  1.088  2.720  0.000    23.899     8.006
  80   8 O     -0.376  1.751  4.625  0.000    21.209     6.174
  81   1 H      0.204  0.796  0.000  0.000     1.088     1.634
  82   1 H      0.138  0.862  0.000  0.000     1.473     1.898
  83   1 H      0.140  0.860  0.000  0.000     1.463     1.892
  84   7 N     -0.391  1.320  4.070  0.000    30.116     8.150
  85   6 C      0.007  1.065  2.928  0.000    20.476     6.445
  86   6 C      0.269  1.047  2.684  0.000    22.463     7.761
  87   8 O     -0.482  1.736  4.746  0.000    23.395     6.485
  88   6 C      0.055  1.048  2.897  0.000    19.870     6.386
  89   8 O     -0.471  1.723  4.748  0.000    22.274     6.371
  90   1 H      0.163  0.837  0.000  0.000     1.319     1.799
  91   1 H      0.069  0.931  0.000  0.000     2.097     2.265
  92   1 H      0.062  0.938  0.000  0.000     2.179     2.308
  93   1 H      0.044  0.956  0.000  0.000     2.400     2.423
  94   1 H      0.315  0.685  0.000  0.000     0.677     1.293
  95   7 N     -0.175  1.246  3.929  0.000    24.786     7.394
  96   6 C      0.023  1.054  2.924  0.000    20.199     6.400
  97   6 C      0.249  1.062  2.689  0.000    22.828     7.824
  98   8 O     -0.535  1.752  4.783  0.000    24.570     6.646
  99   6 C     -0.136  1.044  3.093  0.000    23.164     6.861
 100   1 H      0.228  0.772  0.000  0.000     0.974     1.546
 101   1 H      0.090  0.910  0.000  0.000     1.878     2.143
 102   1 H      0.067  0.933  0.000  0.000     2.124     2.279
 103   1 H      0.074  0.926  0.000  0.000     2.037     2.232
 104   1 H      0.077  0.923  0.000  0.000     2.013     2.219
 105   7 N     -0.060  1.236  3.824  0.000    22.410     7.031
 106   6 C      0.028  1.057  2.915  0.000    20.084     6.376
 107   6 C      0.278  1.047  2.675  0.000    22.301     7.733
 108   8 O     -0.521  1.749  4.772  0.000    24.256     6.603
 109   6 C     -0.073  1.055  3.018  0.000    21.880     6.656
 110   6 C     -0.079  1.056  3.023  0.000    21.976     6.668
 111   6 C     -0.030  1.061  2.969  0.000    21.158     6.558
 112   1 H      0.067  0.933  0.000  0.000     2.123     2.279
 113   1 H      0.058  0.942  0.000  0.000     2.218     2.329
 114   1 H      0.081  0.919  0.000  0.000     1.971     2.195
 115   1 H      0.067  0.933  0.000  0.000     2.120     2.277
 116   1 H      0.077  0.923  0.000  0.000     2.005     2.214
 117   1 H      0.086  0.914  0.000  0.000     1.923     2.168
 118   1 H      0.091  0.909  0.000  0.000     1.868     2.137
 119   7 N     -0.195  1.270  3.925  0.000    25.231     7.460
 120   6 C     -0.031  1.052  2.978  0.000    21.188     6.565
 121   6 C      0.270  1.039  2.691  0.000    22.442     7.757
 122   8 O     -0.514  1.738  4.775  0.000    24.092     6.581
 123   1 H      0.243  0.757  0.000  0.000     0.909     1.494
 124   1 H      0.090  0.910  0.000  0.000     1.875     2.141
 125   1 H      0.090  0.910  0.000  0.000     1.881     2.145
 126   7 N     -0.158  1.241  3.917  0.000    24.428     7.341
 127   6 C      0.002  1.078  2.920  0.000    20.561     6.458
 128   6 C      0.268  1.047  2.684  0.000    22.470     7.762
 129   8 O     -0.498  1.752  4.746  0.000    23.741     6.533
 130   6 C      0.105  1.048  2.847  0.000    18.953     6.216
 131   8 O     -0.507  1.728  4.779  0.000    23.039     6.479
 132   6 C     -0.151  1.042  3.109  0.000    23.479     6.910
 133   1 H      0.216  0.784  0.000  0.000     1.027     1.588
 134   1 H      0.091  0.909  0.000  0.000     1.865     2.136
 135   1 H      0.063  0.937  0.000  0.000     2.165     2.301
 136   1 H      0.333  0.667  0.000  0.000     0.629     1.246
 137   1 H      0.088  0.912  0.000  0.000     1.898     2.154
 138   1 H      0.069  0.931  0.000  0.000     2.097     2.264
 139   1 H      0.056  0.944  0.000  0.000     2.241     2.341
 140   7 N     -0.188  1.256  3.931  0.000    25.075     7.437
 141   6 C      0.013  1.073  2.914  0.000    20.362     6.424
 142   6 C      0.273  1.045  2.682  0.000    22.387     7.749
 143   8 O     -0.511  1.748  4.763  0.000    24.037     6.573
 144   6 C     -0.030  1.073  2.958  0.000    21.078     6.530
 145   6 C     -0.077  1.056  3.021  0.000    21.962     6.672
 146   6 C     -0.118  1.040  3.078  0.000    22.816     6.811
 147   6 C     -0.121  1.042  3.079  0.000    22.883     6.823
 148   1 H      0.239  0.761  0.000  0.000     0.926     1.507
 149   1 H      0.076  0.924  0.000  0.000     2.023     2.224
 150   1 H      0.062  0.938  0.000  0.000     2.176     2.307
 151   1 H      0.048  0.952  0.000  0.000     2.342     2.393
 152   1 H      0.053  0.947  0.000  0.000     2.280     2.361
 153   1 H      0.062  0.938  0.000  0.000     2.175     2.306
 154   1 H      0.039  0.961  0.000  0.000     2.464     2.454
 155   1 H      0.045  0.955  0.000  0.000     2.379     2.412
 156   1 H      0.045  0.955  0.000  0.000     2.380     2.413
 157   1 H      0.044  0.956  0.000  0.000     2.399     2.422
 158   1 H      0.050  0.950  0.000  0.000     2.318     2.381
 159   7 N     -0.196  1.263  3.933  0.000    25.256     7.464
 160   6 C      0.012  1.066  2.922  0.000    20.366     6.424
 161   6 C      0.267  1.040  2.694  0.000    22.496     7.767
 162   8 O     -0.499  1.749  4.750  0.000    23.773     6.537
 163   6 C     -0.084  1.057  3.027  0.000    22.088     6.690
 164   6 C     -0.089  1.055  3.034  0.000    22.194     6.706
 165   6 C     -0.033  1.056  2.978  0.000    21.240     6.574
 166   7 N     -0.141  1.210  3.931  0.000    24.053     7.284
 167   6 C      0.231  1.017  2.752  0.000    23.159     7.880
 168   7 N     -0.242  1.232  4.010  0.000    26.329     7.621
 169   7 N     -0.258  1.242  4.016  0.000    26.700     7.674
 170   1 H      0.249  0.751  0.000  0.000     0.886     1.475
 171   1 H      0.081  0.919  0.000  0.000     1.969     2.194
 172   1 H      0.075  0.925  0.000  0.000     2.033     2.230
 173   1 H      0.073  0.927  0.000  0.000     2.055     2.242
 174   1 H      0.067  0.933  0.000  0.000     2.118     2.276
 175   1 H      0.080  0.920  0.000  0.000     1.981     2.201
 176   1 H      0.090  0.910  0.000  0.000     1.882     2.145
 177   1 H      0.088  0.912  0.000  0.000     1.896     2.153
 178   1 H      0.236  0.764  0.000  0.000     0.940     1.519
 179   1 H      0.248  0.752  0.000  0.000     0.890     1.478
 180   1 H      0.238  0.762  0.000  0.000     0.930     1.511
 181   1 H      0.248  0.752  0.000  0.000     0.890     1.478
 182   1 H      0.243  0.757  0.000  0.000     0.911     1.495
 183   7 N     -0.159  1.231  3.927  0.000    24.432     7.341
 184   6 C     -0.039  1.051  2.988  0.000    21.333     6.587
 185   6 C      0.265  1.045  2.690  0.000    22.522     7.771
 186   8 O     -0.478  1.734  4.744  0.000    23.300     6.472
 187   1 H      0.217  0.783  0.000  0.000     1.025     1.586
 188   1 H      0.106  0.894  0.000  0.000     1.731     2.058
 189   1 H      0.092  0.908  0.000  0.000     1.859     2.132
 190   7 N     -0.175  1.240  3.935  0.000    24.785     7.394
 191   6 C      0.024  1.055  2.921  0.000    20.173     6.395
 192   6 C      0.261  1.050  2.689  0.000    22.601     7.786
 193   8 O     -0.499  1.751  4.748  0.000    23.769     6.537
 194   6 C     -0.097  1.064  3.033  0.000    22.334     6.727
 195   6 C      0.375  1.019  2.607  0.000    20.649     7.437
 196   8 O     -0.595  1.758  4.837  0.000    25.993     6.835
 197   8 O     -0.571  1.740  4.831  0.000    25.418     6.759
 198   1 H      0.212  0.788  0.000  0.000     1.048     1.604
 199   1 H      0.110  0.890  0.000  0.000     1.698     2.038
 200   1 H      0.055  0.945  0.000  0.000     2.258     2.350
 201   1 H      0.049  0.951  0.000  0.000     2.326     2.385
 202   7 N     -0.173  1.257  3.916  0.000    24.742     7.388
 203   6 C      0.026  1.064  2.910  0.000    20.152     6.393
 204   6 C      0.197  1.087  2.716  0.000    23.803     7.990
 205   8 O     -0.370  1.769  4.601  0.000    21.092     6.157
 206   6 C     -0.073  1.058  3.016  0.000    21.891     6.660
 207   6 C      0.014  1.080  2.906  0.000    27.705     8.634
 208   6 C     -0.040  1.084  2.957  0.000    29.005     8.832
 209   6 C     -0.042  1.079  2.963  0.000    29.034     8.837
 210   6 C     -0.037  1.078  2.959  0.000    28.925     8.820
 211   6 C     -0.041  1.079  2.962  0.000    29.010     8.832
 212   6 C     -0.044  1.080  2.964  0.000    29.088     8.845
 213   1 H      0.231  0.769  0.000  0.000     0.962     1.536
 214   1 H      0.108  0.892  0.000  0.000     1.710     2.045
 215   1 H      0.075  0.925  0.000  0.000     2.028     2.227
 216   1 H      0.065  0.935  0.000  0.000     2.137     2.286
 217   1 H      0.031  0.969  0.000  0.000     2.579     2.511
 218   1 H      0.046  0.954  0.000  0.000     2.364     2.405
 219   1 H      0.023  0.977  0.000  0.000     2.684     2.562
 220   1 H      0.057  0.943  0.000  0.000     2.231     2.336
 221   1 H      0.049  0.951  0.000  0.000     2.338     2.391
 222   8 O     -0.646  1.760  4.886  0.000    26.311     6.923
 223   1 H      0.310  0.690  0.000  0.000     0.692     1.307
 224   1 H      0.325  0.675  0.000  0.000     0.651     1.267
 225   8 O     -0.631  1.746  4.885  0.000    25.951     6.875
 226   1 H      0.314  0.686  0.000  0.000     0.681     1.297
 227   1 H      0.293  0.707  0.000  0.000     0.743     1.354
 228   8 O     -0.637  1.762  4.875  0.000    26.089     6.894
 229   1 H      0.338  0.662  0.000  0.000     0.617     1.234
 230   1 H      0.327  0.673  0.000  0.000     0.644     1.261
 231   8 O     -0.619  1.741  4.878  0.000    25.645     6.835
 232   1 H      0.324  0.676  0.000  0.000     0.653     1.270
 233   1 H      0.329  0.671  0.000  0.000     0.640     1.257
 234   8 O     -0.649  1.756  4.893  0.000    26.395     6.934
 235   1 H      0.326  0.674  0.000  0.000     0.649     1.265
 236   1 H      0.323  0.677  0.000  0.000     0.655     1.271
 237   8 O     -0.602  1.737  4.865  0.000    25.238     6.780
 238   1 H      0.305  0.695  0.000  0.000     0.705     1.319
 239   1 H      0.316  0.684  0.000  0.000     0.674     1.290
 240   8 O     -0.659  1.756  4.903  0.000    26.638     6.966
 241   1 H      0.307  0.693  0.000  0.000     0.700     1.314
 242   1 H      0.317  0.683  0.000  0.000     0.673     1.289
 243   8 O     -0.621  1.754  4.867  0.000    25.698     6.842
 244   1 H      0.280  0.720  0.000  0.000     0.784     1.391
 245   1 H      0.310  0.690  0.000  0.000     0.692     1.307
 246   8 O     -0.646  1.769  4.877  0.000    26.325     6.925
 247   1 H      0.332  0.668  0.000  0.000     0.631     1.248
 248   1 H      0.312  0.688  0.000  0.000     0.686     1.301
 249   8 O     -0.641  1.757  4.884  0.000    26.183     6.906
 250   1 H      0.319  0.681  0.000  0.000     0.667     1.283
 251   1 H      0.312  0.688  0.000  0.000     0.686     1.301
 252   8 O     -0.661  1.773  4.888  0.000    26.699     6.974
 253   1 H      0.300  0.700  0.000  0.000     0.721     1.334
 254   1 H      0.330  0.670  0.000  0.000     0.639     1.255
 255   8 O     -0.612  1.746  4.866  0.000    25.482     6.813
 256   1 H      0.324  0.676  0.000  0.000     0.652     1.269
 257   1 H      0.322  0.678  0.000  0.000     0.658     1.275
 258   8 O     -0.629  1.765  4.864  0.000    25.896     6.868
 259   1 H      0.339  0.661  0.000  0.000     0.614     1.231
 260   1 H      0.332  0.668  0.000  0.000     0.632     1.249
 261   8 O     -0.657  1.764  4.893  0.000    26.597     6.960
 262   1 H      0.327  0.673  0.000  0.000     0.645     1.262
 263   1 H      0.316  0.684  0.000  0.000     0.674     1.290
 264   8 O     -0.628  1.743  4.885  0.000    25.856     6.863
 265   1 H      0.310  0.690  0.000  0.000     0.693     1.307
 266   1 H      0.297  0.703  0.000  0.000     0.729     1.341
 267   8 O     -0.649  1.767  4.882  0.000    26.397     6.934
 268   1 H      0.311  0.689  0.000  0.000     0.690     1.304
 269   1 H      0.310  0.690  0.000  0.000     0.691     1.305
 270   8 O     -0.679  1.779  4.900  0.000    27.168     7.035
 271   1 H      0.312  0.688  0.000  0.000     0.686     1.301
 272   1 H      0.314  0.686  0.000  0.000     0.680     1.296
 273   8 O     -0.625  1.759  4.866  0.000    25.782     6.853
 274   1 H      0.303  0.697  0.000  0.000     0.712     1.325
 275   1 H      0.293  0.707  0.000  0.000     0.742     1.353
 276   8 O     -0.592  1.735  4.857  0.000    24.997     6.748
 277   1 H      0.296  0.704  0.000  0.000     0.732     1.344
 278   1 H      0.317  0.683  0.000  0.000     0.671     1.286
 279   8 O     -0.640  1.759  4.881  0.000    26.154     6.902
 280   1 H      0.331  0.669  0.000  0.000     0.635     1.252
 281   1 H      0.290  0.710  0.000  0.000     0.753     1.363
 282   8 O     -0.640  1.762  4.878  0.000    26.166     6.904
 283   1 H      0.321  0.679  0.000  0.000     0.662     1.278
 284   1 H      0.307  0.693  0.000  0.000     0.702     1.316
 285   8 O     -0.659  1.775  4.884  0.000    26.644     6.967
 286   1 H      0.324  0.676  0.000  0.000     0.652     1.269
 287   1 H      0.322  0.678  0.000  0.000     0.660     1.276
 288   8 O     -0.619  1.749  4.870  0.000    25.647     6.835
 289   1 H      0.330  0.670  0.000  0.000     0.637     1.254
 290   1 H      0.325  0.675  0.000  0.000     0.650     1.267
 291   7 N     -0.396  1.313  4.083  0.000    30.270     8.171
 292   6 C      0.030  1.055  2.915  0.000    20.084     6.383
 293   6 C      0.191  1.102  2.707  0.000    23.916     8.009
 294   8 O     -0.366  1.748  4.618  0.000    21.012     6.146
 295   6 C     -0.079  1.052  3.026  0.000    21.995     6.675
 296   6 C     -0.083  1.052  3.032  0.000    22.083     6.689
 297   6 C     -0.039  1.049  2.991  0.000    21.344     6.590
 298   7 N     -0.135  1.209  3.926  0.000    23.928     7.265
 299   6 C      0.230  1.020  2.750  0.000    23.162     7.880
 300   7 N     -0.246  1.243  4.004  0.000    26.418     7.634
 301   7 N     -0.269  1.250  4.019  0.000    26.955     7.711
 302   1 H      0.167  0.833  0.000  0.000     1.289     1.779
 303   1 H      0.078  0.922  0.000  0.000     2.001     2.212
 304   1 H      0.062  0.938  0.000  0.000     2.176     2.307
 305   1 H      0.074  0.926  0.000  0.000     2.039     2.233
 306   1 H      0.059  0.941  0.000  0.000     2.210     2.325
 307   1 H      0.074  0.926  0.000  0.000     2.040     2.233
 308   1 H      0.111  0.889  0.000  0.000     1.688     2.032
 309   1 H      0.089  0.911  0.000  0.000     1.888     2.149
 310   1 H      0.231  0.769  0.000  0.000     0.960     1.534
 311   1 H      0.265  0.735  0.000  0.000     0.828     1.426
 312   1 H      0.207  0.793  0.000  0.000     1.069     1.620
 313   1 H      0.251  0.749  0.000  0.000     0.879     1.469
 314   1 H      0.243  0.757  0.000  0.000     0.913     1.496
 315   7 N     -0.390  1.300  4.090  0.000    30.088     8.147
 316   6 C      0.046  1.043  2.910  0.000    19.803     6.337
 317   6 C      0.264  1.053  2.683  0.000    22.544     7.775
 318   8 O     -0.525  1.771  4.754  0.000    24.343     6.615
 319   6 C     -0.100  1.064  3.036  0.000    22.396     6.734
 320   6 C      0.287  1.038  2.674  0.000    22.128     7.702
 321   8 O     -0.520  1.765  4.755  0.000    24.239     6.601
 322   7 N     -0.294  1.276  4.018  0.000    27.585     7.800
 323   1 H      0.167  0.833  0.000  0.000     1.293     1.781
 324   1 H      0.041  0.959  0.000  0.000     2.440     2.443
 325   1 H      0.090  0.910  0.000  0.000     1.877     2.143
 326   1 H      0.072  0.928  0.000  0.000     2.069     2.249
 327   1 H      0.228  0.772  0.000  0.000     0.973     1.545
 328   1 H      0.245  0.755  0.000  0.000     0.902     1.487
 329   7 N     -0.174  1.251  3.923  0.000    24.775     7.393
 330   6 C      0.027  1.063  2.911  0.000    20.140     6.392
 331   6 C      0.204  1.089  2.707  0.000    23.662     7.966
 332   8 O     -0.371  1.757  4.613  0.000    21.107     6.160
 333   6 C     -0.087  1.061  3.026  0.000    22.154     6.701
 334   6 C     -0.088  1.059  3.029  0.000    22.175     6.705
 335   6 C     -0.019  1.052  2.967  0.000    21.006     6.541
 336   7 N     -0.137  1.212  3.925  0.000    23.969     7.271
 337   6 C      0.226  1.025  2.749  0.000    23.237     7.892
 338   7 N     -0.259  1.264  3.995  0.000    26.729     7.678
 339   7 N     -0.280  1.268  4.011  0.000    27.222     7.749
 340   1 H      0.232  0.768  0.000  0.000     0.958     1.533
 341   1 H      0.094  0.906  0.000  0.000     1.841     2.122
 342   1 H      0.103  0.897  0.000  0.000     1.761     2.075
 343   1 H      0.075  0.925  0.000  0.000     2.035     2.231
 344   1 H      0.084  0.916  0.000  0.000     1.942     2.179
 345   1 H      0.067  0.933  0.000  0.000     2.117     2.275
 346   1 H      0.059  0.941  0.000  0.000     2.205     2.322
 347   1 H      0.103  0.897  0.000  0.000     1.759     2.074
 348   1 H      0.218  0.782  0.000  0.000     1.021     1.583
 349   1 H      0.245  0.755  0.000  0.000     0.902     1.488
 350   1 H      0.256  0.744  0.000  0.000     0.859     1.452
 351   1 H      0.228  0.772  0.000  0.000     0.974     1.546
 352   1 H      0.255  0.745  0.000  0.000     0.865     1.457
 353   7 N     -0.399  1.313  4.086  0.000    30.342     8.181
 354   6 C      0.013  1.067  2.920  0.000    20.372     6.429
 355   6 C      0.264  1.050  2.686  0.000    22.547     7.775
 356   8 O     -0.486  1.741  4.745  0.000    23.466     6.495
 357   6 C      0.113  1.048  2.839  0.000    18.821     6.193
 358   8 O     -0.507  1.725  4.782  0.000    23.054     6.482
 359   6 C     -0.146  1.045  3.101  0.000    23.381     6.896
 360   1 H      0.168  0.832  0.000  0.000     1.288     1.778
 361   1 H      0.044  0.956  0.000  0.000     2.397     2.421
 362   1 H      0.042  0.958  0.000  0.000     2.418     2.432
 363   1 H      0.326  0.674  0.000  0.000     0.649     1.266
 364   1 H      0.070  0.930  0.000  0.000     2.080     2.256
 365   1 H      0.056  0.944  0.000  0.000     2.251     2.346
 366   1 H      0.057  0.943  0.000  0.000     2.229     2.335
 367   7 N     -0.176  1.253  3.923  0.000    24.803     7.397
 368   6 C      0.017  1.071  2.912  0.000    20.298     6.416
 369   6 C      0.200  1.090  2.710  0.000    23.736     7.979
 370   8 O     -0.376  1.762  4.613  0.000    21.204     6.174
 371   6 C     -0.027  1.068  2.959  0.000    21.013     6.520
 372   6 C     -0.083  1.061  3.022  0.000    22.090     6.692
 373   6 C     -0.129  1.038  3.091  0.000    23.042     6.845
 374   6 C     -0.125  1.041  3.085  0.000    22.964     6.834
 375   1 H      0.223  0.777  0.000  0.000     0.997     1.564
 376   1 H      0.100  0.900  0.000  0.000     1.781     2.087
 377   1 H      0.056  0.944  0.000  0.000     2.245     2.343
 378   1 H      0.070  0.930  0.000  0.000     2.082     2.256
 379   1 H      0.055  0.945  0.000  0.000     2.264     2.353
 380   1 H      0.063  0.937  0.000  0.000     2.163     2.300
 381   1 H      0.034  0.966  0.000  0.000     2.529     2.487
 382   1 H      0.077  0.923  0.000  0.000     2.013     2.219
 383   1 H      0.056  0.944  0.000  0.000     2.248     2.345
 384   1 H      0.040  0.960  0.000  0.000     2.450     2.448
 385   1 H      0.051  0.949  0.000  0.000     2.312     2.378
 386   7 N     -0.293  1.328  3.965  0.000    27.556     7.796
 387   6 C      0.040  1.055  2.905  0.000    19.885     6.346
 388   6 C      0.192  1.096  2.712  0.000    23.890     8.005
 389   8 O     -0.383  1.758  4.625  0.000    21.347     6.195
 390   6 C     -0.060  1.057  3.003  0.000    21.623     6.617
 391   6 C     -0.066  1.057  3.009  0.000    21.722     6.629
 392   6 C     -0.004  1.051  2.953  0.000    20.706     6.488
 393   1 H      0.036  0.964  0.000  0.000     2.504     2.475
 394   1 H      0.059  0.941  0.000  0.000     2.212     2.326
 395   1 H      0.056  0.944  0.000  0.000     2.245     2.343
 396   1 H      0.050  0.950  0.000  0.000     2.318     2.381
 397   1 H      0.039  0.961  0.000  0.000     2.461     2.453
 398   1 H      0.067  0.933  0.000  0.000     2.123     2.279
 399   1 H      0.038  0.962  0.000  0.000     2.480     2.463
 400   7 N     -0.395  1.315  4.080  0.000    30.225     8.165
 401   6 C      0.043  1.050  2.906  0.000    19.865     6.349
 402   6 C      0.253  1.065  2.682  0.000    22.747     7.811
 403   8 O     -0.520  1.754  4.766  0.000    24.224     6.599
 404   6 C     -0.122  1.043  3.080  0.000    22.895     6.821
 405   1 H      0.163  0.837  0.000  0.000     1.313     1.795
 406   1 H      0.040  0.960  0.000  0.000     2.455     2.450
 407   1 H      0.051  0.949  0.000  0.000     2.307     2.375
 408   1 H      0.051  0.949  0.000  0.000     2.308     2.375
 409   1 H      0.064  0.936  0.000  0.000     2.154     2.295
 410   7 N     -0.070  1.235  3.836  0.000    22.605     7.061
 411   6 C      0.024  1.059  2.917  0.000    20.150     6.386
 412   6 C      0.276  1.046  2.678  0.000    22.332     7.739
 413   8 O     -0.498  1.750  4.748  0.000    23.742     6.533
 414   6 C     -0.074  1.057  3.018  0.000    21.896     6.658
 415   6 C     -0.073  1.056  3.017  0.000    21.861     6.651
 416   6 C     -0.014  1.056  2.958  0.000    20.873     6.514
 417   1 H      0.063  0.937  0.000  0.000     2.161     2.299
 418   1 H      0.071  0.929  0.000  0.000     2.070     2.250
 419   1 H      0.071  0.929  0.000  0.000     2.075     2.253
 420   1 H      0.070  0.930  0.000  0.000     2.091     2.261
 421   1 H      0.065  0.935  0.000  0.000     2.140     2.288
 422   1 H      0.074  0.926  0.000  0.000     2.044     2.236
 423   1 H      0.068  0.932  0.000  0.000     2.113     2.273
 424   7 N     -0.176  1.254  3.923  0.000    24.821     7.399
 425   6 C     -0.041  1.058  2.984  0.000    21.378     6.595
 426   6 C      0.264  1.036  2.701  0.000    22.555     7.777
 427   8 O     -0.474  1.743  4.731  0.000    23.225     6.461
 428   1 H      0.228  0.772  0.000  0.000     0.975     1.547
 429   1 H      0.105  0.895  0.000  0.000     1.737     2.061
 430   1 H      0.105  0.895  0.000  0.000     1.739     2.062
 431   7 N     -0.155  1.237  3.918  0.000    24.361     7.330
 432   6 C      0.007  1.079  2.914  0.000    20.477     6.445
 433   6 C      0.201  1.093  2.706  0.000    23.713     7.975
 434   8 O     -0.364  1.755  4.609  0.000    20.973     6.140
 435   6 C      0.119  1.044  2.837  0.000    18.737     6.181
 436   8 O     -0.523  1.749  4.774  0.000    23.386     6.528
 437   6 C     -0.139  1.041  3.098  0.000    23.229     6.873
 438   1 H      0.212  0.788  0.000  0.000     1.046     1.602
 439   1 H      0.121  0.879  0.000  0.000     1.609     1.983
 440   1 H      0.056  0.944  0.000  0.000     2.252     2.347
 441   1 H      0.334  0.666  0.000  0.000     0.626     1.243
 442   1 H      0.070  0.930  0.000  0.000     2.090     2.261
 443   1 H      0.075  0.925  0.000  0.000     2.035     2.231
 444   1 H      0.060  0.940  0.000  0.000     2.201     2.320
 445   1 H      0.182  0.818  0.000  0.000     1.201     1.716
 446   1 H      0.073  0.927  0.000  0.000     2.047     2.237
 447   1 H      0.189  0.811  0.000  0.000     1.162     1.688
 448   1 H      0.095  0.905  0.000  0.000     1.830     2.115
 449   1 H      0.184  0.816  0.000  0.000     1.193     1.711
 450   1 H      0.090  0.910  0.000  0.000     1.880     2.144
 451   1 H      0.175  0.825  0.000  0.000     1.243     1.746
 452   1 H      0.071  0.929  0.000  0.000     2.069     2.249
 453   1 H      0.178  0.822  0.000  0.000     1.226     1.734
 454   1 H      0.076  0.924  0.000  0.000     2.021     2.223
 455   1 H      0.180  0.820  0.000  0.000     1.214     1.726
 456   1 H      0.093  0.907  0.000  0.000     1.845     2.124
 457   1 H      0.183  0.817  0.000  0.000     1.195     1.712
 458   1 H      0.088  0.912  0.000  0.000     1.894     2.152
 459   1 H      0.174  0.826  0.000  0.000     1.246     1.749
 460   1 H      0.067  0.933  0.000  0.000     2.117     2.275

 Mol. C6AA /au·bohr⁶  :    1719735.644332
 Mol. C8AA /au·bohr⁸  :   37015286.449989
 Mol. α(0) /au        :       1945.580870

 
molecular dipole:
                 x           y           z       tot (Debye)
 q only:       17.894     194.005      76.651
   full:       20.163     196.058      77.994     538.768
molecular quadrupole (traceless):
                xx          xy          yy          xz          yz          zz
 q only:    -6882.898    1529.746   11405.147     870.545    7099.751   -4522.249
  q+dip:    -7069.073    1769.845   11635.020     969.590    7330.661   -4565.948
   full:    -7069.220    1768.895   11634.997     967.255    7331.462   -4565.777
speedup  1.10
cpu  time for grad   24.36 s
wall time for grad   22.05 s

SCC energy    :    -717.0696452
rep           :       7.8695761
ES            :       2.5298223
AES           :      -0.1880913
AXC           :       0.2025039
disp          :      -0.5681616
XB            :       0.0000000
fix           :       0.0000000
Gborn         :       0.0000000
Gsasa         :       0.0000000
Ghb           :       0.0000000
Gshift        :       0.0000000
Gsolv         :      -0.5652984     -354.73
Etot ala COSMO:    -717.0696452
grad norm     :       0.6906976
total E       :    -709.1307697
atomizationE  :     119.1441500    74764.08
(atE without considering molecular charge,
 total energy contains solvation terms)
H-L gap (eV)  :          1.4564

------------------------------------------------------------------------
 * finished run on 2019/05/04 at 19:50:35.486     
------------------------------------------------------------------------
 total:
 * wall-time:     0 d,  0 h,  0 min, 23.747 sec
 *  cpu-time:     0 d,  0 h,  0 min, 25.630 sec
 * ratio c/w:     1.079 speedup
 SCF:
 * wall-time:     0 d,  0 h,  0 min, 23.070 sec
 *  cpu-time:     0 d,  0 h,  0 min, 25.258 sec
 * ratio c/w:     1.095 speedup

