      -----------------------------------------------------------      
     |                   =====================                   |     
     |                           x T B                           |     
     |                   =====================                   |     
     |                         S. Grimme                         |     
     |          Mulliken Center for Theoretical Chemistry        |     
     |                    University of Bonn                     |     
     |                 Version 6.0.1 (SAW181210)                 |     
      -----------------------------------------------------------      

   This program is distributed in the hope that it will be useful,
   but WITHOUT ANY WARRANTY; without even the implied warranty of
   MERCHANTABILITY or FITNESS FOR A PARTICULAR PURPOSE.
   
   FOR NON-COMMERCIAL, ACADEMIA USE ONLY.
   
   Cite this work as:
   S. Grimme, C. Bannwarth, P. Shushkov, J. Comput. Theory Chem., 2017,
   13, 1989-2009.
   C. Bannwarth, S. Ehlert and S. Grimme., ChemRxiv, 2018, preprint.
   http://doi.org/10.26434/chemrxiv.7246238.v1
   
   for sTDA-xTB:
   S. Grimme and C. Bannwarth, J. Chem. Phys., 2016, 145, 054103.
   
   in the mass-spec context:
   V. Asgeirsson, C. Bauer and S. Grimme, Chem. Sci., 2017, 8, 4879.
   
   if GBSA is used:
   P. Shushkov, F. März and S. Grimme, unpublished.
   
   for ANC optimizer:
   S. Grimme, unpublished.
   Rational Function algorithm used in ANCopt:
   F. Eckert, P. Pulay, H.-J. Werner, J. Comput. Chem., 1997, 18, 1473.
   
   with help from (in alphabetical order)
   C. Bannwarth, F. Bohle, G. Brandenburg, E. Caldeweyher, M. Checinski,
   S. Dohm, S. Ehlert, S. Ehrlich, F. März, H. Neugebauer, J. Pisarek,
   P. Pracht, P. Shushkov, and S. Spicher.
   
 * started run on 2019/05/04 at 20:22:27.862     
========================================================================
 # omp threads = 2
========================================================================
number of atoms            : 753
number of electrons        : 2098
charge                     : -3
spin                       : .0
first test random number   : .7003

########################################################################
# WARNING! Please study the warnings concerning your input carefully
#  - Process number higher than OMP_NUM_THREADS, I hope you know what you are doing.
########################################################################

           ------------------------------------------------- 
          |                 G F N 2 - x T B                 |
          | Geometry, Frequencies, Noncovalent interactions |
          |            JCTC 2018 parametrisation            |
           ------------------------------------------------- 
 
      method parameters     
 k(s)        :  1.8500
 k(p)        :  2.2300
 k(d)        :  2.2300
 k(f)        :  2.0000
 kEN (H0ij)  : -2.0000
 D4 a1       :  0.5200
 D4 a2       :  5.0000
 D4 s6       :  1.0000
 D4 s8       :  2.7000
 D4 s9       :  5.0000
 alphaj      :  2.0000

 Solvent             : h2o
 Using internal parameter file: .param_gbsa2_h2o
 Gsolv ref. state (COSMO-RS): gsolv [1 M gas/solution]
 temperature (mdtemp)       :    298.150000000000     
 dielectric constant        :    80.2000000000000     
 rho                        :    1.00000000000000     
 mass                       :    18.0000000000000     
 surface tension            :    15.5689454083859     
 probe radius               :   0.975313790000000     
 vdW radii scaling          :    1.00000000000000     
 Gshift (Eh)                :   1.857443126794793E-003
 c1                         :    1.55243817000000     
 soset                      :   0.130326360000000     
 HB correction              :  T

            Z     q(EN)     CN     RAES       Cart. coordinates
     1  N   5.0   -0.22    3.26    1.97     2.41885   145.15174    -9.97208
     2  C   4.0    0.03    4.45    4.47     3.44119   144.18987   -12.31345
     3  C   4.0    0.15    3.55    3.14     5.52745   145.90952   -13.24131
     4  O   6.0   -0.32    1.40    1.80     7.61560   145.05158   -13.81390
     5  C   4.0   -0.03    4.32    4.24     1.47399   143.76090   -14.37137
     6  C   4.0   -0.09    4.16    3.92    -0.71054   142.28125   -13.34524
     7  C   4.0   -0.08    4.22    4.03     0.62361   146.24022   -15.45607
     8  H   1.0    0.07    1.02    1.43     0.63684   145.88495   -10.00799
     9  H   1.0    0.04    1.07    1.44     4.19708   142.32471   -11.87693
    10  H   1.0    0.04    1.06    1.44     2.31302   142.66486   -15.90015
    11  H   1.0    0.03    1.00    1.43    -2.09193   141.99779   -14.84569
    12  H   1.0    0.03    1.00    1.43    -0.02835   140.45955   -12.66683
    13  H   1.0    0.03    1.01    1.43    -1.56469   143.33382   -11.79378
    14  H   1.0    0.03    1.00    1.43    -0.78046   145.88495   -16.92061
    15  H   1.0    0.03    1.00    1.43    -0.20220   147.38162   -13.95374
    16  H   1.0    0.04    1.03    1.43     2.25066   147.21154   -16.26298
    17  N   5.0   -0.15    3.59    2.15     4.98321   148.34349   -13.35091
    18  C   4.0    0.03    4.62    4.69     6.91829   150.07448   -14.14082
    19  C   4.0    0.16    3.71    3.24     9.40328   149.29969   -12.92195
    20  O   6.0   -0.30    1.47    1.80    11.20796   148.66474   -14.22208
    21  C   4.0   -0.03    4.36    4.32     6.26444   152.74466   -13.43973
    22  C   4.0   -0.08    4.19    3.98     8.60581   154.38494   -13.50209
    23  C   4.0   -0.08    4.16    3.92     4.32180   153.71598   -15.26332
    24  H   1.0    0.07    1.07    1.44     3.27678   149.12961   -12.91817
    25  H   1.0    0.05    1.07    1.44     7.11104   149.97243   -16.18928
    26  H   1.0    0.03    1.06    1.44     5.49910   152.81080   -11.52922
    27  H   1.0    0.03    1.00    1.43     8.08803   156.31057   -12.98809
    28  H   1.0    0.04    1.02    1.43     9.97964   153.64417   -12.15850
    29  H   1.0    0.04    1.00    1.43     9.39572   154.35282   -15.40316
    30  H   1.0    0.03    1.00    1.43     3.83992   155.65484   -14.76065
    31  H   1.0    0.04    1.00    1.43     5.10226   153.65740   -17.16816
    32  H   1.0    0.03    1.00    1.43     2.64562   152.52545   -15.15371
    33  N   5.0   -0.15    3.57    2.13     9.48076   149.31103   -10.43129
    34  C   4.0    0.03    4.62    4.68    11.63504   148.31703    -9.15572
    35  C   4.0    0.17    3.66    3.21    12.77077   146.11928   -10.60325
    36  O   6.0   -0.32    1.59    1.81    14.62459   146.49911   -11.88071
    37  C   4.0   -0.03    4.36    4.31    10.95474   147.58193    -6.52333
    38  C   4.0   -0.07    4.14    3.89    13.20163   146.34794    -5.19864
    39  C   4.0   -0.08    4.15    3.90    10.03822   149.92519    -5.11360
    40  H   1.0    0.07    1.08    1.44     8.08992   149.99133    -9.28422
    41  H   1.0    0.04    1.07    1.44    13.08824   149.77590    -9.09525
    42  H   1.0    0.04    1.06    1.44     9.43918   146.18731    -6.53845
    43  H   1.0    0.05    1.00    1.43    12.64983   145.83204    -3.28245
    44  H   1.0    0.04    1.02    1.43    13.75532   144.66419    -6.24743
    45  H   1.0    0.05    1.00    1.43    14.76632   147.68775    -5.14383
    46  H   1.0    0.04    1.00    1.43     9.53934   149.39606    -3.18608
    47  H   1.0    0.04    1.00    1.43    11.54812   151.32547    -5.08903
    48  H   1.0    0.03    1.01    1.43     8.38849   150.68864    -6.08303
    49  N   5.0   -0.14    3.50    2.08    11.71819   143.85728   -10.50877
    50  C   4.0    0.05    4.58    4.64    12.95785   141.81448   -11.89205
    51  C   4.0    0.16    3.61    3.17    13.91594   142.50612   -14.47152
    52  O   6.0   -0.31    1.39    1.80    16.01732   141.80692   -15.20851
    53  C   4.0   -0.03    4.41    4.41    11.27033   139.55059   -12.16984
    54  C   4.0    0.14    3.28    3.05    11.78433   137.67598   -10.21019
    55  O   6.0   -0.32    1.29    1.80    12.44385   138.36573    -8.07102
    56  N   5.0   -0.19    3.19    1.95    11.54812   135.27225   -10.87537
    57  H   1.0    0.08    1.05    1.44    10.10814   143.39618    -9.55445
    58  H   1.0    0.05    1.11    1.45    14.60002   141.35717   -10.73553
    59  H   1.0    0.05    1.04    1.43     9.30312   140.14019   -12.00732
    60  H   1.0    0.04    1.05    1.44    11.59536   138.67754   -14.00665
    61  H   1.0    0.09    1.02    1.43    11.88260   133.87763    -9.58658
    62  H   1.0    0.08    1.03    1.43    11.03222   134.81683   -12.67628
    63  N   5.0   -0.13    3.62    2.18    12.31345   143.86673   -15.83590
    64  C   4.0    0.04    4.47    4.49    12.93517   144.77757   -18.31900
    65  C   4.0    0.17    3.52    3.12    15.62236   145.77535   -18.33412
    66  O   6.0   -0.29    1.24    1.80    16.99431   145.49756   -20.17660
    67  C   4.0   -0.03    4.34    4.28    11.04923   146.79391   -19.11458
    68  C   4.0   -0.03    4.22    4.04     8.55101   145.70543   -19.90826
    69  C   4.0    0.24    3.14    3.03     7.71197   146.74289   -22.44239
    70  O   6.0   -0.31    1.19    1.80     6.43263   148.72143   -22.44428
    71  O   6.0   -0.28    1.17    1.80     8.33936   145.60716   -24.43416
    72  H   1.0    0.12    1.13    1.45    10.54656   144.36750   -15.24820
    73  H   1.0    0.05    1.06    1.44    12.82368   143.25634   -19.70228
    74  H   1.0    0.08    1.09    1.44    10.71664   148.06381   -17.52721
    75  H   1.0    0.06    1.04    1.43    11.82213   147.84460   -20.70762
    76  H   1.0    0.05    1.04    1.43     8.71920   143.65886   -20.06889
    77  H   1.0    0.05    1.03    1.43     7.12238   146.18542   -18.50609
    78  N   5.0   -0.13    3.68    2.25    16.38392   146.87517   -16.22897
    79  C   4.0    0.04    4.49    4.53    18.95206   147.66697   -15.92661
    80  C   4.0    0.15    3.63    3.19    20.53376   145.49945   -14.96663
    81  O   6.0   -0.31    1.46    1.80    22.37436   144.79836   -16.16661
    82  C   4.0   -0.04    4.33    4.26    19.08812   149.88928   -14.12759
    83  C   4.0   -0.04    4.19    3.99    17.33068   152.03601   -14.82112
    84  C   4.0   -0.01    4.18    3.96    18.32845   153.77078   -16.91116
    85  N   5.0   -0.14    3.38    2.01    20.97407   154.56258   -16.58612
    86  C   4.0    0.10    3.32    3.06    21.78854   156.66962   -15.44473
    87  N   5.0   -0.18    3.24    1.97    20.18416   158.31935   -14.40916
    88  N   5.0   -0.17    3.23    1.96    24.26597   157.12882   -15.33324
    89  H   1.0    0.13    1.20    1.47    15.25198   147.23422   -14.71152
    90  H   1.0    0.07    1.07    1.44    19.70039   148.29246   -17.74075
    91  H   1.0    0.05    1.04    1.43    18.57979   149.24489   -12.23787
    92  H   1.0    0.05    1.04    1.43    21.01186   150.62439   -14.12759
    93  H   1.0    0.06    1.04    1.43    15.54489   151.24044   -15.47308
    94  H   1.0    0.04    1.03    1.43    17.01698   153.19630   -13.14871
    95  H   1.0    0.06    1.03    1.43    18.19428   152.77678   -18.71018
    96  H   1.0    0.04    1.03    1.43    17.17194   155.47531   -16.96029
    97  H   1.0    0.09    1.06    1.44    22.32333   153.38717   -17.30233
    98  H   1.0    0.08    1.03    1.43    18.28688   157.98865   -14.47530
    99  H   1.0    0.13    1.06    1.44    20.85691   159.90861   -13.55122
   100  H   1.0    0.10    1.02    1.43    25.51319   155.88160   -16.11180
   101  H   1.0    0.09    1.02    1.43    24.91226   158.72564   -14.46963
   102  N   5.0   -0.14    3.62    2.17    19.80055   144.42042   -12.82935
   103  C   4.0    0.03    4.44    4.44    21.17627   142.32282   -11.72008
   104  C   4.0    0.17    3.59    3.16    21.93972   140.59372   -13.83846
   105  O   6.0   -0.32    1.33    1.80    23.61402   139.02336   -13.55878
   106  C   4.0   -0.04    4.27    4.15    19.54355   140.81104    -9.86626
   107  C   4.0   -0.05    4.20    3.99    17.87303   142.35117    -8.06724
   108  C   4.0    0.00    4.23    4.06    16.51998   140.74868    -6.05279
   109  N   5.0   -0.14    3.41    2.03    17.93539   140.64096    -3.67741
   110  C   4.0    0.10    3.34    3.06    18.77254   138.52636    -2.56436
   111  N   5.0   -0.18    3.24    1.97    18.30955   136.23979    -3.53946
   112  N   5.0   -0.19    3.24    1.97    20.05755   138.69833    -0.41196
   113  H   1.0    0.09    1.09    1.44    18.25286   144.96088   -11.81646
   114  H   1.0    0.04    1.05    1.44    22.79765   143.04281   -10.67128
   115  H   1.0    0.06    1.04    1.43    18.29255   139.59406   -10.96041
   116  H   1.0    0.05    1.03    1.43    20.79454   139.66587    -8.69841
   117  H   1.0    0.04    1.04    1.43    19.05033   143.72689    -7.08458
   118  H   1.0    0.05    1.05    1.44    16.42739   143.31871    -9.17084
   119  H   1.0    0.05    1.05    1.44    14.67372   141.57260    -5.66162
   120  H   1.0    0.06    1.05    1.44    16.29889   138.82494    -6.75577
   121  H   1.0    0.12    1.15    1.45    18.31522   142.31337    -2.79679
   122  H   1.0    0.09    1.03    1.43    17.29666   136.07539    -5.17029
   123  H   1.0    0.08    1.02    1.43    18.97096   134.66187    -2.65129
   124  H   1.0    0.09    1.03    1.43    20.39581   140.42554     0.37228
   125  H   1.0    0.08    1.03    1.43    20.70573   137.10340     0.45353
   126  N   5.0   -0.11    3.79    2.40    20.69250   140.87340   -15.98141
   127  C   4.0    0.05    4.63    4.69    21.35012   139.37296   -18.13381
   128  C   4.0    0.17    3.51    3.12    23.69716   140.34995   -19.45095
   129  O   6.0   -0.28    1.37    1.80    25.72484   139.23123   -19.26765
   130  C   4.0   -0.04    4.37    4.32    19.16182   139.25768   -19.97440
   131  C   4.0   -0.04    4.24    4.07    19.31678   136.89742   -21.50697
   132  C   4.0    0.23    3.24    3.04    20.41471   134.73746   -19.95173
   133  O   6.0   -0.27    1.25    1.80    22.75230   134.76959   -19.41315
   134  O   6.0   -0.29    1.22    1.80    18.91427   133.02537   -19.22607
   135  H   1.0    0.12    1.19    1.46    19.24119   142.10928   -16.26487
   136  H   1.0    0.09    1.16    1.46    21.74886   137.47000   -17.45540
   137  H   1.0    0.06    1.04    1.43    17.38170   139.25768   -18.93694
   138  H   1.0    0.05    1.05    1.44    19.23741   140.87907   -21.24430
   139  H   1.0    0.05    1.04    1.43    17.42894   136.35885   -22.13247
   140  H   1.0    0.05    1.03    1.43    20.53565   137.21489   -23.13591
   141  N   5.0   -0.14    3.59    2.15    23.37969   142.45321   -20.76998
   142  C   4.0    0.03    4.49    4.52    25.42815   143.68909   -22.04554
   143  C   4.0    0.17    3.58    3.15    27.74874   143.53980   -20.42605
   144  O   6.0   -0.31    1.34    1.80    29.66870   142.58738   -21.26320
   145  C   4.0   -0.04    4.37    4.33    24.76486   146.42164   -22.53876
   146  C   4.0   -0.03    4.25    4.09    22.42160   146.70698   -24.11479
   147  C   4.0    0.25    3.13    3.03    21.11202   149.21654   -23.69527
   148  O   6.0   -0.27    1.17    1.80    18.79332   149.34315   -24.11857
   149  O   6.0   -0.29    1.19    1.80    22.38380   151.06091   -22.93749
   150  H   1.0    0.09    1.09    1.44    21.68649   143.35083   -20.98352
   151  H   1.0    0.05    1.06    1.44    25.77019   142.78958   -23.86724
   152  H   1.0    0.07    1.04    1.43    24.44361   147.37028   -20.73974
   153  H   1.0    0.05    1.03    1.43    26.32388   147.32115   -23.54221
   154  H   1.0    0.05    1.03    1.43    22.93182   146.57848   -26.10656
   155  H   1.0    0.06    1.05    1.44    21.09690   145.20654   -23.62724
   156  N   5.0   -0.13    3.52    2.09    27.55787   144.41286   -18.08468
   157  C   4.0    0.04    4.43    4.44    29.64035   144.22010   -16.31967
   158  C   4.0    0.16    3.50    3.12    30.80820   141.57260   -16.32534
   159  O   6.0   -0.30    1.31    1.80    32.81320   141.20221   -17.39682
   160  C   4.0   -0.04    4.33    4.25    28.74084   144.87773   -13.68540
   161  C   4.0   -0.04    4.17    3.94    30.33766   146.84493   -12.32101
   162  C   4.0    0.24    3.11    3.03    29.24162   149.52646   -12.48353
   163  O   6.0   -0.30    1.16    1.80    29.49484   150.98154   -10.62404
   164  O   6.0   -0.29    1.18    1.80    28.13802   150.17841   -14.47341
   165  H   1.0    0.11    1.09    1.44    25.98562   145.26134   -17.36091
   166  H   1.0    0.06    1.06    1.44    31.10867   145.54858   -16.88848
   167  H   1.0    0.06    1.05    1.44    26.82277   145.61850   -13.81579
   168  H   1.0    0.04    1.05    1.44    28.75785   143.16375   -12.54211
   169  H   1.0    0.05    1.03    1.43    30.46616   146.33471   -10.32924
   170  H   1.0    0.05    1.03    1.43    32.21794   146.87895   -13.16194
   171  N   5.0   -0.14    3.50    2.08    29.55342   139.72067   -15.18584
   172  C   4.0    0.04    4.40    4.38    30.59655   137.15442   -14.99120
   173  C   4.0    0.17    3.45    3.09    31.36945   136.05838   -17.53855
   174  O   6.0   -0.30    1.23    1.80    32.90391   134.31416   -17.66705
   175  C   4.0    0.04    4.16    3.92    28.67848   135.38753   -13.75909
   176  O   6.0   -0.21    2.06    1.83    26.46939   135.17777   -15.27088
   177  H   1.0    0.10    1.07    1.44    27.81488   139.91909   -14.37704
   178  H   1.0    0.04    1.06    1.44    32.27274   137.25080   -13.79878
   179  H   1.0    0.05    1.02    1.43    29.52508   133.52237   -13.54556
   180  H   1.0    0.04    1.01    1.43    28.16070   136.14153   -11.91283
   181  H   1.0    0.16    1.07    1.44    25.27319   136.52136   -14.83435
   182  N   5.0   -0.11    3.55    2.12    30.26963   137.08828   -19.54733
   183  C   4.0    0.04    4.37    4.32    30.73072   136.19066   -22.10979
   184  C   4.0    0.16    3.44    3.09    33.31776   136.99379   -23.05844
   185  O   6.0   -0.30    1.24    1.80    34.81442   135.43288   -23.92771
   186  C   4.0   -0.06    4.14    3.88    28.70116   137.15820   -23.86535
   187  H   1.0    0.13    1.14    1.45    29.03375   138.56604   -19.46418
   188  H   1.0    0.07    1.06    1.44    30.66269   134.13275   -22.09468
   189  H   1.0    0.05    1.00    1.43    29.07721   136.46845   -25.77019
   190  H   1.0    0.07    1.00    1.43    26.87001   136.47034   -23.21717
   191  H   1.0    0.06    1.01    1.43    28.72383   139.21800   -23.84645
   192  N   5.0   -0.14    3.54    2.11    33.81476   139.44666   -22.89214
   193  C   4.0    0.04    4.38    4.34    36.22227   140.49923   -23.65559
   194  C   4.0    0.16    3.44    3.09    38.27829   139.76791   -21.78854
   195  O   6.0   -0.31    1.26    1.80    40.50817   139.93421   -22.41026
   196  C   4.0   -0.07    4.14    3.88    36.04085   143.31682   -23.88614
   197  H   1.0    0.12    1.10    1.44    32.57132   140.76191   -22.22885
   198  H   1.0    0.05    1.06    1.44    36.73816   139.78870   -25.51886
   199  H   1.0    0.05    1.00    1.43    37.87200   144.06137   -24.46061
   200  H   1.0    0.05    1.00    1.43    34.61789   143.78358   -25.29965
   201  H   1.0    0.06    1.00    1.43    35.50417   144.10672   -22.06066
   202  N   5.0   -0.13    3.49    2.07    37.53941   138.95344   -19.52087
   203  C   4.0    0.04    4.35    4.28    39.32898   137.85929   -17.71996
   204  C   4.0    0.16    3.45    3.09    40.73493   135.65587   -18.95395
   205  O   6.0   -0.30    1.25    1.80    43.04040   135.78059   -19.31867
   206  C   4.0   -0.07    4.13    3.85    37.97971   136.98056   -15.35402
   207  H   1.0    0.11    1.09    1.44    35.72527   139.02336   -18.87458
   208  H   1.0    0.05    1.06    1.44    40.68013   139.30871   -17.15493
   209  H   1.0    0.04    1.00    1.43    39.36110   136.17743   -14.05389
   210  H   1.0    0.05    1.00    1.43    37.04430   138.59250   -14.47719
   211  H   1.0    0.06    1.01    1.43    36.58509   135.55382   -15.86803
   212  N   5.0   -0.14    3.47    2.06    39.32898   133.67543   -19.64370
   213  C   4.0    0.04    4.36    4.31    40.42124   131.45312   -20.87202
   214  C   4.0    0.16    3.50    3.11    41.73649   132.26003   -23.27009
   215  O   6.0   -0.30    1.33    1.80    44.00794   131.85941   -23.52709
   216  C   4.0   -0.07    4.11    3.83    38.41246   129.47079   -21.43894
   217  H   1.0    0.10    1.06    1.44    37.42413   133.55260   -19.37725
   218  H   1.0    0.06    1.06    1.44    41.77050   130.57250   -19.58890
   219  H   1.0    0.05    1.00    1.43    39.30441   127.85319   -22.34979
   220  H   1.0    0.05    1.00    1.43    37.53185   128.88309   -19.67205
   221  H   1.0    0.06    1.00    1.43    36.99705   130.28905   -22.68994
   222  N   5.0   -0.14    3.47    2.06    40.31730   133.47134   -24.96895
   223  C   4.0    0.04    4.38    4.34    41.30563   134.29904   -27.42370
   224  C   4.0    0.16    3.48    3.11    43.99660   135.29115   -27.12513
   225  O   6.0   -0.28    1.22    1.80    45.66145   134.67132   -28.64825
   226  C   4.0   -0.04    4.23    4.05    39.57086   136.29648   -28.64825
   227  C   4.0   -0.03    4.14    3.88    40.12266   136.84828   -31.48094
   228  C   4.0    0.25    3.09    3.02    38.52206   135.30060   -33.35177
   229  O   6.0   -0.28    1.17    1.80    37.99294   136.26058   -35.44937
   230  O   6.0   -0.27    1.18    1.80    37.79641   133.13308   -32.75462
   231  H   1.0    0.10    1.07    1.44    38.45970   133.91354   -24.70250
   232  H   1.0    0.07    1.06    1.44    41.35098   132.69278   -28.71250
   233  H   1.0    0.06    1.03    1.43    37.62255   135.63886   -28.51407
   234  H   1.0    0.05    1.03    1.43    39.78818   138.06716   -27.62023
   235  H   1.0    0.05    1.03    1.43    39.74850   138.84006   -31.84566
   236  H   1.0    0.06    1.03    1.43    42.10309   136.42310   -31.85889
   237  N   5.0   -0.13    3.50    2.08    44.42368   136.76514   -25.12580
   238  C   4.0    0.04    4.54    4.59    46.93134   137.74779   -24.60801
   239  C   4.0    0.16    3.50    3.12    48.66422   135.82405   -23.32489
   240  O   6.0   -0.30    1.49    1.80    50.19301   134.62786   -24.63069
   241  C   4.0   -0.02    4.31    4.22    46.86331   140.27625   -23.23418
   242  C   4.0   -0.08    4.17    3.93    49.48247   140.98678   -22.30066
   243  C   4.0   -0.07    4.15    3.90    45.90522   142.25668   -25.02942
   244  H   1.0    0.11    1.08    1.44    43.07819   137.29804   -23.85212
   245  H   1.0    0.06    1.08    1.44    47.79684   138.06905   -26.45049
   246  H   1.0    0.06    1.06    1.44    45.61798   140.14964   -21.59768
   247  H   1.0    0.04    1.00    1.43    49.37854   142.79903   -21.32745
   248  H   1.0    0.05    1.02    1.43    50.15144   139.53169   -21.00619
   249  H   1.0    0.04    1.00    1.43    50.75426   141.12851   -23.91448
   250  H   1.0    0.04    1.00    1.43    45.85231   144.07271   -24.05810
   251  H   1.0    0.04    1.00    1.43    47.17323   142.36250   -26.64892
   252  H   1.0    0.05    1.00    1.43    44.01172   141.73701   -25.65303
   253  N   5.0   -0.14    3.46    2.05    48.44690   135.48390   -20.82667
   254  C   4.0    0.03    4.39    4.36    50.21380   133.80772   -19.48307
   255  C   4.0    0.18    3.56    3.14    51.01126   131.63831   -21.21406
   256  O   6.0   -0.29    1.31    1.80    53.26948   131.12619   -21.51264
   257  C   4.0   -0.04    4.23    4.05    49.13287   132.82506   -16.96596
   258  C   4.0   -0.03    4.15    3.90    46.64977   131.28493   -17.15871
   259  C   4.0    0.24    3.09    3.02    47.02961   128.38798   -17.17950
   260  O   6.0   -0.30    1.19    1.80    49.11209   127.49981   -17.88248
   261  O   6.0   -0.29    1.15    1.80    45.20224   126.98580   -16.51054
   262  H   1.0    0.09    1.06    1.44    47.11087   136.31349   -19.71173
   263  H   1.0    0.05    1.06    1.44    51.88621   134.89242   -18.96907
   264  H   1.0    0.06    1.03    1.43    50.54261   131.60240   -16.09102
   265  H   1.0    0.04    1.03    1.43    48.75304   134.44455   -15.75087
   266  H   1.0    0.05    1.03    1.43    45.46114   131.74602   -15.54111
   267  H   1.0    0.07    1.03    1.43    45.68979   131.79894   -18.90671
   268  N   5.0   -0.12    3.59    2.15    49.14232   130.45345   -22.42538
   269  C   4.0    0.04    4.45    4.47    49.59019   128.32373   -24.08267
   270  C   4.0    0.17    3.54    3.13    51.70290   128.92088   -25.90436
   271  O   6.0   -0.30    1.27    1.80    53.46980   127.42800   -26.16892
   272  C   4.0   -0.03    4.33    4.25    47.18457   127.59619   -25.48106
   273  C   4.0   -0.03    4.19    3.98    47.49259   125.31529   -27.19127
   274  C   4.0    0.25    3.12    3.03    48.10108   126.09574   -29.92948
   275  O   6.0   -0.27    1.20    1.80    47.80251   128.38042   -30.55687
   276  O   6.0   -0.28    1.16    1.80    48.85886   124.42523   -31.44315
   277  H   1.0    0.11    1.10    1.44    47.28283   130.94100   -22.28554
   278  H   1.0    0.06    1.09    1.44    50.13821   126.69101   -22.95261
   279  H   1.0    0.05    1.03    1.43    45.72192   127.15399   -24.09968
   280  H   1.0    0.08    1.05    1.44    46.59119   129.18545   -26.65081
   281  H   1.0    0.05    1.04    1.43    49.03839   124.14744   -26.49396
   282  H   1.0    0.05    1.03    1.43    45.74082   124.23247   -27.20261
   283  N   5.0   -0.11    3.57    2.13    51.53472   131.11108   -27.12702
   284  C   4.0    0.04    4.45    4.47    53.54916   131.94256   -28.78053
   285  C   4.0    0.16    3.54    3.13    56.06250   131.74413   -27.41236
   286  O   6.0   -0.32    1.33    1.80    57.66688   130.20023   -28.09267
   287  C   4.0   -0.04    4.33    4.26    53.11264   134.62786   -29.70271
   288  C   4.0   -0.05    4.23    4.07    55.35952   135.73713   -31.08032
   289  C   4.0   -0.01    4.25    4.11    54.52615   137.64953   -33.00028
   290  N   5.0   -0.14    3.40    2.02    53.77593   136.48546   -35.38701
   291  C   4.0    0.09    3.34    3.06    54.68489   137.16009   -37.63011
   292  N   5.0   -0.18    3.28    1.98    56.37808   139.00635   -37.80775
   293  N   5.0   -0.18    3.23    1.96    53.89687   135.99602   -39.70503
   294  H   1.0    0.13    1.12    1.45    50.04372   132.32617   -27.00418
   295  H   1.0    0.06    1.06    1.44    53.59263   130.73691   -30.45104
   296  H   1.0    0.06    1.04    1.43    51.51204   134.63353   -30.99906
   297  H   1.0    0.06    1.04    1.43    52.71013   135.83161   -28.07944
   298  H   1.0    0.04    1.03    1.43    56.60296   136.66876   -29.72728
   299  H   1.0    0.05    1.04    1.43    56.37808   134.23479   -32.05542
   300  H   1.0    0.04    1.03    1.43    52.90855   138.68888   -32.25951
   301  H   1.0    0.04    1.05    1.44    56.08140   138.94399   -33.38201
   302  H   1.0    0.08    1.06    1.44    52.47391   135.06627   -35.33032
   303  H   1.0    0.09    1.04    1.43    56.98658   139.91342   -36.21849
   304  H   1.0    0.09    1.03    1.43    57.06972   139.51658   -39.53307
   305  H   1.0    0.10    1.03    1.43    52.59296   134.58250   -39.58031
   306  H   1.0    0.09    1.03    1.43    54.59418   136.51380   -41.42468
   307  N   5.0   -0.13    3.54    2.11    56.38186   133.24080   -25.43193
   308  C   4.0    0.04    4.54    4.59    58.81961   133.36174   -24.17526
   309  C   4.0    0.16    3.46    3.10    59.72479   130.88053   -23.03765
   310  O   6.0   -0.32    1.26    1.80    61.98112   130.54227   -22.64081
   311  C   4.0    0.05    4.28    4.15    58.86496   135.41020   -22.21184
   312  O   6.0   -0.25    2.16    1.85    56.32895   135.90153   -21.41626
   313  C   4.0   -0.08    4.11    3.82    59.95534   137.78370   -23.35134
   314  H   1.0    0.11    1.08    1.44    55.01937   134.36896   -24.66659
   315  H   1.0    0.04    1.08    1.44    60.18399   133.85118   -25.63791
   316  H   1.0    0.04    1.05    1.44    60.01203   134.84706   -20.59612
   317  H   1.0    0.11    1.01    1.43    56.31572   137.23379   -20.12936
   318  H   1.0    0.04    1.00    1.43    59.99880   139.28603   -21.94350
   319  H   1.0    0.03    1.00    1.43    61.87341   137.43032   -24.01086
   320  H   1.0    0.04    1.00    1.43    58.80260   138.39408   -24.94438
   321  N   5.0   -0.13    3.52    2.09    57.99758   129.12875   -22.54821
   322  C   4.0    0.04    4.46    4.48    58.78559   126.61731   -21.75641
   323  C   4.0    0.16    3.52    3.12    60.29738   125.36442   -23.84078
   324  O   6.0   -0.31    1.27    1.80    62.17387   124.08885   -23.33812
   325  C   4.0   -0.04    4.30    4.20    56.54627   124.95057   -21.08556
   326  C   4.0   -0.05    4.22    4.04    57.33995   122.26149   -20.42038
   327  C   4.0   -0.01    4.22    4.05    55.12331   120.62310   -19.68528
   328  N   5.0   -0.14    3.40    2.02    53.64743   119.80485   -21.87169
   329  C   4.0    0.09    3.34    3.06    51.51393   120.88766   -22.64648
   330  N   5.0   -0.18    3.29    1.98    50.55962   122.86431   -21.42571
   331  N   5.0   -0.19    3.24    1.96    50.32718   119.98059   -24.65714
   332  H   1.0    0.12    1.10    1.44    56.09085   129.38198   -22.67860
   333  H   1.0    0.05    1.06    1.44    59.92888   126.81951   -20.05566
   334  H   1.0    0.05    1.03    1.43    55.57306   125.75370   -19.45662
   335  H   1.0    0.06    1.03    1.43    55.26693   124.86175   -22.69750
   336  H   1.0    0.05    1.04    1.43    58.25458   121.40355   -22.05499
   337  H   1.0    0.04    1.03    1.43    58.64764   122.31818   -18.83112
   338  H   1.0    0.03    1.03    1.43    55.81873   118.94313   -18.71774
   339  H   1.0    0.04    1.04    1.43    53.87987   121.69079   -18.43806
   340  H   1.0    0.07    1.06    1.44    54.29939   118.29495   -22.87702
   341  H   1.0    0.09    1.04    1.43    51.46480   123.56918   -19.87614
   342  H   1.0    0.09    1.03    1.43    48.92312   123.67689   -22.03798
   343  H   1.0    0.08    1.03    1.43    51.05095   118.46314   -25.60012
   344  H   1.0    0.08    1.03    1.43    48.69068   120.80073   -25.26186
   345  N   5.0   -0.14    3.55    2.12    59.44889   125.71969   -26.17648
   346  C   4.0    0.04    4.47    4.49    60.79626   124.75404   -28.36101
   347  C   4.0    0.16    3.49    3.11    63.55148   125.51371   -28.23817
   348  O   6.0   -0.32    1.34    1.80    65.22578   123.96224   -28.67281
   349  C   4.0   -0.05    4.33    4.25    59.60952   125.73292   -30.80064
   350  C   4.0   -0.04    4.24    4.09    57.80294   123.90366   -32.01763
   351  C   4.0   -0.04    4.22    4.05    55.68266   123.18746   -30.24506
   352  C   4.0   -0.04    4.15    3.90    55.33873   120.35098   -30.19404
   353  N   5.0   -0.11    4.05    2.99    55.09118   119.25494   -32.78486
   354  H   1.0    0.11    1.09    1.44    57.83128   126.67022   -26.61490
   355  H   1.0    0.05    1.06    1.44    60.65642   122.69991   -28.38179
   356  H   1.0    0.07    1.07    1.44    58.56828   127.46013   -30.38301
   357  H   1.0    0.04    1.04    1.43    61.11185   126.12598   -32.15369
   358  H   1.0    0.05    1.03    1.43    56.97902   124.77294   -33.69381
   359  H   1.0    0.04    1.04    1.44    58.81772   122.18779   -32.53919
   360  H   1.0    0.06    1.06    1.44    56.12864   123.82996   -28.34022
   361  H   1.0    0.07    1.03    1.43    53.92522   124.05106   -30.88568
   362  H   1.0    0.05    1.02    1.43    56.97524   119.48926   -29.28697
   363  H   1.0    0.05    1.02    1.43    53.62853   119.89744   -29.13957
   364  H   1.0    0.06    1.01    1.43    54.01971   117.60898   -32.71872
   365  H   1.0    0.09    1.04    1.43    54.20868   120.54373   -33.97916
   366  H   1.0    0.07    1.02    1.43    56.86941   118.82975   -33.50673
   367  N   5.0   -0.14    3.50    2.08    64.00124   127.89854   -27.59378
   368  C   4.0    0.04    4.47    4.49    66.56182   128.87931   -27.38402
   369  C   4.0    0.16    3.49    3.11    68.15486   127.33540   -25.58311
   370  O   6.0   -0.29    1.27    1.80    70.14663   126.40377   -26.31632
   371  C   4.0   -0.05    4.39    4.37    66.52780   131.63264   -26.56010
   372  C   4.0   -0.03    4.19    3.98    66.65063   133.60929   -28.65769
   373  C   4.0   -0.08    4.12    3.83    65.57538   132.68522   -31.18993
   374  C   4.0   -0.08    4.12    3.84    65.27302   135.94311   -27.73551
   375  H   1.0    0.09    1.07    1.44    62.63308   129.19867   -27.20449
   376  H   1.0    0.05    1.07    1.44    67.41975   128.76971   -29.25296
   377  H   1.0    0.06    1.06    1.44    64.78170   131.96523   -25.51886
   378  H   1.0    0.04    1.04    1.43    68.15108   131.95011   -25.33367
   379  H   1.0    0.04    1.06    1.44    68.62351   134.04015   -29.06399
   380  H   1.0    0.04    1.00    1.43    65.73412   134.19889   -32.57699
   381  H   1.0    0.04    1.00    1.43    66.65063   131.04305   -31.81543
   382  H   1.0    0.04    1.00    1.43    63.59684   132.17310   -30.93103
   383  H   1.0    0.04    1.00    1.43    65.33538   137.38308   -29.20571
   384  H   1.0    0.04    1.00    1.43    63.31716   135.44800   -27.32166
   385  H   1.0    0.04    1.00    1.43    66.19710   136.63852   -26.03097
   386  N   5.0   -0.14    3.47    2.06    67.25913   127.04628   -23.24930
   387  C   4.0    0.05    4.43    4.43    68.51579   125.42300   -21.41437
   388  C   4.0    0.17    3.46    3.10    69.41719   122.96258   -22.62002
   389  O   6.0   -0.26    1.22    1.80    71.65463   122.32763   -22.48207
   390  C   4.0   -0.04    4.30    4.20    66.76024   124.85986   -19.19017
   391  C   4.0   -0.04    4.22    4.04    67.09661   126.63054   -16.96407
   392  C   4.0    0.14    3.22    3.04    69.48900   126.08818   -15.45607
   393  O   6.0   -0.29    1.22    1.80    71.45432   125.39277   -16.50676
   394  N   5.0   -0.19    3.17    1.95    69.32649   126.41700   -12.97108
   395  H   1.0    0.10    1.06    1.44    65.67176   127.90799   -22.57656
   396  H   1.0    0.07    1.07    1.44    70.15608   126.43211   -20.68494
   397  H   1.0    0.06    1.04    1.43    64.81004   125.02238   -19.83078
   398  H   1.0    0.05    1.04    1.43    67.12685   122.94368   -18.52876
   399  H   1.0    0.04    1.03    1.43    67.20810   128.56750   -17.65760
   400  H   1.0    0.04    1.03    1.43    65.48656   126.42834   -15.69606
   401  H   1.0    0.07    1.03    1.43    67.66731   127.00092   -12.18306
   402  H   1.0    0.09    1.02    1.43    70.86094   126.08629   -11.85236
   403  N   5.0   -0.13    3.48    2.06    67.66164   121.62654   -23.83511
   404  C   4.0    0.03    4.41    4.40    68.17564   119.21336   -25.07855
   405  C   4.0    0.16    3.43    3.09    70.08427   119.42312   -27.23284
   406  O   6.0   -0.28    1.22    1.80    71.73589   117.80174   -27.55409
   407  C   4.0   -0.03    4.34    4.28    65.72467   118.10976   -26.10278
   408  C   4.0   -0.04    4.24    4.08    64.00691   117.02506   -24.11479
   409  C   4.0    0.14    3.23    3.04    62.13797   115.18258   -25.24107
   410  O   6.0   -0.30    1.21    1.80    61.61640   115.25628   -27.52764
   411  N   5.0   -0.19    3.16    1.95    61.12319   113.50072   -23.64614
   412  H   1.0    0.10    1.08    1.44    65.82104   122.17456   -23.99763
   413  H   1.0    0.06    1.06    1.44    68.97878   117.95858   -23.65559
   414  H   1.0    0.06    1.04    1.43    64.68910   119.60076   -27.07599
   415  H   1.0    0.06    1.04    1.43    66.18576   116.59609   -27.42181
   416  H   1.0    0.04    1.03    1.43    65.13507   116.02728   -22.70884
   417  H   1.0    0.05    1.03    1.43    62.95244   118.55007   -23.21717
   418  H   1.0    0.07    1.02    1.43    61.62396   113.51395   -21.78476
   419  H   1.0    0.09    1.02    1.43    59.84951   112.20626   -24.29243
   420  N   5.0   -0.13    3.51    2.08    69.80837   121.41300   -28.73517
   421  C   4.0    0.04    4.33    4.25    71.51101   121.88732   -30.83466
   422  C   4.0    0.10    3.24    3.04    74.08860   122.54495   -29.74618
   423  O   6.0   -0.28    1.11    1.80    75.98777   121.36954   -30.42270
   424  C   4.0   -0.03    4.31    4.22    70.49245   124.06429   -32.44470
   425  C   4.0   -0.02    3.49    3.11    68.48367   123.37265   -34.38923
   426  C   4.0   -0.05    3.44    3.09    68.79358   124.03405   -36.92336
   427  C   4.0   -0.03    3.45    3.10    66.26135   122.10275   -33.70137
   428  C   4.0   -0.04    3.41    3.08    66.96244   123.43501   -38.73182
   429  C   4.0   -0.05    3.41    3.08    64.41887   121.48670   -35.50417
   430  C   4.0    0.06    3.42    3.09    64.78925   122.15944   -38.01562
   431  O   6.0   -0.25    2.09    1.84    62.99968   121.56607   -39.81464
   432  H   1.0    0.12    1.11    1.45    68.41942   122.73581   -28.54620
   433  H   1.0    0.06    1.06    1.44    71.65841   120.23948   -32.06109
   434  H   1.0    0.06    1.04    1.43    69.65908   125.46269   -31.18237
   435  H   1.0    0.04    1.04    1.43    72.07226   124.89577   -33.47272
   436  H   1.0    0.05    1.03    1.43    70.48111   125.02805   -37.49972
   437  H   1.0    0.07    1.05    1.44    65.96277   121.59064   -31.74929
   438  H   1.0    0.05    1.03    1.43    67.24023   123.96602   -40.68202
   439  H   1.0    0.05    1.03    1.43    62.72378   120.49649   -34.94481
   440  H   1.0    0.12    1.02    1.43    61.58239   120.67034   -39.02662
   441  N   5.0   -0.23    3.26    1.97     3.81158   159.96152   -18.97096
   442  C   4.0    0.03    4.27    4.13     5.97531   159.21319   -20.40715
   443  C   4.0    0.06    3.26    3.04     7.52867   161.53377   -20.99863
   444  O   6.0   -0.33    1.15    1.80     9.83224   161.49220   -20.84179
   445  C   4.0   -0.05    4.37    4.32     5.03234   158.04156   -22.84112
   446  C   4.0   -0.05    4.21    4.02     6.31924   155.63594   -23.54599
   447  C   4.0   -0.01    4.24    4.07     5.17974   154.60604   -25.96294
   448  N   5.0   -0.13    3.40    2.02     3.68686   152.32325   -25.54343
   449  C   4.0    0.09    3.33    3.06     2.51334   151.00611   -27.34244
   450  N   5.0   -0.19    3.24    1.97     2.60215   151.70909   -29.76318
   451  N   5.0   -0.18    3.24    1.96     1.23021   148.95765   -26.69994
   452  H   1.0    0.07    1.03    1.43     2.35271   158.70674   -19.08056
   453  H   1.0    0.04    1.06    1.44     7.14694   157.86204   -19.38670
   454  H   1.0    0.03    1.05    1.44     3.02167   157.63905   -22.64081
   455  H   1.0    0.04    1.05    1.44     5.33281   159.38327   -24.37558
   456  H   1.0    0.05    1.03    1.43     8.32613   155.98365   -23.85401
   457  H   1.0    0.05    1.04    1.43     6.06602   154.24510   -22.04743
   458  H   1.0    0.03    1.04    1.43     3.94386   156.03467   -26.78687
   459  H   1.0    0.04    1.03    1.43     6.69530   154.14306   -27.27819
   460  H   1.0    0.09    1.07    1.44     3.53001   151.68641   -23.73118
   461  H   1.0    0.07    1.03    1.43     3.58481   153.28701   -30.27341
   462  H   1.0    0.07    1.02    1.43     1.68753   150.66785   -31.10300
   463  H   1.0    0.08    1.03    1.43     1.15084   148.40963   -24.85368
   464  H   1.0    0.07    1.03    1.43     0.32125   147.92775   -28.05109
   465  N   5.0   -0.22    3.21    1.96    10.30279   165.90282   -15.71685
   466  C   4.0    0.03    4.26    4.12    11.70685   163.85436   -14.53010
   467  C   4.0    0.14    3.43    3.09    14.42806   163.85625   -15.42961
   468  O   6.0   -0.30    1.30    1.80    16.16283   163.84113   -13.87437
   469  C   4.0   -0.08    4.12    3.83    10.46152   161.31268   -15.06301
   470  H   1.0    0.08    1.03    1.43     9.61493   165.42850   -17.45351
   471  H   1.0    0.04    1.06    1.44    11.67662   164.08301   -12.48353
   472  H   1.0    0.04    1.00    1.43    11.55567   159.82546   -14.15027
   473  H   1.0    0.03    1.00    1.43     8.54345   161.33535   -14.31278
   474  H   1.0    0.07    1.03    1.43    10.41617   161.00276   -17.09824
   475  N   5.0   -0.15    3.48    2.06    14.78333   163.86381   -17.92783
   476  C   4.0    0.03    4.32    4.23    17.29288   164.07168   -19.09379
   477  C   4.0    0.10    3.35    3.07    18.91049   165.77621   -17.49697
   478  O   6.0   -0.28    1.11    1.80    21.19706   165.35858   -17.15493
   479  C   4.0   -0.05    4.36    4.31    17.10202   165.39259   -21.64681
   480  C   4.0   -0.05    4.26    4.12    15.10836   164.40616   -23.37402
   481  C   4.0   -0.01    4.27    4.14    16.29511   163.28744   -25.68516
   482  N   5.0   -0.14    3.42    2.03    14.61136   161.41472   -26.78120
   483  C   4.0    0.09    3.34    3.06    14.60947   160.73064   -29.19627
   484  N   5.0   -0.19    3.24    1.97    16.20818   161.77377   -30.85356
   485  N   5.0   -0.19    3.23    1.96    12.97108   158.99209   -29.95405
   486  H   1.0    0.08    1.08    1.44    13.35469   163.72775   -19.21473
   487  H   1.0    0.06    1.05    1.44    18.08657   162.18195   -19.29410
   488  H   1.0    0.04    1.04    1.43    16.69762   167.38437   -21.31611
   489  H   1.0    0.04    1.05    1.44    18.90860   165.19228   -22.61624
   490  H   1.0    0.06    1.05    1.44    14.02177   162.94162   -22.41593
   491  H   1.0    0.04    1.03    1.43    13.86492   165.94439   -23.94850
   492  H   1.0    0.03    1.03    1.43    16.63715   164.76710   -27.07788
   493  H   1.0    0.04    1.03    1.43    18.06956   162.37092   -25.18060
   494  H   1.0    0.08    1.07    1.44    13.33769   160.56434   -25.60957
   495  H   1.0    0.07    1.03    1.43    17.45729   163.11925   -30.26963
   496  H   1.0    0.07    1.02    1.43    16.17794   161.22197   -32.69982
   497  H   1.0    0.08    1.03    1.43    11.74465   158.20786   -28.68982
   498  H   1.0    0.08    1.02    1.43    12.93706   158.43840   -31.80031
   499  N   5.0   -0.18    3.20    1.95    19.25442   167.23886   -11.38182
   500  C   4.0    0.03    4.31    4.22    20.72462   166.41305    -9.21997
   501  C   4.0    0.15    3.40    3.08    22.14192   163.89404    -9.39761
   502  O   6.0   -0.30    1.27    1.80    21.82822   162.38037   -11.13993
   503  C   4.0    0.02    4.16    3.93    19.21095   166.64170    -6.78979
   504  O   6.0   -0.27    2.15    1.85    20.83423   166.34313    -4.69786
   505  H   1.0    0.10    1.04    1.43    17.44406   166.58690   -11.50654
   506  H   1.0    0.04    1.08    1.44    22.30066   167.73963    -9.18407
   507  H   1.0    0.03    1.02    1.43    18.32845   168.50119    -6.70853
   508  H   1.0    0.04    1.03    1.43    17.76531   165.17528    -6.74632
   509  H   1.0    0.15    1.21    1.47    20.30888   164.88048    -3.69252
   510  N   5.0   -0.13    3.63    2.18    23.76141   163.52932    -7.53434
   511  C   4.0    0.04    4.53    4.58    25.36201   161.34858    -7.39261
   512  C   4.0    0.16    3.61    3.17    23.79543   159.36248    -6.12838
   513  O   6.0   -0.32    1.73    1.81    22.69939   159.85759    -4.15929
   514  C   4.0    0.05    4.29    4.17    27.61079   161.89471    -5.67296
   515  O   6.0   -0.26    2.19    1.86    26.72261   162.22352    -3.13317
   516  C   4.0   -0.08    4.11    3.83    28.95438   164.29655    -6.49877
   517  H   1.0    0.09    1.10    1.44    24.00141   164.75387    -6.06413
   518  H   1.0    0.04    1.05    1.44    26.04798   160.77599    -9.24832
   519  H   1.0    0.04    1.04    1.43    28.94682   160.33002    -5.76366
   520  H   1.0    0.10    1.02    1.43    27.86779   163.34224    -2.20153
   521  H   1.0    0.03    1.00    1.43    30.55687   164.66883    -5.25911
   522  H   1.0    0.04    1.00    1.43    29.63657   164.09246    -8.43196
   523  H   1.0    0.04    1.00    1.43    27.65803   165.89526    -6.41373
   524  N   5.0   -0.15    3.46    2.05    23.67638   157.10048    -7.21308
   525  C   4.0    0.02    4.33    4.26    22.26853   155.09548    -5.95075
   526  C   4.0    0.16    3.62    3.18    23.03009   155.17485    -3.16151
   527  O   6.0   -0.30    1.56    1.80    21.38792   155.29012    -1.54202
   528  C   4.0   -0.05    4.22    4.04    23.48551   152.38561    -7.15261
   529  C   4.0   -0.02    4.19    3.98    22.14381   150.34849    -5.64083
   530  C   4.0   -0.08    4.12    3.84    21.16493   148.41341    -7.54379
   531  C   4.0   -0.08    4.05    3.70    23.91637   148.91796    -3.69252
   532  H   1.0    0.08    1.05    1.44    24.49652   156.61671    -8.88927
   533  H   1.0    0.04    1.04    1.43    20.22763   155.23532    -6.19263
   534  H   1.0    0.05    1.02    1.43    23.05655   152.19853    -9.15761
   535  H   1.0    0.05    1.01    1.43    25.52075   152.28546    -6.85593
   536  H   1.0    0.04    1.07    1.44    20.65470   151.23477    -4.52778
   537  H   1.0    0.04    1.00    1.43    20.18605   146.91107    -6.52900
   538  H   1.0    0.04    1.00    1.43    19.86669   149.34693    -8.84203
   539  H   1.0    0.04    1.00    1.43    22.75986   147.63106    -8.58691
   540  H   1.0    0.04    0.99    1.43    22.80710   147.49689    -2.69475
   541  H   1.0    0.04    0.99    1.43    25.45272   148.01278    -4.72243
   542  H   1.0    0.05    1.00    1.43    24.67793   150.28235    -2.35082
   543  N   5.0   -0.14    3.48    2.07    25.49240   155.16540    -2.60593
   544  C   4.0    0.03    4.39    4.36    26.38246   155.70775    -0.04346
   545  C   4.0    0.18    3.61    3.17    24.19794   156.81702     1.49855
   546  O   6.0   -0.27    1.22    1.80    23.18883   155.59814     3.22198
   547  C   4.0   -0.05    4.27    4.13    28.66525   157.51622    -0.18519
   548  C   4.0   -0.03    4.22    4.04    28.96005   159.45319     1.94642
   549  C   4.0    0.24    3.13    3.03    29.99184   158.32502     4.35960
   550  O   6.0   -0.29    1.17    1.80    32.33321   158.03778     4.58636
   551  O   6.0   -0.28    1.18    1.80    28.44793   157.75243     6.04523
   552  H   1.0    0.07    1.05    1.44    26.89647   154.79312    -3.87205
   553  H   1.0    0.05    1.05    1.44    27.02119   154.00133     0.91841
   554  H   1.0    0.05    1.03    1.43    30.37923   156.37293    -0.19275
   555  H   1.0    0.05    1.05    1.44    28.52163   158.58013    -1.94264
   556  H   1.0    0.04    1.03    1.43    30.25829   160.92906     1.33226
   557  H   1.0    0.05    1.06    1.44    27.11568   160.26766     2.36783
   558  N   5.0   -0.13    3.67    2.24    23.43071   159.09792     0.76912
   559  C   4.0    0.04    4.54    4.60    21.46918   160.49631     2.05224
   560  C   4.0    0.18    3.60    3.17    19.05600   159.15650     1.55902
   561  O   6.0   -0.27    1.32    1.80    17.86358   158.22864     3.28056
   562  C   4.0    0.05    4.31    4.22    21.18005   163.15327     0.96943
   563  O   6.0   -0.28    2.51    1.99    20.78888   162.98697    -1.70264
   564  C   4.0   -0.07    4.09    3.78    23.53465   164.71607     1.48721
   565  H   1.0    0.10    1.11    1.45    24.15826   160.04089    -0.74644
   566  H   1.0    0.05    1.06    1.44    21.94350   160.65316     4.04968
   567  H   1.0    0.04    1.04    1.43    19.57378   164.09246     1.85382
   568  H   1.0    0.17    1.24    1.48    22.14759   162.00054    -2.48121
   569  H   1.0    0.04    1.00    1.43    23.30977   166.60958     0.70676
   570  H   1.0    0.03    1.00    1.43    23.85023   164.86347     3.51678
   571  H   1.0    0.05    1.01    1.43    25.17682   163.82601     0.61794
   572  N   5.0   -0.12    3.72    2.30    18.35491   159.04312    -0.83904
   573  C   4.0    0.03    4.53    4.58    15.97007   157.96219    -1.59304
   574  C   4.0    0.17    3.61    3.17    15.53355   155.64728    -0.03024
   575  O   6.0   -0.27    1.31    1.80    13.88949   155.62082     1.58359
   576  C   4.0   -0.05    4.41    4.40    16.04188   157.34425    -4.37661
   577  C   4.0   -0.02    4.27    4.14    16.82423   159.71964    -5.82980
   578  C   4.0   -0.07    4.08    3.77    17.53288   159.22642    -8.59447
   579  C   4.0   -0.08    4.13    3.85    14.74931   161.70385    -5.62949
   580  H   1.0    0.11    1.16    1.45    19.41504   159.69318    -2.31113
   581  H   1.0    0.05    1.07    1.44    14.40727   159.27177    -1.30391
   582  H   1.0    0.04    1.04    1.43    17.41760   155.85137    -4.72998
   583  H   1.0    0.03    1.03    1.43    14.17672   156.74710    -5.01155
   584  H   1.0    0.06    1.10    1.44    18.54955   160.43395    -4.96053
   585  H   1.0    0.07    1.01    1.43    18.06011   161.01032    -9.48076
   586  H   1.0    0.05    1.00    1.43    19.12025   157.91495    -8.65683
   587  H   1.0    0.04    1.00    1.43    15.90960   158.41195    -9.56768
   588  H   1.0    0.04    1.01    1.43    15.32757   163.38571    -6.66884
   589  H   1.0    0.03    1.00    1.43    13.01265   160.94229    -6.43452
   590  H   1.0    0.04    1.00    1.43    14.45829   162.17061    -3.64528
   591  N   5.0   -0.13    3.55    2.12    17.10391   153.74621    -0.40629
   592  C   4.0    0.05    4.38    4.34    17.05667   151.49933     1.15651
   593  C   4.0    0.12    3.33    3.06    16.26109   152.12483     3.83236
   594  O   6.0   -0.27    1.12    1.80    14.63215   150.90596     4.93785
   595  C   4.0   -0.04    4.29    4.18    19.67961   150.25778     1.21509
   596  C   4.0   -0.04    4.19    3.99    19.63803   147.54791     2.13350
   597  C   4.0    0.23    3.17    3.03    17.48374   146.06637     0.92975
   598  O   6.0   -0.34    1.28    1.80    17.92594   144.92497    -1.10927
   599  O   6.0   -0.29    1.17    1.80    15.34646   146.07582     2.01445
   600  H   1.0    0.10    1.12    1.45    18.44373   153.70464    -1.79146
   601  H   1.0    0.07    1.07    1.44    15.69795   150.17652     0.35338
   602  H   1.0    0.05    1.04    1.43    20.46195   150.26723    -0.68975
   603  H   1.0    0.07    1.03    1.43    20.89659   151.33492     2.48121
   604  H   1.0    0.04    1.03    1.43    21.41437   146.63140     1.63650
   605  H   1.0    0.05    1.03    1.43    19.38103   147.52335     4.17629
   606  N   5.0   -0.22    3.22    1.96    16.05752   136.98990    10.86151
   607  C   4.0    0.03    4.24    4.08    16.33644   135.09194     8.87541
   608  C   4.0    0.07    3.28    3.05    17.52660   132.85990    10.10185
   609  O   6.0   -0.31    1.12    1.80    16.52228   130.76889    10.08862
   610  C   4.0   -0.06    4.29    4.18    18.10421   135.98063     6.78160
   611  C   4.0   -0.05    4.18    3.95    17.03515   137.93109     4.98636
   612  C   4.0   -0.01    4.19    3.98    15.19832   136.85098     3.01726
   613  N   5.0   -0.14    3.38    2.01    14.34999   138.83984     1.26171
   614  C   4.0    0.10    3.33    3.06    12.90371   138.45508    -0.77353
   615  N   5.0   -0.18    3.23    1.96    12.09757   136.12528    -1.37446
   616  N   5.0   -0.18    3.25    1.97    12.27302   140.41648    -2.22295
   617  H   1.0    0.08    1.02    1.43    16.61298   138.76835    10.37019
   618  H   1.0    0.04    1.05    1.44    14.50738   134.70560     8.01181
   619  H   1.0    0.04    1.03    1.43    19.77444   136.80998     7.65654
   620  H   1.0    0.04    1.04    1.43    18.64001   134.34241     5.65343
   621  H   1.0    0.04    1.03    1.43    16.01528   139.34692     6.08051
   622  H   1.0    0.04    1.04    1.43    18.59265   138.81462     3.96779
   623  H   1.0    0.04    1.02    1.43    16.14363   135.37783     1.93067
   624  H   1.0    0.04    1.02    1.43    13.54636   136.07218     3.97157
   625  H   1.0    0.09    1.06    1.44    14.90981   140.64851     1.62831
   626  H   1.0    0.08    1.03    1.43    12.58733   134.62274    -0.27275
   627  H   1.0    0.09    1.02    1.43    10.99450   135.85876    -2.93348
   628  H   1.0    0.09    1.03    1.43    12.89313   142.18597    -1.77319
   629  H   1.0    0.09    1.02    1.43    11.17064   140.14738    -3.78197
   630  N   5.0   -0.22    3.16    1.95     4.84492   125.96075   -15.63496
   631  C   4.0    0.03    4.19    3.97     7.52902   126.63322   -15.88630
   632  C   4.0    0.07    3.18    3.03     9.02619   126.19055   -13.43721
   633  O   6.0   -0.29    1.11    1.80    11.06525   125.07009   -13.46367
   634  C   4.0   -0.05    4.23    4.05     7.87616   129.36921   -16.78203
   635  C   4.0   -0.06    4.12    3.84     7.02380   129.97249   -19.51079
   636  C   4.0   -0.02    4.17    3.94     8.91556   129.19030   -21.58760
   637  N   5.0   -0.14    3.37    2.01    11.50110   130.15064   -21.26257
   638  C   4.0    0.09    3.33    3.06    12.80891   131.43813   -22.99733
   639  N   5.0   -0.19    3.26    1.97    11.81057   131.97678   -25.23666
   640  N   5.0   -0.18    3.27    1.97    15.14717   132.18806   -22.49656
   641  H   1.0    0.07    1.02    1.43     3.70407   126.81425   -16.93320
   642  H   1.0    0.04    1.06    1.44     8.31580   125.38764   -17.32627
   643  H   1.0    0.04    1.03    1.43     6.79437   130.59285   -15.52725
   644  H   1.0    0.05    1.04    1.43     9.87864   129.83144   -16.66108
   645  H   1.0    0.03    1.03    1.43     5.25807   128.97924   -19.87929
   646  H   1.0    0.04    1.03    1.43     6.73581   132.00575   -19.67331
   647  H   1.0    0.04    1.02    1.43     9.02551   127.13281   -21.62539
   648  H   1.0    0.03    1.04    1.43     8.22401   129.89298   -23.39607
   649  H   1.0    0.08    1.06    1.44    12.36755   129.80643   -19.57504
   650  H   1.0    0.07    1.04    1.43    10.01695   131.40601   -25.65429
   651  H   1.0    0.08    1.03    1.43    12.83681   132.96205   -26.53679
   652  H   1.0    0.11    1.06    1.44    15.94451   131.78212   -20.79013
   653  H   1.0    0.08    1.03    1.43    16.14810   133.17181   -23.81937
   654  N   5.0   -0.22    3.29    1.98    55.07814   122.28317   -46.13986
   655  C   4.0    0.03    4.37    4.33    53.95946   123.31750   -43.87975
   656  C   4.0    0.15    3.41    3.08    53.38574   126.09134   -44.32573
   657  O   6.0   -0.29    1.25    1.80    53.25154   127.59368   -42.56450
   658  C   4.0   -0.03    4.29    4.18    55.64323   122.86910   -41.58373
   659  C   4.0    0.25    3.13    3.03    54.24641   121.56949   -39.43323
   660  O   6.0   -0.28    1.21    1.80    51.88398   121.40568   -39.53527
   661  O   6.0   -0.31    1.22    1.80    55.51229   120.69217   -37.63988
   662  H   1.0    0.08    1.02    1.43    56.78023   123.03894   -46.64064
   663  H   1.0    0.07    1.09    1.44    52.19052   122.36384   -43.43000
   664  H   1.0    0.04    1.03    1.43    57.22721   121.67137   -42.13364
   665  H   1.0    0.05    1.06    1.44    56.33624   124.68100   -40.89209
   666  N   5.0   -0.14    3.42    2.03    53.02971   126.71934   -46.73702
   667  C   4.0    0.01    4.25    4.10    52.14904   129.20468   -47.56094
   668  C   4.0    0.16    3.35    3.06    53.92712   131.31792   -46.84095
   669  O   6.0   -0.30    1.23    1.80    53.10443   133.41560   -46.26081
   670  H   1.0    0.08    1.07    1.44    53.34235   125.51641   -48.21100
   671  H   1.0    0.04    1.03    1.43    51.94676   129.20354   -49.61129
   672  H   1.0    0.06    1.03    1.43    50.31507   129.58818   -46.70678
   673  N   5.0   -0.13    3.49    2.07    56.37193   130.77212   -46.89953
   674  C   4.0    0.03    4.59    4.66    58.18803   132.50582   -45.82617
   675  C   4.0    0.15    3.50    3.12    59.68126   133.94836   -47.78204
   676  O   6.0   -0.30    1.22    1.80    60.89988   132.84300   -49.43177
   677  C   4.0   -0.02    4.39    4.36    59.97616   131.15101   -44.03093
   678  C   4.0   -0.05    4.24    4.08    58.52869   130.32841   -41.67255
   679  C   4.0   -0.07    4.24    4.08    62.10755   132.87908   -43.31283
   680  C   4.0   -0.07    4.04    3.69    59.39752   127.87114   -40.55761
   681  H   1.0    0.08    1.06    1.44    57.12420   129.17058   -47.66676
   682  H   1.0    0.05    1.10    1.44    57.06948   133.93298   -44.85107
   683  H   1.0    0.05    1.06    1.44    60.74910   129.48721   -44.96634
   684  H   1.0    0.04    1.04    1.43    58.74889   131.78005   -40.22691
   685  H   1.0    0.07    1.05    1.44    56.53891   130.12008   -42.16388
   686  H   1.0    0.04    1.01    1.43    63.37278   131.88573   -42.02782
   687  H   1.0    0.06    1.02    1.43    63.12682   133.43046   -45.01548
   688  H   1.0    0.04    1.03    1.43    61.33341   134.54874   -42.38687
   689  H   1.0    0.05    1.00    1.43    58.25790   127.44884   -38.89465
   690  H   1.0    0.04    1.01    1.43    59.17116   126.38103   -41.96168
   691  H   1.0    0.04    1.00    1.43    61.37950   128.04006   -40.02471
   692  N   5.0   -0.14    3.49    2.07    59.53069   136.44282   -47.56472
   693  C   4.0    0.04    4.34    4.28    61.24576   138.12473   -48.85540
   694  C   4.0    0.10    3.28    3.05    63.84244   137.74298   -47.66865
   695  O   6.0   -0.31    1.18    1.80    64.13767   138.02908   -45.38019
   696  C   4.0   -0.03    4.29    4.17    60.38692   140.86707   -48.52848
   697  C   4.0    0.24    3.12    3.03    61.95141   142.73043   -50.07238
   698  O   6.0   -0.29    1.19    1.80    64.26912   142.35564   -50.38419
   699  O   6.0   -0.29    1.17    1.80    60.83529   144.61069   -50.95866
   700  H   1.0    0.08    1.07    1.44    58.21777   137.35626   -46.48946
   701  H   1.0    0.05    1.05    1.44    61.30400   137.73285   -50.87741
   702  H   1.0    0.05    1.03    1.43    58.42479   141.03037   -49.13508
   703  H   1.0    0.06    1.03    1.43    60.55711   141.38865   -46.54238
   704  N   5.0   -0.21    3.20    1.96    68.51446   145.41112   -43.92133
   705  C   4.0    0.02    4.27    4.14    68.39599   145.96025   -41.20390
   706  C   4.0    0.15    3.37    3.07    69.15030   143.68998   -39.54094
   707  O   6.0   -0.30    1.22    1.80    70.65202   143.96130   -37.77027
   708  C   4.0   -0.04    4.24    4.07    65.75511   146.95146   -40.45179
   709  C   4.0   -0.03    4.19    3.98    63.52475   145.44774   -41.55728
   710  C   4.0    0.24    3.11    3.03    61.25360   145.31480   -39.79038
   711  O   6.0   -0.30    1.17    1.80    61.46066   144.13602   -37.73625
   712  O   6.0   -0.29    1.17    1.80    59.24578   146.36602   -40.47824
   713  H   1.0    0.09    1.03    1.43    66.92201   145.93189   -44.87375
   714  H   1.0    0.04    1.06    1.44    69.76851   147.45312   -40.84296
   715  H   1.0    0.06    1.03    1.43    65.59157   146.88323   -38.39955
   716  H   1.0    0.04    1.03    1.43    65.57582   148.89473   -41.10752
   717  H   1.0    0.05    1.03    1.43    62.91436   146.35001   -43.30527
   718  H   1.0    0.05    1.04    1.43    64.14252   143.51978   -41.93711
   719  N   5.0   -0.14    3.43    2.03    68.14529   141.46228   -40.15510
   720  C   4.0    0.04    4.33    4.26    68.41048   139.23039   -38.54883
   721  C   4.0    0.09    3.22    3.04    71.12391   138.37053   -38.21246
   722  O   6.0   -0.29    1.11    1.80    71.77873   137.12295   -36.35486
   723  C   4.0   -0.05    4.36    4.31    66.75726   137.08231   -39.53527
   724  C   4.0   -0.02    4.22    4.04    64.06860   137.27567   -38.49214
   725  C   4.0   -0.06    4.13    3.87    62.24042   138.46551   -40.37242
   726  C   4.0   -0.08    4.12    3.85    63.13289   134.69739   -37.67011
   727  H   1.0    0.08    1.06    1.44    67.13017   141.13805   -41.76137
   728  H   1.0    0.06    1.07    1.44    67.72996   139.72123   -36.66856
   729  H   1.0    0.06    1.04    1.43    66.66940   137.17779   -41.59129
   730  H   1.0    0.05    1.04    1.43    67.55895   135.27800   -38.94757
   731  H   1.0    0.05    1.07    1.44    64.11743   138.52145   -36.85186
   732  H   1.0    0.05    1.02    1.43    60.36676   138.55116   -39.52204
   733  H   1.0    0.06    1.00    1.43    62.89178   140.36466   -40.82973
   734  H   1.0    0.06    1.04    1.43    62.18696   137.31089   -42.07695
   735  H   1.0    0.04    1.00    1.43    61.21778   134.88130   -36.93501
   736  H   1.0    0.03    1.03    1.43    63.14205   133.43053   -39.29528
   737  H   1.0    0.04    1.00    1.43    64.38148   133.96718   -36.20368
   738  H   1.0    0.09    1.08    1.44    55.33503   120.61461   -45.93378
   739  H   1.0    0.06    1.04    1.43    65.31384   137.25819   -48.75079
   740  H   1.0    0.09    1.07    1.44    69.82225   146.24966   -44.61349
   741  H   1.0    0.06    1.05    1.44    72.42331   138.81340   -39.51111
   742  H   1.0    0.08    1.07    1.44     2.36391   143.90140    -8.82048
   743  H   1.0    0.07    1.04    1.44    74.25133   123.93496   -28.47635
   744  H   1.0    0.08    1.08    1.44     4.24049   160.10563   -17.33150
   745  H   1.0    0.04    1.05    1.44     6.67336   163.13379   -21.52729
   746  H   1.0    0.08    1.07    1.44     8.98184   166.32953   -14.73420
   747  H   1.0    0.06    1.05    1.44    18.15245   167.29850   -16.67291
   748  H   1.0    0.08    1.07    1.44    19.13036   168.93504   -11.36953
   749  H   1.0    0.08    1.05    1.44    17.07088   153.56715     4.74616
   750  H   1.0    0.09    1.07    1.44    14.42261   137.09855    11.31739
   751  H   1.0    0.05    1.05    1.44    19.19507   133.03724    10.97122
   752  H   1.0    0.09    1.07    1.44     4.65997   124.28114   -15.82804
   753  H   1.0    0.05    1.04    1.43     8.34707   126.81620   -11.78845

  Z AO/shell   Hii/eV     exponent
  1     Wed Apr 25 08:07:45 CEST 2018   EN: 2.200 GM2: 0.406  GM3: 0.0800  RAES: 1.40
     1s    -10.707211    1.230000
  6     Wed Apr 25 08:07:45 CEST 2018   EN: 2.550 GM2: 0.538  GM3: 0.1500  RAES: 3.00
     2s    -13.970922    2.096432
     2p    -10.063292    1.800000
  7     Wed Apr 25 08:07:45 CEST 2018   EN: 3.040 GM2: 0.461  GM3:-0.0640  RAES: 1.90
     2s    -16.686243    2.339881
     2p    -12.523956    2.014332
  8     Wed Apr 25 08:07:45 CEST 2018   EN: 3.440 GM2: 0.452  GM3:-0.0517  RAES: 1.80
     2s    -20.229985    2.439742
     2p    -15.503117    2.137023
 no old-style atom pair restraining (fixing) potential

molecular fragmentation (1/2 indicates fragments):
111111111111111111111111111111111111111111111111111111111111111111111111
111111111111111111111111111111111111111111111111111111111111111111111111
111111111111111111111111111111111111111111111111111111111111111111111111
111111111111111111111111111111111111111111111111111111111111111111111111
111111111111111111111111111111111111111111111111111111111111111111111111
111111111111111111111111111111111111111111111111111111111111111111111111
111111112222222222222222222222222222222222222222222222222222222222222222
222222222222222222222222222222222222222222222222222222222222222222222222
222222222222222222222222222222222222222222222222222222222222222222222222
222222222222222222222222222222222222222222222222222222222222222222222222
222222222222222222222112222222222
# atoms in fragment 1/2:   442   311
 fragment masses (1/2) :     3172.45     2125.43
CMA distance (Bohr)    :  14.898
constraining FC (au)   :  0.0500
           ------------------------------------------------- 
          |        Self-Consistent Charge Iterations        |
           ------------------------------------------------- 

 Ncao       : 1866
 Nao        : 1866
 Nshell     : 1124
 Nel        : 2098
 T(el)      :   500.0
 intcut     :    35.0
 scfconv/Eh :  0.100E-06
   qconv/e  :  0.100E-04
 intneglect :  0.100E-08
 broydamp   :      0.400
 iter      E             dE          RMSdq      gap      omega  full diag
   1  -1208.5479579 -0.120855E+04  0.483E+00    3.14       0.0  T
   2  -1211.8131126 -0.326515E+01  0.221E+00    1.99       1.0  T
   3  -1212.0254342 -0.212322E+00  0.125E+00    2.12       1.0  T
   4  -1212.2175934 -0.192159E+00  0.274E-01    1.46       1.0  T
   5  -1212.2293942 -0.118008E-01  0.141E-01    1.60       1.0  T
   6  -1212.2311868 -0.179259E-02  0.572E-02    1.60       1.0  T
   7  -1212.2318185 -0.631722E-03  0.241E-02    1.62       1.0  T
   8  -1212.2318722 -0.537371E-04  0.119E-02    1.63       1.0  T
   9  -1212.2319030 -0.307159E-04  0.520E-03    1.63       1.0  T
  10  -1212.2319071 -0.412128E-05  0.243E-03    1.63       1.5  T
  11  -1212.2319081 -0.972308E-06  0.933E-04    1.63       3.9  T
  12  -1212.2319082 -0.133542E-06  0.457E-04    1.62       8.0  T
  13  -1212.2319082 -0.341374E-07  0.215E-04    1.62      17.0  T
  14  -1212.2319082 -0.784416E-08  0.949E-05    1.62      38.4  T
  15  -1212.2319082 -0.201999E-08  0.372E-05    1.62      97.9  T
speedup  1.03
cpu  time for SCC    1 m 16.4 s
wall time for SCC    1 m 13.9 s

   *** convergence criteria satisfied after 15 iterations ***

          eigenvalues
 #    :        1037       1038       1039       1040       1041       1042       1043       1044
 occ. :        2.000      2.000      2.000      2.000      2.000      2.000      2.000      2.000
 eps  :        -9.925     -9.923     -9.915     -9.902     -9.871     -9.844     -9.805     -9.777
 #    :        1045       1046       1047       1048       1049       1050       1051       1052
 occ. :        2.000      2.000      2.000      2.000      2.000      0.000      0.000      0.000
 eps  :        -9.714     -9.710     -9.706     -9.668     -9.584     -7.959     -7.934     -7.910
 #    :        1053       1054       1055       1056       1057       1058       1059       1060
 occ. :        0.000      0.000      0.000      0.000      0.000      0.000      0.000      0.000
 eps  :        -7.667     -7.628     -7.485     -7.327     -7.270     -7.118     -6.705     -6.700


   #   Z            q   n(s)   n(p)   n(d)      C6AA      α(0)
   1   7 N     -0.393  1.315  4.078  0.000    30.189     8.160
   2   6 C      0.023  1.054  2.922  0.000    20.181     6.396
   3   6 C      0.271  1.043  2.686  0.000    22.420     7.755
   4   8 O     -0.507  1.747  4.760  0.000    23.939     6.560
   5   6 C     -0.021  1.051  2.969  0.000    20.902     6.502
   6   6 C     -0.117  1.040  3.077  0.000    22.795     6.806
   7   6 C     -0.129  1.043  3.086  0.000    23.018     6.839
   8   1 H      0.164  0.836  0.000  0.000     1.308     1.792
   9   1 H      0.045  0.955  0.000  0.000     2.387     2.416
  10   1 H      0.028  0.972  0.000  0.000     2.621     2.532
  11   1 H      0.050  0.950  0.000  0.000     2.325     2.385
  12   1 H      0.045  0.955  0.000  0.000     2.384     2.415
  13   1 H      0.051  0.949  0.000  0.000     2.301     2.372
  14   1 H      0.055  0.945  0.000  0.000     2.254     2.348
  15   1 H      0.050  0.950  0.000  0.000     2.322     2.383
  16   1 H      0.037  0.963  0.000  0.000     2.490     2.467
  17   7 N     -0.168  1.243  3.925  0.000    24.643     7.373
  18   6 C      0.015  1.056  2.930  0.000    20.308     6.412
  19   6 C      0.288  1.033  2.679  0.000    22.120     7.703
  20   8 O     -0.486  1.753  4.733  0.000    23.477     6.496
  21   6 C     -0.034  1.055  2.979  0.000    21.137     6.538
  22   6 C     -0.129  1.043  3.086  0.000    23.016     6.839
  23   6 C     -0.125  1.042  3.082  0.000    22.935     6.826
  24   1 H      0.230  0.770  0.000  0.000     0.966     1.539
  25   1 H      0.067  0.933  0.000  0.000     2.113     2.273
  26   1 H      0.055  0.945  0.000  0.000     2.264     2.353
  27   1 H      0.069  0.931  0.000  0.000     2.099     2.266
  28   1 H      0.039  0.961  0.000  0.000     2.466     2.456
  29   1 H      0.049  0.951  0.000  0.000     2.331     2.388
  30   1 H      0.067  0.933  0.000  0.000     2.124     2.279
  31   1 H      0.052  0.948  0.000  0.000     2.300     2.371
  32   1 H      0.053  0.947  0.000  0.000     2.289     2.366
  33   7 N     -0.173  1.233  3.941  0.000    24.754     7.389
  34   6 C      0.015  1.051  2.934  0.000    20.310     6.413
  35   6 C      0.286  1.033  2.680  0.000    22.149     7.708
  36   8 O     -0.479  1.729  4.750  0.000    23.321     6.475
  37   6 C     -0.043  1.061  2.983  0.000    21.301     6.563
  38   6 C     -0.136  1.048  3.088  0.000    23.161     6.862
  39   6 C     -0.128  1.047  3.082  0.000    23.010     6.839
  40   1 H      0.221  0.779  0.000  0.000     1.005     1.571
  41   1 H      0.076  0.924  0.000  0.000     2.018     2.222
  42   1 H      0.067  0.933  0.000  0.000     2.116     2.275
  43   1 H      0.067  0.933  0.000  0.000     2.114     2.274
  44   1 H      0.057  0.943  0.000  0.000     2.235     2.338
  45   1 H      0.045  0.955  0.000  0.000     2.383     2.414
  46   1 H      0.065  0.935  0.000  0.000     2.141     2.288
  47   1 H      0.044  0.956  0.000  0.000     2.393     2.419
  48   1 H      0.061  0.939  0.000  0.000     2.187     2.313
  49   7 N     -0.168  1.246  3.923  0.000    24.645     7.373
  50   6 C      0.011  1.054  2.935  0.000    20.375     6.423
  51   6 C      0.283  1.031  2.686  0.000    22.212     7.719
  52   8 O     -0.537  1.764  4.773  0.000    24.621     6.653
  53   6 C     -0.109  1.050  3.059  0.000    22.563     6.758
  54   6 C      0.274  1.029  2.698  0.000    22.375     7.746
  55   8 O     -0.488  1.732  4.756  0.000    23.530     6.504
  56   7 N     -0.271  1.266  4.005  0.000    27.011     7.719
  57   1 H      0.234  0.766  0.000  0.000     0.948     1.525
  58   1 H      0.100  0.900  0.000  0.000     1.781     2.087
  59   1 H      0.115  0.885  0.000  0.000     1.653     2.011
  60   1 H      0.067  0.933  0.000  0.000     2.115     2.274
  61   1 H      0.258  0.742  0.000  0.000     0.854     1.447
  62   1 H      0.220  0.780  0.000  0.000     1.011     1.575
  63   7 N     -0.185  1.252  3.933  0.000    25.019     7.429
  64   6 C      0.039  1.053  2.908  0.000    19.911     6.352
  65   6 C      0.292  1.033  2.675  0.000    22.044     7.689
  66   8 O     -0.556  1.770  4.786  0.000    25.050     6.710
  67   6 C     -0.065  1.045  3.020  0.000    21.744     6.637
  68   6 C     -0.085  1.058  3.027  0.000    22.109     6.694
  69   6 C      0.362  1.026  2.612  0.000    20.856     7.474
  70   8 O     -0.619  1.739  4.880  0.000    26.586     6.913
  71   8 O     -0.673  1.789  4.884  0.000    27.978     7.092
  72   1 H      0.262  0.738  0.000  0.000     0.839     1.435
  73   1 H      0.031  0.969  0.000  0.000     2.575     2.509
  74   1 H      0.102  0.898  0.000  0.000     1.771     2.081
  75   1 H      0.008  0.992  0.000  0.000     2.921     2.673
  76   1 H      0.009  0.991  0.000  0.000     2.905     2.665
  77   1 H      0.031  0.969  0.000  0.000     2.568     2.506
  78   7 N     -0.202  1.251  3.951  0.000    25.383     7.483
  79   6 C      0.039  1.043  2.919  0.000    19.918     6.353
  80   6 C      0.281  1.036  2.682  0.000    22.235     7.722
  81   8 O     -0.535  1.759  4.776  0.000    24.570     6.646
  82   6 C     -0.087  1.052  3.035  0.000    22.148     6.699
  83   6 C     -0.090  1.054  3.037  0.000    22.220     6.711
  84   6 C     -0.024  1.055  2.969  0.000    21.093     6.555
  85   7 N     -0.137  1.206  3.931  0.000    23.960     7.270
  86   6 C      0.228  1.021  2.751  0.000    23.207     7.887
  87   7 N     -0.224  1.227  3.997  0.000    25.910     7.560
  88   7 N     -0.251  1.233  4.017  0.000    26.527     7.649
  89   1 H      0.276  0.724  0.000  0.000     0.788     1.390
  90   1 H      0.042  0.958  0.000  0.000     2.417     2.431
  91   1 H      0.073  0.927  0.000  0.000     2.051     2.240
  92   1 H      0.047  0.953  0.000  0.000     2.353     2.399
  93   1 H      0.084  0.916  0.000  0.000     1.939     2.178
  94   1 H      0.088  0.912  0.000  0.000     1.899     2.155
  95   1 H      0.071  0.929  0.000  0.000     2.079     2.255
  96   1 H      0.106  0.894  0.000  0.000     1.733     2.059
  97   1 H      0.188  0.812  0.000  0.000     1.171     1.695
  98   1 H      0.239  0.761  0.000  0.000     0.927     1.508
  99   1 H      0.270  0.730  0.000  0.000     0.811     1.411
 100   1 H      0.222  0.778  0.000  0.000     1.000     1.567
 101   1 H      0.251  0.749  0.000  0.000     0.878     1.468
 102   7 N     -0.186  1.244  3.942  0.000    25.040     7.432
 103   6 C      0.022  1.056  2.922  0.000    20.202     6.399
 104   6 C      0.290  1.029  2.680  0.000    22.081     7.697
 105   8 O     -0.529  1.739  4.790  0.000    24.439     6.628
 106   6 C     -0.085  1.055  3.030  0.000    22.114     6.694
 107   6 C     -0.098  1.058  3.039  0.000    22.368     6.734
 108   6 C     -0.045  1.065  2.980  0.000    21.470     6.613
 109   7 N     -0.168  1.232  3.936  0.000    24.631     7.371
 110   6 C      0.213  1.027  2.760  0.000    23.491     7.935
 111   7 N     -0.250  1.231  4.019  0.000    26.500     7.645
 112   7 N     -0.245  1.230  4.015  0.000    26.387     7.629
 113   1 H      0.238  0.762  0.000  0.000     0.930     1.511
 114   1 H      0.065  0.935  0.000  0.000     2.144     2.290
 115   1 H      0.061  0.939  0.000  0.000     2.186     2.312
 116   1 H      0.087  0.913  0.000  0.000     1.906     2.159
 117   1 H      0.077  0.923  0.000  0.000     2.011     2.218
 118   1 H      0.063  0.937  0.000  0.000     2.164     2.301
 119   1 H      0.114  0.886  0.000  0.000     1.666     2.018
 120   1 H      0.107  0.893  0.000  0.000     1.721     2.052
 121   1 H      0.256  0.744  0.000  0.000     0.861     1.453
 122   1 H      0.244  0.756  0.000  0.000     0.907     1.492
 123   1 H      0.258  0.742  0.000  0.000     0.853     1.446
 124   1 H      0.222  0.778  0.000  0.000     1.001     1.568
 125   1 H      0.256  0.744  0.000  0.000     0.861     1.454
 126   7 N     -0.175  1.250  3.925  0.000    24.792     7.395
 127   6 C      0.032  1.046  2.922  0.000    20.018     6.367
 128   6 C      0.290  1.038  2.672  0.000    22.078     7.695
 129   8 O     -0.487  1.749  4.738  0.000    23.494     6.499
 130   6 C     -0.058  1.046  3.012  0.000    21.599     6.614
 131   6 C     -0.096  1.058  3.038  0.000    22.316     6.724
 132   6 C      0.356  1.030  2.615  0.000    20.963     7.493
 133   8 O     -0.637  1.807  4.830  0.000    27.035     6.971
 134   8 O     -0.614  1.749  4.865  0.000    26.454     6.896
 135   1 H      0.243  0.757  0.000  0.000     0.911     1.495
 136   1 H      0.102  0.898  0.000  0.000     1.770     2.081
 137   1 H      0.059  0.941  0.000  0.000     2.206     2.323
 138   1 H      0.022  0.978  0.000  0.000     2.707     2.573
 139   1 H      0.054  0.946  0.000  0.000     2.268     2.355
 140   1 H      0.007  0.993  0.000  0.000     2.932     2.678
 141   7 N     -0.185  1.244  3.941  0.000    24.999     7.426
 142   6 C      0.037  1.048  2.916  0.000    19.951     6.358
 143   6 C      0.293  1.031  2.676  0.000    22.031     7.687
 144   8 O     -0.507  1.730  4.777  0.000    23.933     6.559
 145   6 C     -0.050  1.044  3.006  0.000    21.448     6.591
 146   6 C     -0.086  1.056  3.030  0.000    22.134     6.697
 147   6 C      0.371  1.019  2.610  0.000    20.713     7.448
 148   8 O     -0.635  1.765  4.870  0.000    26.989     6.965
 149   8 O     -0.643  1.763  4.880  0.000    27.190     6.991
 150   1 H      0.210  0.790  0.000  0.000     1.055     1.609
 151   1 H      0.043  0.957  0.000  0.000     2.410     2.428
 152   1 H      0.041  0.959  0.000  0.000     2.433     2.439
 153   1 H      0.040  0.960  0.000  0.000     2.443     2.444
 154   1 H      0.026  0.974  0.000  0.000     2.642     2.542
 155   1 H      0.026  0.974  0.000  0.000     2.645     2.543
 156   7 N     -0.185  1.251  3.934  0.000    25.009     7.427
 157   6 C      0.038  1.053  2.909  0.000    19.941     6.358
 158   6 C      0.282  1.040  2.677  0.000    22.223     7.720
 159   8 O     -0.491  1.736  4.755  0.000    23.582     6.511
 160   6 C     -0.061  1.051  3.010  0.000    21.662     6.625
 161   6 C     -0.096  1.064  3.031  0.000    22.323     6.727
 162   6 C      0.362  1.027  2.611  0.000    20.854     7.473
 163   8 O     -0.639  1.766  4.873  0.000    27.096     6.979
 164   8 O     -0.643  1.770  4.873  0.000    27.195     6.992
 165   1 H      0.221  0.779  0.000  0.000     1.004     1.570
 166   1 H      0.058  0.942  0.000  0.000     2.227     2.334
 167   1 H      0.053  0.947  0.000  0.000     2.288     2.366
 168   1 H      0.041  0.959  0.000  0.000     2.433     2.439
 169   1 H      0.039  0.961  0.000  0.000     2.467     2.456
 170   1 H      0.021  0.979  0.000  0.000     2.715     2.577
 171   7 N     -0.178  1.246  3.931  0.000    24.845     7.403
 172   6 C      0.016  1.065  2.919  0.000    20.315     6.418
 173   6 C      0.287  1.036  2.678  0.000    22.142     7.706
 174   8 O     -0.522  1.743  4.779  0.000    24.272     6.605
 175   6 C      0.072  1.040  2.888  0.000    19.572     6.336
 176   8 O     -0.486  1.734  4.752  0.000    22.597     6.417
 177   1 H      0.213  0.787  0.000  0.000     1.043     1.600
 178   1 H      0.073  0.927  0.000  0.000     2.050     2.239
 179   1 H      0.070  0.930  0.000  0.000     2.087     2.259
 180   1 H      0.062  0.938  0.000  0.000     2.178     2.308
 181   1 H      0.334  0.666  0.000  0.000     0.626     1.243
 182   7 N     -0.179  1.254  3.925  0.000    24.877     7.408
 183   6 C      0.034  1.051  2.914  0.000    19.997     6.367
 184   6 C      0.275  1.043  2.682  0.000    22.344     7.741
 185   8 O     -0.524  1.749  4.775  0.000    24.317     6.611
 186   6 C     -0.121  1.042  3.079  0.000    22.863     6.817
 187   1 H      0.240  0.760  0.000  0.000     0.923     1.505
 188   1 H      0.064  0.936  0.000  0.000     2.150     2.293
 189   1 H      0.056  0.944  0.000  0.000     2.251     2.346
 190   1 H      0.068  0.932  0.000  0.000     2.105     2.269
 191   1 H      0.060  0.940  0.000  0.000     2.194     2.316
 192   7 N     -0.187  1.252  3.936  0.000    25.057     7.435
 193   6 C      0.030  1.049  2.921  0.000    20.072     6.379
 194   6 C      0.275  1.042  2.683  0.000    22.357     7.743
 195   8 O     -0.497  1.741  4.756  0.000    23.724     6.530
 196   6 C     -0.128  1.042  3.086  0.000    23.003     6.837
 197   1 H      0.240  0.760  0.000  0.000     0.922     1.504
 198   1 H      0.062  0.938  0.000  0.000     2.181     2.310
 199   1 H      0.080  0.920  0.000  0.000     1.983     2.202
 200   1 H      0.072  0.928  0.000  0.000     2.062     2.245
 201   1 H      0.065  0.935  0.000  0.000     2.141     2.288
 202   7 N     -0.184  1.249  3.935  0.000    24.990     7.425
 203   6 C      0.026  1.058  2.916  0.000    20.149     6.392
 204   6 C      0.276  1.044  2.680  0.000    22.323     7.737
 205   8 O     -0.489  1.745  4.744  0.000    23.536     6.504
 206   6 C     -0.139  1.046  3.093  0.000    23.236     6.873
 207   1 H      0.217  0.783  0.000  0.000     1.025     1.586
 208   1 H      0.082  0.918  0.000  0.000     1.958     2.188
 209   1 H      0.080  0.920  0.000  0.000     1.977     2.199
 210   1 H      0.073  0.927  0.000  0.000     2.057     2.243
 211   1 H      0.068  0.932  0.000  0.000     2.105     2.269
 212   7 N     -0.180  1.250  3.930  0.000    24.889     7.410
 213   6 C      0.032  1.053  2.915  0.000    20.042     6.375
 214   6 C      0.289  1.035  2.676  0.000    22.095     7.698
 215   8 O     -0.497  1.745  4.752  0.000    23.714     6.529
 216   6 C     -0.133  1.047  3.087  0.000    23.119     6.856
 217   1 H      0.216  0.784  0.000  0.000     1.030     1.590
 218   1 H      0.074  0.926  0.000  0.000     2.040     2.233
 219   1 H      0.067  0.933  0.000  0.000     2.117     2.276
 220   1 H      0.089  0.911  0.000  0.000     1.884     2.146
 221   1 H      0.061  0.939  0.000  0.000     2.190     2.314
 222   7 N     -0.193  1.256  3.937  0.000    25.199     7.455
 223   6 C      0.038  1.058  2.904  0.000    19.940     6.359
 224   6 C      0.291  1.036  2.672  0.000    22.058     7.691
 225   8 O     -0.511  1.755  4.755  0.000    24.025     6.572
 226   6 C     -0.050  1.055  2.995  0.000    21.470     6.597
 227   6 C     -0.093  1.067  3.025  0.000    22.269     6.720
 228   6 C      0.368  1.027  2.605  0.000    20.759     7.456
 229   8 O     -0.649  1.768  4.882  0.000    27.361     7.013
 230   8 O     -0.654  1.774  4.880  0.000    27.471     7.027
 231   1 H      0.216  0.784  0.000  0.000     1.026     1.587
 232   1 H      0.048  0.952  0.000  0.000     2.339     2.392
 233   1 H      0.044  0.956  0.000  0.000     2.392     2.419
[...]
 467   6 C      0.263  1.046  2.691  0.000    22.568     7.779
 468   8 O     -0.484  1.763  4.722  0.000    23.443     6.492
 469   6 C     -0.136  1.049  3.087  0.000    23.169     6.863
 470   1 H      0.165  0.835  0.000  0.000     1.303     1.788
 471   1 H      0.047  0.953  0.000  0.000     2.361     2.403
 472   1 H      0.044  0.956  0.000  0.000     2.390     2.418
 473   1 H      0.050  0.950  0.000  0.000     2.320     2.382
 474   1 H      0.069  0.931  0.000  0.000     2.100     2.266
 475   7 N     -0.171  1.243  3.928  0.000    24.703     7.382
 476   6 C      0.018  1.060  2.922  0.000    20.286     6.414
 477   6 C      0.210  1.080  2.710  0.000    23.554     7.949
 478   8 O     -0.392  1.771  4.621  0.000    21.529     6.221
 479   6 C     -0.085  1.050  3.035  0.000    22.104     6.690
 480   6 C     -0.093  1.047  3.046  0.000    22.268     6.717
 481   6 C     -0.029  1.056  2.973  0.000    21.155     6.560
 482   7 N     -0.141  1.213  3.928  0.000    24.059     7.285
 483   6 C      0.229  1.018  2.753  0.000    23.196     7.885
 484   7 N     -0.253  1.233  4.019  0.000    26.568     7.655
 485   7 N     -0.254  1.236  4.018  0.000    26.592     7.659
 486   1 H      0.229  0.771  0.000  0.000     0.968     1.541
 487   1 H      0.088  0.912  0.000  0.000     1.901     2.156
 488   1 H      0.076  0.924  0.000  0.000     2.016     2.220
 489   1 H      0.077  0.923  0.000  0.000     2.011     2.218
 490   1 H      0.088  0.912  0.000  0.000     1.901     2.156
 491   1 H      0.092  0.908  0.000  0.000     1.855     2.130
 492   1 H      0.093  0.907  0.000  0.000     1.854     2.129
 493   1 H      0.080  0.920  0.000  0.000     1.978     2.200
 494   1 H      0.229  0.771  0.000  0.000     0.968     1.541
 495   1 H      0.245  0.755  0.000  0.000     0.904     1.489
 496   1 H      0.250  0.750  0.000  0.000     0.882     1.471
 497   1 H      0.244  0.756  0.000  0.000     0.908     1.493
 498   1 H      0.255  0.745  0.000  0.000     0.863     1.455
 499   7 N     -0.378  1.313  4.064  0.000    29.757     8.102
 500   6 C      0.021  1.055  2.924  0.000    20.231     6.406
 501   6 C      0.267  1.046  2.687  0.000    22.488     7.765
 502   8 O     -0.472  1.729  4.743  0.000    23.177     6.455
 503   6 C      0.064  1.043  2.892  0.000    19.706     6.358
 504   8 O     -0.533  1.726  4.807  0.000    23.618     6.560
 505   1 H      0.169  0.831  0.000  0.000     1.281     1.773
 506   1 H      0.053  0.947  0.000  0.000     2.283     2.363
 507   1 H      0.036  0.964  0.000  0.000     2.504     2.475
 508   1 H      0.037  0.963  0.000  0.000     2.488     2.467
 509   1 H      0.352  0.648  0.000  0.000     0.580     1.194
 510   7 N     -0.166  1.231  3.935  0.000    24.589     7.365
 511   6 C      0.013  1.051  2.936  0.000    20.357     6.423
 512   6 C      0.279  1.035  2.686  0.000    22.279     7.731
 513   8 O     -0.459  1.726  4.734  0.000    22.880     6.414
 514   6 C      0.110  1.045  2.845  0.000    18.853     6.196
 515   8 O     -0.479  1.725  4.754  0.000    22.453     6.397
 516   6 C     -0.145  1.048  3.097  0.000    23.367     6.893
 517   1 H      0.234  0.766  0.000  0.000     0.946     1.524
 518   1 H      0.082  0.918  0.000  0.000     1.963     2.191
 519   1 H      0.032  0.968  0.000  0.000     2.552     2.498
 520   1 H      0.325  0.675  0.000  0.000     0.652     1.268
 521   1 H      0.066  0.934  0.000  0.000     2.131     2.283
 522   1 H      0.072  0.928  0.000  0.000     2.064     2.247
 523   1 H      0.078  0.922  0.000  0.000     2.001     2.212
 524   7 N     -0.165  1.249  3.917  0.000    24.580     7.363
 525   6 C     -0.011  1.099  2.912  0.000    20.818     6.505
 526   6 C      0.289  1.033  2.678  0.000    22.105     7.699
 527   8 O     -0.453  1.751  4.702  0.000    22.778     6.399
 528   6 C     -0.088  1.091  2.998  0.000    22.227     6.720
 529   6 C     -0.019  1.062  2.957  0.000    20.881     6.500
 530   6 C     -0.126  1.050  3.076  0.000    22.958     6.831
 531   6 C     -0.119  1.051  3.068  0.000    22.850     6.819
 532   1 H      0.230  0.770  0.000  0.000     0.964     1.538
 533   1 H      0.106  0.894  0.000  0.000     1.734     2.059
 534   1 H      0.080  0.920  0.000  0.000     1.975     2.197
 535   1 H      0.060  0.940  0.000  0.000     2.204     2.322
 536   1 H      0.034  0.966  0.000  0.000     2.525     2.485
 537   1 H      0.068  0.932  0.000  0.000     2.110     2.271
 538   1 H      0.057  0.943  0.000  0.000     2.237     2.339
 539   1 H      0.033  0.967  0.000  0.000     2.545     2.495
 540   1 H      0.061  0.939  0.000  0.000     2.187     2.312
 541   1 H      0.042  0.958  0.000  0.000     2.426     2.436
 542   1 H      0.019  0.981  0.000  0.000     2.748     2.592
 543   7 N     -0.186  1.247  3.938  0.000    25.021     7.429
 544   6 C      0.032  1.060  2.908  0.000    20.042     6.375
 545   6 C      0.316  1.031  2.653  0.000    21.639     7.618
 546   8 O     -0.522  1.765  4.757  0.000    24.281     6.607
 547   6 C     -0.068  1.057  3.012  0.000    21.807     6.648
 548   6 C     -0.097  1.064  3.033  0.000    22.356     6.732
 549   6 C      0.370  1.021  2.609  0.000    20.729     7.451
 550   8 O     -0.664  1.776  4.888  0.000    27.753     7.063
 551   8 O     -0.665  1.781  4.884  0.000    27.771     7.065
 552   1 H      0.209  0.791  0.000  0.000     1.062     1.614
 553   1 H      0.038  0.962  0.000  0.000     2.476     2.461
 554   1 H      0.037  0.963  0.000  0.000     2.492     2.469
 555   1 H      0.066  0.934  0.000  0.000     2.131     2.283
 556   1 H      0.037  0.963  0.000  0.000     2.488     2.467
 557   1 H      0.032  0.968  0.000  0.000     2.560     2.502
 558   7 N     -0.190  1.240  3.950  0.000    25.119     7.444
 559   6 C      0.025  1.050  2.925  0.000    20.151     6.390
 560   6 C      0.300  1.022  2.677  0.000    21.905     7.666
 561   8 O     -0.521  1.753  4.767  0.000    24.251     6.603
 562   6 C      0.099  1.051  2.850  0.000    19.019     6.223
 563   8 O     -0.495  1.714  4.780  0.000    22.762     6.441
 564   6 C     -0.143  1.046  3.096  0.000    23.307     6.884
 565   1 H      0.235  0.765  0.000  0.000     0.945     1.523
 566   1 H      0.041  0.959  0.000  0.000     2.442     2.444
 567   1 H      0.059  0.941  0.000  0.000     2.215     2.327
 568   1 H      0.373  0.627  0.000  0.000     0.534     1.145
 569   1 H      0.089  0.911  0.000  0.000     1.886     2.148
 570   1 H      0.043  0.957  0.000  0.000     2.407     2.426
 571   1 H      0.058  0.942  0.000  0.000     2.220     2.330
 572   7 N     -0.194  1.248  3.945  0.000    25.204     7.456
 573   6 C      0.028  1.049  2.923  0.000    20.090     6.380
 574   6 C      0.300  1.027  2.674  0.000    21.914     7.667
 575   8 O     -0.502  1.750  4.752  0.000    23.827     6.545
 576   6 C     -0.089  1.060  3.029  0.000    22.183     6.703
 577   6 C     -0.030  1.058  2.971  0.000    21.067     6.528
 578   6 C     -0.135  1.048  3.087  0.000    23.154     6.862
 579   6 C     -0.126  1.046  3.081  0.000    22.981     6.835
 580   1 H      0.254  0.746  0.000  0.000     0.869     1.461
 581   1 H      0.068  0.932  0.000  0.000     2.102     2.267
 582   1 H      0.044  0.956  0.000  0.000     2.392     2.419
 583   1 H      0.074  0.926  0.000  0.000     2.047     2.237
 584   1 H      0.041  0.959  0.000  0.000     2.430     2.438
 585   1 H      0.070  0.930  0.000  0.000     2.086     2.258
 586   1 H      0.035  0.965  0.000  0.000     2.515     2.480
 587   1 H      0.060  0.940  0.000  0.000     2.196     2.318
 588   1 H      0.057  0.943  0.000  0.000     2.240     2.340
 589   1 H      0.063  0.937  0.000  0.000     2.165     2.301
 590   1 H      0.036  0.964  0.000  0.000     2.505     2.475
 591   7 N     -0.192  1.252  3.940  0.000    25.163     7.450
 592   6 C      0.046  1.050  2.904  0.000    19.815     6.338
 593   6 C      0.229  1.073  2.698  0.000    23.195     7.888
 594   8 O     -0.383  1.744  4.640  0.000    21.349     6.195
 595   6 C     -0.051  1.049  3.003  0.000    21.488     6.598
 596   6 C     -0.090  1.056  3.034  0.000    22.220     6.711
 597   6 C      0.354  1.029  2.617  0.000    20.992     7.498
 598   8 O     -0.597  1.736  4.861  0.000    26.049     6.843
 599   8 O     -0.622  1.783  4.839  0.000    26.663     6.923
 600   1 H      0.225  0.775  0.000  0.000     0.985     1.555
 601   1 H      0.075  0.925  0.000  0.000     2.026     2.226
 602   1 H      0.058  0.942  0.000  0.000     2.223     2.332
 603   1 H      0.028  0.972  0.000  0.000     2.617     2.530
 604   1 H      0.034  0.966  0.000  0.000     2.534     2.489
 605   1 H      0.013  0.987  0.000  0.000     2.848     2.639
 606   7 N     -0.393  1.327  4.065  0.000    30.172     8.158
 607   6 C      0.036  1.049  2.915  0.000    19.979     6.367
 608   6 C      0.206  1.085  2.709  0.000    23.627     7.962
 609   8 O     -0.389  1.759  4.630  0.000    21.470     6.212
 610   6 C     -0.083  1.054  3.029  0.000    22.072     6.687
 611   6 C     -0.084  1.051  3.034  0.000    22.106     6.694
 612   6 C     -0.036  1.061  2.976  0.000    21.308     6.588
 613   7 N     -0.145  1.213  3.932  0.000    24.146     7.298
 614   6 C      0.216  1.026  2.758  0.000    23.432     7.925
 615   7 N     -0.241  1.230  4.010  0.000    26.291     7.615
 616   7 N     -0.241  1.233  4.008  0.000    26.306     7.617
 617   1 H      0.167  0.833  0.000  0.000     1.291     1.780
 618   1 H      0.061  0.939  0.000  0.000     2.182     2.310
 619   1 H      0.066  0.934  0.000  0.000     2.129     2.282
 620   1 H      0.067  0.933  0.000  0.000     2.117     2.275
 621   1 H      0.062  0.938  0.000  0.000     2.179     2.308
 622   1 H      0.068  0.932  0.000  0.000     2.109     2.271
 623   1 H      0.093  0.907  0.000  0.000     1.846     2.125
 624   1 H      0.095  0.905  0.000  0.000     1.836     2.119
 625   1 H      0.210  0.790  0.000  0.000     1.056     1.610
 626   1 H      0.255  0.745  0.000  0.000     0.864     1.456
 627   1 H      0.262  0.738  0.000  0.000     0.840     1.435
 628   1 H      0.226  0.774  0.000  0.000     0.982     1.552
 629   1 H      0.260  0.740  0.000  0.000     0.845     1.440
 630   7 N     -0.390  1.323  4.067  0.000    30.109     8.149
 631   6 C      0.035  1.056  2.909  0.000    20.013     6.373
 632   6 C      0.197  1.093  2.710  0.000    23.804     7.990
 633   8 O     -0.386  1.773  4.613  0.000    21.409     6.204
 634   6 C     -0.082  1.056  3.025  0.000    22.061     6.687
 635   6 C     -0.085  1.058  3.027  0.000    22.129     6.698
 636   6 C     -0.029  1.058  2.971  0.000    21.182     6.569
 637   7 N     -0.143  1.208  3.935  0.000    24.099     7.291
 638   6 C      0.233  1.017  2.750  0.000    23.113     7.871
 639   7 N     -0.255  1.233  4.022  0.000    26.623     7.663
 640   7 N     -0.254  1.244  4.010  0.000    26.599     7.660
 641   1 H      0.176  0.824  0.000  0.000     1.240     1.744
 642   1 H      0.042  0.958  0.000  0.000     2.416     2.431
 643   1 H      0.084  0.916  0.000  0.000     1.937     2.176
 644   1 H      0.051  0.949  0.000  0.000     2.309     2.376
 645   1 H      0.081  0.919  0.000  0.000     1.965     2.192
 646   1 H      0.080  0.920  0.000  0.000     1.974     2.197
 647   1 H      0.089  0.911  0.000  0.000     1.890     2.150
 648   1 H      0.091  0.909  0.000  0.000     1.870     2.138
 649   1 H      0.218  0.782  0.000  0.000     1.020     1.582
 650   1 H      0.258  0.742  0.000  0.000     0.852     1.446
 651   1 H      0.240  0.760  0.000  0.000     0.923     1.505
 652   1 H      0.247  0.753  0.000  0.000     0.897     1.484
 653   1 H      0.211  0.789  0.000  0.000     1.054     1.608
 654   7 N     -0.398  1.322  4.076  0.000    30.305     8.176
 655   6 C      0.032  1.050  2.918  0.000    20.044     6.376
 656   6 C      0.273  1.044  2.683  0.000    22.384     7.748
 657   8 O     -0.511  1.758  4.753  0.000    24.034     6.573
 658   6 C     -0.108  1.067  3.041  0.000    22.564     6.762
 659   6 C      0.360  1.028  2.612  0.000    20.886     7.479
 660   8 O     -0.664  1.789  4.875  0.000    27.751     7.063
 661   8 O     -0.629  1.743  4.886  0.000    26.852     6.947
 662   1 H      0.158  0.842  0.000  0.000     1.346     1.817
 663   1 H      0.060  0.940  0.000  0.000     2.200     2.319
 664   1 H      0.033  0.967  0.000  0.000     2.540     2.492
 665   1 H      0.054  0.946  0.000  0.000     2.268     2.355
 666   7 N     -0.185  1.243  3.941  0.000    25.006     7.427
 667   6 C     -0.036  1.052  2.984  0.000    21.296     6.583
 668   6 C      0.282  1.034  2.683  0.000    22.218     7.719
 669   8 O     -0.503  1.750  4.753  0.000    23.848     6.547
 670   1 H      0.231  0.769  0.000  0.000     0.960     1.535
 671   1 H      0.101  0.899  0.000  0.000     1.774     2.083
 672   1 H      0.087  0.913  0.000  0.000     1.907     2.159
 673   7 N     -0.161  1.236  3.926  0.000    24.487     7.349
 674   6 C      0.014  1.059  2.926  0.000    20.321     6.415
 675   6 C      0.277  1.038  2.685  0.000    22.307     7.735
 676   8 O     -0.488  1.748  4.740  0.000    23.513     6.501
 677   6 C     -0.023  1.059  2.963  0.000    20.935     6.507
 678   6 C     -0.076  1.050  3.026  0.000    21.943     6.668
 679   6 C     -0.127  1.047  3.080  0.000    22.990     6.835
 680   6 C     -0.103  1.038  3.065  0.000    22.533     6.769
 681   1 H      0.212  0.788  0.000  0.000     1.045     1.601
 682   1 H      0.065  0.935  0.000  0.000     2.138     2.287
 683   1 H      0.056  0.944  0.000  0.000     2.252     2.347
 684   1 H      0.051  0.949  0.000  0.000     2.309     2.376
 685   1 H      0.046  0.954  0.000  0.000     2.372     2.409
 686   1 H      0.072  0.928  0.000  0.000     2.063     2.246
 687   1 H      0.028  0.972  0.000  0.000     2.621     2.532
 688   1 H      0.069  0.931  0.000  0.000     2.093     2.263
 689   1 H      0.035  0.965  0.000  0.000     2.511     2.478
 690   1 H      0.039  0.961  0.000  0.000     2.459     2.452
 691   1 H      0.052  0.948  0.000  0.000     2.300     2.372
 692   7 N     -0.170  1.245  3.925  0.000    24.673     7.377
 693   6 C      0.046  1.049  2.905  0.000    19.806     6.337
 694   6 C      0.212  1.085  2.703  0.000    23.517     7.942
 695   8 O     -0.356  1.742  4.614  0.000    20.819     6.117
 696   6 C     -0.091  1.069  3.022  0.000    22.226     6.711
 697   6 C      0.370  1.020  2.610  0.000    20.724     7.450
 698   8 O     -0.636  1.771  4.865  0.000    27.022     6.969
 699   8 O     -0.640  1.771  4.869  0.000    27.123     6.983
 700   1 H      0.208  0.792  0.000  0.000     1.066     1.617
 701   1 H      0.060  0.940  0.000  0.000     2.200     2.319
 702   1 H      0.049  0.951  0.000  0.000     2.327     2.385
 703   1 H      0.042  0.958  0.000  0.000     2.424     2.435
 704   7 N     -0.397  1.327  4.070  0.000    30.285     8.173
 705   6 C      0.032  1.064  2.904  0.000    20.055     6.380
 706   6 C      0.272  1.050  2.678  0.000    22.407     7.751
 707   8 O     -0.510  1.754  4.756  0.000    24.006     6.569
 708   6 C     -0.048  1.053  2.995  0.000    21.426     6.590
 709   6 C     -0.081  1.061  3.019  0.000    22.046     6.685
 710   6 C      0.364  1.026  2.610  0.000    20.826     7.468
 711   8 O     -0.636  1.766  4.870  0.000    27.010     6.968
 712   8 O     -0.660  1.779  4.882  0.000    27.648     7.050
 713   1 H      0.145  0.855  0.000  0.000     1.436     1.877
 714   1 H      0.039  0.961  0.000  0.000     2.465     2.455
 715   1 H      0.030  0.970  0.000  0.000     2.591     2.517
 716   1 H      0.032  0.968  0.000  0.000     2.558     2.501
 717   1 H     -0.001  1.001  0.000  0.000     3.084     2.746
 718   1 H      0.031  0.969  0.000  0.000     2.569     2.507
 719   7 N     -0.165  1.247  3.918  0.000    24.565     7.361
 720   6 C      0.029  1.059  2.911  0.000    20.085     6.382
 721   6 C      0.207  1.083  2.710  0.000    23.603     7.956
 722   8 O     -0.367  1.753  4.614  0.000    21.041     6.150
 723   6 C     -0.082  1.062  3.020  0.000    22.055     6.685
 724   6 C     -0.015  1.057  2.958  0.000    20.801     6.487
 725   6 C     -0.129  1.047  3.082  0.000    23.038     6.844
 726   6 C     -0.143  1.049  3.093  0.000    23.305     6.883
 727   1 H      0.207  0.793  0.000  0.000     1.072     1.622
 728   1 H      0.091  0.909  0.000  0.000     1.869     2.138
 729   1 H      0.073  0.927  0.000  0.000     2.048     2.238
 730   1 H      0.076  0.924  0.000  0.000     2.017     2.221
 731   1 H      0.034  0.966  0.000  0.000     2.531     2.488
 732   1 H      0.038  0.962  0.000  0.000     2.476     2.461
 733   1 H      0.020  0.980  0.000  0.000     2.727     2.582
 734   1 H      0.070  0.930  0.000  0.000     2.083     2.257
 735   1 H      0.046  0.954  0.000  0.000     2.375     2.410
 736   1 H      0.068  0.932  0.000  0.000     2.105     2.269
 737   1 H      0.051  0.949  0.000  0.000     2.309     2.376
 738   1 H      0.187  0.813  0.000  0.000     1.175     1.698
 739   1 H      0.073  0.927  0.000  0.000     2.051     2.239
 740   1 H      0.191  0.809  0.000  0.000     1.154     1.682
 741   1 H      0.073  0.927  0.000  0.000     2.051     2.239
 742   1 H      0.190  0.810  0.000  0.000     1.159     1.686
 743   1 H      0.074  0.926  0.000  0.000     2.045     2.236
 744   1 H      0.171  0.829  0.000  0.000     1.265     1.761
 745   1 H      0.086  0.914  0.000  0.000     1.916     2.164
 746   1 H      0.185  0.815  0.000  0.000     1.183     1.704
 747   1 H      0.079  0.921  0.000  0.000     1.985     2.203
 748   1 H      0.180  0.820  0.000  0.000     1.212     1.724
 749   1 H      0.042  0.958  0.000  0.000     2.421     2.433
 750   1 H      0.185  0.815  0.000  0.000     1.187     1.707
 751   1 H      0.072  0.928  0.000  0.000     2.064     2.246
 752   1 H      0.175  0.825  0.000  0.000     1.243     1.746
 753   1 H      0.090  0.910  0.000  0.000     1.878     2.143

 Mol. C6AA /au·bohr⁶  :    5252441.017554
 Mol. C8AA /au·bohr⁸  :  115822430.882092
 Mol. α(0) /au        :       3409.941297

 
molecular dipole:
                 x           y           z       tot (Debye)
 q only:     -230.605    -408.689      96.901
   full:     -235.021    -405.378      96.845    1216.206
molecular quadrupole (traceless):
                xx          xy          yy          xz          yz          zz
 q only:    17470.367  -48210.882  -46829.349   11237.418   18648.189   29358.982
  q+dip:    16539.902  -48760.210  -45750.567   11428.251   18571.497   29210.665
   full:    16535.986  -48754.319  -45744.917   11431.071   18571.152   29208.930
speedup  1.06
cpu  time for grad    1 m 32.5 s
wall time for grad    1 m 27.2 s

SCC energy    :   -1212.2610872
rep           :      13.8705378
ES            :       5.3907408
AES           :      -0.2451874
AXC           :       0.3422618
disp          :      -1.0233666
XB            :       0.0000000
fix           :       0.0000000
Gborn         :       0.0000000
Gsasa         :       0.0000000
Ghb           :       0.0000000
Gshift        :       0.0000000
Gsolv         :      -1.7732499    -1112.73
Etot ala COSMO:   -1212.2610872
grad norm     :       0.7347975
total E       :   -1198.2989021
atomizationE  :     212.4837867   133335.59
(atE without considering molecular charge,
 total energy contains solvation terms)
H-L gap (eV)  :          1.6247

------------------------------------------------------------------------
 * finished run on 2019/05/04 at 20:23:57.950     
------------------------------------------------------------------------
 total:
 * wall-time:     0 d,  0 h,  1 min, 30.085 sec
 *  cpu-time:     0 d,  0 h,  1 min, 35.058 sec
 * ratio c/w:     1.055 speedup
 SCF:
 * wall-time:     0 d,  0 h,  1 min, 29.055 sec
 *  cpu-time:     0 d,  0 h,  1 min, 34.359 sec
 * ratio c/w:     1.060 speedup

