      -----------------------------------------------------------      
     |                   =====================                   |     
     |                           x T B                           |     
     |                   =====================                   |     
     |                         S. Grimme                         |     
     |          Mulliken Center for Theoretical Chemistry        |     
     |                    University of Bonn                     |     
     |                 Version 6.0.1 (SAW181210)                 |     
      -----------------------------------------------------------      

   This program is distributed in the hope that it will be useful,
   but WITHOUT ANY WARRANTY; without even the implied warranty of
   MERCHANTABILITY or FITNESS FOR A PARTICULAR PURPOSE.
   
   FOR NON-COMMERCIAL, ACADEMIA USE ONLY.
   
   Cite this work as:
   S. Grimme, C. Bannwarth, P. Shushkov, J. Comput. Theory Chem., 2017,
   13, 1989-2009.
   C. Bannwarth, S. Ehlert and S. Grimme., ChemRxiv, 2018, preprint.
   http://doi.org/10.26434/chemrxiv.7246238.v1
   
   for sTDA-xTB:
   S. Grimme and C. Bannwarth, J. Chem. Phys., 2016, 145, 054103.
   
   in the mass-spec context:
   V. Asgeirsson, C. Bauer and S. Grimme, Chem. Sci., 2017, 8, 4879.
   
   if GBSA is used:
   P. Shushkov, F. März and S. Grimme, unpublished.
   
   for ANC optimizer:
   S. Grimme, unpublished.
   Rational Function algorithm used in ANCopt:
   F. Eckert, P. Pulay, H.-J. Werner, J. Comput. Chem., 1997, 18, 1473.
   
   with help from (in alphabetical order)
   C. Bannwarth, F. Bohle, G. Brandenburg, E. Caldeweyher, M. Checinski,
   S. Dohm, S. Ehlert, S. Ehrlich, F. März, H. Neugebauer, J. Pisarek,
   P. Pracht, P. Shushkov, and S. Spicher.
   
 * started run on 2019/05/07 at 22:47:07.660     
========================================================================
 # omp threads = 2
========================================================================
number of atoms            : 567
number of electrons        : 1518
charge                     : -6
spin                       : .0
first test random number   : .9220

########################################################################
# WARNING! Please study the warnings concerning your input carefully
#  - Process number higher than OMP_NUM_THREADS, I hope you know what you are doing.
########################################################################

           ------------------------------------------------- 
          |                 G F N 2 - x T B                 |
          | Geometry, Frequencies, Noncovalent interactions |
          |            JCTC 2018 parametrisation            |
           ------------------------------------------------- 
 
      method parameters     
 k(s)        :  1.8500
 k(p)        :  2.2300
 k(d)        :  2.2300
 k(f)        :  2.0000
 kEN (H0ij)  : -2.0000
 D4 a1       :  0.5200
 D4 a2       :  5.0000
 D4 s6       :  1.0000
 D4 s8       :  2.7000
 D4 s9       :  5.0000
 alphaj      :  2.0000

 Solvent             : h2o
 Using internal parameter file: .param_gbsa2_h2o
 Gsolv ref. state (COSMO-RS): gsolv [1 M gas/solution]
 temperature (mdtemp)       :    298.150000000000     
 dielectric constant        :    80.2000000000000     
 rho                        :    1.00000000000000     
 mass                       :    18.0000000000000     
 surface tension            :    15.5689454083859     
 probe radius               :   0.975313790000000     
 vdW radii scaling          :    1.00000000000000     
 Gshift (Eh)                :   1.857443126794793E-003
 c1                         :    1.55243817000000     
 soset                      :   0.130326360000000     
 HB correction              :  T

            Z     q(EN)     CN     RAES       Cart. coordinates
     1  N   5.0   -0.24    3.23    1.96   138.81620   107.67039   394.89251
     2  C   4.0    0.01    4.26    4.12   136.39520   108.78329   395.62629
     3  C   4.0    0.14    3.32    3.06   134.30587   106.88336   394.74416
     4  O   6.0   -0.33    1.24    1.80   132.80538   105.99012   396.25868
     5  C   4.0   -0.05    4.21    4.02   136.24021   111.51991   394.73153
     6  C   4.0   -0.04    4.13    3.87   133.83202   112.90748   395.56146
     7  C   4.0    0.23    3.09    3.02   134.13914   115.86258   395.33656
     8  O   6.0   -0.31    1.16    1.80   134.61192   116.76870   393.22811
     9  O   6.0   -0.33    1.26    1.80   133.83270   117.14229   397.31524
    10  H   1.0    0.06    1.02    1.43   139.99536   108.68360   393.79239
    11  H   1.0    0.03    1.05    1.44   136.26426   108.79241   397.69746
    12  H   1.0    0.03    1.03    1.43   137.83988   112.50231   395.60071
    13  H   1.0    0.04    1.02    1.43   136.42764   111.65474   392.67980
    14  H   1.0    0.04    1.02    1.43   132.21651   112.37091   394.39678
    15  H   1.0    0.04    1.02    1.43   133.41314   112.46926   397.53125
    16  N   5.0   -0.15    3.38    2.01   134.47756   106.05772   392.33832
    17  C   4.0    0.03    4.22    4.03   132.82465   104.23068   391.02786
    18  C   4.0    0.08    3.18    3.03   131.68674   102.00886   392.59839
    19  O   6.0   -0.32    1.13    1.80   129.39648   101.59929   392.66561
    20  C   4.0   -0.05    4.27    4.14   134.32962   103.11121   388.74243
    21  C   4.0   -0.02    3.52    3.13   132.58071   101.81989   386.84465
    22  C   4.0   -0.05    3.44    3.09   131.75143    99.33703   387.20044
    23  C   4.0   -0.05    3.45    3.09   131.71148   103.17314   384.74498
    24  C   4.0   -0.06    3.37    3.07   130.06135    98.26303   385.51230
    25  C   4.0   -0.05    3.36    3.07   129.99671   102.11030   383.08527
    26  C   4.0   -0.05    3.37    3.07   129.16008    99.65889   383.47832
    27  H   1.0    0.06    1.07    1.44   135.70651   106.96058   391.18172
    28  H   1.0    0.05    1.05    1.44   131.16674   105.24114   390.29446
    29  H   1.0    0.03    1.03    1.43   135.29856   104.65752   387.78712
    30  H   1.0    0.02    1.03    1.43   135.69733   101.74444   389.44485
    31  H   1.0    0.03    1.03    1.43   132.39692    98.22263   388.78179
    32  H   1.0    0.04    1.03    1.43   132.37387   105.07844   384.43145
    33  H   1.0    0.03    1.03    1.43   129.52937    96.30903   385.75595
    34  H   1.0    0.05    1.03    1.43   129.32178   103.18777   381.48940
    35  H   1.0    0.05    1.03    1.43   127.80559    98.82920   382.19787
    36  N   5.0   -0.22    3.27    1.97   127.64021   105.01425   398.05158
    37  C   4.0    0.03    4.41    4.40   125.35461   106.24493   397.17768
    38  C   4.0    0.14    3.45    3.09   123.38296   104.15172   396.71947
    39  O   6.0   -0.33    1.28    1.80   121.20944   104.34198   397.52153
    40  C   4.0   -0.02    4.26    4.13   125.88659   107.99918   394.95790
    41  C   4.0   -0.07    4.17    3.94   123.41524   108.73775   393.75234
    42  C   4.0   -0.08    4.13    3.87   127.22674   110.36765   395.87587
    43  H   1.0    0.11    1.05    1.44   129.25397   105.26157   397.04986
    44  H   1.0    0.05    1.06    1.44   124.56128   107.38093   398.72863
    45  H   1.0    0.05    1.05    1.44   127.06298   106.97741   393.58902
    46  H   1.0    0.04    1.00    1.43   123.71301   110.00032   392.15745
    47  H   1.0    0.04    1.01    1.43   122.38582   107.08274   393.11437
    48  H   1.0    0.05    1.00    1.43   122.24078   109.71659   395.12745
    49  H   1.0    0.04    1.01    1.43   127.58335   111.65870   394.31968
    50  H   1.0    0.05    1.01    1.43   126.05004   111.34167   397.24144
    51  H   1.0    0.04    1.00    1.43   129.01599   109.91115   396.78332
    52  N   5.0   -0.15    3.43    2.03   124.24341   102.01730   395.64108
    53  C   4.0    0.03    4.44    4.44   122.49625    99.87993   395.38430
    54  C   4.0    0.07    3.28    3.05   121.38643    99.05791   397.93888
    55  O   6.0   -0.33    1.13    1.80   119.13493    98.54217   398.10173
    56  C   4.0   -0.03    4.33    4.25   123.53167    97.55454   393.99337
    57  C   4.0   -0.05    4.20    4.01   124.45982    98.31603   391.38190
    58  C   4.0   -0.09    4.17    3.94   121.43229    95.58608   393.92199
    59  C   4.0   -0.09    4.02    3.66   125.80804    96.19595   390.00125
    60  H   1.0    0.10    1.07    1.44   125.98330   101.88162   394.86550
    61  H   1.0    0.05    1.06    1.44   120.86604   100.58010   394.29460
    62  H   1.0    0.03    1.05    1.44   125.15373    96.81285   395.05031
    63  H   1.0    0.03    1.03    1.43   122.84368    98.92627   390.24593
    64  H   1.0    0.06    1.04    1.44   125.76176    99.90057   391.52066
    65  H   1.0    0.01    1.00    1.43   122.04765    93.97894   392.80332
    66  H   1.0    0.03    1.01    1.43   120.98691    94.93715   395.81269
    67  H   1.0    0.04    1.00    1.43   119.74628    96.38479   393.06781
    68  H   1.0    0.04    1.01    1.43   126.48669    96.89887   388.19884
    69  H   1.0    0.02    1.00    1.43   127.42991    95.50436   391.05705
    70  H   1.0    0.02    1.00    1.43   124.55195    94.61075   389.64304
    71  N   5.0   -0.22    3.24    1.97   116.52880   104.18760   400.59192
    72  C   4.0    0.02    4.31    4.22   114.15702   104.42521   399.18636
    73  C   4.0    0.06    3.21    3.04   112.49582   102.10636   399.76567
    74  O   6.0   -0.36    1.10    1.80   110.19575   102.14247   400.14456
    75  C   4.0   -0.02    4.40    4.38   114.83993   104.78255   396.43150
    76  C   4.0   -0.05    4.24    4.07   115.72482   107.49787   396.18344
    77  C   4.0   -0.09    4.13    3.86   112.71757   104.08871   394.59327
    78  C   4.0   -0.08    4.08    3.76   116.63169   107.77190   393.46268
    79  H   1.0    0.11    1.05    1.44   118.18189   104.21613   399.62384
    80  H   1.0    0.03    1.05    1.44   113.11515   106.07567   399.89459
    81  H   1.0    0.05    1.07    1.44   116.45291   103.54335   396.04314
    82  H   1.0    0.02    1.02    1.43   114.20126   108.82797   396.57382
    83  H   1.0    0.05    1.03    1.43   117.28571   107.85231   397.47685
    84  H   1.0    0.03    1.00    1.43   113.41694   104.02907   392.67197
    85  H   1.0    0.04    1.01    1.43   111.94400   102.24718   395.06313
    86  H   1.0    0.03    1.00    1.43   111.19426   105.46191   394.70432
    87  H   1.0    0.03    1.00    1.43   117.68688   109.52331   393.22259
    88  H   1.0    0.04    1.00    1.43   117.87892   106.21905   392.96952
    89  H   1.0    0.03    1.00    1.43   115.04839   107.81740   392.16345
    90  N   5.0   -0.24    3.26    1.97   114.47668    94.62552   385.30253
    91  C   4.0    0.02    4.44    4.45   115.26770    97.11722   386.17725
    92  C   4.0    0.14    3.48    3.11   117.79104    97.65534   384.96300
    93  O   6.0   -0.34    1.35    1.80   118.19200    99.64202   383.85175
    94  C   4.0   -0.03    4.34    4.27   115.38374    97.29493   389.07504
    95  C   4.0   -0.07    4.21    4.03   112.66866    97.09332   390.05288
    96  C   4.0   -0.08    4.14    3.88   116.62893    99.75272   389.87676
    97  C   4.0   -0.10    4.02    3.66   112.51373    96.87410   392.89606
    98  H   1.0    0.05    1.02    1.43   114.32361    93.25088   386.63193
    99  H   1.0    0.03    1.05    1.44   113.92844    98.53008   385.45886
   100  H   1.0    0.03    1.05    1.44   116.50433    95.70024   389.76708
   101  H   1.0    0.02    1.03    1.43   111.61456    98.75591   389.43135
   102  H   1.0    0.01    1.04    1.43   111.78994    95.43686   389.20391
   103  H   1.0    0.04    1.00    1.43   116.70999    99.88771   391.92335
   104  H   1.0    0.04    1.00    1.43   118.54835    99.89771   389.15105
   105  H   1.0    0.03    1.00    1.43   115.56906   101.36501   389.16805
   106  H   1.0    0.01    1.00    1.43   110.54570    96.75804   393.47660
   107  H   1.0    0.02    1.00    1.43   113.47818    95.17175   393.52459
   108  H   1.0    0.04    1.00    1.43   113.36639    98.48385   393.83622
   109  N   5.0   -0.16    3.39    2.02   119.48438    95.80523   385.14191
   110  C   4.0   -0.00    4.16    3.91   121.97596    96.03296   384.02965
   111  C   4.0    0.07    3.15    3.03   121.85128    96.41283   381.18125
   112  O   6.0   -0.34    1.24    1.80   123.20692    97.97976   380.12188
   113  H   1.0    0.05    1.06    1.44   119.09261    94.24251   386.18549
   114  H   1.0    0.05    1.02    1.43   122.99345    97.64230   384.84214
   115  H   1.0    0.01    1.03    1.43   123.01904    94.30083   384.42372
   116  N   5.0   -0.21    3.21    1.96   117.16984    98.83783   377.90520
   117  C   4.0    0.02    4.33    4.25   116.25927   101.43577   377.66292
   118  C   4.0    0.15    3.46    3.10   118.49650   103.27239   378.10229
   119  O   6.0   -0.33    1.27    1.80   119.22086   104.74523   376.43660
   120  C   4.0   -0.06    4.35    4.29   114.05794   101.97697   379.41052
   121  C   4.0   -0.05    4.12    3.84   113.27483   104.71588   379.11479
   122  S   6.0   -0.11    2.48    3.10   111.24886   105.73570   381.70275
   123  C   4.0   -0.08    3.90    3.47   113.74488   106.04023   384.01304
   124  H   1.0    0.07    1.02    1.43   116.27394    97.73932   379.19840
   125  H   1.0    0.03    1.05    1.44   115.67473   101.73344   375.68768
   126  H   1.0    0.02    1.03    1.43   112.47497   100.73602   378.96332
   127  H   1.0    0.05    1.04    1.43   114.63915   101.60114   381.35229
   128  H   1.0    0.04    1.08    1.44   114.90556   105.96934   379.08503
   129  H   1.0    0.02    1.07    1.44   112.19239   104.99375   377.38412
   130  H   1.0    0.03    1.05    1.44   112.87890   106.76916   385.72575
   131  H   1.0    0.04    1.04    1.43   114.58278   104.20539   384.39030
   132  H   1.0    0.03    1.04    1.43   115.16098   107.35992   383.33529
   133  N   5.0   -0.15    3.51    2.08   119.61201   103.00580   380.35415
   134  C   4.0    0.04    4.48    4.51   121.75787   104.54420   381.04456
   135  C   4.0    0.16    3.49    3.11   123.79794   104.49599   379.02177
   136  O   6.0   -0.32    1.24    1.80   124.95640   106.46463   378.58475
   137  C   4.0   -0.04    4.41    4.39   122.89844   103.82574   383.56599
   138  C   4.0   -0.03    4.21    4.02   121.81616   105.39673   385.69068
   139  C   4.0   -0.08    4.13    3.86   123.04643   104.51023   388.13815
   140  C   4.0   -0.08    4.14    3.88   122.30564   108.19113   385.25670
   141  H   1.0    0.12    1.15    1.45   119.00154   101.65591   381.58114
   142  H   1.0    0.05    1.08    1.44   121.15782   106.52947   381.08792
   143  H   1.0    0.06    1.03    1.43   122.55076   101.82329   383.89826
   144  H   1.0    0.05    1.04    1.43   124.94292   104.12413   383.51134
   145  H   1.0    0.04    1.05    1.44   119.77471   105.08026   385.81511
   146  H   1.0    0.03    1.00    1.43   122.10942   105.34238   389.76167
   147  H   1.0    0.04    1.00    1.43   122.93329   102.46944   388.29360
   148  H   1.0    0.04    1.00    1.43   125.02470   105.06415   388.19253
   149  H   1.0    0.04    1.00    1.43   122.11875   109.25063   387.01477
   150  H   1.0    0.04    1.00    1.43   124.19548   108.54257   384.52710
   151  H   1.0    0.03    1.00    1.43   120.96715   109.01833   383.93716
   152  N   5.0   -0.14    3.51    2.09   124.22287   102.28505   377.87448
   153  C   4.0    0.04    4.39    4.36   126.39751   101.95701   376.25400
   154  C   4.0    0.16    3.38    3.07   125.97278   103.22152   373.63238
   155  O   6.0   -0.32    1.25    1.80   127.53559   104.76290   372.81255
   156  C   4.0    0.02    4.13    3.86   127.15105    99.16295   376.16106
   157  O   6.0   -0.28    2.04    1.83   129.62192    98.97292   375.15388
   158  H   1.0    0.12    1.15    1.45   123.34141   100.70694   378.51368
   159  H   1.0    0.06    1.06    1.44   127.99277   103.01364   377.07265
   160  H   1.0    0.04    1.02    1.43   127.06110    98.43142   378.08616
   161  H   1.0    0.03    1.01    1.43   125.79720    98.12608   374.97737
   162  H   1.0    0.09    1.02    1.43   130.40902    97.45350   375.78791
   163  N   5.0   -0.15    3.46    2.05   123.80895   102.45578   372.50094
   164  C   4.0    0.03    4.39    4.36   122.72073   103.63293   370.31288
   165  C   4.0    0.15    3.50    3.11   122.75564   106.54520   370.57360
   166  O   6.0   -0.32    1.28    1.80   123.49444   107.87914   368.82995
   167  C   4.0   -0.06    4.33    4.26   120.06737   102.64986   369.87333
   168  C   4.0   -0.03    4.22    4.05   118.62449   104.37585   367.99957
   169  C   4.0   -0.09    4.10    3.81   119.68179   104.35744   365.31915
   170  C   4.0   -0.10    4.11    3.83   115.84325   103.65148   367.90931
   171  H   1.0    0.08    1.08    1.44   122.64074   101.32386   373.52402
   172  H   1.0    0.04    1.05    1.44   123.92150   103.25603   368.66064
   173  H   1.0    0.02    1.02    1.43   120.11963   100.71255   369.17893
   174  H   1.0    0.04    1.03    1.43   119.07245   102.67359   371.67979
   175  H   1.0    0.04    1.07    1.44   118.74758   106.31205   368.72294
   176  H   1.0    0.03    1.00    1.43   118.67618   105.70079   364.13919
   177  H   1.0    0.04    1.00    1.43   121.65406   104.91911   365.29261
   178  H   1.0    0.02    1.00    1.43   119.51556   102.47267   364.51917
   179  H   1.0    0.01    1.00    1.43   114.83825   104.94679   366.67890
   180  H   1.0    0.01    1.00    1.43   115.60100   101.74225   367.21022
   181  H   1.0    0.02    1.00    1.43   115.02536   103.82848   369.77502
   182  N   5.0   -0.14    3.47    2.06   122.06401   107.61615   372.76620
   183  C   4.0    0.04    4.40    4.38   122.20064   110.35195   373.03339
   184  C   4.0    0.15    3.43    3.09   124.94555   111.34441   373.12357
   185  O   6.0   -0.30    1.25    1.80   125.37886   113.42059   372.17638
   186  C   4.0   -0.05    4.33    4.26   120.60284   111.16658   375.28515
   187  C   4.0   -0.02    4.17    3.93   117.73554   110.67850   375.15254
   188  C   4.0   -0.08    4.14    3.87   116.68893   110.93403   377.82384
   189  C   4.0   -0.09    4.10    3.81   116.30385   112.53511   373.49066
   190  H   1.0    0.11    1.09    1.44   121.32171   106.60345   374.21524
   191  H   1.0    0.05    1.06    1.44   121.43710   111.19596   371.29111
   192  H   1.0    0.05    1.03    1.43   121.35430   110.18565   376.94326
   193  H   1.0    0.04    1.03    1.43   120.90721   113.19035   375.57513
   194  H   1.0    0.05    1.05    1.44   117.41541   108.75042   374.47972
   195  H   1.0    0.03    1.00    1.43   114.66049   110.60790   377.84678
   196  H   1.0    0.04    1.00    1.43   117.58563   109.58357   379.09091
   197  H   1.0    0.03    1.00    1.43   117.04154   112.82484   378.54678
   198  H   1.0    0.02    1.00    1.43   114.30218   112.09501   373.48624
   199  H   1.0    0.03    1.00    1.43   116.56392   114.44962   374.19317
   200  H   1.0    0.03    1.00    1.43   116.97447   112.47695   371.54376
   201  N   5.0   -0.13    3.51    2.08   126.73944   109.89161   374.16997
   202  C   4.0    0.04    4.45    4.46   129.33528   110.79970   374.24134
   203  C   4.0    0.16    3.51    3.12   130.10390   111.13153   371.50177
   204  O   6.0   -0.29    1.22    1.80   131.04684   113.09325   370.72813
   205  C   4.0   -0.05    4.28    4.16   131.21022   108.91728   375.36370
   206  C   4.0   -0.04    4.18    3.97   131.25084   108.64704   378.26836
   207  C   4.0    0.15    3.21    3.04   132.23534   110.87352   379.76570
   208  O   6.0   -0.29    1.20    1.80   130.96409   111.96500   381.34647
   209  N   5.0   -0.19    3.18    1.95   134.70113   111.44107   379.44537
   210  H   1.0    0.11    1.07    1.44   126.22091   108.49546   375.38839
   211  H   1.0    0.07    1.04    1.43   129.44081   112.64815   375.19012
   212  H   1.0    0.06    1.04    1.43   130.73340   107.06005   374.60010
   213  H   1.0    0.04    1.03    1.43   133.08060   109.45232   374.67866
   214  H   1.0    0.06    1.03    1.43   129.33125   108.27739   378.93064
   215  H   1.0    0.03    1.03    1.43   132.45303   107.03451   378.72642
   216  H   1.0    0.07    1.03    1.43   135.51329   110.92346   377.79805
   217  H   1.0    0.11    1.04    1.43   135.23331   113.17820   380.05155
   218  N   5.0   -0.14    3.45    2.05   129.72158   109.00925   370.17638
   219  C   4.0    0.03    4.36    4.31   130.55154   108.53796   367.52064
   220  C   4.0    0.15    3.43    3.09   129.81547   110.60328   365.64204
   221  O   6.0   -0.32    1.20    1.80   131.36552   111.50483   364.18720
   222  C   4.0   -0.05    4.24    4.08   129.62019   106.08228   366.17586
   223  C   4.0   -0.06    4.19    3.98   131.19755   103.82817   367.01139
   224  C   4.0   -0.07    4.09    3.78   130.47271   101.15791   366.08396
   225  C   4.0   -0.05    4.12    3.84   131.79392    99.30012   367.95201
   226  N   5.0   -0.15    3.98    2.80   132.18550    96.66326   367.00004
   227  H   1.0    0.11    1.11    1.45   128.75131   107.57105   371.00719
   228  H   1.0    0.04    1.05    1.44   132.62653   108.53830   367.54156
   229  H   1.0    0.05    1.02    1.43   127.62550   105.82052   366.63474
   230  H   1.0    0.04    1.04    1.43   129.76989   106.41142   364.14698
   231  H   1.0    0.02    1.03    1.43   133.15512   104.20406   366.47974
   232  H   1.0    0.05    1.04    1.43   131.09913   103.81636   369.07692
   233  H   1.0    0.03    1.02    1.43   128.43204   100.92565   366.13282
   234  H   1.0    0.01    1.02    1.43   131.14310   100.89136   364.15863
   235  H   1.0    0.02    1.03    1.43   133.65680   100.07906   368.37149
   236  H   1.0    0.04    1.02    1.43   130.72330    99.23951   369.71198
   237  H   1.0    0.02    1.02    1.43   133.14241    95.62817   368.34367
   238  H   1.0    0.02    1.02    1.43   130.49350    95.80005   366.57068
   239  H   1.0    0.01    1.02    1.43   133.27840    96.73410   365.38590
   240  N   5.0   -0.14    3.50    2.07   127.33851   111.11664   365.67298
   241  C   4.0    0.04    4.37    4.33   126.00952   113.00557   364.21689
   242  C   4.0    0.15    3.39    3.08   126.83767   115.75078   364.67881
   243  O   6.0   -0.32    1.22    1.80   126.02562   117.38265   363.24638
   244  C   4.0   -0.04    4.33    4.25   123.18453   112.94073   364.92277
   245  C   4.0   -0.03    4.19    3.97   121.86756   110.51758   364.10654
   246  C   4.0    0.23    3.12    3.03   121.66581   110.51364   361.17627
   247  O   6.0   -0.34    1.17    1.80   120.50367   112.32832   360.18868
   248  O   6.0   -0.34    1.16    1.80   122.67838   108.67792   360.08074
   249  H   1.0    0.10    1.10    1.44   126.25374   110.21517   366.97249
   250  H   1.0    0.05    1.05    1.44   126.22536   112.63991   362.18701
   251  H   1.0    0.05    1.02    1.43   123.05800   113.19196   366.97535
   252  H   1.0    0.05    1.04    1.43   122.25626   114.53341   363.99726
   253  H   1.0    0.06    1.04    1.43   122.89647   108.85757   364.72391
   254  H   1.0    0.03    1.02    1.43   119.96090   110.49343   364.89443
   255  N   5.0   -0.14    3.38    2.01   128.23002   116.24783   366.78218
   256  C   4.0    0.02    4.22    4.04   129.22274   118.74855   367.31893
   257  C   4.0    0.15    3.30    3.05   127.46311   120.43573   368.91415
   258  O   6.0   -0.30    1.20    1.80   127.84766   122.71444   369.21250
   259  H   1.0    0.11    1.08    1.44   128.93549   114.80409   367.82145
   260  H   1.0    0.05    1.02    1.43   131.01778   118.53398   368.31045
   261  H   1.0    0.05    1.03    1.43   129.53967   119.74184   365.53378
   262  N   5.0   -0.14    3.47    2.06   125.50844   119.17141   369.96129
   263  C   4.0    0.04    4.51    4.55   123.64631   120.49796   371.44375
   264  C   4.0    0.15    3.48    3.11   124.59111   121.06647   374.05567
   265  O   6.0   -0.29    1.22    1.80   124.66995   123.28857   374.66971
   266  C   4.0   -0.05    4.46    4.48   121.16832   119.16643   371.78209
   267  C   4.0   -0.03    4.24    4.08   119.34342   120.06019   369.79297
   268  C   4.0   -0.08    4.13    3.85   119.72190   118.50488   367.39670
   269  C   4.0   -0.09    4.13    3.86   116.68417   119.80423   370.77709
   270  H   1.0    0.10    1.08    1.44   125.48975   117.26222   369.87747
   271  H   1.0    0.06    1.08    1.44   123.41757   122.34315   370.53158
   272  H   1.0    0.04    1.03    1.43   121.43966   117.12337   371.68946
   273  H   1.0    0.04    1.05    1.44   120.44773   119.63398   373.66031
   274  H   1.0    0.03    1.06    1.44   119.70334   122.04627   369.35017
   275  H   1.0    0.02    1.00    1.43   118.44555   119.13482   365.91308
   276  H   1.0    0.05    1.00    1.43   121.64461   118.69162   366.68951
   277  H   1.0    0.03    1.00    1.43   119.35061   116.51685   367.75424
   278  H   1.0    0.02    1.00    1.43   115.33018   120.60142   369.45220
   279  H   1.0    0.03    1.00    1.43   116.22927   117.82301   371.07555
   280  H   1.0    0.03    1.00    1.43   116.48543   120.80466   372.56527
   281  N   5.0   -0.14    3.43    2.04   125.08633   119.05435   375.58011
   282  C   4.0    0.04    4.38    4.34   126.11143   119.40884   378.11479
   283  C   4.0    0.15    3.51    3.12   129.01088   119.47804   378.15780
   284  O   6.0   -0.28    1.32    1.80   130.06299   117.66008   377.16812
   285  C   4.0   -0.03    4.50    4.53   125.67930   117.04766   379.71565
   286  C   4.0   -0.03    4.18    3.96   122.99938   116.34770   380.40918
   287  C   4.0   -0.08    4.13    3.87   123.16041   113.96049   381.99952
   288  C   4.0   -0.07    4.12    3.83   121.70921   118.46702   381.83992
   289  H   1.0    0.10    1.06    1.44   125.44287   117.35728   374.77201
   290  H   1.0    0.05    1.05    1.44   125.30249   121.12920   378.92774
   291  H   1.0    0.07    1.04    1.44   126.57489   115.48378   378.70561
   292  H   1.0    0.06    1.04    1.43   126.75509   117.31741   381.47075
   293  H   1.0    0.04    1.05    1.44   121.92994   115.98132   378.67525
   294  H   1.0    0.03    1.00    1.43   121.27815   113.24554   382.39574
   295  H   1.0    0.05    1.00    1.43   124.25071   112.51661   381.02859
   296  H   1.0    0.05    1.00    1.43   124.07519   114.38609   383.79222
   297  H   1.0    0.04    1.00    1.43   119.80546   117.94228   382.40576
   298  H   1.0    0.05    1.00    1.43   122.76391   118.96507   383.54408
   299  H   1.0    0.04    1.00    1.43   121.57210   120.18150   380.70831
   300  N   5.0   -0.14    3.40    2.02   130.37444   121.35188   379.28241
   301  C   4.0    0.04    4.52    4.56   133.11023   120.94789   379.20702
   302  C   4.0    0.16    3.36    3.07   134.10721   118.96100   381.08901
   303  O   6.0   -0.30    1.19    1.80   135.82264   117.49490   380.60472
   304  C   4.0   -0.04    4.34    4.27   134.55183   123.40677   379.48568
   305  C   4.0   -0.04    4.13    3.85   134.97854   124.42618   376.87896
   306  S   6.0   -0.04    2.50    3.10   135.78327   127.73072   376.74049
   307  C   4.0   -0.07    3.89    3.44   134.92319   128.05033   373.32920
   308  H   1.0    0.09    1.05    1.44   129.60990   122.66588   380.43300
   309  H   1.0    0.07    1.08    1.44   133.49254   120.13400   377.33245
   310  H   1.0    0.06    1.03    1.43   133.44743   124.70784   380.66104
   311  H   1.0    0.05    1.03    1.43   136.34126   123.09039   380.47578
   312  H   1.0    0.04    1.07    1.44   136.47113   123.35855   375.93142
   313  H   1.0    0.05    1.09    1.44   133.21489   124.26395   375.81219
   314  H   1.0    0.04    1.04    1.43   135.57526   129.90634   372.77101
   315  H   1.0    0.03    1.03    1.43   135.86821   126.56174   372.29277
   316  H   1.0    0.06    1.03    1.43   132.88099   127.92700   373.19279
   317  N   5.0   -0.12    3.57    2.13   132.88123   119.06267   383.31006
   318  C   4.0    0.03    4.28    4.16   133.56885   118.03001   385.74421
   319  C   4.0    0.15    3.57    3.15   131.05885   116.86347   386.60367
   320  O   6.0   -0.30    1.37    1.80   129.02282   117.99311   386.30806
   321  C   4.0    0.04    4.05    3.71   134.70501   120.22156   387.44697
   322  O   6.0   -0.25    2.02    1.83   135.15579   122.62607   386.26515
   323  H   1.0    0.10    1.10    1.44   131.55549   120.43510   383.48206
   324  H   1.0    0.05    1.05    1.44   135.00962   116.58731   385.42415
   325  H   1.0    0.06    1.00    1.43   133.42469   120.50313   389.06293
   326  H   1.0    0.04    1.01    1.43   136.52738   119.61722   388.20056
   327  H   1.0    0.15    1.03    1.43   133.55426   123.47993   386.02211
   328  N   5.0   -0.10    3.69    2.25   130.95599   114.50777   387.38089
   329  C   4.0    0.04    4.63    4.70   128.46858   113.50140   387.86284
   330  C   4.0    0.15    3.45    3.09   127.01132   114.90570   389.91843
   331  O   6.0   -0.32    1.26    1.80   124.70588   115.10604   389.64189
   332  C   4.0   -0.05    4.29    4.18   128.80802   110.69263   388.43954
   333  C   4.0   -0.05    4.24    4.09   131.62309   110.19154   388.07044
   334  C   4.0   -0.01    4.33    4.25   132.95411   112.77278   387.89841
   335  H   1.0    0.06    1.07    1.44   127.32432   113.80659   386.16124
   336  H   1.0    0.04    1.03    1.43   128.22304   110.32504   390.37755
   337  H   1.0    0.04    1.02    1.43   127.64565   109.56667   387.17742
   338  H   1.0    0.04    1.03    1.43   132.39237   109.12623   389.64521
   339  H   1.0    0.04    1.03    1.43   131.92523   109.17369   386.30870
   340  H   1.0    0.04    1.02    1.43   133.88817   113.33066   389.66412
   341  H   1.0    0.04    1.02    1.43   134.33852   112.81090   386.36972
   342  N   5.0   -0.15    3.33    1.99   128.17729   115.77287   392.14378
   343  C   4.0    0.04    4.34    4.27   126.81403   117.60222   393.69067
   344  C   4.0    0.17    3.55    3.14   125.22677   119.67220   392.40133
   345  O   6.0   -0.31    1.32    1.80   123.36613   120.54793   393.48446
   346  C   4.0    0.04    4.18    3.96   128.63621   119.25505   395.27603
   347  O   6.0   -0.23    2.06    1.83   129.86725   121.21943   393.92184
   348  H   1.0    0.09    1.07    1.44   130.01091   116.29501   391.90449
   349  H   1.0    0.05    1.05    1.44   125.51277   116.58849   394.94896
   350  H   1.0    0.05    1.01    1.43   127.53310   120.04623   396.84296
   351  H   1.0    0.07    1.04    1.43   130.18164   118.09297   396.01318
   352  H   1.0    0.16    1.05    1.44   128.93244   122.79817   393.92390
   353  N   5.0   -0.13    3.56    2.12   125.92946   120.55693   390.15911
   354  C   4.0    0.06    4.48    4.51   124.65627   122.67325   389.05629
   355  C   4.0    0.15    3.47    3.10   121.87473   122.13502   388.51293
   356  O   6.0   -0.29    1.21    1.80   120.45946   123.90241   387.91284
   357  C   4.0   -0.02    4.30    4.19   125.82883   123.25678   386.48002
   358  C   4.0    0.25    3.09    3.02   128.57351   124.36821   386.74740
   359  O   6.0   -0.27    1.20    1.80   129.14364   125.01809   388.93592
   360  O   6.0   -0.31    1.16    1.80   129.96218   124.43502   384.76884
   361  H   1.0    0.11    1.09    1.44   127.54534   120.02988   389.29134
   362  H   1.0    0.09    1.04    1.44   124.80300   124.37017   390.26594
   363  H   1.0    0.06    1.02    1.43   125.87354   121.54415   385.32388
   364  H   1.0    0.07    1.03    1.43   124.71766   124.71928   385.52625
   365  N   5.0   -0.14    3.57    2.13   121.25708   119.68006   388.49806
   366  C   4.0    0.03    4.42    4.41   118.72550   118.72908   388.04219
   367  C   4.0    0.16    3.49    3.11   117.04040   119.46505   390.20991
   368  O   6.0   -0.31    1.30    1.80   114.76455   119.22464   390.06248
   369  C   4.0   -0.04    4.44    4.45   118.76826   115.88123   387.74609
   370  C   4.0   -0.02    4.26    4.13   116.25652   114.70114   387.18582
   371  C   4.0   -0.08    4.26    4.11   116.71043   112.31002   385.75675
   372  C   4.0   -0.07    4.26    4.11   115.00968   113.73001   389.48459
   373  H   1.0    0.11    1.12    1.45   122.57985   118.38165   388.98062
   374  H   1.0    0.06    1.05    1.44   117.96956   119.67084   386.34943
   375  H   1.0    0.04    1.04    1.43   120.10004   115.48110   386.21710
   376  H   1.0    0.05    1.04    1.43   119.58410   115.09130   389.47222
   377  H   1.0    0.04    1.05    1.44   115.05088   116.01865   386.14639
   378  H   1.0    0.03    1.01    1.43   114.92219   111.35974   385.40298
   379  H   1.0    0.03    1.00    1.43   117.56695   112.67276   383.90920
   380  H   1.0    0.03    1.01    1.43   117.94739   111.07029   386.81791
   381  H   1.0    0.03    1.01    1.43   113.25275   112.77123   389.00964
   382  H   1.0    0.03    1.01    1.43   116.24254   112.38248   390.42880
   383  H   1.0    0.05    1.01    1.43   114.54295   115.20388   390.84292
   384  N   5.0   -0.14    3.55    2.12   118.09302   120.18423   392.38955
   385  C   4.0    0.04    4.45    4.47   116.52377   120.84964   394.53621
   386  C   4.0    0.16    3.44    3.09   115.48986   123.51886   394.32659
   387  O   6.0   -0.33    1.22    1.80   113.48605   124.07489   395.29666
   388  C   4.0   -0.03    4.35    4.29   118.05018   120.85207   397.00424
   389  C   4.0   -0.01    3.52    3.12   119.12264   118.32799   397.79148
   390  C   4.0   -0.05    3.45    3.10   117.85248   116.02567   397.58890
   391  C   4.0   -0.03    3.49    3.11   121.53086   118.30095   398.79852
   392  C   4.0   -0.05    3.42    3.08   118.97489   113.77484   398.33537
   393  C   4.0   -0.05    3.44    3.09   122.69283   116.08832   399.55084
   394  C   4.0    0.06    3.44    3.09   121.43837   113.80194   399.30679
   395  O   6.0   -0.27    2.12    1.84   122.58989   111.63560   399.97695
   396  H   1.0    0.11    1.12    1.45   119.97376   120.46204   392.56229
   397  H   1.0    0.05    1.05    1.44   114.92714   119.53677   394.62482
   398  H   1.0    0.06    1.03    1.43   119.59038   122.21997   396.79317
   399  H   1.0    0.04    1.03    1.43   116.79564   121.56533   398.49342
   400  H   1.0    0.04    1.03    1.43   115.96233   115.98784   396.82594
   401  H   1.0    0.06    1.03    1.43   122.54332   120.07661   398.96921
   402  H   1.0    0.04    1.03    1.43   117.99573   112.00498   398.10805
   403  H   1.0    0.04    1.03    1.43   124.58324   116.15100   400.31396
   404  H   1.0    0.10    1.03    1.43   124.03258   111.96412   401.09767
   405  N   5.0   -0.11    3.54    2.10   117.00610   125.15025   393.11213
   406  C   4.0    0.04    4.28    4.15   116.60482   127.88477   393.02079
   407  C   4.0    0.07    3.25    3.04   114.43147   128.26335   391.20181
   408  O   6.0   -0.30    1.20    1.80   114.51472   127.02988   389.22001
   409  C   4.0    0.03    4.11    3.82   119.00975   129.22189   392.04965
   410  O   6.0   -0.24    2.03    1.83   121.08334   128.59292   393.68254
   411  H   1.0    0.11    1.08    1.44   118.61228   124.54673   392.29000
   412  H   1.0    0.03    1.04    1.43   116.20921   128.54677   394.94932
   413  H   1.0    0.07    1.00    1.43   119.41773   128.60212   390.10612
   414  H   1.0    0.02    1.00    1.43   118.71153   131.27772   392.03915
   415  H   1.0    0.15    1.01    1.43   122.70015   129.12562   393.01311
   416  N   5.0   -0.23    3.25    1.97   113.86830   129.11582   383.52831
   417  C   4.0    0.03    4.21    4.02   114.29957   127.25729   381.61196
   418  C   4.0    0.07    3.19    3.03   111.91314   125.77774   380.97123
   419  O   6.0   -0.33    1.12    1.80   111.80130   124.37889   379.13519
   420  C   4.0    0.04    4.17    3.95   116.48456   125.63750   382.58905
   421  O   6.0   -0.24    2.08    1.84   115.74189   124.29411   384.72027
   422  H   1.0    0.10    1.04    1.43   114.50752   128.74422   385.29072
   423  H   1.0    0.03    1.05    1.44   114.89957   128.20817   379.86469
   424  H   1.0    0.05    1.01    1.43   117.01289   124.24521   381.14960
   425  H   1.0    0.05    1.01    1.43   118.13110   126.84734   382.95944
   426  H   1.0    0.16    1.04    1.44   115.89182   125.27205   386.25763
   427  O   6.0   -0.19    0.84    1.80   127.77990   126.01376   394.48127
   428  O   6.0   -0.19    0.79    1.80   126.92491   128.69105   394.48127
   429  N   5.0   -0.24    3.20    1.96   129.19638   135.53340   369.96129
   430  C   4.0    0.03    4.32    4.23   131.05851   134.20686   371.44375
   431  C   4.0    0.07    3.28    3.05   130.11370   133.63835   374.05567
   432  O   6.0   -0.30    1.14    1.80   130.03487   131.41624   374.66971
   433  C   4.0   -0.06    4.44    4.44   133.53650   135.53839   371.78209
   434  C   4.0   -0.03    4.24    4.08   135.36139   134.64463   369.79297
   435  C   4.0   -0.10    4.13    3.85   134.98292   136.19993   367.39670
   436  C   4.0   -0.09    4.13    3.86   138.02065   134.90059   370.77709
   437  H   1.0    0.05    1.02    1.43   129.21507   137.44260   369.87747
   438  H   1.0    0.04    1.07    1.44   131.28725   132.36167   370.53158
   439  H   1.0    0.02    1.03    1.43   133.26515   137.58145   371.68946
   440  H   1.0    0.03    1.05    1.44   134.25709   135.07084   373.66031
   441  H   1.0    0.03    1.06    1.44   135.00147   132.65854   369.35017
   442  H   1.0    0.01    1.00    1.43   136.25927   135.56999   365.91308
   443  H   1.0    0.02    1.00    1.43   133.06021   136.01320   366.68951
   444  H   1.0    0.01    1.00    1.43   135.35420   138.18797   367.75424
   445  H   1.0    0.04    1.00    1.43   139.37463   134.10340   369.45220
   446  H   1.0    0.02    1.00    1.43   138.47555   136.88181   371.07555
   447  H   1.0    0.04    1.00    1.43   138.21939   133.90016   372.56527
   448  N   5.0   -0.23    3.22    1.96   128.77535   134.14789   390.15911
   449  C   4.0    0.05    4.25    4.11   130.04854   132.03157   389.05629
   450  C   4.0    0.06    3.23    3.04   132.83009   132.56980   388.51293
   451  O   6.0   -0.28    1.12    1.80   134.24535   130.80240   387.91284
   452  C   4.0   -0.02    4.29    4.18   128.87598   131.44804   386.48002
   453  C   4.0    0.24    3.09    3.02   126.13131   130.33661   386.74740
   454  O   6.0   -0.28    1.20    1.80   125.56118   129.68672   388.93592
   455  O   6.0   -0.30    1.13    1.80   124.74264   130.26980   384.76884
   456  H   1.0    0.08    1.04    1.43   127.15947   134.67493   389.29134
   457  H   1.0    0.08    1.04    1.43   129.90181   130.33465   390.26594
   458  H   1.0    0.04    1.02    1.43   128.83128   133.16067   385.32388
   459  H   1.0    0.07    1.03    1.43   129.98716   129.98554   385.52625
   460  N   5.0   -0.20    3.26    1.97   137.69871   129.55456   393.11213
   461  C   4.0    0.03    4.20    4.00   138.10000   126.82004   393.02079
   462  C   4.0    0.06    3.23    3.04   140.27335   126.44147   391.20181
   463  O   6.0   -0.31    1.20    1.80   140.19010   127.67493   389.22001
   464  C   4.0    0.05    4.11    3.82   135.69506   125.48292   392.04965
   465  O   6.0   -0.24    2.03    1.83   133.62148   126.11190   393.68254
   466  H   1.0    0.10    1.03    1.43   136.09254   130.15809   392.29000
   467  H   1.0    0.02    1.04    1.43   138.49561   126.15805   394.94932
   468  H   1.0    0.07    1.00    1.43   135.28709   126.10270   390.10612
   469  H   1.0    0.05    1.00    1.43   135.99329   123.42709   392.03915
   470  H   1.0    0.16    1.01    1.43   132.00466   125.57919   393.01311
   471  N   5.0   -0.22    3.09    1.94   142.33894   122.01140   387.54250
   472  C   4.0    0.00    4.09    3.79   141.29368   121.28129   385.11847
   473  C   4.0    0.14    3.26    3.05   141.59513   123.25752   382.87660
   474  O   6.0   -0.32    1.20    1.80   142.25212   122.72763   380.70410
   475  H   1.0    0.08    1.03    1.43   141.12330   121.96362   389.01156
   476  H   1.0    0.03    1.02    1.43   142.17124   119.52297   384.46191
   477  H   1.0    0.05    1.03    1.43   139.25847   120.99534   385.26303
   478  N   5.0   -0.14    3.49    2.07   140.83652   125.58900   383.52831
   479  C   4.0    0.04    4.34    4.27   140.40524   127.44752   381.61196
   480  C   4.0    0.08    3.20    3.04   142.79167   128.92708   380.97123
   481  O   6.0   -0.33    1.17    1.80   142.90351   130.32593   379.13519
   482  C   4.0    0.04    4.19    3.99   138.22025   129.06732   382.58905
   483  O   6.0   -0.25    2.08    1.84   138.96293   130.41071   384.72027
   484  H   1.0    0.10    1.08    1.44   140.19730   125.96059   385.29072
   485  H   1.0    0.05    1.08    1.44   139.80525   126.49665   379.86469
   486  H   1.0    0.05    1.02    1.43   137.69193   130.45961   381.14960
   487  H   1.0    0.05    1.01    1.43   136.57372   127.85747   382.95944
   488  H   1.0    0.16    1.04    1.44   138.81300   129.43277   386.25763
   489  N   5.0   -0.18    3.44    2.04   146.37363   127.12516   373.74179
   490  C   4.0    0.02    4.56    4.62   144.49505   128.33446   372.16721
   491  C   4.0    0.13    3.44    3.09   144.60879   131.17293   371.93247
   492  O   6.0   -0.33    1.26    1.80   144.59760   132.26262   369.88005
   493  C   4.0   -0.04    4.44    4.44   142.03828   127.54384   373.43234
   494  C   4.0   -0.05    4.29    4.19   142.54334   124.79409   373.94296
   495  C   4.0   -0.02    4.49    4.52   145.28011   124.85557   374.82433
   496  H   1.0    0.02    1.05    1.44   144.59511   127.53909   370.24634
   497  H   1.0    0.06    1.04    1.43   141.74317   128.56825   375.19562
   498  H   1.0    0.03    1.02    1.43   140.41518   127.87340   372.21002
   499  H   1.0    0.05    1.02    1.43   141.33535   123.99134   375.40100
   500  H   1.0    0.02    1.02    1.43   142.34732   123.67731   372.22274
   501  H   1.0    0.05    1.02    1.43   145.33141   124.94906   376.88811
   502  H   1.0    0.01    1.02    1.43   146.35006   123.19833   374.21829
   503  N   5.0   -0.15    3.53    2.10   144.41512   132.43502   374.07529
   504  C   4.0    0.03    4.49    4.52   144.41560   135.17469   374.06275
   505  C   4.0    0.07    3.31    3.06   146.84348   136.07924   372.85727
   506  O   6.0   -0.35    1.12    1.80   146.80801   137.62267   371.13275
   507  C   4.0   -0.03    4.38    4.35   144.06384   136.22792   376.74057
   508  C   4.0   -0.05    4.26    4.12   141.37018   135.61193   377.46286
   509  C   4.0   -0.10    4.15    3.90   144.58677   139.04892   376.74080
   510  C   4.0   -0.08    4.06    3.73   141.13768   135.60699   380.28897
   511  H   1.0    0.09    1.08    1.44   144.37914   131.56566   375.78460
   512  H   1.0    0.05    1.06    1.44   142.86955   135.82682   372.84431
   513  H   1.0    0.03    1.06    1.44   145.38323   135.26616   378.00384
   514  H   1.0    0.02    1.03    1.43   140.09348   137.00378   376.63461
   515  H   1.0    0.05    1.04    1.43   140.83336   133.75386   376.75503
   516  H   1.0    0.01    1.00    1.43   144.19431   139.84768   378.59016
   517  H   1.0    0.02    1.01    1.43   146.55319   139.42800   376.29788
   518  H   1.0    0.02    1.00    1.43   143.40669   139.98248   375.34579
   519  H   1.0    0.04    1.00    1.43   139.20038   135.23490   380.87170
   520  H   1.0    0.05    1.01    1.43   142.32470   134.15021   381.10080
   521  H   1.0    0.02    1.00    1.43   141.71737   137.41430   381.08095
   522  N   5.0   -0.25    3.18    1.95   125.70078   119.62084   410.37989
   523  C   4.0    0.01    4.16    3.92   126.01901   120.72203   407.84051
   524  C   4.0    0.05    3.17    3.03   123.47390   120.67278   406.37802
   525  O   6.0   -0.33    1.10    1.80   122.66530   122.37582   405.01985
   526  C   4.0   -0.06    4.27    4.15   128.04934   119.20155   406.45144
   527  C   4.0   -0.06    4.15    3.91   128.94970   120.19069   403.91576
   528  C   4.0   -0.05    4.18    3.97   130.29854   118.11196   402.39638
   529  C   4.0   -0.05    4.15    3.89   132.82770   117.40833   403.53988
   530  N   5.0   -0.13    4.01    2.88   133.93824   115.27105   402.16688
   531  H   1.0    0.05    1.03    1.43   126.80589   118.12024   410.82079
   532  H   1.0    0.02    1.04    1.43   126.59081   122.70716   408.00800
   533  H   1.0    0.01    1.03    1.43   129.66902   119.06019   407.72553
   534  H   1.0    0.03    1.03    1.43   127.30121   117.29099   406.19689
   535  H   1.0    0.05    1.03    1.43   127.33093   120.86416   402.82582
   536  H   1.0    0.03    1.03    1.43   130.23806   121.77841   404.17370
   537  H   1.0    0.03    1.03    1.43   129.10601   116.43224   402.29773
   538  H   1.0    0.05    1.03    1.43   130.63687   118.76987   400.47271
   539  H   1.0    0.02    1.02    1.43   134.11782   119.01973   403.46505
   540  H   1.0    0.01    1.02    1.43   132.63182   116.83986   405.51619
   541  H   1.0    0.03    1.02    1.43   135.80912   115.08131   402.69318
   542  H   1.0    0.03    0.97    1.43   133.06079   113.47011   402.66634
   543  H   1.0    0.08    1.08    1.44   133.91858   115.70951   400.22263
   544  H   1.0    0.06    1.07    1.44   139.72525   107.31905   396.28634
   545  H   1.0    0.04    1.04    1.43   132.82564   100.87031   393.58717
   546  H   1.0    0.08    1.07    1.44   128.01550   105.56005   399.61805
   547  H   1.0    0.03    1.04    1.43   122.50079    98.94539   399.46091
   548  H   1.0    0.08    1.07    1.44   116.66051   105.46781   401.70379
   549  H   1.0    0.04    1.05    1.44   113.27362   100.38672   399.86010
   550  H   1.0    0.06    1.07    1.44   112.94151    94.73866   384.57934
   551  H   1.0    0.03    1.05    1.44   120.65594    95.38221   380.14200
   552  H   1.0    0.07    1.07    1.44   117.00146    98.03591   376.41485
   553  H   1.0    0.03    1.04    1.43   113.03398   129.45928   391.63522
   554  H   1.0    0.08    1.08    1.44   114.61832   130.57568   383.08241
   555  H   1.0    0.04    1.05    1.44   110.38075   125.93622   382.06563
   556  H   1.0    0.07    1.08    1.44   129.31917   135.05365   368.33423
   557  H   1.0    0.04    1.04    1.44   129.58679   135.04876   375.19767
   558  H   1.0    0.10    1.08    1.44   128.36026   133.78532   391.76809
   559  H   1.0    0.04    1.04    1.43   133.49392   134.33433   388.64264
   560  H   1.0    0.07    1.07    1.44   137.63820   130.06566   394.73314
   561  H   1.0    0.03    1.04    1.43   141.67084   125.24554   391.63522
   562  H   1.0    0.07    1.07    1.44   143.61857   120.96661   387.94687
   563  H   1.0    0.04    1.05    1.44   144.32407   128.76860   382.06563
   564  H   1.0    0.06    1.29    1.49   147.28223   126.03421   372.80540
   565  H   1.0    0.03    1.05    1.44   148.50501   135.41665   373.46666
   566  H   1.0    0.06    1.07    1.44   126.04116   120.80037   411.55692
   567  H   1.0    0.04    1.05    1.44   122.34258   119.16411   406.50090

  Z AO/shell   Hii/eV     exponent
  1     Wed Apr 25 08:07:45 CEST 2018   EN: 2.200 GM2: 0.406  GM3: 0.0800  RAES: 1.40
     1s    -10.707211    1.230000
  6     Wed Apr 25 08:07:45 CEST 2018   EN: 2.550 GM2: 0.538  GM3: 0.1500  RAES: 3.00
     2s    -13.970922    2.096432
     2p    -10.063292    1.800000
  7     Wed Apr 25 08:07:45 CEST 2018   EN: 3.040 GM2: 0.461  GM3:-0.0640  RAES: 1.90
     2s    -16.686243    2.339881
     2p    -12.523956    2.014332
  8     Wed Apr 25 08:07:45 CEST 2018   EN: 3.440 GM2: 0.452  GM3:-0.0517  RAES: 1.80
     2s    -20.229985    2.439742
     2p    -15.503117    2.137023
 16     Tue Apr 24 11:44:34 CEST 2018   EN: 2.580 GM2: 0.340  GM3:-0.0502  RAES: 3.10
     3s    -20.029654    1.981333
     3p    -11.377694    2.025643
     3d     -0.420282    1.702555
 no old-style atom pair restraining (fixing) potential

molecular fragmentation (1/2 indicates fragments):
111111111111111111111111111111111112222222222222222222222222222222222222
222222222222222222222222222222222222222222222222222222222222222222222222
222222222222222222222222222222222222222222222222222222222222222222222222
222222222222222222222222222222222222222222222222222222222222222222222222
222222222222222222222222222222222222222222222222222222222222222222222222
222222222222222222222222222222222222222222222222222222222222222222222222
222222222222222222222222222222222222222222222222222222222222222222222222
222222222222222222222222222222222222222112222222222222222222222
# atoms in fragment 1/2:    37   530
 fragment masses (1/2) :      277.30     3541.31
CMA distance (Bohr)    :  14.596
constraining FC (au)   :  0.0500
           ------------------------------------------------- 
          |        Self-Consistent Charge Iterations        |
           ------------------------------------------------- 

 Ncao       : 1374
 Nao        : 1372
 Nshell     : 834
 Nel        : 1518
 T(el)      :   500.0
 intcut     :    35.0
 scfconv/Eh :  0.100E-06
   qconv/e  :  0.100E-04
 intneglect :  0.100E-08
 broydamp   :      0.400
 iter      E             dE          RMSdq      gap      omega  full diag
   1   -866.6877145 -0.866688E+03  0.466E+00    0.06       0.0  T
   2   -868.6829572 -0.199524E+01  0.236E+00    0.09       1.0  T
   3   -867.4237904  0.125917E+01  0.207E+00    0.04       1.0  T
   4   -868.7925653 -0.136877E+01  0.131E+00    0.15       1.0  T
   5   -869.0475218 -0.254956E+00  0.919E-01    0.14       1.0  T
   6   -869.1749624 -0.127441E+00  0.737E-01    0.07       1.0  T
   7   -869.1260217  0.489407E-01  0.727E-01    0.11       1.0  T
   8   -869.2749907 -0.148969E+00  0.545E-01    0.00       1.0  T
   9   -869.1342964  0.140694E+00  0.723E-01    0.11       1.0  T
  10   -869.2043833 -0.700869E-01  0.592E-01    0.13       1.0  T
  11   -869.2893744 -0.849911E-01  0.452E-01    0.01       1.0  T
  12   -869.1272896  0.162085E+00  0.675E-01    0.23       1.0  T
  13   -869.2221397 -0.948501E-01  0.542E-01    0.08       1.0  T
  14   -868.9557025  0.266437E+00  0.836E-01    0.01       1.0  T
  15   -869.2898970 -0.334194E+00  0.436E-01    0.08       1.0  T
  16   -867.7263956  0.156350E+01  0.161E+00    0.12       1.0  T
  17   -869.1441730 -0.141778E+01  0.657E-01    0.03       1.0  T
  18   -868.9093959  0.234777E+00  0.873E-01    0.00       1.0  T
  19   -869.2884305 -0.379035E+00  0.426E-01    0.07       1.0  T
  20   -869.1264444  0.161986E+00  0.659E-01    0.01       1.0  T
  21   -869.2711042 -0.144660E+00  0.465E-01    0.02       1.0  T
  22   -869.3561461 -0.850419E-01  0.302E-01    0.01       1.0  T
  23   -869.3897722 -0.336261E-01  0.176E-01    0.01       1.0  T
  24   -869.3944922 -0.471998E-02  0.162E-01    0.02       1.0  T
  25   -869.4056010 -0.111088E-01  0.979E-02    0.01       1.0  T
  26   -869.4040826  0.151838E-02  0.103E-01    0.00       1.0  T
  27   -869.4001353  0.394735E-02  0.137E-01    0.01       1.0  T
  28   -869.4056940 -0.555871E-02  0.100E-01    0.01       1.0  T
  29   -869.4092734 -0.357941E-02  0.615E-02    0.02       1.0  T
  30   -869.4115147 -0.224134E-02  0.139E-02    0.02       1.0  T
  31   -869.4115130  0.170376E-05  0.131E-02    0.01       1.0  T
  32   -869.4115830 -0.699350E-04  0.920E-03    0.01       1.0  T
  33   -869.4116144 -0.314261E-04  0.754E-03    0.01       1.0  T
  34   -869.4116245 -0.100900E-04  0.543E-03    0.01       1.0  T
  35   -869.4116093  0.151941E-04  0.637E-03    0.01       1.0  T
  36   -869.4116236 -0.143217E-04  0.482E-03    0.01       1.0  T
  37   -869.4116305 -0.692401E-05  0.386E-03    0.01       1.1  T
  38   -869.4116308 -0.260603E-06  0.362E-03    0.01       1.2  T
  39   -869.4116313 -0.483607E-06  0.320E-03    0.01       1.3  T
  40   -869.4116352 -0.390942E-05  0.205E-03    0.01       2.0  T
  41   -869.4116359 -0.752622E-06  0.136E-03    0.01       3.1  T
  42   -869.4116367 -0.785777E-06  0.529E-04    0.01       7.9  T
  43   -869.4116369 -0.170917E-06  0.195E-04    0.01      21.5  T
  44   -869.4116369  0.185196E-09  0.158E-04    0.01      26.6  T
  45   -869.4116369 -0.164514E-07  0.530E-05    0.01      79.2  T
  46   -869.4116369 -0.122157E-08  0.250E-05    0.01     168.0  T
speedup  1.74
cpu  time for SCC    2 m 13.0 s
wall time for SCC    1 m 16.4 s

   *** convergence criteria satisfied after 46 iterations ***

          eigenvalues
 #    :         747        748        749        750        751        752        753        754
 occ. :        2.000      2.000      2.000      2.000      2.000      2.000      2.000      2.000
 eps  :        -9.985     -9.961     -9.955     -9.846     -9.844     -9.769     -9.637     -9.606
 #    :         755        756        757        758        759        760        761        762
 occ. :        2.000      2.000      1.983      1.738      0.396      0.303      0.239      0.217
 eps  :        -9.451     -9.371     -7.630     -7.506     -7.365     -7.351     -7.339     -7.334
 #    :         763        764        765        766        767        768        769        770
 occ. :        0.193      0.192      0.181      0.170      0.163      0.096      0.051      0.044
 eps  :        -7.329     -7.328     -7.325     -7.322     -7.321     -7.296     -7.268     -7.262


   #   Z            q   n(s)   n(p)   n(d)      C6AA      α(0)
   1   7 N     -0.389  1.310  4.079  0.000    30.075     8.145
   2   6 C      0.021  1.070  2.909  0.000    20.237     6.409
   3   6 C      0.264  1.057  2.679  0.000    22.547     7.775
   4   8 O     -0.476  1.739  4.736  0.000    23.250     6.465
   5   6 C     -0.054  1.053  3.002  0.000    21.552     6.610
   6   6 C     -0.106  1.073  3.033  0.000    22.527     6.759
   7   6 C      0.363  1.031  2.606  0.000    20.843     7.471
   8   8 O     -0.654  1.796  4.858  0.000    27.491     7.030
   9   8 O     -0.615  1.762  4.853  0.000    26.493     6.901
  10   1 H      0.161  0.839  0.000  0.000     1.326     1.804
  11   1 H      0.058  0.942  0.000  0.000     2.221     2.330
  12   1 H      0.044  0.956  0.000  0.000     2.401     2.423
  13   1 H      0.026  0.974  0.000  0.000     2.642     2.542
  14   1 H      0.020  0.980  0.000  0.000     2.727     2.583
  15   1 H      0.048  0.952  0.000  0.000     2.349     2.397
  16   7 N     -0.175  1.253  3.922  0.000    24.791     7.395
  17   6 C      0.022  1.073  2.905  0.000    20.229     6.408
  18   6 C      0.181  1.071  2.748  0.000    24.112     8.041
  19   8 O     -0.404  1.749  4.655  0.000    21.768     6.255
  20   6 C     -0.086  1.066  3.020  0.000    22.130     6.697
  21   6 C      0.008  1.087  2.905  0.000    27.836     8.654
  22   6 C     -0.037  1.083  2.954  0.000    28.922     8.819
  23   6 C     -0.040  1.081  2.959  0.000    28.994     8.830
  24   6 C     -0.036  1.083  2.953  0.000    28.895     8.815
  25   6 C     -0.032  1.078  2.954  0.000    28.789     8.798
  26   6 C     -0.038  1.082  2.956  0.000    28.946     8.823
  27   1 H      0.199  0.801  0.000  0.000     1.109     1.649
  28   1 H      0.047  0.953  0.000  0.000     2.352     2.398
  29   1 H      0.055  0.945  0.000  0.000     2.261     2.352
  30   1 H      0.082  0.918  0.000  0.000     1.957     2.188
  31   1 H      0.051  0.949  0.000  0.000     2.303     2.373
  32   1 H      0.009  0.991  0.000  0.000     2.908     2.667
  33   1 H      0.072  0.928  0.000  0.000     2.059     2.244
  34   1 H      0.018  0.982  0.000  0.000     2.762     2.599
  35   1 H      0.059  0.941  0.000  0.000     2.206     2.323
  36   7 N     -0.396  1.308  4.088  0.000    30.274     8.172
  37   6 C      0.026  1.062  2.911  0.000    20.139     6.391
  38   6 C      0.268  1.055  2.677  0.000    22.476     7.764
  39   8 O     -0.499  1.746  4.753  0.000    23.764     6.536
  40   6 C     -0.007  1.056  2.952  0.000    20.674     6.467
  41   6 C     -0.102  1.035  3.067  0.000    22.492     6.760
  42   6 C     -0.109  1.036  3.072  0.000    22.626     6.781
  43   1 H      0.172  0.828  0.000  0.000     1.260     1.758
  44   1 H      0.042  0.958  0.000  0.000     2.425     2.435
  45   1 H      0.035  0.965  0.000  0.000     2.519     2.482
  46   1 H      0.007  0.993  0.000  0.000     2.946     2.684
  47   1 H      0.050  0.950  0.000  0.000     2.323     2.383
  48   1 H      0.036  0.964  0.000  0.000     2.499     2.472
  49   1 H     -0.002  1.002  0.000  0.000     3.089     2.748
  50   1 H      0.037  0.963  0.000  0.000     2.491     2.468
  51   1 H      0.048  0.952  0.000  0.000     2.342     2.393
  52   7 N     -0.172  1.249  3.923  0.000    24.728     7.385
  53   6 C      0.024  1.066  2.910  0.000    20.168     6.394
  54   6 C      0.206  1.080  2.714  0.000    23.622     7.960
  55   8 O     -0.366  1.750  4.616  0.000    21.022     6.147
  56   6 C     -0.020  1.064  2.956  0.000    20.893     6.501
  57   6 C     -0.070  1.049  3.020  0.000    21.832     6.652
  58   6 C     -0.122  1.039  3.083  0.000    22.887     6.820
  59   6 C     -0.121  1.038  3.082  0.000    22.869     6.819
  60   1 H      0.225  0.775  0.000  0.000     0.987     1.556
  61   1 H      0.067  0.933  0.000  0.000     2.114     2.274
  62   1 H      0.055  0.945  0.000  0.000     2.259     2.351
  63   1 H      0.030  0.970  0.000  0.000     2.590     2.517
  64   1 H      0.053  0.947  0.000  0.000     2.285     2.364
  65   1 H      0.073  0.927  0.000  0.000     2.057     2.243
  66   1 H      0.042  0.958  0.000  0.000     2.424     2.435
  67   1 H      0.053  0.947  0.000  0.000     2.289     2.366
  68   1 H      0.052  0.948  0.000  0.000     2.301     2.372
  69   1 H      0.046  0.954  0.000  0.000     2.374     2.410
  70   1 H      0.055  0.945  0.000  0.000     2.262     2.352
  71   7 N     -0.399  1.311  4.088  0.000    30.336     8.180
  72   6 C      0.040  1.060  2.900  0.000    19.906     6.353
  73   6 C      0.196  1.093  2.711  0.000    23.818     7.992
  74   8 O     -0.405  1.759  4.647  0.000    21.787     6.258
  75   6 C     -0.012  1.064  2.948  0.000    20.744     6.476
  76   6 C     -0.053  1.047  3.006  0.000    21.511     6.601
  77   6 C     -0.114  1.038  3.076  0.000    22.739     6.800
  78   6 C     -0.102  1.037  3.065  0.000    22.486     6.760
  79   1 H      0.179  0.821  0.000  0.000     1.217     1.728
  80   1 H      0.031  0.969  0.000  0.000     2.575     2.510
  81   1 H      0.056  0.944  0.000  0.000     2.252     2.347
  82   1 H      0.024  0.976  0.000  0.000     2.666     2.553
  83   1 H      0.035  0.965  0.000  0.000     2.513     2.479
  84   1 H      0.053  0.947  0.000  0.000     2.288     2.365
  85   1 H      0.046  0.954  0.000  0.000     2.370     2.407
  86   1 H      0.037  0.963  0.000  0.000     2.496     2.470
  87   1 H      0.007  0.993  0.000  0.000     2.943     2.683
  88   1 H      0.042  0.958  0.000  0.000     2.427     2.436
  89   1 H      0.046  0.954  0.000  0.000     2.375     2.410
  90   7 N     -0.393  1.318  4.075  0.000    30.174     8.158
  91   6 C      0.023  1.062  2.915  0.000    20.193     6.399
  92   6 C      0.271  1.043  2.686  0.000    22.421     7.754
  93   8 O     -0.494  1.736  4.758  0.000    23.660     6.522
  94   6 C     -0.026  1.068  2.958  0.000    20.999     6.517
  95   6 C     -0.058  1.048  3.010  0.000    21.615     6.618
  96   6 C     -0.102  1.034  3.069  0.000    22.507     6.764
  97   6 C     -0.109  1.034  3.075  0.000    22.646     6.786
  98   1 H      0.171  0.829  0.000  0.000     1.268     1.764
  99   1 H      0.035  0.965  0.000  0.000     2.518     2.482
 100   1 H      0.050  0.950  0.000  0.000     2.322     2.383
 101   1 H      0.029  0.971  0.000  0.000     2.595     2.519
 102   1 H      0.046  0.954  0.000  0.000     2.372     2.409
 103   1 H      0.043  0.957  0.000  0.000     2.408     2.427
 104   1 H      0.031  0.969  0.000  0.000     2.574     2.509
 105   1 H      0.026  0.974  0.000  0.000     2.647     2.544
 106   1 H      0.035  0.965  0.000  0.000     2.520     2.483
 107   1 H      0.047  0.953  0.000  0.000     2.359     2.402
 108   1 H      0.033  0.967  0.000  0.000     2.546     2.495
 109   7 N     -0.154  1.236  3.918  0.000    24.331     7.326
 110   6 C     -0.031  1.052  2.980  0.000    21.203     6.569
 111   6 C      0.175  1.072  2.752  0.000    24.225     8.060
 112   8 O     -0.422  1.745  4.677  0.000    22.136     6.308
 113   1 H      0.227  0.773  0.000  0.000     0.977     1.548
 114   1 H      0.081  0.919  0.000  0.000     1.964     2.192
 115   1 H      0.119  0.881  0.000  0.000     1.625     1.993
 116   7 N     -0.387  1.317  4.069  0.000    30.002     8.135
 117   6 C      0.027  1.062  2.910  0.000    20.123     6.389
 118   6 C      0.261  1.054  2.685  0.000    22.600     7.785
 119   8 O     -0.529  1.753  4.775  0.000    24.426     6.626
 120   6 C     -0.074  1.054  3.020  0.000    21.889     6.656
 121   6 C     -0.008  1.064  2.945  0.000    20.728     6.482
 122  16 S     -0.222  1.916  4.259  0.047   150.554    20.652
 123   6 C     -0.050  1.050  3.000  0.000    21.549     6.622
 124   1 H      0.166  0.834  0.000  0.000     1.295     1.783
 125   1 H      0.037  0.963  0.000  0.000     2.484     2.465
 126   1 H      0.070  0.930  0.000  0.000     2.081     2.256
 127   1 H      0.064  0.936  0.000  0.000     2.153     2.294
 128   1 H      0.031  0.969  0.000  0.000     2.577     2.511
 129   1 H      0.056  0.944  0.000  0.000     2.251     2.346
 130   1 H      0.052  0.948  0.000  0.000     2.297     2.370
 131   1 H      0.067  0.933  0.000  0.000     2.123     2.279
 132   1 H      0.032  0.968  0.000  0.000     2.560     2.502
 133   7 N     -0.193  1.262  3.931  0.000    25.195     7.455
 134   6 C      0.029  1.052  2.919  0.000    20.087     6.381
 135   6 C      0.281  1.042  2.677  0.000    22.248     7.724
 136   8 O     -0.535  1.761  4.774  0.000    24.574     6.646
 137   6 C     -0.074  1.057  3.017  0.000    21.892     6.658
 138   6 C     -0.009  1.052  2.957  0.000    20.693     6.470
 139   6 C     -0.116  1.042  3.074  0.000    22.761     6.801
 140   6 C     -0.102  1.037  3.065  0.000    22.502     6.763
 141   1 H      0.265  0.735  0.000  0.000     0.826     1.424
 142   1 H      0.043  0.957  0.000  0.000     2.416     2.431
 143   1 H      0.087  0.913  0.000  0.000     1.906     2.159
 144   1 H      0.050  0.950  0.000  0.000     2.319     2.381
 145   1 H      0.046  0.954  0.000  0.000     2.376     2.410
 146   1 H      0.032  0.968  0.000  0.000     2.553     2.499
 147   1 H      0.066  0.934  0.000  0.000     2.129     2.282
 148   1 H      0.035  0.965  0.000  0.000     2.516     2.481
 149   1 H      0.021  0.979  0.000  0.000     2.722     2.580
 150   1 H      0.022  0.978  0.000  0.000     2.702     2.571
 151   1 H      0.021  0.979  0.000  0.000     2.720     2.579
 152   7 N     -0.203  1.260  3.943  0.000    25.411     7.487
 153   6 C      0.012  1.066  2.922  0.000    20.383     6.429
 154   6 C      0.266  1.051  2.683  0.000    22.508     7.768
 155   8 O     -0.476  1.749  4.726  0.000    23.254     6.465
 156   6 C      0.057  1.045  2.898  0.000    19.844     6.383
 157   8 O     -0.477  1.723  4.755  0.000    22.411     6.391
 158   1 H      0.258  0.742  0.000  0.000     0.855     1.448
 159   1 H      0.077  0.923  0.000  0.000     2.012     2.218
 160   1 H      0.074  0.926  0.000  0.000     2.038     2.233
 161   1 H      0.065  0.935  0.000  0.000     2.140     2.288
 162   1 H      0.371  0.629  0.000  0.000     0.542     1.157
 163   7 N     -0.165  1.244  3.921  0.000    24.569     7.362
 164   6 C      0.020  1.061  2.919  0.000    20.247     6.408
 165   6 C      0.279  1.048  2.673  0.000    22.286     7.731
 166   8 O     -0.508  1.753  4.754  0.000    23.959     6.563
 167   6 C     -0.089  1.063  3.026  0.000    22.184     6.705
 168   6 C     -0.005  1.054  2.951  0.000    20.633     6.461
 169   6 C     -0.109  1.038  3.072  0.000    22.645     6.785
 170   6 C     -0.120  1.041  3.079  0.000    22.849     6.815
 171   1 H      0.223  0.777  0.000  0.000     0.995     1.562
 172   1 H      0.091  0.909  0.000  0.000     1.866     2.136
 173   1 H      0.097  0.903  0.000  0.000     1.815     2.107
 174   1 H      0.062  0.938  0.000  0.000     2.174     2.306
 175   1 H      0.004  0.996  0.000  0.000     2.984     2.702
 176   1 H      0.020  0.980  0.000  0.000     2.731     2.584
 177   1 H      0.032  0.968  0.000  0.000     2.552     2.498
 178   1 H      0.065  0.935  0.000  0.000     2.143     2.289
 179   1 H      0.035  0.965  0.000  0.000     2.520     2.482
 180   1 H      0.067  0.933  0.000  0.000     2.120     2.277
 181   1 H      0.041  0.959  0.000  0.000     2.432     2.439
 182   7 N     -0.195  1.253  3.942  0.000    25.223     7.459
 183   6 C      0.038  1.059  2.903  0.000    19.941     6.359
 184   6 C      0.274  1.050  2.676  0.000    22.375     7.746
 185   8 O     -0.532  1.760  4.772  0.000    24.515     6.638
 186   6 C     -0.063  1.055  3.008  0.000    21.698     6.631
 187   6 C     -0.009  1.056  2.952  0.000    20.698     6.471
 188   6 C     -0.100  1.040  3.061  0.000    22.458     6.755
 189   6 C     -0.112  1.039  3.073  0.000    22.689     6.791
 190   1 H      0.232  0.768  0.000  0.000     0.956     1.532
 191   1 H      0.056  0.944  0.000  0.000     2.243     2.342
 192   1 H      0.047  0.953  0.000  0.000     2.358     2.402
 193   1 H      0.018  0.982  0.000  0.000     2.762     2.599
 194   1 H      0.063  0.937  0.000  0.000     2.164     2.300
 195   1 H      0.058  0.942  0.000  0.000     2.222     2.331
 196   1 H      0.028  0.972  0.000  0.000     2.612     2.528
 197   1 H      0.018  0.982  0.000  0.000     2.759     2.598
 198   1 H      0.063  0.937  0.000  0.000     2.162     2.299
 199   1 H      0.026  0.974  0.000  0.000     2.641     2.542
 200   1 H      0.031  0.969  0.000  0.000     2.567     2.506
 201   7 N     -0.184  1.257  3.927  0.000    24.979     7.423
 202   6 C      0.036  1.052  2.911  0.000    19.960     6.360
 203   6 C      0.286  1.037  2.677  0.000    22.147     7.707
 204   8 O     -0.522  1.760  4.762  0.000    24.271     6.605
 205   6 C     -0.086  1.061  3.025  0.000    22.130     6.696
 206   6 C     -0.107  1.060  3.047  0.000    22.538     6.759
 207   6 C      0.291  1.041  2.668  0.000    22.066     7.691
 208   8 O     -0.521  1.771  4.750  0.000    24.251     6.603
 209   7 N     -0.290  1.290  3.999  0.000    27.475     7.785
 210   1 H      0.233  0.767  0.000  0.000     0.952     1.529
 211   1 H      0.026  0.974  0.000  0.000     2.640     2.541
 212   1 H      0.119  0.881  0.000  0.000     1.619     1.990
 213   1 H      0.064  0.936  0.000  0.000     2.153     2.295
 214   1 H      0.079  0.921  0.000  0.000     1.994     2.208
 215   1 H      0.114  0.886  0.000  0.000     1.663     2.017
 216   1 H      0.233  0.767  0.000  0.000     0.951     1.527
 217   1 H      0.188  0.812  0.000  0.000     1.171     1.695
 218   7 N     -0.200  1.260  3.940  0.000    25.348     7.478
 219   6 C      0.006  1.074  2.920  0.000    20.498     6.449
 220   6 C      0.279  1.039  2.681  0.000    22.277     7.729
 221   8 O     -0.497  1.747  4.750  0.000    23.724     6.530
 222   6 C     -0.068  1.056  3.012  0.000    21.795     6.645
 223   6 C     -0.085  1.056  3.029  0.000    22.110     6.694
 224   6 C     -0.090  1.059  3.031  0.000    22.214     6.712
 225   6 C     -0.059  1.067  2.993  0.000    21.737     6.655
 226   7 N     -0.147  1.231  3.916  0.000    24.178     7.303
 227   1 H      0.248  0.752  0.000  0.000     0.891     1.479
 228   1 H      0.087  0.913  0.000  0.000     1.912     2.163
 229   1 H      0.057  0.943  0.000  0.000     2.231     2.336
 230   1 H      0.059  0.941  0.000  0.000     2.207     2.323
 231   1 H      0.068  0.932  0.000  0.000     2.113     2.273
 232   1 H      0.069  0.931  0.000  0.000     2.094     2.263
 233   1 H      0.075  0.925  0.000  0.000     2.035     2.231
 234   1 H      0.090  0.910  0.000  0.000     1.884     2.146
 235   1 H      0.120  0.880  0.000  0.000     1.613     1.986
 236   1 H      0.124  0.876  0.000  0.000     1.585     1.969
 237   1 H      0.314  0.686  0.000  0.000     0.673     1.285
 238   1 H      0.306  0.694  0.000  0.000     0.696     1.307
 239   1 H      0.301  0.699  0.000  0.000     0.709     1.319
 240   7 N     -0.192  1.248  3.944  0.000    25.167     7.451
 241   6 C      0.038  1.057  2.905  0.000    19.948     6.361
 242   6 C      0.272  1.051  2.677  0.000    22.395     7.749
 243   8 O     -0.486  1.749  4.737  0.000    23.478     6.496
 244   6 C     -0.038  1.051  2.987  0.000    21.244     6.560
 245   6 C     -0.091  1.065  3.027  0.000    22.242     6.715
 246   6 C      0.369  1.026  2.605  0.000    20.750     7.455
 247   8 O     -0.656  1.782  4.874  0.000    27.540     7.036
 248   8 O     -0.633  1.763  4.870  0.000    26.949     6.960
 249   1 H      0.218  0.782  0.000  0.000     1.020     1.582
 250   1 H      0.061  0.939  0.000  0.000     2.182     2.310
 251   1 H      0.014  0.986  0.000  0.000     2.820     2.626
 252   1 H      0.044  0.956  0.000  0.000     2.394     2.420
 253   1 H      0.056  0.944  0.000  0.000     2.245     2.343
 254   1 H      0.023  0.977  0.000  0.000     2.695     2.567
 255   7 N     -0.181  1.243  3.938  0.000    24.920     7.414
 256   6 C     -0.027  1.052  2.975  0.000    21.133     6.559
 257   6 C      0.274  1.045  2.681  0.000    22.367     7.744
 258   8 O     -0.501  1.762  4.739  0.000    23.799     6.541
 259   1 H      0.203  0.797  0.000  0.000     1.089     1.635
 260   1 H      0.089  0.911  0.000  0.000     1.887     2.148
 261   1 H      0.106  0.894  0.000  0.000     1.732     2.058
 262   7 N     -0.182  1.246  3.936  0.000    24.946     7.418
 263   6 C      0.034  1.052  2.914  0.000    20.000     6.366
 264   6 C      0.284  1.043  2.673  0.000    22.193     7.716
 265   8 O     -0.506  1.764  4.742  0.000    23.913     6.556
 266   6 C     -0.069  1.053  3.016  0.000    21.787     6.641
 267   6 C     -0.008  1.052  2.957  0.000    20.684     6.468
 268   6 C     -0.112  1.041  3.071  0.000    22.684     6.790
 269   6 C     -0.119  1.041  3.077  0.000    22.821     6.810
 270   1 H      0.214  0.786  0.000  0.000     1.039     1.597
 271   1 H      0.083  0.917  0.000  0.000     1.950     2.184
 272   1 H      0.067  0.933  0.000  0.000     2.115     2.274
 273   1 H      0.036  0.964  0.000  0.000     2.503     2.474
 274   1 H      0.032  0.968  0.000  0.000     2.556     2.500
 275   1 H      0.061  0.939  0.000  0.000     2.183     2.310
 276   1 H      0.027  0.973  0.000  0.000     2.622     2.532
 277   1 H      0.044  0.956  0.000  0.000     2.392     2.418
 278   1 H      0.065  0.935  0.000  0.000     2.143     2.289
 279   1 H      0.057  0.943  0.000  0.000     2.232     2.337
 280   1 H      0.028  0.972  0.000  0.000     2.617     2.530
 281   7 N     -0.195  1.262  3.933  0.000    25.232     7.460
 282   6 C      0.049  1.048  2.904  0.000    19.771     6.332
 283   6 C      0.269  1.057  2.674  0.000    22.463     7.765
 284   8 O     -0.463  1.726  4.737  0.000    22.981     6.427
 285   6 C     -0.041  1.051  2.990  0.000    21.270     6.559
 286   6 C     -0.003  1.051  2.952  0.000    20.606     6.456
 287   6 C     -0.104  1.040  3.065  0.000    22.535     6.766
 288   6 C     -0.085  1.030  3.055  0.000    22.175     6.714
 289   1 H      0.221  0.779  0.000  0.000     1.005     1.571
 290   1 H      0.012  0.988  0.000  0.000     2.857     2.643
 291   1 H      0.067  0.933  0.000  0.000     2.115     2.274
 292   1 H      0.006  0.994  0.000  0.000     2.953     2.687
 293   1 H      0.053  0.947  0.000  0.000     2.283     2.363
 294   1 H      0.069  0.931  0.000  0.000     2.098     2.265
 295   1 H      0.066  0.934  0.000  0.000     2.127     2.281
 296   1 H      0.021  0.979  0.000  0.000     2.711     2.575
 297   1 H      0.058  0.942  0.000  0.000     2.227     2.333
 298   1 H     -0.016  1.016  0.000  0.000     3.349     2.862
 299   1 H      0.005  0.995  0.000  0.000     2.967     2.694
 300   7 N     -0.201  1.257  3.944  0.000    25.369     7.481
 301   6 C      0.038  1.061  2.900  0.000    19.915     6.351
 302   6 C      0.275  1.045  2.679  0.000    22.342     7.740
 303   8 O     -0.437  1.711  4.726  0.000    22.426     6.349
 304   6 C     -0.029  1.034  2.995  0.000    21.066     6.530
 305   6 C     -0.000  1.062  2.938  0.000    20.578     6.458
 306  16 S     -0.245  1.926  4.259  0.060   151.557    20.720
 307   6 C     -0.063  1.066  2.997  0.000    21.783     6.659
 308   1 H      0.156  0.844  0.000  0.000     1.361     1.828
 309   1 H      0.096  0.904  0.000  0.000     1.824     2.112
 310   1 H      0.005  0.995  0.000  0.000     2.970     2.695
 311   1 H      0.035  0.965  0.000  0.000     2.511     2.478
 312   1 H      0.070  0.930  0.000  0.000     2.081     2.256
 313   1 H      0.038  0.962  0.000  0.000     2.477     2.461
 314   1 H      0.096  0.904  0.000  0.000     1.822     2.111
 315   1 H      0.086  0.914  0.000  0.000     1.917     2.165
 316   1 H      0.058  0.942  0.000  0.000     2.226     2.333
 317   7 N     -0.175  1.240  3.934  0.000    24.781     7.393
 318   6 C      0.028  1.071  2.901  0.000    20.132     6.393
 319   6 C      0.262  1.040  2.698  0.000    22.582     7.785
 320   8 O     -0.590  1.782  4.808  0.000    25.869     6.819
 321   6 C      0.099  1.035  2.866  0.000    19.195     6.284
 322   8 O     -0.446  1.700  4.746  0.000    21.766     6.298
 323   1 H      0.167  0.833  0.000  0.000     1.294     1.782
 324   1 H      0.091  0.909  0.000  0.000     1.872     2.140
 325   1 H     -0.016  1.016  0.000  0.000     3.344     2.860
 326   1 H      0.079  0.921  0.000  0.000     1.987     2.204
 327   1 H      0.266  0.734  0.000  0.000     0.833     1.434
 328   7 N     -0.066  1.227  3.839  0.000    22.523     7.049
 329   6 C      0.050  1.055  2.895  0.000    19.712     6.315
 330   6 C      0.261  1.053  2.687  0.000    22.601     7.785
 331   8 O     -0.511  1.751  4.760  0.000    24.019     6.571
 332   6 C     -0.069  1.051  3.018  0.000    21.804     6.646
 333   6 C     -0.072  1.053  3.019  0.000    21.858     6.653
 334   6 C     -0.013  1.052  2.962  0.000    20.864     6.513
 335   1 H      0.061  0.939  0.000  0.000     2.193     2.316
 336   1 H      0.071  0.929  0.000  0.000     2.075     2.252
 337   1 H      0.093  0.907  0.000  0.000     1.847     2.125
 338   1 H      0.097  0.903  0.000  0.000     1.810     2.104
 339   1 H      0.098  0.902  0.000  0.000     1.807     2.102
 340   1 H      0.064  0.936  0.000  0.000     2.156     2.296
 341   1 H      0.077  0.923  0.000  0.000     2.007     2.215
 342   7 N     -0.220  1.293  3.928  0.000    25.813     7.546
 343   6 C      0.040  1.058  2.903  0.000    19.923     6.357
 344   6 C      0.306  1.038  2.656  0.000    21.808     7.649
 345   8 O     -0.530  1.745  4.785  0.000    24.457     6.631
 346   6 C      0.105  1.032  2.863  0.000    19.016     6.238
 347   8 O     -0.480  1.705  4.775  0.000    22.466     6.398
 348   1 H      0.168  0.832  0.000  0.000     1.285     1.776
 349   1 H      0.084  0.916  0.000  0.000     1.940     2.178
 350   1 H      0.019  0.981  0.000  0.000     2.751     2.594
 351   1 H      0.100  0.900  0.000  0.000     1.785     2.090
 352   1 H      0.262  0.738  0.000  0.000     0.849     1.448
 353   7 N     -0.186  1.244  3.941  0.000    25.021     7.429
 354   6 C      0.118  1.026  2.856  0.000    18.656     6.149
 355   6 C      0.284  1.044  2.672  0.000    22.192     7.715
 356   8 O     -0.543  1.762  4.781  0.000    24.749     6.670
 357   6 C     -0.044  1.059  2.984  0.000    21.351     6.577
 358   6 C      0.379  1.029  2.592  0.000    20.579     7.424
 359   8 O     -0.623  1.799  4.823  0.000    26.683     6.926
 360   8 O     -0.658  1.760  4.898  0.000    27.583     7.041
 361   1 H      0.179  0.821  0.000  0.000     1.217     1.728
 362   1 H     -0.012  1.012  0.000  0.000     3.277     2.831
 363   1 H      0.015  0.985  0.000  0.000     2.811     2.622
 364   1 H     -0.015  1.015  0.000  0.000     3.339     2.858
 365   7 N     -0.194  1.251  3.943  0.000    25.217     7.458
 366   6 C      0.045  1.053  2.902  0.000    19.825     6.340
 367   6 C      0.285  1.037  2.678  0.000    22.171     7.711
 368   8 O     -0.461  1.717  4.744  0.000    22.930     6.420
 369   6 C     -0.064  1.051  3.012  0.000    21.701     6.628
 370   6 C     -0.001  1.036  2.966  0.000    20.565     6.449
 371   6 C     -0.117  1.046  3.071  0.000    22.709     6.782
 372   6 C     -0.120  1.041  3.079  0.000    22.774     6.792
 373   1 H      0.208  0.792  0.000  0.000     1.068     1.619
 374   1 H      0.056  0.944  0.000  0.000     2.246     2.344
 375   1 H      0.053  0.947  0.000  0.000     2.282     2.362
 376   1 H      0.051  0.949  0.000  0.000     2.306     2.375
 377   1 H      0.034  0.966  0.000  0.000     2.532     2.489
 378   1 H      0.074  0.926  0.000  0.000     2.042     2.235
 379   1 H      0.021  0.979  0.000  0.000     2.725     2.582
 380   1 H      0.062  0.938  0.000  0.000     2.177     2.307
 381   1 H      0.071  0.929  0.000  0.000     2.079     2.255
 382   1 H      0.052  0.948  0.000  0.000     2.290     2.366
 383   1 H      0.029  0.971  0.000  0.000     2.607     2.525
 384   7 N     -0.205  1.247  3.957  0.000    25.452     7.493
 385   6 C      0.037  1.059  2.904  0.000    19.949     6.359
 386   6 C      0.280  1.040  2.680  0.000    22.265     7.727
 387   8 O     -0.459  1.714  4.745  0.000    22.894     6.415
 388   6 C     -0.055  1.051  3.004  0.000    21.542     6.605
 389   6 C      0.005  1.078  2.916  0.000    27.898     8.664
 390   6 C     -0.041  1.083  2.958  0.000    29.017     8.834
 391   6 C     -0.023  1.078  2.945  0.000    28.590     8.769
 392   6 C     -0.061  1.075  2.986  0.000    29.517     8.909
 393   6 C     -0.079  1.074  3.005  0.000    29.977     8.978
 394   6 C      0.145  1.041  2.814  0.000    24.842     8.169
 395   8 O     -0.394  1.695  4.699  0.000    20.732     6.147
 396   1 H      0.176  0.824  0.000  0.000     1.236     1.741
 397   1 H      0.100  0.900  0.000  0.000     1.786     2.090
 398   1 H      0.002  0.998  0.000  0.000     3.021     2.718
 399   1 H      0.071  0.929  0.000  0.000     2.079     2.255
 400   1 H      0.057  0.943  0.000  0.000     2.238     2.340
 401   1 H     -0.027  1.027  0.000  0.000     3.568     2.954
 402   1 H      0.089  0.911  0.000  0.000     1.890     2.150
 403   1 H      0.036  0.964  0.000  0.000     2.501     2.473
 404   1 H      0.355  0.645  0.000  0.000     0.578     1.194
 405   7 N     -0.168  1.236  3.932  0.000    24.634     7.371
 406   6 C      0.040  1.062  2.898  0.000    19.921     6.357
 407   6 C      0.138  1.051  2.811  0.000    24.966     8.184
 408   8 O     -0.490  1.761  4.728  0.000    23.559     6.508
 409   6 C      0.110  1.034  2.855  0.000    18.998     6.247
 410   8 O     -0.466  1.700  4.766  0.000    22.171     6.356
 411   1 H      0.147  0.853  0.000  0.000     1.423     1.869
 412   1 H      0.069  0.931  0.000  0.000     2.091     2.262
 413   1 H     -0.006  1.006  0.000  0.000     3.168     2.783
 414   1 H      0.038  0.962  0.000  0.000     2.471     2.458
 415   1 H      0.262  0.738  0.000  0.000     0.847     1.446
 416   7 N     -0.377  1.288  4.089  0.000    29.735     8.099
 417   6 C      0.035  1.056  2.909  0.000    20.004     6.371
 418   6 C      0.182  1.074  2.744  0.000    24.096     8.039
 419   8 O     -0.416  1.742  4.674  0.000    22.005     6.289
 420   6 C      0.113  1.026  2.861  0.000    18.915     6.226
 421   8 O     -0.459  1.691  4.769  0.000    22.035     6.337
 422   1 H      0.141  0.859  0.000  0.000     1.462     1.894
 423   1 H      0.048  0.952  0.000  0.000     2.341     2.393
 424   1 H      0.023  0.977  0.000  0.000     2.693     2.566
 425   1 H     -0.027  1.027  0.000  0.000     3.582     2.960
 426   1 H      0.305  0.695  0.000  0.000     0.705     1.319
 427   8 O     -0.832  1.909  4.923  0.000    32.550     7.650
 428   8 O     -0.818  1.916  4.902  0.000    32.113     7.598
 429   7 N     -0.403  1.324  4.079  0.000    30.469     8.198
 430   6 C      0.046  1.049  2.905  0.000    19.809     6.337
 431   6 C      0.193  1.073  2.734  0.000    23.876     8.003
 432   8 O     -0.452  1.778  4.675  0.000    22.756     6.396
 433   6 C     -0.069  1.055  3.014  0.000    21.802     6.643
 434   6 C     -0.007  1.052  2.956  0.000    20.667     6.465
 435   6 C     -0.118  1.043  3.075  0.000    22.810     6.809
 436   6 C     -0.108  1.039  3.070  0.000    22.614     6.779
 437   1 H      0.178  0.822  0.000  0.000     1.227     1.735
 438   1 H      0.046  0.954  0.000  0.000     2.371     2.408
 439   1 H      0.067  0.933  0.000  0.000     2.122     2.278
 440   1 H      0.019  0.981  0.000  0.000     2.747     2.592
 441   1 H      0.022  0.978  0.000  0.000     2.710     2.575
 442   1 H      0.054  0.946  0.000  0.000     2.269     2.356
 443   1 H      0.042  0.958  0.000  0.000     2.418     2.432
 444   1 H      0.055  0.945  0.000  0.000     2.259     2.350
 445   1 H      0.049  0.951  0.000  0.000     2.326     2.385
 446   1 H      0.050  0.950  0.000  0.000     2.315     2.379
 447   1 H      0.017  0.983  0.000  0.000     2.784     2.609
 448   7 N     -0.371  1.287  4.084  0.000    29.574     8.077
 449   6 C      0.088  1.036  2.876  0.000    19.143     6.233
 450   6 C      0.151  1.075  2.773  0.000    24.707     8.141
 451   8 O     -0.481  1.767  4.714  0.000    23.362     6.480
 452   6 C     -0.053  1.070  2.983  0.000    21.526     6.604
 453   6 C      0.371  1.032  2.597  0.000    20.709     7.447
 454   8 O     -0.641  1.798  4.843  0.000    27.139     6.985
 455   8 O     -0.673  1.774  4.899  0.000    27.988     7.093
 456   1 H      0.152  0.848  0.000  0.000     1.387     1.845
 457   1 H     -0.026  1.026  0.000  0.000     3.546     2.945
 458   1 H      0.028  0.972  0.000  0.000     2.620     2.531
 459   1 H     -0.024  1.024  0.000  0.000     3.514     2.931
 460   7 N     -0.358  1.298  4.061  0.000    29.240     8.031
 461   6 C      0.044  1.060  2.896  0.000    19.863     6.349
 462   6 C      0.147  1.062  2.791  0.000    24.786     8.154
 463   8 O     -0.443  1.755  4.688  0.000    22.568     6.369
 464   6 C      0.124  1.029  2.847  0.000    18.781     6.211
 465   8 O     -0.457  1.689  4.768  0.000    21.992     6.331
 466   1 H      0.113  0.887  0.000  0.000     1.678     2.029
 467   1 H      0.046  0.954  0.000  0.000     2.370     2.408
 468   1 H     -0.012  1.012  0.000  0.000     3.284     2.834
 469   1 H     -0.002  1.002  0.000  0.000     3.101     2.754
 470   1 H      0.242  0.758  0.000  0.000     0.923     1.509
 471   7 N     -0.374  1.309  4.066  0.000    29.664     8.089
 472   6 C     -0.013  1.050  2.963  0.000    20.908     6.529
 473   6 C      0.261  1.059  2.680  0.000    22.599     7.784
 474   8 O     -0.475  1.740  4.735  0.000    23.245     6.464
 475   1 H      0.126  0.874  0.000  0.000     1.578     1.968
 476   1 H      0.065  0.935  0.000  0.000     2.145     2.290
 477   1 H      0.016  0.984  0.000  0.000     2.794     2.614
 478   7 N     -0.174  1.242  3.932  0.000    24.763     7.391
 479   6 C      0.033  1.056  2.911  0.000    20.029     6.372
 480   6 C      0.179  1.067  2.754  0.000    24.152     8.048
 481   8 O     -0.384  1.726  4.658  0.000    21.365     6.197
 482   6 C      0.109  1.026  2.865  0.000    18.971     6.235
 483   8 O     -0.447  1.684  4.762  0.000    21.779     6.300
 484   1 H      0.192  0.808  0.000  0.000     1.148     1.679
 485   1 H      0.070  0.930  0.000  0.000     2.084     2.257
 486   1 H      0.053  0.947  0.000  0.000     2.278     2.360
 487   1 H     -0.031  1.031  0.000  0.000     3.655     2.990
 488   1 H      0.316  0.684  0.000  0.000     0.674     1.290
 489   7 N     -0.342  1.378  3.963  0.000    28.788     7.969
 490   6 C      0.035  1.058  2.908  0.000    19.956     6.353
 491   6 C      0.273  1.039  2.687  0.000    22.384     7.748
 492   8 O     -0.511  1.746  4.764  0.000    24.022     6.571
 493   6 C     -0.063  1.052  3.010  0.000    21.659     6.619
 494   6 C     -0.057  1.046  3.011  0.000    21.560     6.605
 495   6 C      0.017  1.045  2.939  0.000    20.256     6.401
 496   1 H      0.027  0.973  0.000  0.000     2.623     2.533
 497   1 H      0.046  0.954  0.000  0.000     2.373     2.409
 498   1 H      0.030  0.970  0.000  0.000     2.592     2.518
 499   1 H      0.015  0.985  0.000  0.000     2.812     2.622
 500   1 H      0.038  0.962  0.000  0.000     2.477     2.461
 501   1 H      0.029  0.971  0.000  0.000     2.599     2.521
 502   1 H      0.030  0.970  0.000  0.000     2.587     2.515
 503   7 N     -0.171  1.248  3.923  0.000    24.699     7.381
 504   6 C      0.023  1.062  2.914  0.000    20.173     6.393
 505   6 C      0.203  1.075  2.722  0.000    23.676     7.969
 506   8 O     -0.380  1.747  4.633  0.000    21.284     6.185
 507   6 C     -0.021  1.065  2.955  0.000    20.904     6.502
 508   6 C     -0.058  1.045  3.013  0.000    21.606     6.616
 509   6 C     -0.118  1.039  3.079  0.000    22.816     6.810
 510   6 C     -0.098  1.032  3.066  0.000    22.417     6.750
 511   1 H      0.221  0.779  0.000  0.000     1.003     1.569
 512   1 H      0.078  0.922  0.000  0.000     2.002     2.213
 513   1 H      0.057  0.943  0.000  0.000     2.234     2.338
 514   1 H      0.041  0.959  0.000  0.000     2.431     2.438
 515   1 H      0.036  0.964  0.000  0.000     2.504     2.474
 516   1 H      0.058  0.942  0.000  0.000     2.222     2.331
 517   1 H      0.054  0.946  0.000  0.000     2.272     2.357
 518   1 H      0.054  0.946  0.000  0.000     2.272     2.357
 519   1 H      0.001  0.999  0.000  0.000     3.043     2.728
 520   1 H      0.036  0.964  0.000  0.000     2.504     2.475
 521   1 H      0.047  0.953  0.000  0.000     2.357     2.401
 522   7 N     -0.397  1.326  4.071  0.000    30.301     8.175
 523   6 C      0.038  1.060  2.902  0.000    19.958     6.365
 524   6 C      0.176  1.081  2.743  0.000    24.208     8.057
 525   8 O     -0.483  1.792  4.691  0.000    23.422     6.489
 526   6 C     -0.080  1.063  3.017  0.000    22.017     6.680
 527   6 C     -0.052  1.041  3.010  0.000    21.500     6.602
 528   6 C     -0.076  1.050  3.026  0.000    21.942     6.669
 529   6 C     -0.036  1.052  2.984  0.000    21.313     6.589
 530   7 N     -0.164  1.255  3.910  0.000    24.546     7.358
 531   1 H      0.188  0.812  0.000  0.000     1.168     1.693
 532   1 H      0.028  0.972  0.000  0.000     2.621     2.532
 533   1 H      0.081  0.919  0.000  0.000     1.972     2.196
 534   1 H      0.069  0.931  0.000  0.000     2.095     2.263
 535   1 H     -0.006  1.006  0.000  0.000     3.171     2.785
 536   1 H      0.034  0.966  0.000  0.000     2.529     2.487
 537   1 H      0.064  0.936  0.000  0.000     2.156     2.296
 538   1 H      0.024  0.976  0.000  0.000     2.668     2.554
 539   1 H      0.099  0.901  0.000  0.000     1.798     2.097
 540   1 H      0.132  0.868  0.000  0.000     1.518     1.927
 541   1 H      0.301  0.699  0.000  0.000     0.712     1.322
 542   1 H      0.300  0.700  0.000  0.000     0.715     1.325
 543   1 H      0.275  0.725  0.000  0.000     0.793     1.395
 544   1 H      0.200  0.800  0.000  0.000     1.105     1.647
 545   1 H      0.066  0.934  0.000  0.000     2.133     2.284
 546   1 H      0.182  0.818  0.000  0.000     1.205     1.719
 547   1 H      0.062  0.938  0.000  0.000     2.175     2.306
 548   1 H      0.169  0.831  0.000  0.000     1.280     1.772
 549   1 H      0.072  0.928  0.000  0.000     2.064     2.247
 550   1 H      0.182  0.818  0.000  0.000     1.200     1.716
 551   1 H      0.074  0.926  0.000  0.000     2.047     2.237
 552   1 H      0.197  0.803  0.000  0.000     1.119     1.657
 553   1 H      0.062  0.938  0.000  0.000     2.178     2.308
 554   1 H      0.179  0.821  0.000  0.000     1.217     1.728
 555   1 H      0.070  0.930  0.000  0.000     2.086     2.258
 556   1 H      0.192  0.808  0.000  0.000     1.146     1.677
 557   1 H      0.037  0.963  0.000  0.000     2.485     2.465
 558   1 H      0.164  0.836  0.000  0.000     1.310     1.793
 559   1 H      0.064  0.936  0.000  0.000     2.152     2.294
 560   1 H      0.195  0.805  0.000  0.000     1.132     1.667
 561   1 H      0.067  0.933  0.000  0.000     2.123     2.278
 562   1 H      0.218  0.782  0.000  0.000     1.018     1.580
 563   1 H      0.064  0.936  0.000  0.000     2.155     2.295
 564   1 H      0.229  0.771  0.000  0.000     0.961     1.533
 565   1 H      0.064  0.936  0.000  0.000     2.158     2.297
 566   1 H      0.191  0.809  0.000  0.000     1.154     1.682
 567   1 H      0.058  0.942  0.000  0.000     2.223     2.331

 Mol. C6AA /au·bohr⁶  :    2940469.119842
 Mol. C8AA /au·bohr⁸  :   65212745.606456
 Mol. α(0) /au        :       2560.323993

 
molecular dipole:
                 x           y           z       tot (Debye)
 q only:     -747.906    -792.366   -2310.226
   full:     -747.380    -787.269   -2306.616    6479.770
molecular quadrupole (traceless):
                xx          xy          yy          xz          yz          zz
 q only:   403148.577 -148805.724  388641.956 -431811.724 -457426.402 -791790.533
  q+dip:   401280.675 -147821.413  388371.084 -430736.309 -453780.166 -789651.759
   full:   401278.809 -147825.666  388369.099 -430738.526 -453777.483 -789647.908
speedup  1.76
cpu  time for grad    2 m 27.0 s
wall time for grad    1 m 23.5 s

SCC energy    :    -869.4312258
rep           :      10.2158129
ES            :       5.0013449
AES           :      -0.4206448
AXC           :       0.2763270
disp          :      -0.7595547
XB            :       0.0000000
fix           :       0.0000000
Gborn         :       0.0000000
Gsasa         :       0.0000000
Ghb           :       0.0000000
Gshift        :       0.0000000
Gsolv         :      -2.5399537    -1593.85
Etot ala COSMO:    -869.4312258
grad norm     :       0.7735217
total E       :    -859.1337896
atomizationE  :     156.9818056    98507.57
(atE without considering molecular charge,
 total energy contains solvation terms)
H-L gap (eV)  :          0.0140

------------------------------------------------------------------------
 * finished run on 2019/05/07 at 22:48:33.611     
------------------------------------------------------------------------
 total:
 * wall-time:     0 d,  0 h,  1 min, 25.948 sec
 *  cpu-time:     0 d,  0 h,  2 min, 30.295 sec
 * ratio c/w:     1.749 speedup
 SCF:
 * wall-time:     0 d,  0 h,  1 min, 25.476 sec
 *  cpu-time:     0 d,  0 h,  2 min, 29.763 sec
 * ratio c/w:     1.752 speedup

