      -----------------------------------------------------------      
     |                   =====================                   |     
     |                           x T B                           |     
     |                   =====================                   |     
     |                         S. Grimme                         |     
     |          Mulliken Center for Theoretical Chemistry        |     
     |                    University of Bonn                     |     
     |                 Version 6.0.1 (SAW181210)                 |     
      -----------------------------------------------------------      

   This program is distributed in the hope that it will be useful,
   but WITHOUT ANY WARRANTY; without even the implied warranty of
   MERCHANTABILITY or FITNESS FOR A PARTICULAR PURPOSE.
   
   FOR NON-COMMERCIAL, ACADEMIA USE ONLY.
   
   Cite this work as:
   S. Grimme, C. Bannwarth, P. Shushkov, J. Comput. Theory Chem., 2017,
   13, 1989-2009.
   C. Bannwarth, S. Ehlert and S. Grimme., ChemRxiv, 2018, preprint.
   http://doi.org/10.26434/chemrxiv.7246238.v1
   
   for sTDA-xTB:
   S. Grimme and C. Bannwarth, J. Chem. Phys., 2016, 145, 054103.
   
   in the mass-spec context:
   V. Asgeirsson, C. Bauer and S. Grimme, Chem. Sci., 2017, 8, 4879.
   
   if GBSA is used:
   P. Shushkov, F. März and S. Grimme, unpublished.
   
   for ANC optimizer:
   S. Grimme, unpublished.
   Rational Function algorithm used in ANCopt:
   F. Eckert, P. Pulay, H.-J. Werner, J. Comput. Chem., 1997, 18, 1473.
   
   with help from (in alphabetical order)
   C. Bannwarth, F. Bohle, G. Brandenburg, E. Caldeweyher, M. Checinski,
   S. Dohm, S. Ehlert, S. Ehrlich, F. März, H. Neugebauer, J. Pisarek,
   P. Pracht, P. Shushkov, and S. Spicher.
   
 * started run on 2019/05/04 at 16:15:22.432     
========================================================================
 # omp threads = 2
========================================================================
number of atoms            : 879
number of electrons        : 2328
charge                     : -1
spin                       : .0
first test random number   : .6198

########################################################################
# WARNING! Please study the warnings concerning your input carefully
#  - Process number higher than OMP_NUM_THREADS, I hope you know what you are doing.
########################################################################

           ------------------------------------------------- 
          |                 G F N 2 - x T B                 |
          | Geometry, Frequencies, Noncovalent interactions |
          |            JCTC 2018 parametrisation            |
           ------------------------------------------------- 
 
      method parameters     
 k(s)        :  1.8500
 k(p)        :  2.2300
 k(d)        :  2.2300
 k(f)        :  2.0000
 kEN (H0ij)  : -2.0000
 D4 a1       :  0.5200
 D4 a2       :  5.0000
 D4 s6       :  1.0000
 D4 s8       :  2.7000
 D4 s9       :  5.0000
 alphaj      :  2.0000

 Solvent             : h2o
 Using internal parameter file: .param_gbsa2_h2o
 Gsolv ref. state (COSMO-RS): gsolv [1 M gas/solution]
 temperature (mdtemp)       :    298.150000000000     
 dielectric constant        :    80.2000000000000     
 rho                        :    1.00000000000000     
 mass                       :    18.0000000000000     
 surface tension            :    15.5689454083859     
 probe radius               :   0.975313790000000     
 vdW radii scaling          :    1.00000000000000     
 Gshift (Eh)                :   1.857443126794793E-003
 c1                         :    1.55243817000000     
 soset                      :   0.130326360000000     
 HB correction              :  T

            Z     q(EN)     CN     RAES       Cart. coordinates
     1  N   5.0   -0.22    3.22    1.96    77.06680     9.10281   -13.29611
     2  C   4.0    0.02    4.25    4.10    77.23121     9.12738   -10.55223
     3  C   4.0    0.15    3.44    3.09    79.88250     8.33747    -9.77744
     4  O   6.0   -0.32    1.30    1.80    81.26766     9.77744    -8.58125
     5  C   4.0   -0.08    4.11    3.83    75.27156     7.32647    -9.40895
     6  H   1.0    0.07    1.03    1.43    75.75911     7.87071   -13.99342
     7  H   1.0    0.04    1.05    1.44    76.82114    11.01710    -9.84169
     8  H   1.0    0.04    1.00    1.43    75.43219     7.37749    -7.35670
     9  H   1.0    0.03    1.00    1.43    73.38751     7.93307    -9.98153
    10  H   1.0    0.04    1.00    1.43    75.63439     5.41784   -10.09492
    11  N   5.0   -0.15    3.49    2.07    80.60626     6.05468   -10.50310
    12  C   4.0    0.03    4.49    4.52    83.07991     5.11549    -9.82846
    13  C   4.0    0.16    3.45    3.10    85.17751     6.77467   -10.96230
    14  O   6.0   -0.31    1.24    1.80    86.98409     7.40773    -9.65272
    15  C   4.0   -0.03    4.26    4.11    83.35770     2.28279   -10.62782
    16  C   4.0   -0.08    4.15    3.89    83.90572     2.07303   -13.43028
    17  C   4.0   -0.08    4.09    3.78    85.37782     0.98266    -9.02722
    18  H   1.0    0.07    1.06    1.44    79.53668     4.83392   -11.54245
    19  H   1.0    0.05    1.06    1.44    83.26510     5.21753    -7.78000
    20  H   1.0    0.03    1.06    1.44    81.57947     1.29824   -10.28767
    21  H   1.0    0.03    1.00    1.43    84.08903     0.08315   -13.93106
    22  H   1.0    0.03    1.00    1.43    82.35237     2.92152   -14.48286
    23  H   1.0    0.04    1.01    1.43    85.66128     3.06703   -13.84602
    24  H   1.0    0.04    1.00    1.43    85.53656    -0.98455    -9.61682
    25  H   1.0    0.05    1.00    1.43    87.17684     1.94642    -9.30501
    26  H   1.0    0.04    1.00    1.43    84.82791     1.07903    -7.04490
    27  N   5.0   -0.15    3.47    2.06    84.91106     7.56457   -13.33769
    28  C   4.0    0.03    4.52    4.57    86.85936     9.11037   -14.55278
    29  C   4.0    0.15    3.47    3.10    87.17306    11.79000   -13.55689
    30  O   6.0   -0.31    1.25    1.80    89.29900    12.72730   -13.39816
    31  C   4.0   -0.03    4.31    4.22    86.44740     9.32580   -17.42327
    32  C   4.0   -0.06    4.17    3.94    88.52421    10.92451   -18.58923
    33  C   4.0   -0.08    4.15    3.89    86.46630     6.74632   -18.60624
    34  H   1.0    0.07    1.06    1.44    83.39361     7.17529   -14.46018
    35  H   1.0    0.07    1.07    1.44    88.56201     8.05401   -14.07657
    36  H   1.0    0.04    1.06    1.44    84.62382    10.21586   -17.77854
    37  H   1.0    0.05    1.00    1.43    88.20674    11.05868   -20.62069
    38  H   1.0    0.06    1.02    1.43    88.47886    12.80289   -17.74453
    39  H   1.0    0.06    1.00    1.43    90.34402    10.03256   -18.22074
    40  H   1.0    0.04    1.00    1.43    86.17150     6.93718   -20.63581
    41  H   1.0    0.04    1.00    1.43    88.28611     5.85437   -18.24152
    42  H   1.0    0.04    1.00    1.43    84.95263     5.61816   -17.78043
    43  N   5.0   -0.14    3.47    2.06    85.08680    13.04100   -12.92195
    44  C   4.0    0.03    4.50    4.54    85.23798    15.62803   -11.97330
    45  C   4.0    0.15    3.42    3.09    85.30034    15.83023    -9.10281
    46  O   6.0   -0.32    1.28    1.80    86.16961    17.72941    -8.05779
    47  C   4.0   -0.05    4.32    4.24    83.07802    17.21918   -13.03911
    48  C   4.0   -0.04    4.04    3.69    83.38416    17.78421   -15.84913
    49  S   6.0   -0.04    2.55    3.10    86.60425    18.67994   -16.79777
    50  C   4.0   -0.07    3.88    3.44    86.65905    22.05121   -16.04188
    51  H   1.0    0.08    1.05    1.44    83.29912    12.32857   -13.04100
    52  H   1.0    0.06    1.13    1.45    86.99353    16.44817   -12.67061
    53  H   1.0    0.04    1.03    1.43    81.30735    16.20062   -12.78400
    54  H   1.0    0.04    1.03    1.43    83.00999    19.01442   -12.03189
    55  H   1.0    0.04    1.06    1.44    82.86826    16.10047   -16.91683
    56  H   1.0    0.04    1.06    1.44    82.13316    19.34512   -16.34613
    57  H   1.0    0.06    1.04    1.43    88.50720    22.81844   -16.52943
    58  H   1.0    0.04    1.03    1.43    85.19263    23.00552   -17.12848
    59  H   1.0    0.05    1.04    1.43    86.30756    22.29310   -14.02744
    60  N   5.0   -0.14    3.47    2.06    84.38382    13.87437    -7.82913
    61  C   4.0    0.01    4.29    4.18    84.42351    13.88949    -5.09092
    62  C   4.0    0.15    3.40    3.08    87.15038    13.58335    -4.30291
    63  O   6.0   -0.33    1.33    1.80    88.06879    14.87781    -2.60593
    64  H   1.0    0.11    1.10    1.44    83.62037    12.29078    -8.62093
    65  H   1.0    0.05    1.03    1.43    83.68084    15.66772    -4.36338
    66  H   1.0    0.04    1.02    1.43    83.29912    12.33613    -4.33881
    67  N   5.0   -0.14    3.55    2.11    88.44862    11.85425    -5.57469
    68  C   4.0    0.03    4.39    4.37    91.09235    11.35914    -5.05124
    69  C   4.0    0.16    3.50    3.11    92.57578    13.74398    -5.55201
    70  O   6.0   -0.31    1.27    1.80    94.14804    14.53010    -4.03079
    71  C   4.0   -0.06    4.15    3.91    92.03343     9.27666    -6.74065
    72  H   1.0    0.10    1.08    1.44    87.71730    10.76199    -6.98443
    73  H   1.0    0.05    1.06    1.44    91.33423    10.75821    -3.09537
    74  H   1.0    0.05    1.00    1.43    94.01954     8.92329    -6.32680
    75  H   1.0    0.05    1.00    1.43    90.92983     7.57402    -6.38538
    76  H   1.0    0.07    1.00    1.43    91.81611     9.85681    -8.70597
    77  N   5.0   -0.14    3.54    2.10    92.05989    14.87592    -7.72709
    78  C   4.0    0.04    4.37    4.32    93.31656    17.19462    -8.51511
    79  C   4.0    0.16    3.47    3.10    92.94050    19.22040    -6.52144
    80  O   6.0   -0.31    1.23    1.80    94.69039    20.63581    -5.89028
    81  C   4.0   -0.07    4.13    3.85    92.24508    18.06956   -11.02655
    82  H   1.0    0.09    1.07    1.44    90.76732    14.23153    -9.00454
    83  H   1.0    0.05    1.06    1.44    95.33289    16.85258    -8.76455
    84  H   1.0    0.04    1.00    1.43    93.19939    19.80433   -11.59536
    85  H   1.0    0.05    1.00    1.43    92.55689    16.60124   -12.43629
    86  H   1.0    0.06    1.00    1.43    90.22686    18.41727   -10.80923
    87  N   5.0   -0.13    3.54    2.10    90.62370    19.34701    -5.56146
    88  C   4.0    0.03    4.42    4.41    89.95473    21.14981    -3.59615
    89  C   4.0    0.16    3.51    3.12    91.60636    20.53754    -1.29824
    90  O   6.0   -0.32    1.42    1.80    92.96318    22.15704    -0.29858
    91  C   4.0   -0.03    4.34    4.28    87.14282    20.87202    -2.92341
    92  C   4.0   -0.02    3.54    3.13    86.23008    22.74285    -0.98266
    93  C   4.0   -0.05    3.49    3.11    86.23197    25.31666    -1.49666
    94  C   4.0   -0.04    3.46    3.10    85.41372    21.93783     1.37761
    95  C   4.0   -0.05    3.36    3.07    85.44585    27.06654     0.31747
    96  C   4.0   -0.05    3.38    3.07    84.62382    23.67449     3.20498
    97  C   4.0   -0.05    3.37    3.07    84.64083    26.24073     2.66829
    98  H   1.0    0.11    1.10    1.44    89.15916    18.22074    -6.10759
    99  H   1.0    0.04    1.05    1.44    90.24197    23.09245    -4.21598
   100  H   1.0    0.05    1.03    1.43    86.02410    21.14414    -4.63172
   101  H   1.0    0.06    1.04    1.44    86.82724    18.98230    -2.16941
   102  H   1.0    0.04    1.04    1.43    86.84991    25.97617    -3.32592
   103  H   1.0    0.05    1.03    1.43    85.38916    19.94228     1.80847
   104  H   1.0    0.04    1.03    1.43    85.46475    29.06210    -0.11149
   105  H   1.0    0.04    1.03    1.43    84.00021    23.01875     5.03423
   106  H   1.0    0.04    1.03    1.43    84.03044    27.58811     4.07425
   107  N   5.0   -0.14    3.52    2.09    91.49864    18.15649    -0.50645
   108  C   4.0    0.04    4.44    4.44    92.95184    17.27965     1.64973
   109  C   4.0    0.17    3.53    3.13    95.56722    18.49286     1.67997
   110  O   6.0   -0.30    1.28    1.80    96.35524    19.52843     3.60749
   111  C   4.0   -0.03    4.33    4.25    93.16349    14.39215     1.58548
   112  C   4.0    0.15    3.23    3.04    94.37291    13.32446     3.94764
   113  O   6.0   -0.29    1.22    1.80    93.88159    14.21452     6.03389
   114  N   5.0   -0.18    3.17    1.95    95.94517    11.38560     3.63394
   115  H   1.0    0.12    1.13    1.45    90.41772    16.78644    -1.32470
   116  H   1.0    0.06    1.06    1.44    91.97296    17.79744     3.38639
   117  H   1.0    0.05    1.03    1.43    91.27754    13.58335     1.41352
   118  H   1.0    0.06    1.05    1.44    94.31811    13.83846    -0.02835
   119  H   1.0    0.09    1.02    1.43    96.81255    10.59191     5.16084
   120  H   1.0    0.08    1.02    1.43    96.28154    10.69396     1.86705
   121  N   5.0   -0.13    3.48    2.06    96.89381    18.42483    -0.45542
   122  C   4.0    0.04    4.46    4.48    99.40903    19.51709    -0.51401
   123  C   4.0    0.16    3.59    3.16    99.40714    22.29877     0.03590
   124  O   6.0   -0.32    1.43    1.80   100.78097    23.13780     1.69319
   125  C   4.0   -0.05    4.24    4.07   100.75830    19.06545    -3.03868
   126  C   4.0   -0.05    4.15    3.89   103.26407    20.59612    -3.35237
   127  C   4.0   -0.05    4.12    3.85   105.12356    20.32778    -1.09982
   128  C   4.0   -0.04    4.08    3.77   107.54808    21.93405    -1.41540
   129  N   5.0   -0.12    3.97    2.79   109.26395    21.90192     0.85227
   130  H   1.0    0.11    1.06    1.44    96.29477    17.65193    -2.11649
   131  H   1.0    0.05    1.07    1.44   100.45783    18.53632     0.96187
   132  H   1.0    0.04    1.02    1.43   101.22317    17.06423    -3.18986
   133  H   1.0    0.06    1.03    1.43    99.49407    19.61347    -4.56936
   134  H   1.0    0.04    1.02    1.43   104.23539    19.93472    -5.04368
   135  H   1.0    0.04    1.03    1.43   102.79920    22.59356    -3.54135
   136  H   1.0    0.06    1.04    1.43   104.17870    20.94005     0.62550
   137  H   1.0    0.04    1.02    1.43   105.68859    18.35491    -0.92975
   138  H   1.0    0.04    1.02    1.43   108.61767    21.20839    -3.01789
   139  H   1.0    0.04    1.02    1.43   107.00384    23.88992    -1.75933
   140  H   1.0    0.05    1.01    1.43   110.84943    23.01308     0.51212
   141  H   1.0    0.06    1.01    1.43   108.31531    22.60679     2.42263
   142  H   1.0    0.06    1.01    1.43   109.84410    20.06322     1.23021
   143  N   5.0   -0.14    3.54    2.10    97.90670    23.77464    -1.31903
   144  C   4.0    0.04    4.54    4.59    97.99552    26.45616    -0.77668
   145  C   4.0    0.17    3.56    3.14    97.67427    26.77931     2.07870
   146  O   6.0   -0.30    1.31    1.80    99.26730    27.97550     3.29757
   147  C   4.0   -0.03    4.35    4.28    95.99052    27.98684    -2.27901
   148  C   4.0   -0.04    4.32    4.23    93.36758    26.98718    -1.71398
   149  C   4.0   -0.07    4.16    3.92    96.51019    27.83188    -5.12116
   150  C   4.0   -0.08    4.09    3.78    91.41738    27.99818    -3.49221
   151  H   1.0    0.10    1.06    1.44    96.69539    23.20772    -2.70609
   152  H   1.0    0.06    1.06    1.44    99.81532    27.20261    -1.38706
   153  H   1.0    0.04    1.05    1.44    96.10768    29.95783    -1.69130
   154  H   1.0    0.08    1.12    1.45    93.38081    24.93493    -1.87839
   155  H   1.0    0.04    1.04    1.43    92.83657    27.53709     0.19842
   156  H   1.0    0.04    1.01    1.43    95.07778    28.91848    -6.12460
   157  H   1.0    0.06    1.01    1.43    98.37913    28.60856    -5.50477
   158  H   1.0    0.06    1.00    1.43    96.43649    25.85901    -5.71075
   159  H   1.0    0.04    1.04    1.43    89.58057    27.21394    -2.98955
   160  H   1.0    0.04    1.00    1.43    91.37014    30.05231    -3.33915
   161  H   1.0    0.04    1.01    1.43    91.91438    27.44827    -5.41406
   162  N   5.0   -0.14    3.49    2.07    95.70895    25.64736     3.17096
   163  C   4.0    0.03    4.50    4.54    95.30266    25.86846     5.90350
   164  C   4.0    0.17    3.56    3.15    97.79899    25.67571     7.33592
   165  O   6.0   -0.32    1.30    1.80    98.53787    27.38591     8.72109
   166  C   4.0   -0.02    4.35    4.29    93.53199    23.75952     6.93907
   167  C   4.0   -0.05    4.21    4.01    90.83724    24.13747     5.95831
   168  C   4.0   -0.07    4.15    3.90    93.57356    23.74441     9.83035
   169  C   4.0   -0.08    4.05    3.71    89.58246    26.52230     6.84270
   170  H   1.0    0.10    1.08    1.44    94.39370    24.58911     2.24121
   171  H   1.0    0.05    1.06    1.44    94.46362    27.72606     6.19830
   172  H   1.0    0.07    1.07    1.44    94.21796    21.93783     6.26633
   173  H   1.0    0.05    1.03    1.43    90.89015    24.19038     3.90039
   174  H   1.0    0.04    1.03    1.43    89.68072    22.55577     6.59325
   175  H   1.0    0.04    1.00    1.43    92.32256    22.25530    10.51066
   176  H   1.0    0.05    1.01    1.43    95.49919    23.39292    10.47097
   177  H   1.0    0.04    1.00    1.43    92.92727    25.57555    10.52010
   178  H   1.0    0.04    1.01    1.43    87.68517    26.61679     6.04712
   179  H   1.0    0.04    1.00    1.43    89.48041    26.50341     8.90061
   180  H   1.0    0.04    1.00    1.43    90.69173    28.13802     6.20964
   181  N   5.0   -0.13    3.54    2.11    99.10668    23.57622     6.95986
   182  C   4.0    0.04    4.48    4.51   101.47639    23.12836     8.26377
   183  C   4.0    0.16    3.48    3.10   103.58155    24.97651     7.55701
   184  O   6.0   -0.32    1.43    1.80   104.91381    25.92704     9.19541
   185  C   4.0   -0.03    4.09    3.78   102.29465    20.37314     7.83669
   186  S   6.0   -0.05    2.29    3.10   100.09689    18.03932     9.15005
   187  H   1.0    0.11    1.08    1.44    98.57944    22.15515     5.76933
   188  H   1.0    0.05    1.07    1.44   101.15136    23.43260    10.27444
   189  H   1.0    0.06    1.06    1.44   102.43637    20.03110     5.81091
   190  H   1.0    0.05    1.06    1.44   104.12768    20.08212     8.73053
   191  H   1.0    0.05    0.98    1.43   100.95483    15.78488     8.68707
   192  N   5.0   -0.14    3.54    2.10   103.88201    25.49240     5.13439
   193  C   4.0    0.04    4.45    4.45   105.82087    27.24040     4.33314
   194  C   4.0    0.18    3.54    3.14   105.83410    29.50240     6.09437
   195  O   6.0   -0.31    1.26    1.80   107.82965    30.32254     6.97876
   196  C   4.0    0.03    4.19    3.97   105.28797    28.14369     1.65729
   197  O   6.0   -0.25    2.07    1.83   106.82243    30.26207     1.06581
   198  H   1.0    0.12    1.12    1.45   102.82944    24.74218     3.70575
   199  H   1.0    0.05    1.05    1.44   107.65202    26.29554     4.34448
   200  H   1.0    0.04    1.02    1.43   105.70371    26.61868     0.33448
   201  H   1.0    0.06    1.02    1.43   103.30565    28.68415     1.50989
   202  H   1.0    0.13    1.01    1.43   106.47472    30.83466    -0.66140
   203  N   5.0   -0.13    3.50    2.08   103.56643    30.49073     6.56869
   204  C   4.0    0.03    4.40    4.38   103.14880    32.68659     8.20897
   205  C   4.0    0.16    3.48    3.11   104.07855    32.26140    10.90561
   206  O   6.0   -0.33    1.32    1.80   105.45427    33.81098    11.97708
   207  C   4.0   -0.05    4.40    4.39   100.32177    33.29508     8.31479
   208  C   4.0   -0.03    4.25    4.10    99.49974    34.98261    10.51066
   209  C   4.0   -0.08    4.13    3.87   100.16492    37.68869     9.90027
   210  C   4.0   -0.08    4.12    3.84    96.68594    34.72749    10.96608
   211  H   1.0    0.11    1.08    1.44   101.92615    29.80098     5.82791
   212  H   1.0    0.05    1.05    1.44   104.20327    34.25695     7.39450
   213  H   1.0    0.04    1.04    1.43    99.80210    34.25884     6.57058
   214  H   1.0    0.06    1.05    1.44    99.28431    31.52252     8.47731
   215  H   1.0    0.04    1.08    1.44   100.47106    34.41758    12.23787
   216  H   1.0    0.03    1.00    1.43    99.57911    38.89245    11.46497
   217  H   1.0    0.04    1.00    1.43   102.20205    37.83420     9.62626
   218  H   1.0    0.04    1.00    1.43    99.18416    38.24805     8.17873
   219  H   1.0    0.04    1.00    1.43    96.14737    35.94637    12.53644
   220  H   1.0    0.04    1.00    1.43    95.67682    35.29252     9.26155
   221  H   1.0    0.04    1.00    1.43    96.25508    32.76407    11.41961
   222  N   5.0   -0.14    3.58    2.14   103.25841    30.14680    11.97897
   223  C   4.0    0.03    4.52    4.56   103.91036    29.43815    14.53955
   224  C   4.0    0.16    3.50    3.12   106.71282    28.82021    14.87403
   225  O   6.0   -0.33    1.33    1.80   107.82965    29.47972    16.79210
   226  C   4.0   -0.03    4.31    4.21   102.31354    27.16292    15.39182
   227  C   4.0   -0.07    4.23    4.06    99.84934    27.11190    13.91972
   228  C   4.0   -0.07    4.22    4.03   103.76674    24.73462    15.04411
   229  H   1.0    0.09    1.12    1.45   102.11701    28.86367    11.10214
   230  H   1.0    0.04    1.09    1.44   103.49462    31.08977    15.69984
   231  H   1.0    0.03    1.06    1.44   101.87324    27.33867    17.39682
   232  H   1.0    0.04    1.00    1.43    98.73251    25.49429    14.53766
   233  H   1.0    0.04    1.02    1.43    98.81755    28.85800    14.28066
   234  H   1.0    0.07    1.06    1.44   100.27264    26.94749    11.91094
   235  H   1.0    0.04    1.00    1.43   102.59511    23.15670    15.66205
   236  H   1.0    0.06    1.02    1.43   104.24295    24.51730    13.05234
   237  H   1.0    0.05    1.02    1.43   105.48828    24.81588    16.17416
   238  N   5.0   -0.14    3.52    2.09   107.86934    27.55598    13.03722
   239  C   4.0    0.04    4.41    4.40   110.53574    26.90592    13.29611
   240  C   4.0    0.16    3.39    3.08   112.31775    29.11879    12.78022
   241  O   6.0   -0.30    1.23    1.80   114.31708    29.29264    13.95374
   242  C   4.0   -0.03    4.26    4.12   111.22927    24.66470    11.56890
   243  C   4.0   -0.03    4.16    3.91   110.17669    22.09279    12.42117
   244  C   4.0    0.25    3.10    3.02   110.72471    19.94039    10.55979
   245  O   6.0   -0.29    1.18    1.80   111.22171    20.47329     8.30724
   246  O   6.0   -0.28    1.16    1.80   110.61133    17.70862    11.34591
   247  H   1.0    0.12    1.12    1.45   107.04164    26.97206    11.39694
   248  H   1.0    0.06    1.07    1.44   110.82676    26.32577    15.25009
   249  H   1.0    0.07    1.03    1.43   110.49039    25.04076     9.68296
   250  H   1.0    0.06    1.03    1.43   113.28151    24.50219    11.50276
   251  H   1.0    0.05    1.03    1.43   111.02707    21.59390    14.22964
   252  H   1.0    0.05    1.03    1.43   108.13201    22.24585    12.62337
   253  N   5.0   -0.13    3.48    2.06   111.59210    30.82521    11.07757
   254  C   4.0    0.04    4.45    4.45   113.22860    32.95304    10.41995
   255  C   4.0    0.14    3.40    3.08   112.55775    35.50795    11.56134
   256  O   6.0   -0.31    1.24    1.80   114.16590    37.17847    11.76921
   257  C   4.0   -0.03    4.34    4.27   113.40056    33.13634     7.55890
   258  C   4.0    0.15    3.25    3.04   114.57030    30.80253     6.41373
   259  O   6.0   -0.29    1.20    1.80   116.79451    30.24317     6.85593
   260  N   5.0   -0.18    3.18    1.95   113.07742    29.39469     4.96998
   261  H   1.0    0.11    1.08    1.44   109.91024    30.78742    10.13649
   262  H   1.0    0.07    1.08    1.44   115.10132    32.56754    11.18529
   263  H   1.0    0.05    1.04    1.43   111.50706    33.35744     6.77845
   264  H   1.0    0.05    1.04    1.43   114.56653    34.75773     7.05246
   265  H   1.0    0.09    1.02    1.43   113.76528    27.79409     4.14606
   266  H   1.0    0.10    1.04    1.43   111.24250    29.91436     4.68652
   267  N   5.0   -0.14    3.50    2.07   110.19370    35.81787    12.31345
   268  C   4.0    0.04    4.53    4.58   109.41702    38.16868    13.48508
   269  C   4.0    0.14    3.47    3.10   108.71782    37.69436    16.24408
   270  O   6.0   -0.30    1.30    1.80   110.24283    38.18947    17.93539
   271  C   4.0   -0.02    4.38    4.35   107.15880    39.35921    12.08102
   272  C   4.0   -0.04    4.21    4.03   108.02807    40.27573     9.48453
   273  C   4.0   -0.08    4.17    3.94   106.08166    41.54940    13.59658
   274  C   4.0   -0.08    4.02    3.66   105.97961    41.56452     7.94252
   275  H   1.0    0.12    1.10    1.44   108.79908    34.49695    12.13960
   276  H   1.0    0.06    1.07    1.44   111.01006    39.47449    13.41894
   277  H   1.0    0.05    1.07    1.44   105.68481    37.94003    11.85047
   278  H   1.0    0.04    1.03    1.43   109.55875    41.62877     9.74343
   279  H   1.0    0.05    1.03    1.43   108.69515    38.65434     8.40361
   280  H   1.0    0.03    1.00    1.43   104.49051    42.35821    12.56857
   281  H   1.0    0.04    1.02    1.43   105.45049    40.85021    15.42961
   282  H   1.0    0.04    1.00    1.43   107.54808    42.97237    13.85358
   283  H   1.0    0.05    1.00    1.43   106.77141    42.15034     6.13405
   284  H   1.0    0.04    1.00    1.43   104.43570    40.23604     7.63638
   285  H   1.0    0.04    1.00    1.43   105.29742    43.21047     8.97620
   286  N   5.0   -0.14    3.49    2.07   106.44448    36.67958    16.66549
   287  C   4.0    0.03    4.44    4.44   105.42592    36.15046    19.19962
   288  C   4.0    0.16    3.44    3.09   107.30809    35.10544    21.16493
   289  O   6.0   -0.27    1.26    1.80   107.95059    36.39990    22.98852
   290  C   4.0   -0.03    4.33    4.26   103.12612    34.30231    19.05033
   291  C   4.0   -0.05    4.27    4.14   101.46883    34.90702    16.75053
   292  C   4.0   -0.08    4.13    3.86   101.54631    34.48939    21.47674
   293  C   4.0   -0.09    4.05    3.70    99.70194    37.12367    17.09068
   294  H   1.0    0.08    1.12    1.45   105.22561    36.18636    15.25576
   295  H   1.0    0.05    1.06    1.44   104.91758    38.02318    19.89126
   296  H   1.0    0.04    1.06    1.44   103.85367    32.38612    18.84813
   297  H   1.0    0.05    1.07    1.44   102.69905    35.33599    15.15371
   298  H   1.0    0.03    1.03    1.43   100.31421    33.25540    16.32534
   299  H   1.0    0.03    1.00    1.43    99.95327    33.19115    21.34068
   300  H   1.0    0.05    1.00    1.43   102.72739    33.98483    23.08678
   301  H   1.0    0.04    1.00    1.43   100.86223    36.42069    21.68461
   302  H   1.0    0.03    1.00    1.43    98.61913    37.39012    15.35969
   303  H   1.0    0.03    1.01    1.43    98.42827    36.73249    18.66104
   304  H   1.0    0.04    1.00    1.43   100.81310    38.81119    17.49130
   305  N   5.0   -0.15    3.49    2.07   108.16035    32.76407    20.81533
   306  C   4.0    0.04    4.43    4.43   109.92347    31.61134    22.59356
   307  C   4.0    0.16    3.57    3.15   112.07209    33.40658    23.18694
   308  O   6.0   -0.27    1.27    1.80   112.63145    33.86578    25.37146
   309  C   4.0   -0.04    4.30    4.19   110.94959    29.07721    21.59201
   310  C   4.0   -0.04    4.02    3.65   109.05986    26.86245    21.85090
   311  S   6.0   -0.04    2.38    3.10   110.27496    23.68771    21.16304
   312  C   4.0   -0.07    3.85    3.40   111.27840    22.60490    24.30754
   313  H   1.0    0.11    1.11    1.45   107.67092    31.63023    19.33568
   314  H   1.0    0.05    1.06    1.44   108.86711    31.14835    24.29999
   315  H   1.0    0.06    1.04    1.43   111.40312    29.28886    19.59457
   316  H   1.0    0.05    1.03    1.43   112.64656    28.58399    22.65026
   317  H   1.0    0.04    1.07    1.44   108.37011    26.83411    23.79165
   318  H   1.0    0.05    1.07    1.44   107.49706    27.20261    20.55266
   319  H   1.0    0.04    1.03    1.43   112.05130    20.70195    24.14692
   320  H   1.0    0.04    1.03    1.43   112.71837    23.88803    25.03131
   321  H   1.0    0.04    1.03    1.43   109.64757    22.59734    25.56610
   322  N   5.0   -0.09    3.71    2.28   113.30230    34.46293    21.25564
   323  C   4.0    0.04    4.55    4.61   115.36777    36.20526    21.81500
   324  C   4.0    0.11    3.24    3.04   114.47204    38.36333    23.51386
   325  O   6.0   -0.27    1.11    1.80   115.56430    38.81308    25.51697
   326  C   4.0   -0.04    4.41    4.40   116.14823    37.12745    19.21095
   327  C   4.0   -0.03    4.34    4.28   115.69469    34.87300    17.61980
   328  C   4.0    0.01    4.43    4.43   113.15490    33.95838    18.52876
   329  H   1.0    0.06    1.05    1.44   116.96081    35.22260    22.67482
   330  H   1.0    0.06    1.03    1.43   114.97660    38.71671    18.62514
   331  H   1.0    0.04    1.03    1.43   118.13433    37.67547    19.20151
   332  H   1.0    0.06    1.03    1.43   115.63800    35.39646    15.62803
   333  H   1.0    0.05    1.03    1.43   117.16112    33.46138    17.93539
   334  H   1.0    0.08    1.09    1.44   111.62422    35.02607    17.65571
   335  H   1.0    0.05    1.03    1.43   112.91302    31.94771    18.15649
   336  N   5.0   -0.22    3.17    1.95    96.18327    22.29121    23.37024
   337  C   4.0    0.02    4.25    4.10    95.64659    21.87736    20.67360
   338  C   4.0    0.07    3.23    3.04    92.84413    22.43861    20.17093
   339  O   6.0   -0.31    1.11    1.80    92.09957    23.12836    18.06011
   340  C   4.0   -0.03    4.29    4.17    96.26642    19.08623    19.85346
   341  C   4.0   -0.05    4.16    3.93    96.35524    18.86324    16.95084
   342  C   4.0   -0.08    4.13    3.86    94.29732    17.27965    20.94194
   343  C   4.0   -0.08    3.98    3.59    97.74041    16.50298    15.94929
   344  H   1.0    0.08    1.03    1.43    96.43649    20.65848    24.36235
   345  H   1.0    0.04    1.05    1.44    96.85223    23.13969    19.57945
   346  H   1.0    0.04    1.05    1.44    98.12213    18.58545    20.59423
   347  H   1.0    0.05    1.03    1.43    94.42205    18.79521    16.24030
   348  H   1.0    0.04    1.03    1.43    97.32467    20.51675    16.19684
   349  H   1.0    0.04    1.00    1.43    94.75464    15.35780    20.35613
   350  H   1.0    0.04    1.00    1.43    94.32756    17.41382    22.99796
   351  H   1.0    0.05    1.01    1.43    92.43783    17.80689    20.23141
   352  H   1.0    0.05    1.00    1.43    97.69694    16.52376    13.88949
   353  H   1.0    0.04    1.00    1.43    99.69060    16.53888    16.61069
   354  H   1.0    0.04    1.00    1.43    96.78987    14.81734    16.65604
   355  N   5.0   -0.21    3.23    1.96    92.39437    30.16947    19.89881
   356  C   4.0    0.02    4.26    4.12    92.96129    31.39969    17.49886
   357  C   4.0    0.15    3.45    3.09    90.63882    31.44882    15.82268
   358  O   6.0   -0.33    1.31    1.80    90.21363    33.28374    14.47152
   359  C   4.0   -0.08    4.15    3.89    95.10613    30.05798    16.16094
   360  H   1.0    0.08    1.03    1.43    93.67372    28.82966    20.43172
   361  H   1.0    0.03    1.06    1.44    93.56600    33.33288    17.87114
   362  H   1.0    0.04    1.00    1.43    95.48785    31.01607    14.37704
   363  H   1.0    0.03    1.00    1.43    96.78042    30.11089    17.35902
   364  H   1.0    0.05    1.00    1.43    94.55811    28.10400    15.80567
   365  N   5.0   -0.15    3.48    2.06    89.13270    29.43815    15.89448
   366  C   4.0    0.03    4.36    4.30    86.85747    29.37390    14.34491
   367  C   4.0    0.08    3.30    3.05    85.21152    31.54520    15.25765
   368  O   6.0   -0.31    1.16    1.80    84.28556    33.08154    13.75720
   369  C   4.0   -0.05    4.37    4.32    85.44207    26.87379    14.66049
   370  C   4.0   -0.02    4.21    4.02    83.19141    26.63569    12.85014
   371  C   4.0   -0.08    4.13    3.85    84.15328    26.51286    10.13838
   372  C   4.0   -0.08    4.12    3.85    81.65317    24.29999    13.46997
   373  H   1.0    0.08    1.06    1.44    89.42750    27.86968    16.97541
   374  H   1.0    0.05    1.06    1.44    87.32235    29.52508    12.34369
   375  H   1.0    0.04    1.03    1.43    86.73653    25.31666    14.28255
   376  H   1.0    0.04    1.03    1.43    84.72964    26.74529    16.58990
   377  H   1.0    0.05    1.06    1.44    81.96119    28.27597    13.05045
   378  H   1.0    0.04    1.00    1.43    82.54512    26.34278     8.86281
   379  H   1.0    0.04    1.00    1.43    85.20207    28.23629     9.72075
   380  H   1.0    0.03    1.00    1.43    85.38538    24.87446     9.93807
   381  H   1.0    0.03    1.01    1.43    80.06769    24.17337    12.16039
   382  H   1.0    0.04    1.00    1.43    82.85314    22.63703    13.28288
   383  H   1.0    0.03    1.00    1.43    80.95586    24.44927    15.40316
   384  N   5.0   -0.20    3.25    1.97    86.39827    37.05942    18.48341
   385  C   4.0    0.03    4.37    4.32    87.27321    39.43480    17.45351
   386  C   4.0    0.15    3.45    3.10    87.05401    39.54063    14.56790
   387  O   6.0   -0.29    1.26    1.80    86.71385    41.56641    13.49075
   388  C   4.0   -0.03    4.31    4.22    90.04544    40.01873    18.32089
   389  C   4.0   -0.04    4.22    4.04    91.10369    42.27506    16.83179
   390  C   4.0   -0.07    4.15    3.90    91.68950    37.67358    18.07901
   391  C   4.0   -0.08    4.02    3.65    93.71340    43.11599    17.64815
   392  H   1.0    0.08    1.04    1.43    87.60581    36.22416    19.73252
   393  H   1.0    0.04    1.06    1.44    86.03544    40.89178    18.22074
   394  H   1.0    0.03    1.06    1.44    90.03599    40.54785    20.31077
   395  H   1.0    0.05    1.04    1.43    91.21140    41.75538    14.84191
   396  H   1.0    0.05    1.03    1.43    89.83001    43.87566    17.07367
   397  H   1.0    0.03    1.00    1.43    93.60191    38.12900    18.69128
   398  H   1.0    0.04    1.01    1.43    90.90905    36.18258    19.26576
   399  H   1.0    0.06    1.01    1.43    91.70840    37.06697    16.10991
   400  H   1.0    0.04    1.00    1.43    94.29544    44.71470    16.48786
   401  H   1.0    0.04    1.00    1.43    93.64915    43.67157    19.63047
   402  H   1.0    0.03    1.00    1.43    95.03054    41.55129    17.39871
   403  N   5.0   -0.13    3.48    2.07    87.18818    37.38634    13.29233
   404  C   4.0    0.05    4.36    4.31    87.02566    37.45437    10.54656
   405  C   4.0    0.10    3.27    3.05    84.39894    38.20648     9.69807
   406  O   6.0   -0.28    1.12    1.80    84.07958    40.01117     8.25999
   407  C   4.0   -0.03    4.32    4.24    87.68517    34.89568     9.36359
   408  C   4.0   -0.01    3.53    3.13    87.63604    34.90702     6.49499
   409  C   4.0   -0.04    3.44    3.09    89.69395    35.79519     5.11171
   410  C   4.0   -0.04    3.45    3.09    85.50632    34.06609     5.18163
   411  C   4.0   -0.04    3.35    3.07    89.63159    35.85188     2.47176
   412  C   4.0   -0.04    3.35    3.07    85.43073    34.11900     2.54546
   413  C   4.0   -0.04    3.35    3.07    87.49809    35.01095     1.19431
   414  H   1.0    0.12    1.10    1.44    87.39983    35.63456    14.06901
   415  H   1.0    0.06    1.06    1.44    88.40705    38.83576     9.89461
   416  H   1.0    0.05    1.03    1.43    89.58246    34.35900     9.95886
   417  H   1.0    0.06    1.04    1.43    86.32079    33.49350    10.01177
   418  H   1.0    0.05    1.03    1.43    91.35880    36.44903     6.09248
   419  H   1.0    0.05    1.03    1.43    83.89627    33.36500     6.22098
   420  H   1.0    0.04    1.03    1.43    91.23975    36.54919     1.42674
   421  H   1.0    0.04    1.03    1.43    83.76777    33.46705     1.55713
   422  H   1.0    0.04    1.03    1.43    87.44707    35.05064    -0.84471
   423  N   5.0   -0.22    3.21    1.96    70.53969    16.44251     4.55802
   424  C   4.0    0.02    4.30    4.19    71.98533    14.74742     2.91585
   425  C   4.0    0.14    3.46    3.10    74.78968    15.30300     3.24844
   426  O   6.0   -0.32    1.33    1.80    76.28257    13.61737     3.82292
   427  C   4.0   -0.05    4.36    4.31    71.23322    15.10647     0.13228
   428  C   4.0   -0.03    4.18    3.96    72.34249    13.27155    -1.82925
   429  C   4.0   -0.08    4.11    3.82    71.35227    10.60514    -1.36060
   430  C   4.0   -0.08    4.10    3.81    71.63573    14.13137    -4.48054
   431  H   1.0    0.07    1.03    1.43    69.25468    17.53477     3.62449
   432  H   1.0    0.04    1.05    1.44    71.57148    12.79155     3.41473
   433  H   1.0    0.03    1.03    1.43    69.18476    14.93450     0.01134
   434  H   1.0    0.04    1.04    1.43    71.81526    16.99997    -0.43275
   435  H   1.0    0.04    1.06    1.44    74.39473    13.24698    -1.66674
   436  H   1.0    0.03    1.00    1.43    72.15730     9.33336    -2.76656
   437  H   1.0    0.04    1.00    1.43    71.90974    10.00610     0.52912
   438  H   1.0    0.03    1.00    1.43    69.29814    10.61459    -1.51745
   439  H   1.0    0.03    1.00    1.43    72.43509    12.81423    -5.84870
   440  H   1.0    0.03    1.00    1.43    69.58349    14.16161    -4.65062
   441  H   1.0    0.03    1.00    1.43    72.39540    16.01921    -4.79801
   442  N   5.0   -0.15    3.51    2.08    75.50778    17.67650     2.89317
   443  C   4.0    0.03    4.38    4.34    78.13639    18.38136     3.19931
   444  C   4.0    0.16    3.50    3.11    79.00944    17.60469     5.83547
   445  O   6.0   -0.33    1.36    1.80    81.01444    16.46518     6.13027
   446  C   4.0   -0.08    4.13    3.85    78.44630    21.20273     2.83837
   447  H   1.0    0.07    1.06    1.44    74.33426    19.12592     2.40184
   448  H   1.0    0.05    1.06    1.44    79.29290    17.44406     1.77634
   449  H   1.0    0.04    1.01    1.43    80.43241    21.69405     3.07458
   450  H   1.0    0.04    1.00    1.43    77.81891    21.70917     0.94297
   451  H   1.0    0.04    1.00    1.43    77.30680    22.18727     4.24243
   452  N   5.0   -0.15    3.51    2.08    77.49199    18.19806     7.75166
   453  C   4.0    0.03    4.51    4.55    78.15151    17.54422    10.35003
   454  C   4.0    0.16    3.53    3.13    78.52189    14.70774    10.58247
   455  O   6.0   -0.32    1.33    1.80    80.08848    13.81579    12.06590
   456  C   4.0   -0.03    4.34    4.27    76.08604    18.38514    12.24353
   457  C   4.0   -0.06    4.20    4.00    76.04824    21.27642    12.44762
   458  C   4.0   -0.07    4.16    3.93    76.56981    17.19084    14.81923
   459  C   4.0   -0.09    4.02    3.65    74.13962    22.32144    14.32979
   460  H   1.0    0.07    1.06    1.44    75.81014    19.12214     7.57213
   461  H   1.0    0.04    1.06    1.44    79.89383    18.54766    10.79978
   462  H   1.0    0.04    1.06    1.44    74.24922    17.75398    11.55945
   463  H   1.0    0.03    1.05    1.44    77.91529    21.91515    13.03722
   464  H   1.0    0.03    1.03    1.43    75.58715    22.05688    10.59758
   465  H   1.0    0.03    1.00    1.43    75.10149    17.80122    16.12881
   466  H   1.0    0.05    1.01    1.43    76.53012    15.14048    14.62648
   467  H   1.0    0.04    1.00    1.43    78.41607    17.79555    15.50331
   468  H   1.0    0.03    1.00    1.43    74.25867    24.37746    14.33357
   469  H   1.0    0.03    1.00    1.43    72.24989    21.72807    13.76665
   470  H   1.0    0.03    1.00    1.43    74.57614    21.58823    16.20440
   471  N   5.0   -0.13    3.52    2.09    77.06680    13.29611     9.10281
   472  C   4.0    0.04    4.36    4.30    77.23121    10.55223     9.12738
   473  C   4.0    0.16    3.48    3.11    79.88250     9.77744     8.33747
   474  O   6.0   -0.31    1.31    1.80    81.26766     8.58125     9.77744
   475  C   4.0   -0.08    4.12    3.85    75.27156     9.40895     7.32647
   476  H   1.0    0.09    1.08    1.44    75.75911    13.99342     7.87071
   477  H   1.0    0.05    1.05    1.44    76.82114     9.84169    11.01710
   478  H   1.0    0.04    1.00    1.43    75.43219     7.35670     7.37749
   479  H   1.0    0.04    1.00    1.43    73.38751     9.98153     7.93307
   480  H   1.0    0.06    1.02    1.43    75.63439    10.09492     5.41784
   481  N   5.0   -0.14    3.50    2.08    80.60626    10.50310     6.05468
   482  C   4.0    0.04    4.49    4.52    83.07991     9.82846     5.11549
   483  C   4.0    0.16    3.45    3.10    85.17751    10.96230     6.77467
   484  O   6.0   -0.30    1.24    1.80    86.98409     9.65272     7.40773
   485  C   4.0   -0.03    4.26    4.11    83.35770    10.62782     2.28279
   486  C   4.0   -0.07    4.15    3.90    83.90572    13.43028     2.07303
   487  C   4.0   -0.07    4.09    3.78    85.37782     9.02722     0.98266
   488  H   1.0    0.10    1.08    1.44    79.53668    11.54245     4.83392
   489  H   1.0    0.05    1.06    1.44    83.26510     7.78000     5.21753
   490  H   1.0    0.04    1.06    1.44    81.57947    10.28767     1.29824
   491  H   1.0    0.05    1.00    1.43    84.08903    13.93106     0.08315
   492  H   1.0    0.06    1.02    1.43    82.35237    14.48286     2.92152
   493  H   1.0    0.05    1.01    1.43    85.66128    13.84602     3.06703
   494  H   1.0    0.05    1.00    1.43    85.53656     9.61682    -0.98455
   495  H   1.0    0.05    1.00    1.43    87.17684     9.30501     1.94642
   496  H   1.0    0.04    1.00    1.43    84.82791     7.04490     1.07903
   497  N   5.0   -0.14    3.49    2.07    84.91106    13.33769     7.56457
   498  C   4.0    0.04    4.52    4.57    86.85936    14.55278     9.11037
   499  C   4.0    0.15    3.47    3.10    87.17306    13.55689    11.79000
   500  O   6.0   -0.31    1.25    1.80    89.29900    13.39816    12.72730
   501  C   4.0   -0.02    4.31    4.22    86.44740    17.42327     9.32580
   502  C   4.0   -0.07    4.17    3.95    88.52421    18.58923    10.92451
   503  C   4.0   -0.07    4.16    3.91    86.46630    18.60624     6.74632
   504  H   1.0    0.12    1.12    1.45    83.39361    14.46018     7.17529
   505  H   1.0    0.07    1.07    1.44    88.56201    14.07657     8.05401
   506  H   1.0    0.05    1.06    1.44    84.62382    17.77854    10.21586
   507  H   1.0    0.03    1.00    1.43    88.20674    20.62069    11.05868
   508  H   1.0    0.06    1.02    1.43    88.47886    17.74453    12.80289
   509  H   1.0    0.05    1.00    1.43    90.34402    18.22074    10.03256
   510  H   1.0    0.03    1.01    1.43    86.17150    20.63581     6.93718
   511  H   1.0    0.04    1.00    1.43    88.28611    18.24152     5.85437
   512  H   1.0    0.06    1.01    1.43    84.95263    17.78043     5.61816
   513  N   5.0   -0.14    3.49    2.07    85.08680    12.92195    13.04100
   514  C   4.0    0.04    4.50    4.54    85.23798    11.97330    15.62803
   515  C   4.0    0.15    3.42    3.09    85.30034     9.10281    15.83023
   516  O   6.0   -0.32    1.28    1.80    86.16961     8.05779    17.72941
   517  C   4.0   -0.04    4.32    4.24    83.07802    13.03911    17.21918
   518  C   4.0   -0.04    4.04    3.69    83.38416    15.84913    17.78421
   519  S   6.0   -0.05    2.52    3.10    86.60425    16.79777    18.67994
   520  C   4.0   -0.07    3.86    3.41    86.65905    16.04188    22.05121
   521  H   1.0    0.12    1.11    1.45    83.29912    13.04100    12.32857
   522  H   1.0    0.06    1.13    1.45    86.99353    12.67061    16.44817
   523  H   1.0    0.06    1.03    1.43    81.30735    12.78400    16.20062
   524  H   1.0    0.04    1.03    1.43    83.00999    12.03189    19.01442
   525  H   1.0    0.04    1.06    1.44    82.86826    16.91683    16.10047
   526  H   1.0    0.03    1.06    1.44    82.13316    16.34613    19.34512
   527  H   1.0    0.04    1.03    1.43    88.50720    16.52943    22.81844
   528  H   1.0    0.04    1.03    1.43    85.19263    17.12848    23.00552
   529  H   1.0    0.04    1.03    1.43    86.30756    14.02744    22.29310
   530  N   5.0   -0.13    3.47    2.06    84.38382     7.82913    13.87437
   531  C   4.0    0.01    4.29    4.18    84.42351     5.09092    13.88949
   532  C   4.0    0.15    3.40    3.08    87.15038     4.30291    13.58335
   533  O   6.0   -0.33    1.33    1.80    88.06879     2.60593    14.87781
   534  H   1.0    0.12    1.10    1.44    83.62037     8.62093    12.29078
   535  H   1.0    0.05    1.03    1.43    83.68084     4.36338    15.66772
   536  H   1.0    0.04    1.02    1.43    83.29912     4.33881    12.33613
   537  N   5.0   -0.14    3.55    2.11    88.44862     5.57469    11.85425
   538  C   4.0    0.03    4.39    4.37    91.09235     5.05124    11.35914
   539  C   4.0    0.16    3.50    3.11    92.57578     5.55201    13.74398
   540  O   6.0   -0.29    1.26    1.80    94.14804     4.03079    14.53010
   541  C   4.0   -0.06    4.15    3.91    92.03343     6.74065     9.27666
   542  H   1.0    0.10    1.08    1.44    87.71730     6.98443    10.76199
   543  H   1.0    0.05    1.06    1.44    91.33423     3.09537    10.75821
   544  H   1.0    0.05    1.00    1.43    94.01954     6.32680     8.92329
   545  H   1.0    0.05    1.00    1.43    90.92983     6.38538     7.57402
   546  H   1.0    0.07    1.00    1.43    91.81611     8.70597     9.85681
   547  N   5.0   -0.14    3.54    2.10    92.05989     7.72709    14.87592
   548  C   4.0    0.04    4.37    4.32    93.31656     8.51511    17.19462
   549  C   4.0    0.16    3.47    3.10    92.94050     6.52144    19.22040
   550  O   6.0   -0.27    1.22    1.80    94.69039     5.89028    20.63581
   551  C   4.0   -0.07    4.13    3.85    92.24508    11.02655    18.06956
   552  H   1.0    0.09    1.07    1.44    90.76732     9.00454    14.23153
   553  H   1.0    0.06    1.06    1.44    95.33289     8.76455    16.85258
   554  H   1.0    0.04    1.00    1.43    93.19939    11.59536    19.80433
   555  H   1.0    0.05    1.00    1.43    92.55689    12.43629    16.60124
   556  H   1.0    0.06    1.00    1.43    90.22686    10.80923    18.41727
   557  N   5.0   -0.13    3.54    2.10    90.62370     5.56146    19.34701
   558  C   4.0    0.04    4.42    4.41    89.95473     3.59615    21.14981
   559  C   4.0    0.17    3.49    3.11    91.60636     1.29824    20.53754
   560  O   6.0   -0.26    1.26    1.80    92.96318     0.29858    22.15704
   561  C   4.0   -0.03    4.34    4.28    87.14282     2.92341    20.87202
   562  C   4.0   -0.01    3.54    3.13    86.23008     0.98266    22.74285
   563  C   4.0   -0.04    3.46    3.10    86.23197     1.49666    25.31666
   564  C   4.0   -0.04    3.45    3.10    85.41372    -1.37761    21.93783
   565  C   4.0   -0.04    3.36    3.07    85.44585    -0.31747    27.06654
   566  C   4.0   -0.04    3.36    3.07    84.62382    -3.20498    23.67449
   567  C   4.0   -0.04    3.36    3.07    84.64083    -2.66829    26.24073
   568  H   1.0    0.11    1.10    1.44    89.15916     6.10759    18.22074
   569  H   1.0    0.06    1.05    1.44    90.24197     4.21598    23.09245
   570  H   1.0    0.05    1.03    1.43    86.02410     4.63172    21.14414
   571  H   1.0    0.06    1.04    1.44    86.82724     2.16941    18.98230
   572  H   1.0    0.05    1.03    1.43    86.84991     3.32592    25.97617
   573  H   1.0    0.05    1.03    1.43    85.38916    -1.80847    19.94228
   574  H   1.0    0.05    1.03    1.43    85.46475     0.11149    29.06210
   575  H   1.0    0.05    1.03    1.43    84.00021    -5.03423    23.01875
   576  H   1.0    0.05    1.03    1.43    84.03044    -4.07425    27.58811
   577  N   5.0   -0.13    3.49    2.07    91.49864     0.50645    18.15649
   578  C   4.0    0.05    4.34    4.28    92.95184    -1.64973    17.27965
   579  C   4.0    0.12    3.30    3.05    95.56722    -1.67997    18.49286
   580  O   6.0   -0.26    1.12    1.80    96.35524    -3.60749    19.52843
   581  C   4.0   -0.03    4.32    4.24    93.16349    -1.58548    14.39215
   582  C   4.0    0.16    3.23    3.04    94.37291    -3.94764    13.32446
   583  O   6.0   -0.27    1.22    1.80    93.88159    -6.03389    14.21452
   584  N   5.0   -0.18    3.17    1.95    95.94517    -3.63394    11.38560
   585  H   1.0    0.12    1.13    1.45    90.41772     1.32470    16.78644
   586  H   1.0    0.07    1.06    1.44    91.97296    -3.38639    17.79744
   587  H   1.0    0.05    1.03    1.43    91.27754    -1.41352    13.58335
   588  H   1.0    0.07    1.05    1.44    94.31811     0.02835    13.83846
   589  H   1.0    0.10    1.02    1.43    96.81255    -5.16084    10.59191
   590  H   1.0    0.08    1.02    1.43    96.28154    -1.86705    10.69396
   591  N   5.0   -0.22    3.19    1.95    91.49864    -0.50645   -18.15649
   592  C   4.0    0.04    4.24    4.08    92.95184     1.64973   -17.27965
   593  C   4.0    0.08    3.21    3.04    95.56722     1.67997   -18.49286
   594  O   6.0   -0.28    1.11    1.80    96.35524     3.60749   -19.52843
   595  C   4.0   -0.04    4.32    4.23    93.16349     1.58548   -14.39215
   596  C   4.0    0.15    3.23    3.04    94.37291     3.94764   -13.32446
   597  O   6.0   -0.28    1.22    1.80    93.88159     6.03389   -14.21452
   598  N   5.0   -0.19    3.17    1.95    95.94517     3.63394   -11.38560
   599  H   1.0    0.07    1.03    1.43    90.41772    -1.32470   -16.78644
   600  H   1.0    0.06    1.06    1.44    91.97296     3.38639   -17.79744
   601  H   1.0    0.04    1.03    1.43    91.27754     1.41352   -13.58335
   602  H   1.0    0.04    1.03    1.43    94.31811    -0.02835   -13.83846
   603  H   1.0    0.09    1.02    1.43    96.81255     5.16084   -10.59191
   604  H   1.0    0.08    1.02    1.43    96.28154     1.86705   -10.69396
   605  N   5.0   -0.22    3.19    1.95    80.60626    -6.05468    10.50310
   606  C   4.0    0.03    4.28    4.17    83.07991    -5.11549     9.82846
   607  C   4.0    0.08    3.22    3.04    85.17751    -6.77467    10.96230
   608  O   6.0   -0.28    1.11    1.80    86.98409    -7.40773     9.65272
   609  C   4.0   -0.03    4.25    4.11    83.35770    -2.28279    10.62782
   610  C   4.0   -0.07    4.13    3.86    83.90572    -2.07303    13.43028
   611  C   4.0   -0.07    4.09    3.78    85.37782    -0.98266     9.02722
   612  H   1.0    0.07    1.03    1.43    79.53668    -4.83392    11.54245
   613  H   1.0    0.05    1.06    1.44    83.26510    -5.21753     7.78000
   614  H   1.0    0.04    1.06    1.44    81.57947    -1.29824    10.28767
   615  H   1.0    0.05    1.00    1.43    84.08903    -0.08315    13.93106
   616  H   1.0    0.04    1.00    1.43    82.35237    -2.92152    14.48286
   617  H   1.0    0.05    1.01    1.43    85.66128    -3.06703    13.84602
   618  H   1.0    0.05    1.00    1.43    85.53656     0.98455     9.61682
   619  H   1.0    0.05    1.00    1.43    87.17684    -1.94642     9.30501
   620  H   1.0    0.04    1.00    1.43    84.82791    -1.07903     7.04490
   621  N   5.0   -0.22    3.18    1.95   117.92646    40.43069   -12.63282
   622  C   4.0    0.03    4.14    3.89   116.99671    40.30030   -10.02878
   623  C   4.0    0.07    3.20    3.04   119.13777    40.09809    -8.11448
   624  O   6.0   -0.30    1.11    1.80   118.71825    40.16235    -5.81280
   625  C   4.0   -0.07    4.13    3.86   115.15612    38.09688    -9.73587
   626  H   1.0    0.08    1.02    1.43   119.78217    39.94881   -12.82935
   627  H   1.0    0.05    1.06    1.44   115.99516    42.05207    -9.61304
   628  H   1.0    0.06    1.00    1.43   114.48905    38.03451    -7.78756
   629  H   1.0    0.04    1.00    1.43   113.56497    38.37655   -11.01521
   630  H   1.0    0.07    1.02    1.43   116.13122    36.34321   -10.20074
   631  N   5.0   -0.20    3.20    1.96   115.25439    41.71192     6.78601
   632  C   4.0    0.03    4.31    4.22   115.77406    41.18847     4.13094
   633  C   4.0    0.14    3.42    3.09   113.57064    41.70814     2.32436
   634  O   6.0   -0.31    1.22    1.80   111.34265    41.54374     3.02734
   635  C   4.0   -0.04    4.32    4.24   116.72081    38.46537     3.95331
   636  C   4.0   -0.02    3.49    3.11   119.50438    38.04585     4.47676
   637  C   4.0   -0.04    3.46    3.10   120.36420    36.18258     6.12649
   638  C   4.0   -0.04    3.47    3.10   121.35442    39.51795     3.29379
   639  C   4.0   -0.03    3.40    3.08   122.90022    35.73472     6.55735
   640  C   4.0   -0.05    3.41    3.08   123.93768    39.14756     3.70764
   641  C   4.0    0.07    3.43    3.09   124.70113    37.22949     5.32903
   642  O   6.0   -0.24    2.08    1.84   127.25981    36.82131     5.71453
   643  H   1.0    0.10    1.02    1.43   113.44592    41.40201     7.37749
   644  H   1.0    0.04    1.07    1.44   117.16679    42.53773     3.43741
   645  H   1.0    0.04    1.05    1.44   115.67202    37.33343     5.31769
   646  H   1.0    0.04    1.05    1.44   116.35610    37.78507     2.04468
   647  H   1.0    0.06    1.03    1.43   118.99037    35.03930     7.11104
   648  H   1.0    0.05    1.03    1.43   120.76483    40.99383     2.01445
   649  H   1.0    0.06    1.03    1.43   123.48414    34.24750     7.82724
   650  H   1.0    0.05    1.03    1.43   125.31718    40.33242     2.78168
   651  H   1.0    0.11    1.02    1.43   128.25003    38.02507     4.71487
   652  N   5.0   -0.15    3.57    2.13   114.24716    42.33931    -0.01323
   653  C   4.0    0.01    4.29    4.17   112.37633    42.82308    -1.95398
   654  C   4.0    0.15    3.49    3.11   111.95303    40.24360    -3.09159
   655  O   6.0   -0.33    1.37    1.80   110.35811    39.82408    -4.73187
   656  H   1.0    0.08    1.06    1.44   116.07075    42.52639    -0.60660
   657  H   1.0    0.05    1.03    1.43   110.63023    43.56763    -1.15273
   658  H   1.0    0.04    1.02    1.43   113.07931    44.14211    -3.37127
   659  N   5.0   -0.14    3.73    2.30   113.48182    38.49372    -2.16374
   660  C   4.0    0.03    4.45    4.46   113.35710    35.87645    -2.92908
   661  C   4.0    0.16    3.55    3.14   110.60944    35.09788    -2.58137
   662  O   6.0   -0.32    1.29    1.80   109.67780    33.36122    -3.79646
   663  C   4.0   -0.05    4.43    4.43   115.08053    34.34955    -1.21887
   664  C   4.0   -0.02    4.22    4.04   115.80052    31.77007    -2.22610
   665  C   4.0   -0.07    4.12    3.83   118.10598    30.82710    -0.81636
   666  C   4.0   -0.07    4.14    3.88   113.57631    29.97672    -1.97854
   667  H   1.0    0.08    1.14    1.45   114.85187    38.84143    -0.85416
   668  H   1.0    0.05    1.05    1.44   113.99205    35.52496    -4.85660
   669  H   1.0    0.04    1.04    1.43   116.82286    35.41157    -0.93352
   670  H   1.0    0.04    1.04    1.43   114.12433    34.06609     0.58393
   671  H   1.0    0.05    1.06    1.44   116.28051    31.86456    -4.22732
   672  H   1.0    0.04    1.00    1.43   118.62377    28.96950    -1.54202
   673  H   1.0    0.05    1.00    1.43   119.65745    32.15180    -1.10549
   674  H   1.0    0.05    1.00    1.43   117.65812    30.69671     1.19053
   675  H   1.0    0.04    1.00    1.43   114.12055    28.12857    -2.70798
   676  H   1.0    0.05    1.00    1.43   113.05852    29.82177     0.00945
   677  H   1.0    0.07    1.04    1.44   111.99083    30.72127    -3.06136
   678  N   5.0   -0.13    3.63    2.18   109.33198    36.43959    -0.88250
   679  C   4.0    0.03    4.45    4.47   106.67125    36.01062    -0.33637
   680  C   4.0    0.17    3.55    3.14   105.27285    36.23172    -2.81191
   681  O   6.0   -0.32    1.37    1.80   103.88579    34.53663    -3.58670
   682  C   4.0   -0.04    4.34    4.28   105.68292    38.03262     1.50800
   683  C   4.0   -0.02    3.54    3.13   102.83322    38.14223     1.70642
   684  C   4.0   -0.03    3.47    3.10   101.38758    35.93881     1.77823
   685  C   4.0   -0.05    3.45    3.09   101.59167    40.45525     1.81603
   686  C   4.0   -0.04    3.36    3.07    98.75897    36.05030     1.97098
   687  C   4.0   -0.05    3.35    3.06    98.94794    40.58375     2.01256
   688  C   4.0   -0.05    3.35    3.06    97.53820    38.38033     2.07870
   689  H   1.0    0.09    1.10    1.44   110.10110    37.86255     0.16630
   690  H   1.0    0.06    1.07    1.44   106.38590    34.17191     0.54613
   691  H   1.0    0.05    1.03    1.43   106.42559    37.63011     3.38639
   692  H   1.0    0.05    1.04    1.43   106.33677    39.87889     0.87305
   693  H   1.0    0.06    1.03    1.43   102.31354    34.12278     1.68375
   694  H   1.0    0.04    1.03    1.43   102.67826    42.18246     1.74800
   695  H   1.0    0.05    1.03    1.43    97.66860    34.32687     2.03712
   696  H   1.0    0.04    1.03    1.43    98.01631    42.39789     2.11271
   697  H   1.0    0.04    1.03    1.43    95.50297    38.46726     2.21287
   698  N   5.0   -0.13    3.57    2.13   105.68859    38.36711    -4.04401
   699  C   4.0    0.03    4.52    4.57   104.47539    38.93213    -6.42696
   700  C   4.0    0.16    3.58    3.16   104.95916    36.84399    -8.32991
   701  O   6.0   -0.34    1.49    1.80   103.20360    35.84999    -9.46753
   702  C   4.0   -0.02    4.34    4.28   105.45994    41.48137    -7.48709
   703  C   4.0   -0.06    4.17    3.94   103.32077    42.89111    -8.85337
   704  C   4.0   -0.07    4.25    4.09   107.71249    41.03729    -9.25588
   705  C   4.0   -0.08    3.98    3.59   101.36490    44.14022    -7.08836
   706  H   1.0    0.09    1.10    1.44   106.87156    39.75983    -3.43174
   707  H   1.0    0.05    1.06    1.44   102.44771    39.06630    -6.08492
   708  H   1.0    0.04    1.06    1.44   106.10055    42.64922    -5.91484
   709  H   1.0    0.03    1.03    1.43   104.15225    44.37832   -10.00988
   710  H   1.0    0.04    1.03    1.43   102.31165    41.55129   -10.04767
   711  H   1.0    0.04    1.00    1.43   108.36822    42.85332    -9.97397
   712  H   1.0    0.07    1.05    1.44   109.22049    40.11321    -8.20141
   713  H   1.0    0.04    1.04    1.43   107.11156    39.83920   -10.81868
   714  H   1.0    0.03    1.00    1.43    99.93627    45.08508    -8.23165
   715  H   1.0    0.04    1.00    1.43   100.48618    42.68513    -5.92618
   716  H   1.0    0.04    1.00    1.43   102.32488    45.51405    -5.88839
   717  N   5.0   -0.14    3.61    2.17   107.35344    36.18069    -8.64172
   718  C   4.0    0.03    4.46    4.47   108.08477    34.25884   -10.44074
   719  C   4.0    0.17    3.53    3.13   106.28197    32.02897   -10.38026
   720  O   6.0   -0.28    1.34    1.80   105.33899    31.22583   -12.31156
   721  C   4.0   -0.04    4.34    4.27   110.75117    33.41602    -9.84547
   722  C   4.0   -0.03    4.22    4.05   112.02106    31.91747   -11.89582
   723  C   4.0    0.15    3.21    3.04   114.66290    31.02930   -11.10214
   724  O   6.0   -0.31    1.22    1.80   116.35232    32.56565   -10.54656
   725  N   5.0   -0.18    3.16    1.95   115.02762    28.53297   -11.03789
   726  H   1.0    0.09    1.09    1.44   108.83121    36.94603    -7.67040
   727  H   1.0    0.04    1.06    1.44   108.04508    35.04308   -12.34558
   728  H   1.0    0.05    1.05    1.44   111.90201    35.08843    -9.49965
   729  H   1.0    0.06    1.04    1.43   110.70015    32.23495    -8.15795
   730  H   1.0    0.06    1.04    1.43   110.88345    30.25451   -12.32479
   731  H   1.0    0.05    1.03    1.43   112.21382    33.09288   -13.57579
   732  H   1.0    0.08    1.02    1.43   113.58954    27.33678   -11.50276
   733  H   1.0    0.09    1.02    1.43   116.74349    27.82244   -10.52388
   734  N   5.0   -0.13    3.52    2.09   105.77363    31.05387    -8.13527
   735  C   4.0    0.04    4.40    4.39   104.07477    28.90147    -7.85748
   736  C   4.0    0.16    3.47    3.10   101.44238    29.49484    -8.84770
   737  O   6.0   -0.32    1.25    1.80   100.07422    27.81677    -9.69429
   738  C   4.0    0.02    4.16    3.91   103.87257    28.13613    -5.07013
   739  O   6.0   -0.26    2.08    1.84   102.43071    29.90869    -3.65284
   740  H   1.0    0.10    1.07    1.44   106.49929    31.70204    -6.47231
   741  H   1.0    0.05    1.06    1.44   104.85900    27.32733    -8.92896
   742  H   1.0    0.04    1.01    1.43   102.95794    26.29365    -4.95297
   743  H   1.0    0.04    1.02    1.43   105.76796    28.03408    -4.27078
   744  H   1.0    0.16    1.11    1.44   103.35478    31.50740    -3.50922
   745  N   5.0   -0.13    3.60    2.16   100.72239    31.89290    -8.70219
   746  C   4.0    0.03    4.52    4.56    98.23362    32.69982    -9.56201
   747  C   4.0    0.15    3.49    3.11    98.27709    32.96249   -12.42495
   748  O   6.0   -0.33    1.41    1.80    96.61602    32.00629   -13.76287
   749  C   4.0   -0.02    4.29    4.18    97.49474    35.27362    -8.38660
   750  C   4.0   -0.08    4.11    3.82    94.75275    35.89912    -9.04423
   751  C   4.0   -0.07    4.12    3.84    97.87647    35.20748    -5.52934
   752  H   1.0    0.12    1.14    1.45   101.81276    33.31965    -8.00110
   753  H   1.0    0.05    1.06    1.44    96.85790    31.28630    -8.96675
   754  H   1.0    0.05    1.06    1.44    98.70039    36.75706    -9.15383
   755  H   1.0    0.03    1.00    1.43    94.25953    37.71515    -8.20519
   756  H   1.0    0.04    1.00    1.43    94.56000    35.99739   -11.09269
   757  H   1.0    0.04    1.00    1.43    93.53010    34.42136    -8.29401
   758  H   1.0    0.04    1.00    1.43    97.34545    37.03485    -4.73943
   759  H   1.0    0.04    1.00    1.43    96.69161    33.72594    -4.72809
   760  H   1.0    0.07    1.01    1.43    99.85879    34.81631    -5.12683
   761  N   5.0   -0.14    3.55    2.11   100.20650    34.29097   -13.32635
   762  C   4.0    0.03    4.48    4.50   100.60523    34.74450   -16.01165
   763  C   4.0    0.16    3.50    3.11   100.35957    32.23683   -17.42894
   764  O   6.0   -0.31    1.26    1.80    99.17471    32.08755   -19.42827
   765  C   4.0   -0.02    4.33    4.25   103.25274    35.98038   -16.39526
   766  C   4.0   -0.05    4.19    3.98   103.09589    38.77529   -15.61670
   767  C   4.0   -0.07    4.12    3.84   104.20705    35.59866   -19.08623
   768  C   4.0   -0.08    4.02    3.65   105.60356    40.13967   -15.52599
   769  H   1.0    0.11    1.13    1.45   101.56143    35.09977   -12.21897
   770  H   1.0    0.04    1.05    1.44    99.18605    36.04463   -16.74864
   771  H   1.0    0.06    1.06    1.44   104.64168    35.05631   -15.18773
   772  H   1.0    0.03    1.03    1.43   101.90158    39.76550   -16.97163
   773  H   1.0    0.04    1.03    1.43   102.26441    38.88300   -13.73453
   774  H   1.0    0.04    1.00    1.43   106.05520    36.48683   -19.27520
   775  H   1.0    0.06    1.01    1.43   104.35634    33.57854   -19.46418
   776  H   1.0    0.04    1.00    1.43   102.87479    36.46226   -20.39959
   777  H   1.0    0.03    1.00    1.43   105.28419    42.09365   -14.95718
   778  H   1.0    0.04    1.00    1.43   106.82810    39.20236   -14.15972
   779  H   1.0    0.04    1.00    1.43   106.46527    40.08298   -17.39682
   780  N   5.0   -0.13    3.56    2.12   101.45183    30.26585   -16.33101
   781  C   4.0    0.04    4.41    4.40   101.36490    27.74307   -17.41760
   782  C   4.0    0.15    3.51    3.12    98.74196    26.63758   -16.92817
   783  O   6.0   -0.33    1.61    1.81    97.76308    25.21272   -18.46640
   784  C   4.0   -0.03    4.27    4.14   103.41903    26.08767   -16.21385
   785  C   4.0    0.25    3.12    3.03   106.09488    27.03631   -16.77699
   786  O   6.0   -0.28    1.17    1.80   107.13234    26.39191   -18.80277
   787  O   6.0   -0.27    1.23    1.80   107.16069    28.44227   -15.19340
   788  H   1.0    0.11    1.09    1.44   102.42315    30.35467   -14.66805
   789  H   1.0    0.06    1.05    1.44   101.74851    27.77141   -19.44150
   790  H   1.0    0.06    1.03    1.43   103.16203    26.08011   -14.16917
   791  H   1.0    0.05    1.03    1.43   103.25463    24.17148   -16.95084
   792  N   5.0   -0.13    3.64    2.20    97.60624    27.28953   -14.77577
   793  C   4.0    0.04    4.48    4.51    95.06833    26.36357   -14.19373
   794  C   4.0    0.16    3.64    3.19    93.55088    27.16103   -16.45573
   795  O   6.0   -0.32    1.26    1.80    91.80289    25.85712   -17.29288
   796  C   4.0   -0.03    4.37    4.32    93.93450    27.66937   -11.87693
   797  C   4.0   -0.02    3.56    3.14    91.16794    27.08733   -11.50276
   798  C   4.0   -0.04    3.46    3.10    90.41016    25.05966   -10.01177
   799  C   4.0   -0.03    3.47    3.10    89.32357    28.50463   -12.71975
   800  C   4.0   -0.04    3.37    3.07    87.86470    24.42849    -9.76988
   801  C   4.0   -0.05    3.37    3.07    86.78000    27.88102   -12.48542
   802  C   4.0   -0.05    3.37    3.07    86.05245    25.84956   -11.00009
   803  H   1.0    0.11    1.10    1.44    98.37346    28.43093   -13.42461
   804  H   1.0    0.04    1.05    1.44    95.06644    24.34723   -13.77799
   805  H   1.0    0.05    1.03    1.43    94.94739    27.04387   -10.19507
   806  H   1.0    0.06    1.06    1.44    94.12914    29.70838   -12.09803
   807  H   1.0    0.05    1.03    1.43    91.81611    23.95606    -9.02533
   808  H   1.0    0.05    1.03    1.43    89.86970    30.10711   -13.85925
   809  H   1.0    0.06    1.03    1.43    87.31101    22.83356    -8.62471
   810  H   1.0    0.04    1.03    1.43    85.36837    28.98273   -13.46430
   811  H   1.0    0.04    1.03    1.43    84.07580    25.37902   -10.80545
   812  N   5.0   -0.13    3.61    2.17    94.25764    29.38335   -17.38548
   813  C   4.0    0.04    4.41    4.39    93.05766    30.49640   -19.56433
   814  C   4.0    0.09    3.25    3.04    93.77009    28.99973   -21.92838
   815  O   6.0   -0.30    1.13    1.80    92.07501    28.03408   -23.19828
   816  C   4.0   -0.02    4.32    4.24    93.74364    33.35555   -19.80811
   817  C   4.0   -0.05    4.20    4.00    92.37547    34.86544   -17.72941
   818  C   4.0   -0.07    4.16    3.93    92.97263    34.35711   -22.36869
   819  C   4.0   -0.08    4.02    3.66    92.56634    37.72271   -17.97885
   820  H   1.0    0.12    1.14    1.45    95.67682    30.46238   -16.65227
   821  H   1.0    0.05    1.06    1.44    91.01487    30.39246   -19.33001
   822  H   1.0    0.07    1.08    1.44    95.78265    33.55775   -19.59646
   823  H   1.0    0.04    1.03    1.43    90.37614    34.37412   -17.77476
   824  H   1.0    0.05    1.03    1.43    93.18617    34.34955   -15.90771
   825  H   1.0    0.04    1.01    1.43    93.47151    36.35266   -22.48585
   826  H   1.0    0.05    1.01    1.43    93.96473    33.29697   -23.82944
   827  H   1.0    0.04    1.00    1.43    90.93739    34.12656   -22.59356
   828  H   1.0    0.03    1.00    1.43    91.54021    38.60143   -16.42361
   829  H   1.0    0.04    1.00    1.43    94.55055    38.27073   -17.90893
   830  H   1.0    0.03    1.00    1.43    91.74242    38.29530   -19.77787
   831  N   5.0   -0.20    3.30    1.98    96.18327    23.37024   -22.29121
   832  C   4.0    0.03    4.35    4.29    95.64659    20.67360   -21.87736
   833  C   4.0    0.15    3.45    3.10    92.84413    20.17093   -22.43861
   834  O   6.0   -0.29    1.22    1.80    92.09957    18.06011   -23.12836
   835  C   4.0   -0.02    4.30    4.19    96.26642    19.85346   -19.08623
   836  C   4.0   -0.04    4.16    3.93    96.35524    16.95084   -18.86324
   837  C   4.0   -0.06    4.17    3.93    94.29732    20.94194   -17.27965
   838  C   4.0   -0.07    3.98    3.59    97.74041    15.94929   -16.50298
   839  H   1.0    0.14    1.27    1.49    96.43649    24.36235   -20.65848
   840  H   1.0    0.05    1.05    1.44    96.85223    19.57945   -23.13969
   841  H   1.0    0.05    1.05    1.44    98.12213    20.59423   -18.58545
   842  H   1.0    0.05    1.03    1.43    94.42205    16.24030   -18.79521
   843  H   1.0    0.05    1.03    1.43    97.32467    16.19684   -20.51675
   844  H   1.0    0.04    1.00    1.43    94.75464    20.35613   -15.35780
   845  H   1.0    0.08    1.06    1.44    94.32756    22.99796   -17.41382
   846  H   1.0    0.05    1.01    1.43    92.43783    20.23141   -17.80689
   847  H   1.0    0.05    1.00    1.43    97.69694    13.88949   -16.52376
   848  H   1.0    0.04    1.00    1.43    99.69060    16.61069   -16.53888
   849  H   1.0    0.04    1.00    1.43    96.78987    16.65604   -14.81734
   850  N   5.0   -0.13    3.53    2.10    91.30022    22.12680   -22.11168
   851  C   4.0    0.04    4.28    4.15    88.61303    21.93972   -22.62947
   852  C   4.0    0.10    3.29    3.05    88.48453    21.74886   -25.48295
   853  O   6.0   -0.28    1.11    1.80    87.31668    20.03110   -26.52797
   854  C   4.0   -0.07    4.12    3.85    87.26376    24.30754   -21.72996
   855  H   1.0    0.11    1.08    1.44    91.85769    23.86346   -21.48996
   856  H   1.0    0.06    1.07    1.44    87.70218    20.36369   -21.66571
   857  H   1.0    0.04    1.00    1.43    85.25310    24.12802   -22.13625
   858  H   1.0    0.05    1.01    1.43    87.55478    24.51541   -19.70228
   859  H   1.0    0.06    1.00    1.43    88.03855    25.93838   -22.72206
   860  H   1.0    0.09    1.07    1.44    76.64179    10.65248   -13.85328
   861  H   1.0    0.07    1.04    1.43   112.99105    39.41839    22.99949
   862  H   1.0    0.09    1.07    1.44    97.60505    23.21049    23.53158
   863  H   1.0    0.05    1.04    1.44    91.57848    22.24980    21.56146
   864  H   1.0    0.09    1.07    1.44    92.35307    31.33383    21.13781
   865  H   1.0    0.05    1.05    1.44    84.85878    31.75269    17.10253
   866  H   1.0    0.09    1.07    1.44    84.93237    37.30466    19.31018
   867  H   1.0    0.06    1.05    1.44    82.89574    37.23517    10.30470
   868  H   1.0    0.09    1.07    1.44    69.67906    15.52591     5.70333
   869  H   1.0    0.07    1.04    1.44    96.64745    -0.13007    18.44826
   870  H   1.0    0.09    1.07    1.44    90.44875    -0.01523   -19.40108
   871  H   1.0    0.05    1.04    1.43    96.64745     0.13007   -18.44826
   872  H   1.0    0.09    1.07    1.44    79.72475    -6.39868     9.08988
   873  H   1.0    0.05    1.04    1.43    85.06843    -7.33599    12.76343
   874  H   1.0    0.09    1.08    1.44   117.02718    39.36867   -13.61057
   875  H   1.0    0.05    1.05    1.44   120.92173    39.90947    -8.70859
   876  H   1.0    0.10    1.08    1.44   116.24110    40.72901     7.76214
   877  H   1.0    0.06    1.04    1.43    95.58562    28.81809   -22.42024
   878  H   1.0    0.10    1.07    1.44    97.60505    23.53158   -23.21049
   879  H   1.0    0.06    1.05    1.44    89.35956    23.03467   -26.55629

  Z AO/shell   Hii/eV     exponent
  1     Wed Apr 25 08:07:45 CEST 2018   EN: 2.200 GM2: 0.406  GM3: 0.0800  RAES: 1.40
     1s    -10.707211    1.230000
  6     Wed Apr 25 08:07:45 CEST 2018   EN: 2.550 GM2: 0.538  GM3: 0.1500  RAES: 3.00
     2s    -13.970922    2.096432
     2p    -10.063292    1.800000
  7     Wed Apr 25 08:07:45 CEST 2018   EN: 3.040 GM2: 0.461  GM3:-0.0640  RAES: 1.90
     2s    -16.686243    2.339881
     2p    -12.523956    2.014332
  8     Wed Apr 25 08:07:45 CEST 2018   EN: 3.440 GM2: 0.452  GM3:-0.0517  RAES: 1.80
     2s    -20.229985    2.439742
     2p    -15.503117    2.137023
 16     Tue Apr 24 11:44:34 CEST 2018   EN: 2.580 GM2: 0.340  GM3:-0.0502  RAES: 3.10
     3s    -20.029654    1.981333
     3p    -11.377694    2.025643
     3d     -0.420282    1.702555
 no old-style atom pair restraining (fixing) potential

molecular fragmentation (1/2 indicates fragments):
111111111111111111111111111111111111111111111111111111111111111111111111
111111111111111111111111111111111111111111111111111111111111111111111111
111111111111111111111111111111111111111111111111111111111111111111111111
111111111111111111111111111111111111111111111111111111111111111111111111
111111111111111111111111111111111111111111111112222222222222222222222222
222222222222222222222222222222222222222222222222222222222222222222222222
222222222222222222222222222222222222222222222222222222222222222222222222
222222222222222222222222222222222222222222222222222222222222222222222222
222222222222222222222222222222222222222222222222222222222222222222222222
222222222222222222222222222222222222222222222222222222222222222222222222
222222222222222222222222222222222222222222222222222222222222222222222222
222222222222222222222222222222222222222222222222222222222222222222211222
222222222222222
# atoms in fragment 1/2:   337   542
 fragment masses (1/2) :     2317.88     3598.48
CMA distance (Bohr)    :   5.026
constraining FC (au)   :  0.0500
           ------------------------------------------------- 
          |        Self-Consistent Charge Iterations        |
           ------------------------------------------------- 

 Ncao       : 2145
 Nao        : 2141
 Nshell     : 1297
 Nel        : 2328
 T(el)      :   500.0
 intcut     :    35.0
 scfconv/Eh :  0.100E-06
   qconv/e  :  0.100E-04
 intneglect :  0.100E-08
 broydamp   :      0.400
 iter      E             dE          RMSdq      gap      omega  full diag
   1  -1321.6357708 -0.132164E+04  0.447E+00    2.72       0.0  T
   2  -1324.6484010 -0.301263E+01  0.213E+00    1.73       1.0  T
   3  -1324.8220195 -0.173618E+00  0.119E+00    1.82       1.0  T
   4  -1325.0324348 -0.210415E+00  0.239E-01    1.23       1.0  T
   5  -1325.0449447 -0.125100E-01  0.115E-01    1.43       1.0  T
   6  -1325.0466152 -0.167050E-02  0.500E-02    1.45       1.0  T
   7  -1325.0472839 -0.668699E-03  0.212E-02    1.45       1.0  T
   8  -1325.0473366 -0.527252E-04  0.112E-02    1.45       1.0  T
   9  -1325.0473611 -0.244102E-04  0.514E-03    1.45       1.0  T
  10  -1325.0473655 -0.446880E-05  0.256E-03    1.46       1.3  T
  11  -1325.0473666 -0.103372E-05  0.118E-03    1.46       2.9  T
  12  -1325.0473668 -0.229870E-06  0.593E-04    1.46       5.7  T
  13  -1325.0473669 -0.927114E-07  0.283E-04    1.46      11.9  T
  14  -1325.0473669 -0.125551E-07  0.130E-04    1.46      26.0  T
  15  -1325.0473669 -0.313139E-08  0.521E-05    1.46      64.8  T
  16  -1325.0473669 -0.514319E-09  0.243E-05    1.46     139.0  T
speedup  1.17
cpu  time for SCC    1 m 23.7 s
wall time for SCC    1 m 11.9 s

   *** convergence criteria satisfied after 16 iterations ***

          eigenvalues
 #    :        1152       1153       1154       1155       1156       1157       1158       1159
 occ. :        2.000      2.000      2.000      2.000      2.000      2.000      2.000      2.000
 eps  :       -10.041    -10.026    -10.024    -10.021    -10.017     -9.964     -9.875     -9.854
 #    :        1160       1161       1162       1163       1164       1165       1166       1167
 occ. :        2.000      2.000      2.000      2.000      2.000      0.000      0.000      0.000
 eps  :        -9.786     -9.745     -9.633     -9.598     -9.414     -7.952     -7.921     -7.821
 #    :        1168       1169       1170       1171       1172       1173       1174       1175
 occ. :        0.000      0.000      0.000      0.000      0.000      0.000      0.000      0.000
 eps  :        -7.721     -7.657     -7.650     -7.574     -7.557     -7.532     -7.467     -6.946


   #   Z            q   n(s)   n(p)   n(d)      C6AA      α(0)
   1   7 N     -0.401  1.325  4.076  0.000    30.407     8.190
   2   6 C      0.027  1.055  2.918  0.000    20.130     6.390
   3   6 C      0.266  1.047  2.686  0.000    22.504     7.769
   4   8 O     -0.504  1.741  4.763  0.000    23.878     6.552
   5   6 C     -0.127  1.049  3.078  0.000    23.001     6.839
   6   1 H      0.171  0.829  0.000  0.000     1.269     1.765
   7   1 H      0.046  0.954  0.000  0.000     2.372     2.409
   8   1 H      0.051  0.949  0.000  0.000     2.309     2.376
   9   1 H      0.061  0.939  0.000  0.000     2.183     2.310
  10   1 H      0.054  0.946  0.000  0.000     2.271     2.356
  11   7 N     -0.163  1.242  3.921  0.000    24.521     7.354
  12   6 C      0.005  1.070  2.925  0.000    20.502     6.447
  13   6 C      0.279  1.041  2.680  0.000    22.278     7.729
  14   8 O     -0.491  1.747  4.744  0.000    23.591     6.512
  15   6 C     -0.029  1.068  2.961  0.000    21.050     6.526
  16   6 C     -0.128  1.043  3.085  0.000    23.010     6.840
  17   6 C     -0.123  1.044  3.079  0.000    22.910     6.825
  18   1 H      0.216  0.784  0.000  0.000     1.026     1.587
  19   1 H      0.086  0.914  0.000  0.000     1.914     2.164
  20   1 H      0.061  0.939  0.000  0.000     2.183     2.311
  21   1 H      0.064  0.936  0.000  0.000     2.150     2.293
  22   1 H      0.048  0.952  0.000  0.000     2.348     2.396
  23   1 H      0.042  0.958  0.000  0.000     2.422     2.434
  24   1 H      0.060  0.940  0.000  0.000     2.195     2.317
  25   1 H      0.044  0.956  0.000  0.000     2.400     2.422
  26   1 H      0.052  0.948  0.000  0.000     2.296     2.370
  27   7 N     -0.182  1.248  3.934  0.000    24.948     7.418
  28   6 C      0.014  1.065  2.921  0.000    20.341     6.421
  29   6 C      0.280  1.039  2.680  0.000    22.256     7.726
  30   8 O     -0.492  1.757  4.735  0.000    23.609     6.515
  31   6 C     -0.017  1.058  2.959  0.000    20.837     6.492
  32   6 C     -0.110  1.039  3.071  0.000    22.651     6.785
  33   6 C     -0.122  1.043  3.079  0.000    22.876     6.818
  34   1 H      0.211  0.789  0.000  0.000     1.049     1.605
  35   1 H      0.083  0.917  0.000  0.000     1.953     2.185
  36   1 H      0.048  0.952  0.000  0.000     2.349     2.397
  37   1 H      0.046  0.954  0.000  0.000     2.365     2.405
  38   1 H      0.037  0.963  0.000  0.000     2.484     2.465
  39   1 H      0.045  0.955  0.000  0.000     2.387     2.416
  40   1 H      0.058  0.942  0.000  0.000     2.226     2.333
  41   1 H      0.044  0.956  0.000  0.000     2.399     2.422
  42   1 H      0.059  0.941  0.000  0.000     2.211     2.325
  43   7 N     -0.176  1.242  3.934  0.000    24.808     7.397
  44   6 C      0.008  1.060  2.932  0.000    20.443     6.437
  45   6 C      0.261  1.044  2.696  0.000    22.608     7.787
  46   8 O     -0.492  1.743  4.749  0.000    23.606     6.514
  47   6 C     -0.077  1.057  3.020  0.000    21.953     6.668
  48   6 C     -0.026  1.069  2.956  0.000    21.040     6.532
  49  16 S     -0.238  1.934  4.244  0.060   151.249    20.699
  50   6 C     -0.063  1.061  3.002  0.000    21.791     6.660
  51   1 H      0.205  0.795  0.000  0.000     1.083     1.630
  52   1 H      0.099  0.901  0.000  0.000     1.793     2.094
  53   1 H      0.074  0.926  0.000  0.000     2.042     2.234
  54   1 H      0.076  0.924  0.000  0.000     2.024     2.225
  55   1 H      0.070  0.930  0.000  0.000     2.081     2.256
  56   1 H      0.077  0.923  0.000  0.000     2.009     2.216
  57   1 H      0.060  0.940  0.000  0.000     2.196     2.317
  58   1 H      0.063  0.937  0.000  0.000     2.160     2.298
  59   1 H      0.061  0.939  0.000  0.000     2.183     2.310
  60   7 N     -0.173  1.243  3.929  0.000    24.738     7.387
  61   6 C     -0.036  1.050  2.986  0.000    21.273     6.576
  62   6 C      0.272  1.038  2.690  0.000    22.400     7.751
  63   8 O     -0.477  1.732  4.745  0.000    23.271     6.468
  64   1 H      0.235  0.765  0.000  0.000     0.942     1.521
  65   1 H      0.107  0.893  0.000  0.000     1.722     2.052
  66   1 H      0.106  0.894  0.000  0.000     1.733     2.059
  67   7 N     -0.178  1.245  3.933  0.000    24.851     7.404
  68   6 C      0.018  1.054  2.928  0.000    20.264     6.409
  69   6 C      0.277  1.037  2.687  0.000    22.321     7.737
  70   8 O     -0.492  1.741  4.751  0.000    23.607     6.514
  71   6 C     -0.138  1.045  3.093  0.000    23.196     6.865
  72   1 H      0.222  0.778  0.000  0.000     1.000     1.567
  73   1 H      0.087  0.913  0.000  0.000     1.905     2.158
  74   1 H      0.072  0.928  0.000  0.000     2.065     2.247
  75   1 H      0.094  0.906  0.000  0.000     1.845     2.124
[...]
 593   6 C      0.199  1.091  2.709  0.000    23.753     7.982
 594   8 O     -0.383  1.772  4.611  0.000    21.344     6.194
 595   6 C     -0.104  1.064  3.040  0.000    22.474     6.748
 596   6 C      0.284  1.035  2.681  0.000    22.182     7.712
 597   8 O     -0.510  1.761  4.748  0.000    23.996     6.568
 598   7 N     -0.284  1.270  4.014  0.000    27.341     7.766
 599   1 H      0.182  0.818  0.000  0.000     1.202     1.718
 600   1 H      0.047  0.953  0.000  0.000     2.358     2.402
 601   1 H      0.092  0.908  0.000  0.000     1.856     2.131
 602   1 H      0.077  0.923  0.000  0.000     2.012     2.218
 603   1 H      0.229  0.771  0.000  0.000     0.970     1.543
 604   1 H      0.238  0.762  0.000  0.000     0.931     1.511
 605   7 N     -0.393  1.323  4.070  0.000    30.170     8.158
 606   6 C      0.032  1.062  2.907  0.000    20.056     6.380
 607   6 C      0.205  1.091  2.704  0.000    23.638     7.962
 608   8 O     -0.385  1.763  4.622  0.000    21.377     6.199
 609   6 C     -0.023  1.070  2.953  0.000    20.945     6.510
 610   6 C     -0.118  1.040  3.078  0.000    22.814     6.811
 611   6 C     -0.117  1.043  3.074  0.000    22.794     6.808
 612   1 H      0.168  0.832  0.000  0.000     1.287     1.777
 613   1 H      0.053  0.947  0.000  0.000     2.285     2.364
 614   1 H      0.050  0.950  0.000  0.000     2.321     2.382
 615   1 H      0.049  0.951  0.000  0.000     2.336     2.390
 616   1 H      0.054  0.946  0.000  0.000     2.270     2.356
 617   1 H      0.030  0.970  0.000  0.000     2.581     2.512
 618   1 H      0.041  0.959  0.000  0.000     2.440     2.443
 619   1 H      0.035  0.965  0.000  0.000     2.516     2.481
 620   1 H      0.054  0.946  0.000  0.000     2.268     2.355
 621   7 N     -0.396  1.332  4.064  0.000    30.262     8.170
 622   6 C      0.035  1.056  2.910  0.000    20.008     6.372
 623   6 C      0.193  1.094  2.712  0.000    23.868     8.001
 624   8 O     -0.394  1.757  4.637  0.000    21.552     6.224
 625   6 C     -0.124  1.046  3.078  0.000    22.930     6.828
 626   1 H      0.156  0.844  0.000  0.000     1.359     1.826
 627   1 H      0.088  0.912  0.000  0.000     1.903     2.157
 628   1 H      0.045  0.955  0.000  0.000     2.379     2.412
 629   1 H      0.056  0.944  0.000  0.000     2.244     2.343
 630   1 H      0.080  0.920  0.000  0.000     1.982     2.201
 631   7 N     -0.377  1.314  4.063  0.000    29.730     8.098
 632   6 C      0.024  1.058  2.918  0.000    20.178     6.398
 633   6 C      0.258  1.050  2.693  0.000    22.662     7.795
 634   8 O     -0.476  1.750  4.726  0.000    23.264     6.467
 635   6 C     -0.072  1.057  3.014  0.000    21.862     6.655
 636   6 C     -0.007  1.081  2.926  0.000    28.195     8.709
 637   6 C     -0.036  1.083  2.953  0.000    28.895     8.815
 638   6 C     -0.047  1.085  2.961  0.000    29.158     8.855
 639   6 C     -0.053  1.077  2.977  0.000    29.321     8.879
 640   6 C     -0.074  1.082  2.992  0.000    29.846     8.958
 641   6 C      0.143  1.053  2.804  0.000    24.882     8.175
 642   8 O     -0.452  1.736  4.716  0.000    21.895     6.317
 643   1 H      0.154  0.846  0.000  0.000     1.371     1.834
 644   1 H      0.058  0.942  0.000  0.000     2.220     2.330
 645   1 H      0.047  0.953  0.000  0.000     2.356     2.401
 646   1 H      0.042  0.958  0.000  0.000     2.419     2.432
 647   1 H      0.032  0.968  0.000  0.000     2.554     2.499
 648   1 H      0.047  0.953  0.000  0.000     2.359     2.402
 649   1 H      0.043  0.957  0.000  0.000     2.404     2.425
 650   1 H      0.055  0.945  0.000  0.000     2.254     2.348
 651   1 H      0.351  0.649  0.000  0.000     0.587     1.204
 652   7 N     -0.181  1.240  3.941  0.000    24.921     7.414
 653   6 C     -0.042  1.053  2.989  0.000    21.377     6.592
 654   6 C      0.268  1.038  2.694  0.000    22.472     7.764
 655   8 O     -0.482  1.737  4.745  0.000    23.384     6.483
 656   1 H      0.217  0.783  0.000  0.000     1.025     1.586
 657   1 H      0.118  0.882  0.000  0.000     1.628     1.996
 658   1 H      0.121  0.879  0.000  0.000     1.609     1.984
 659   7 N     -0.189  1.247  3.942  0.000    25.096     7.440
 660   6 C      0.016  1.058  2.926  0.000    20.308     6.416
 661   6 C      0.277  1.039  2.684  0.000    22.309     7.735
 662   8 O     -0.481  1.736  4.745  0.000    23.372     6.482
 663   6 C     -0.078  1.058  3.019  0.000    21.965     6.669
 664   6 C     -0.016  1.051  2.965  0.000    20.825     6.490
 665   6 C     -0.120  1.044  3.076  0.000    22.857     6.816
 666   6 C     -0.146  1.048  3.097  0.000    23.360     6.891
 667   1 H      0.202  0.798  0.000  0.000     1.095     1.639
 668   1 H      0.083  0.917  0.000  0.000     1.946     2.181
 669   1 H      0.057  0.943  0.000  0.000     2.229     2.335
 670   1 H      0.049  0.951  0.000  0.000     2.338     2.391
 671   1 H      0.039  0.961  0.000  0.000     2.462     2.454
 672   1 H      0.052  0.948  0.000  0.000     2.296     2.370
 673   1 H      0.038  0.962  0.000  0.000     2.482     2.464
 674   1 H      0.040  0.960  0.000  0.000     2.443     2.445
 675   1 H      0.050  0.950  0.000  0.000     2.323     2.383
 676   1 H      0.042  0.958  0.000  0.000     2.423     2.434
 677   1 H      0.070  0.930  0.000  0.000     2.089     2.260
 678   7 N     -0.177  1.242  3.936  0.000    24.840     7.402
 679   6 C      0.003  1.063  2.934  0.000    20.522     6.450
 680   6 C      0.280  1.035  2.685  0.000    22.258     7.727
 681   8 O     -0.492  1.736  4.756  0.000    23.606     6.514
 682   6 C     -0.084  1.058  3.026  0.000    22.098     6.691
 683   6 C      0.003  1.081  2.916  0.000    27.946     8.671
 684   6 C     -0.043  1.082  2.961  0.000    29.064     8.841
 685   6 C     -0.044  1.085  2.959  0.000    29.086     8.844
 686   6 C     -0.032  1.083  2.949  0.000    28.800     8.800
 687   6 C     -0.034  1.085  2.949  0.000    28.857     8.809
 688   6 C     -0.034  1.081  2.952  0.000    28.835     8.805
 689   1 H      0.204  0.796  0.000  0.000     1.087     1.633
 690   1 H      0.100  0.900  0.000  0.000     1.789     2.092
 691   1 H      0.074  0.926  0.000  0.000     2.040     2.234
 692   1 H      0.065  0.935  0.000  0.000     2.144     2.290
 693   1 H      0.036  0.964  0.000  0.000     2.508     2.476
 694   1 H      0.048  0.952  0.000  0.000     2.351     2.398
 695   1 H      0.040  0.960  0.000  0.000     2.454     2.450
 696   1 H      0.049  0.951  0.000  0.000     2.330     2.387
 697   1 H      0.042  0.958  0.000  0.000     2.420     2.433
 698   7 N     -0.165  1.244  3.920  0.000    24.560     7.360
 699   6 C      0.009  1.064  2.927  0.000    20.417     6.433
 700   6 C      0.287  1.035  2.678  0.000    22.146     7.707
 701   8 O     -0.487  1.735  4.752  0.000    23.500     6.500
 702   6 C     -0.034  1.074  2.960  0.000    21.147     6.541
 703   6 C     -0.071  1.055  3.016  0.000    21.849     6.655
 704   6 C     -0.150  1.055  3.095  0.000    23.467     6.908
 705   6 C     -0.121  1.045  3.076  0.000    22.891     6.824
 706   1 H      0.228  0.772  0.000  0.000     0.975     1.547
 707   1 H      0.088  0.912  0.000  0.000     1.896     2.153
 708   1 H      0.070  0.930  0.000  0.000     2.090     2.261
 709   1 H      0.058  0.942  0.000  0.000     2.221     2.330
 710   1 H      0.036  0.964  0.000  0.000     2.502     2.474
 711   1 H      0.067  0.933  0.000  0.000     2.115     2.274
 712   1 H      0.080  0.920  0.000  0.000     1.976     2.198
 713   1 H      0.040  0.960  0.000  0.000     2.451     2.448
 714   1 H      0.052  0.948  0.000  0.000     2.301     2.372
 715   1 H      0.040  0.960  0.000  0.000     2.454     2.450
 716   1 H      0.050  0.950  0.000  0.000     2.323     2.383
 717   7 N     -0.174  1.249  3.925  0.000    24.776     7.393
 718   6 C      0.025  1.055  2.921  0.000    20.156     6.392
 719   6 C      0.290  1.025  2.685  0.000    22.081     7.695
 720   8 O     -0.472  1.753  4.718  0.000    23.163     6.453
 721   6 C     -0.076  1.048  3.028  0.000    21.939     6.667
 722   6 C     -0.091  1.052  3.039  0.000    22.240     6.714
 723   6 C      0.282  1.046  2.673  0.000    22.232     7.720
 724   8 O     -0.500  1.750  4.750  0.000    23.783     6.538
 725   7 N     -0.278  1.272  4.006  0.000    27.177     7.743
 726   1 H      0.230  0.770  0.000  0.000     0.965     1.539
 727   1 H      0.062  0.938  0.000  0.000     2.180     2.309
 728   1 H      0.078  0.922  0.000  0.000     1.998     2.211
 729   1 H      0.067  0.933  0.000  0.000     2.114     2.274
 730   1 H      0.052  0.948  0.000  0.000     2.296     2.369
 731   1 H      0.067  0.933  0.000  0.000     2.121     2.277
 732   1 H      0.223  0.777  0.000  0.000     0.995     1.562
 733   1 H      0.247  0.753  0.000  0.000     0.896     1.483
 734   7 N     -0.194  1.241  3.954  0.000    25.217     7.458
 735   6 C      0.015  1.061  2.924  0.000    20.328     6.420
 736   6 C      0.285  1.035  2.680  0.000    22.171     7.711
 737   8 O     -0.516  1.750  4.766  0.000    24.147     6.588
 738   6 C      0.062  1.043  2.895  0.000    19.751     6.365
 739   8 O     -0.489  1.722  4.767  0.000    22.653     6.425
 740   1 H      0.214  0.786  0.000  0.000     1.035     1.594
 741   1 H      0.062  0.938  0.000  0.000     2.181     2.309
 742   1 H      0.067  0.933  0.000  0.000     2.114     2.273
 743   1 H      0.051  0.949  0.000  0.000     2.304     2.374
 744   1 H      0.341  0.659  0.000  0.000     0.610     1.227
 745   7 N     -0.182  1.252  3.931  0.000    24.952     7.419
 746   6 C      0.017  1.065  2.918  0.000    20.287     6.412
 747   6 C      0.273  1.044  2.683  0.000    22.384     7.748
 748   8 O     -0.501  1.745  4.756  0.000    23.805     6.541
 749   6 C     -0.025  1.064  2.961  0.000    20.984     6.515
 750   6 C     -0.122  1.044  3.077  0.000    22.886     6.821
 751   6 C     -0.127  1.045  3.082  0.000    22.995     6.838
 752   1 H      0.241  0.759  0.000  0.000     0.918     1.501
 753   1 H      0.080  0.920  0.000  0.000     1.974     2.197
 754   1 H      0.049  0.951  0.000  0.000     2.333     2.388
 755   1 H      0.069  0.931  0.000  0.000     2.098     2.265
 756   1 H      0.036  0.964  0.000  0.000     2.496     2.471
 757   1 H      0.052  0.948  0.000  0.000     2.298     2.371
 758   1 H      0.057  0.943  0.000  0.000     2.232     2.336
 759   1 H      0.052  0.948  0.000  0.000     2.290     2.366
 760   1 H      0.060  0.940  0.000  0.000     2.202     2.321
 761   7 N     -0.194  1.259  3.935  0.000    25.213     7.458
 762   6 C      0.020  1.068  2.912  0.000    20.241     6.406
 763   6 C      0.286  1.037  2.676  0.000    22.146     7.706
 764   8 O     -0.502  1.747  4.755  0.000    23.831     6.545
 765   6 C     -0.023  1.067  2.956  0.000    20.954     6.511
 766   6 C     -0.069  1.052  3.017  0.000    21.810     6.649
 767   6 C     -0.108  1.038  3.069  0.000    22.615     6.782
 768   6 C     -0.115  1.041  3.074  0.000    22.771     6.805
 769   1 H      0.245  0.755  0.000  0.000     0.903     1.488
 770   1 H      0.072  0.928  0.000  0.000     2.061     2.245
 771   1 H      0.042  0.958  0.000  0.000     2.426     2.436
 772   1 H      0.051  0.949  0.000  0.000     2.305     2.374
 773   1 H      0.043  0.957  0.000  0.000     2.405     2.425
 774   1 H      0.061  0.939  0.000  0.000     2.186     2.312
 775   1 H      0.012  0.988  0.000  0.000     2.852     2.641
 776   1 H      0.051  0.949  0.000  0.000     2.305     2.374
 777   1 H      0.066  0.934  0.000  0.000     2.127     2.281
 778   1 H      0.036  0.964  0.000  0.000     2.498     2.472
 779   1 H      0.047  0.953  0.000  0.000     2.363     2.404
 780   7 N     -0.190  1.249  3.942  0.000    25.130     7.445
 781   6 C      0.049  1.053  2.898  0.000    19.755     6.329
 782   6 C      0.274  1.046  2.680  0.000    22.369     7.745
 783   8 O     -0.479  1.732  4.747  0.000    23.284     6.471
 784   6 C     -0.088  1.067  3.021  0.000    22.167     6.703
 785   6 C      0.366  1.022  2.612  0.000    20.793     7.462
 786   8 O     -0.652  1.776  4.876  0.000    27.434     7.022
 787   8 O     -0.606  1.765  4.841  0.000    26.278     6.873
 788   1 H      0.219  0.781  0.000  0.000     1.016     1.579
 789   1 H      0.048  0.952  0.000  0.000     2.345     2.395
 790   1 H      0.032  0.968  0.000  0.000     2.565     2.505
 791   1 H      0.029  0.971  0.000  0.000     2.606     2.525
 792   7 N     -0.178  1.250  3.929  0.000    24.860     7.405
 793   6 C      0.039  1.055  2.906  0.000    19.916     6.353
 794   6 C      0.292  1.034  2.675  0.000    22.058     7.693
 795   8 O     -0.499  1.743  4.756  0.000    23.760     6.535
 796   6 C     -0.085  1.053  3.032  0.000    22.115     6.693
 797   6 C      0.010  1.083  2.907  0.000    27.795     8.648
 798   6 C     -0.039  1.080  2.959  0.000    28.980     8.828
 799   6 C     -0.034  1.083  2.951  0.000    28.853     8.809
 800   6 C     -0.036  1.081  2.956  0.000    28.907     8.817
 801   6 C     -0.034  1.083  2.951  0.000    28.846     8.807
 802   6 C     -0.037  1.080  2.957  0.000    28.928     8.820
 803   1 H      0.215  0.785  0.000  0.000     1.034     1.593
 804   1 H      0.062  0.938  0.000  0.000     2.179     2.309
 805   1 H      0.059  0.941  0.000  0.000     2.213     2.326
 806   1 H      0.078  0.922  0.000  0.000     1.995     2.209
 807   1 H      0.023  0.977  0.000  0.000     2.685     2.562
 808   1 H      0.027  0.973  0.000  0.000     2.635     2.539
 809   1 H      0.052  0.948  0.000  0.000     2.294     2.369
 810   1 H      0.049  0.951  0.000  0.000     2.336     2.390
 811   1 H      0.054  0.946  0.000  0.000     2.273     2.358
 812   7 N     -0.188  1.249  3.939  0.000    25.066     7.436
 813   6 C      0.028  1.062  2.910  0.000    20.110     6.386
 814   6 C      0.209  1.086  2.705  0.000    23.564     7.950
 815   8 O     -0.357  1.747  4.610  0.000    20.842     6.121
 816   6 C     -0.032  1.069  2.962  0.000    21.103     6.534
 817   6 C     -0.064  1.052  3.013  0.000    21.730     6.636
 818   6 C     -0.118  1.041  3.077  0.000    22.815     6.810
 819   6 C     -0.115  1.041  3.074  0.000    22.765     6.805
 820   1 H      0.230  0.770  0.000  0.000     0.965     1.539
 821   1 H      0.080  0.920  0.000  0.000     1.981     2.201
 822   1 H      0.064  0.936  0.000  0.000     2.152     2.294
 823   1 H      0.042  0.958  0.000  0.000     2.421     2.433
 824   1 H      0.037  0.963  0.000  0.000     2.494     2.470
 825   1 H      0.069  0.931  0.000  0.000     2.091     2.261
 826   1 H      0.028  0.972  0.000  0.000     2.616     2.529
 827   1 H      0.054  0.946  0.000  0.000     2.277     2.360
 828   1 H      0.055  0.945  0.000  0.000     2.254     2.348
 829   1 H      0.033  0.967  0.000  0.000     2.538     2.491
 830   1 H      0.054  0.946  0.000  0.000     2.273     2.358
 831   7 N     -0.458  1.342  4.116  0.000    32.048     8.408
 832   6 C      0.034  1.069  2.897  0.000    20.023     6.374
 833   6 C      0.275  1.050  2.675  0.000    22.354     7.742
 834   8 O     -0.525  1.757  4.768  0.000    24.335     6.614
 835   6 C     -0.013  1.070  2.943  0.000    20.782     6.484
 836   6 C     -0.059  1.055  3.005  0.000    21.644     6.624
 837   6 C     -0.116  1.045  3.071  0.000    22.771     6.805
 838   6 C     -0.108  1.043  3.065  0.000    22.629     6.785
 839   1 H      0.221  0.779  0.000  0.000     0.996     1.560
 840   1 H      0.015  0.985  0.000  0.000     2.818     2.625
 841   1 H      0.018  0.982  0.000  0.000     2.765     2.600
 842   1 H      0.036  0.964  0.000  0.000     2.499     2.472
 843   1 H      0.021  0.979  0.000  0.000     2.717     2.578
 844   1 H      0.029  0.971  0.000  0.000     2.598     2.521
 845   1 H      0.065  0.935  0.000  0.000     2.137     2.286
 846   1 H      0.031  0.969  0.000  0.000     2.570     2.507
 847   1 H      0.049  0.951  0.000  0.000     2.334     2.389
 848   1 H      0.031  0.969  0.000  0.000     2.576     2.510
 849   1 H      0.040  0.960  0.000  0.000     2.450     2.448
 850   7 N     -0.158  1.243  3.915  0.000    24.414     7.338
 851   6 C      0.036  1.051  2.913  0.000    19.975     6.364
 852   6 C      0.208  1.087  2.705  0.000    23.585     7.955
 853   8 O     -0.376  1.753  4.622  0.000    21.204     6.174
 854   6 C     -0.140  1.048  3.093  0.000    23.259     6.876
 855   1 H      0.217  0.783  0.000  0.000     1.023     1.584
 856   1 H      0.088  0.912  0.000  0.000     1.899     2.155
 857   1 H      0.074  0.926  0.000  0.000     2.046     2.237
 858   1 H      0.090  0.910  0.000  0.000     1.878     2.143
 859   1 H      0.071  0.929  0.000  0.000     2.079     2.255
 860   1 H      0.182  0.818  0.000  0.000     1.200     1.716
 861   1 H      0.073  0.927  0.000  0.000     2.053     2.241
 862   1 H      0.182  0.818  0.000  0.000     1.205     1.719
 863   1 H      0.084  0.916  0.000  0.000     1.935     2.175
 864   1 H      0.177  0.823  0.000  0.000     1.231     1.738
 865   1 H      0.079  0.921  0.000  0.000     1.993     2.207
 866   1 H      0.179  0.821  0.000  0.000     1.221     1.731
 867   1 H      0.079  0.921  0.000  0.000     1.990     2.206
 868   1 H      0.182  0.818  0.000  0.000     1.200     1.716
 869   1 H      0.065  0.935  0.000  0.000     2.146     2.291
 870   1 H      0.188  0.812  0.000  0.000     1.171     1.695
 871   1 H      0.086  0.914  0.000  0.000     1.922     2.168
 872   1 H      0.190  0.810  0.000  0.000     1.159     1.687
 873   1 H      0.072  0.928  0.000  0.000     2.064     2.246
 874   1 H      0.187  0.813  0.000  0.000     1.172     1.696
 875   1 H      0.067  0.933  0.000  0.000     2.115     2.274
 876   1 H      0.180  0.820  0.000  0.000     1.215     1.726
 877   1 H      0.056  0.944  0.000  0.000     2.241     2.341
 878   1 H      0.156  0.844  0.000  0.000     1.362     1.828
 879   1 H      0.070  0.930  0.000  0.000     2.085     2.258

 Mol. C6AA /au·bohr⁶  :    7152864.887799
 Mol. C8AA /au·bohr⁸  :  161680725.352722
 Mol. α(0) /au        :       4020.115984

 
molecular dipole:
                 x           y           z       tot (Debye)
 q only:     -137.243     -25.740     -13.116
   full:     -137.332     -26.976     -14.880     357.747
molecular quadrupole (traceless):
                xx          xy          yy          xz          yz          zz
 q only:   -15927.274   -4806.515    8220.801   -2408.751    -199.427    7706.473
  q+dip:   -15770.520   -4934.804    8064.830   -2705.672    -219.203    7705.690
   full:   -15775.056   -4937.828    8065.375   -2708.992    -215.903    7709.681
speedup  1.15
cpu  time for grad    1 m 34.2 s
wall time for grad    1 m 22.0 s

SCC energy    :   -1325.0857432
rep           :      16.2716899
ES            :       3.4169203
AES           :      -0.0760342
AXC           :       0.4832342
disp          :      -1.2701475
XB            :       0.0000000
fix           :       0.0000000
Gborn         :       0.0000000
Gsasa         :       0.0000000
Ghb           :       0.0000000
Gshift        :       0.0000000
Gsolv         :      -0.6592590     -413.69
Etot ala COSMO:   -1325.0857432
grad norm     :       0.7963415
total E       :   -1308.6656311
atomizationE  :     245.7354762   154201.34
(atE without considering molecular charge,
 total energy contains solvation terms)
H-L gap (eV)  :          1.4616

------------------------------------------------------------------------
 * finished run on 2019/05/04 at 16:16:49.158     
------------------------------------------------------------------------
 total:
 * wall-time:     0 d,  0 h,  1 min, 26.725 sec
 *  cpu-time:     0 d,  0 h,  1 min, 39.640 sec
 * ratio c/w:     1.149 speedup
 SCF:
 * wall-time:     0 d,  0 h,  1 min, 24.043 sec
 *  cpu-time:     0 d,  0 h,  1 min, 37.235 sec
 * ratio c/w:     1.157 speedup

