      -----------------------------------------------------------      
     |                   =====================                   |     
     |                           x T B                           |     
     |                   =====================                   |     
     |                         S. Grimme                         |     
     |          Mulliken Center for Theoretical Chemistry        |     
     |                    University of Bonn                     |     
     |                 Version 6.0.1 (SAW181210)                 |     
      -----------------------------------------------------------      

   This program is distributed in the hope that it will be useful,
   but WITHOUT ANY WARRANTY; without even the implied warranty of
   MERCHANTABILITY or FITNESS FOR A PARTICULAR PURPOSE.
   
   FOR NON-COMMERCIAL, ACADEMIA USE ONLY.
   
   Cite this work as:
   S. Grimme, C. Bannwarth, P. Shushkov, J. Comput. Theory Chem., 2017,
   13, 1989-2009.
   C. Bannwarth, S. Ehlert and S. Grimme., ChemRxiv, 2018, preprint.
   http://doi.org/10.26434/chemrxiv.7246238.v1
   
   for sTDA-xTB:
   S. Grimme and C. Bannwarth, J. Chem. Phys., 2016, 145, 054103.
   
   in the mass-spec context:
   V. Asgeirsson, C. Bauer and S. Grimme, Chem. Sci., 2017, 8, 4879.
   
   if GBSA is used:
   P. Shushkov, F. März and S. Grimme, unpublished.
   
   for ANC optimizer:
   S. Grimme, unpublished.
   Rational Function algorithm used in ANCopt:
   F. Eckert, P. Pulay, H.-J. Werner, J. Comput. Chem., 1997, 18, 1473.
   
   with help from (in alphabetical order)
   C. Bannwarth, F. Bohle, G. Brandenburg, E. Caldeweyher, M. Checinski,
   S. Dohm, S. Ehlert, S. Ehrlich, F. März, H. Neugebauer, J. Pisarek,
   P. Pracht, P. Shushkov, and S. Spicher.
   
 * started run on 2019/05/05 at 22:41:52.631     
========================================================================
 # omp threads = 2
========================================================================
number of atoms            : 738
number of electrons        : 2026
charge                     : -1
spin                       : .0
first test random number   : .5702

########################################################################
# WARNING! Please study the warnings concerning your input carefully
#  - Process number higher than OMP_NUM_THREADS, I hope you know what you are doing.
########################################################################

           ------------------------------------------------- 
          |                 G F N 2 - x T B                 |
          | Geometry, Frequencies, Noncovalent interactions |
          |            JCTC 2018 parametrisation            |
           ------------------------------------------------- 
 
      method parameters     
 k(s)        :  1.8500
 k(p)        :  2.2300
 k(d)        :  2.2300
 k(f)        :  2.0000
 kEN (H0ij)  : -2.0000
 D4 a1       :  0.5200
 D4 a2       :  5.0000
 D4 s6       :  1.0000
 D4 s8       :  2.7000
 D4 s9       :  5.0000
 alphaj      :  2.0000

 Solvent             : h2o
 Using internal parameter file: .param_gbsa2_h2o
 Gsolv ref. state (COSMO-RS): gsolv [1 M gas/solution]
 temperature (mdtemp)       :    298.150000000000     
 dielectric constant        :    80.2000000000000     
 rho                        :    1.00000000000000     
 mass                       :    18.0000000000000     
 surface tension            :    15.5689454083859     
 probe radius               :   0.975313790000000     
 vdW radii scaling          :    1.00000000000000     
 Gshift (Eh)                :   1.857443126794793E-003
 c1                         :    1.55243817000000     
 soset                      :   0.130326360000000     
 HB correction              :  T

            Z     q(EN)     CN     RAES       Cart. coordinates
     1  N   5.0   -0.12    4.09    3.12    82.23898    89.93206   149.17308
     2  C   4.0    0.01    4.31    4.22    80.51177    90.27788   151.37083
     3  C   4.0    0.15    3.38    3.07    81.95741    90.20040   153.86149
     4  O   6.0   -0.28    1.22    1.80    81.77978    91.97296   155.36382
     5  C   4.0   -0.04    4.27    4.14    78.41040    88.25965   151.39917
     6  C   4.0   -0.03    4.17    3.94    76.66618    88.21619   149.10127
     7  C   4.0    0.25    3.11    3.03    75.16763    90.65204   148.70442
     8  O   6.0   -0.27    1.17    1.80    74.13206    91.01865   146.60116
     9  O   6.0   -0.27    1.19    1.80    75.00889    92.21296   150.47132
    10  H   1.0    0.06    1.02    1.43    81.70041    88.33524   148.16207
    11  H   1.0    0.07    1.01    1.43    82.13883    91.50998   148.00712
    12  H   1.0    0.07    1.03    1.43    84.08147    89.70907   149.81747
    13  H   1.0    0.07    1.06    1.44    79.61604    92.12414   151.19130
    14  H   1.0    0.04    1.03    1.43    79.30046    86.40583   151.52201
    15  H   1.0    0.06    1.03    1.43    77.22743    88.58468   153.05457
    16  H   1.0    0.05    1.03    1.43    77.80569    87.90438   147.41374
    17  H   1.0    0.05    1.03    1.43    75.31125    86.68173   149.32992
    18  N   5.0   -0.14    3.44    2.04    83.38983    88.16705   154.28479
    19  C   4.0    0.04    4.41    4.40    84.61248    87.70407   156.74143
    20  C   4.0    0.15    3.39    3.08    87.45841    88.10847   156.72064
    21  O   6.0   -0.30    1.23    1.80    88.71696    87.52266   154.86304
    22  C   4.0   -0.03    4.33    4.26    84.10036    85.00365   157.62015
    23  C   4.0   -0.02    3.53    3.13    81.35270    84.41973   158.11148
    24  C   4.0   -0.05    3.48    3.10    79.74644    83.70730   156.15183
    25  C   4.0   -0.04    3.46    3.10    80.34548    84.56335   160.52655
    26  C   4.0   -0.05    3.44    3.09    77.19908    83.16873   156.57702
    27  C   4.0   -0.04    3.42    3.09    77.80569    84.03233   160.97064
    28  C   4.0    0.07    3.44    3.09    76.23721    83.33125   158.99398
    29  O   6.0   -0.24    2.10    1.84    73.73900    82.74354   159.40783
    30  H   1.0    0.09    1.06    1.44    83.74321    86.80456   152.96765
    31  H   1.0    0.06    1.07    1.44    83.83580    89.08546   158.05668
    32  H   1.0    0.05    1.04    1.43    84.76177    83.70352   156.16506
    33  H   1.0    0.05    1.04    1.43    85.12837    84.67862   159.37571
    34  H   1.0    0.05    1.03    1.43    80.49099    83.56746   154.25644
    35  H   1.0    0.05    1.03    1.43    81.54923    85.09436   162.08746
    36  H   1.0    0.05    1.03    1.43    75.98966    82.62827   155.02367
    37  H   1.0    0.06    1.03    1.43    77.05547    84.16839   162.86414
    38  H   1.0    0.12    1.03    1.43    72.93019    82.25599   157.81479
    39  N   5.0   -0.13    3.46    2.05    88.43728    89.08546   158.82013
    40  C   4.0    0.03    4.41    4.40    91.15849    89.21963   159.29823
    41  C   4.0    0.16    3.43    3.09    92.03154    86.95385   160.83458
    42  O   6.0   -0.29    1.25    1.80    90.49898    85.40238   161.61314
    43  C   4.0   -0.05    4.26    4.11    91.83312    91.69328   160.65694
    44  C   4.0   -0.05    4.18    3.97    91.54399    94.00820   158.94296
    45  C   4.0   -0.05    4.13    3.87    93.60757    96.02453   159.30390
    46  C   4.0   -0.04    4.11    3.82    94.34457    97.33600   156.82458
    47  N   5.0   -0.12    4.00    2.86    92.14871    98.12024   155.22776
    48  H   1.0    0.08    1.06    1.44    87.37715    89.81489   160.25632
    49  H   1.0    0.05    1.07    1.44    92.12603    89.18184   157.48031
    50  H   1.0    0.05    1.03    1.43    90.58212    91.93517   162.27644
    51  H   1.0    0.04    1.03    1.43    93.79277    91.60258   161.28622
    52  H   1.0    0.05    1.04    1.43    91.61391    93.38837   156.97953
    53  H   1.0    0.04    1.03    1.43    89.72797    94.89826   159.33602
    54  H   1.0    0.04    1.03    1.43    92.91782    97.46451   160.60403
    55  H   1.0    0.04    1.03    1.43    95.29510    95.12880   160.07491
    56  H   1.0    0.04    1.02    1.43    95.42549    99.03109   157.27244
    57  H   1.0    0.04    1.02    1.43    95.49352    96.03965   155.70964
    58  H   1.0    0.06    1.01    1.43    92.78743    98.99329   153.58748
    59  H   1.0    0.06    1.02    1.43    91.07723    96.54610   154.73832
    60  H   1.0    0.05    1.01    1.43    91.01298    99.38069   156.21986
    61  N   5.0   -0.13    3.52    2.09    94.50708    86.75165   161.23520
    62  C   4.0    0.04    4.39    4.37    95.61257    84.74476   162.78666
    63  C   4.0    0.09    3.31    3.06    94.78109    85.30412   165.45496
    64  O   6.0   -0.27    1.20    1.80    93.62080    87.26754   165.86881
    65  C   4.0   -0.04    4.10    3.81    98.48874    84.76744   162.57312
    66  S   6.0   -0.05    2.33    3.10   100.12902    82.49977   164.51387
    67  H   1.0    0.07    1.07    1.44    95.81855    87.96107   160.50387
    68  H   1.0    0.04    1.06    1.44    95.01164    82.86448   162.19896
    69  H   1.0    0.04    1.07    1.44    98.99518    84.37626   160.61537
    70  H   1.0    0.05    1.08    1.44    99.16148    86.63638   163.11547
    71  H   1.0    0.06    1.00    1.43   102.25639    81.90095   164.00591
    72  N   5.0   -0.19    3.21    1.96    74.63284    69.43798   168.00986
    73  C   4.0    0.03    4.25    4.10    74.88039    67.90730   165.75353
    74  C   4.0    0.15    3.39    3.08    73.03980    65.68120   165.89148
    75  O   6.0   -0.29    1.23    1.80    72.73744    64.50769   167.88703
    76  C   4.0   -0.08    4.10    3.80    77.60349    67.01157   165.44551
    77  H   1.0    0.09    1.02    1.43    75.76478    68.89941   169.47440
    78  H   1.0    0.05    1.06    1.44    74.40985    69.00523   164.07546
    79  H   1.0    0.04    1.01    1.43    77.74333    65.86640   163.73908
    80  H   1.0    0.03    1.00    1.43    78.83748    68.65374   165.29244
    81  H   1.0    0.05    1.00    1.43    78.13072    65.88718   167.08957
    82  N   5.0   -0.14    3.45    2.05    71.82281    65.13318   163.75798
    83  C   4.0    0.04    4.44    4.45    70.00112    63.09417   163.59735
    84  C   4.0    0.14    3.44    3.09    70.95543    61.07972   161.82479
    85  O   6.0   -0.30    1.24    1.80    71.81337    61.67121   159.75176
    86  C   4.0   -0.04    4.28    4.17    67.48022    64.10328   162.61848
    87  C   4.0   -0.05    4.21    4.02    65.35428    62.16254   162.47297
    88  C   4.0   -0.05    4.18    3.95    64.58894    61.13641   165.04866
    89  C   4.0   -0.04    4.13    3.86    62.35340    59.34873   164.81812
    90  N   5.0   -0.12    4.01    2.88    62.83528    57.15665   163.10414
    91  H   1.0    0.10    1.07    1.44    72.07226    66.08561   162.10069
    92  H   1.0    0.05    1.07    1.44    69.74790    62.24946   165.45873
    93  H   1.0    0.05    1.03    1.43    66.85283    65.61128   163.87325
    94  H   1.0    0.06    1.03    1.43    67.76935    64.84217   160.71741
    95  H   1.0    0.04    1.03    1.43    63.69699    63.04504   161.62448
    96  H   1.0    0.05    1.03    1.43    65.97411    60.57517   161.31646
    97  H   1.0    0.05    1.03    1.43    66.16875    60.10273   165.87258
    98  H   1.0    0.04    1.03    1.43    64.05037    62.69922   166.27888
    99  H   1.0    0.04    1.02    1.43    61.90364    58.60229   166.68517
   100  H   1.0    0.04    1.02    1.43    60.74146    60.39186   164.06979
   101  H   1.0    0.05    1.01    1.43    61.24413    56.00581   163.02288
   102  H   1.0    0.06    1.02    1.43    63.25291    57.79727   161.29378
   103  H   1.0    0.08    1.03    1.43    64.35273    56.10218   163.77310
   104  N   5.0   -0.14    3.47    2.06    70.77591    58.70623   162.64304
   105  C   4.0    0.03    4.35    4.29    71.32771    56.53493   161.03678
   106  C   4.0    0.07    3.23    3.04    69.32460    54.53182   161.28244
   107  O   6.0   -0.31    1.17    1.80    67.91297    54.49592   163.11925
   108  C   4.0   -0.04    4.39    4.36    73.86183    55.40488   161.75109
   109  C   4.0   -0.04    4.09    3.78    76.03690    57.17177   161.18229
   110  S   6.0   -0.05    2.50    3.10    79.02267    55.55605   161.11237
   111  C   4.0   -0.07    3.89    3.44    79.16818    54.30505   164.27199
   112  H   1.0    0.09    1.06    1.44    70.24489    58.22435   164.43261
   113  H   1.0    0.05    1.06    1.44    71.35416    57.16421   159.07524
   114  H   1.0    0.05    1.04    1.43    73.87506    55.00047   163.77121
   115  H   1.0    0.04    1.05    1.44    74.15096    53.66822   160.68340
   116  H   1.0    0.05    1.07    1.44    75.73455    58.04293   159.33980
   117  H   1.0    0.05    1.07    1.44    76.12761    58.62308   162.64115
   118  H   1.0    0.04    1.04    1.43    80.92562    53.25626   164.49686
   119  H   1.0    0.04    1.04    1.43    79.10393    55.86597   165.61558
   120  H   1.0    0.04    1.04    1.43    77.56002    53.05406   164.57245
   121  N   5.0   -0.19    3.22    1.96    88.96452    76.73421   167.19728
   122  C   4.0    0.03    4.44    4.45    90.73330    76.44508   165.11858
   123  C   4.0    0.15    3.51    3.12    93.40348    76.62272   166.12581
   124  O   6.0   -0.29    1.25    1.80    93.96662    78.33859   167.59601
   125  C   4.0   -0.02    4.40    4.38    90.40638    78.52000   163.13626
   126  C   4.0   -0.05    4.24    4.08    88.06690    77.99466   161.53755
   127  C   4.0   -0.06    4.19    3.98    92.67594    78.61638   161.38449
   128  C   4.0   -0.08    4.03    3.68    85.93151    79.74832   162.12148
   129  H   1.0    0.09    1.03    1.43    88.22753    78.50866   167.35791
   130  H   1.0    0.05    1.06    1.44    90.38181    74.60071   164.27388
   131  H   1.0    0.06    1.06    1.44    90.21363    80.31146   164.13404
   132  H   1.0    0.04    1.04    1.43    88.55067    78.21765   159.54767
   133  H   1.0    0.04    1.04    1.43    87.42817    76.06903   161.89660
   134  H   1.0    0.05    1.00    1.43    92.38681    80.10926   159.99554
   135  H   1.0    0.05    1.02    1.43    94.36536    79.00755   162.49564
   136  H   1.0    0.06    1.00    1.43    92.86680    76.79846   160.43395
   137  H   1.0    0.04    1.00    1.43    84.32713    79.27400   160.91961
   138  H   1.0    0.04    1.00    1.43    85.41183    79.53668   164.10380
   139  H   1.0    0.05    1.00    1.43    86.53433    81.68340   161.75676
   140  N   5.0   -0.14    3.47    2.06    95.06455    74.91441   165.30756
   141  C   4.0    0.05    4.46    4.47    97.72718    75.14117   165.99920
   142  C   4.0    0.15    3.38    3.07    99.60745    75.04291   163.80145
   143  O   6.0   -0.29    1.27    1.80   101.85623    74.99377   164.27955
   144  C   4.0   -0.02    4.29    4.18    98.41315    73.24767   168.08167
   145  C   4.0    0.26    3.16    3.03    98.04843    70.55481   167.25775
   146  O   6.0   -0.28    1.25    1.80    96.96751    70.20143   165.17150
   147  O   6.0   -0.26    1.16    1.80    98.82889    68.83138   168.69961
   148  H   1.0    0.11    1.07    1.44    94.63370    73.39885   164.19640
   149  H   1.0    0.06    1.08    1.44    97.98040    77.03279   166.77587
   150  H   1.0    0.07    1.03    1.43   100.39169    73.49711   168.59568
   151  H   1.0    0.06    1.03    1.43    97.21128    73.58404   169.72007
   152  N   5.0   -0.13    3.46    2.05    98.75141    75.05236   161.43929
   153  C   4.0    0.03    4.40    4.38   100.38035    75.74966   159.28878
   154  C   4.0    0.14    3.44    3.09    98.79109    77.22743   157.42929
   155  O   6.0   -0.30    1.24    1.80    96.79554    76.28635   156.62994
   156  C   4.0   -0.03    4.27    4.14   101.45939    73.44042   157.91684
   157  C   4.0   -0.02    4.18    3.95   102.54976    71.35416   159.58358
   158  C   4.0    0.26    3.11    3.02   105.07443    70.28647   158.65005
   159  O   6.0   -0.25    1.17    1.80   106.76007    69.88962   160.27711
   160  O   6.0   -0.27    1.16    1.80   105.40513    69.84427   156.32947
   161  H   1.0    0.10    1.06    1.44    96.94861    74.59126   160.93851
   162  H   1.0    0.05    1.06    1.44   101.95071    76.88350   159.98798
   163  H   1.0    0.06    1.04    1.43    99.94950    72.59571   156.80001
   164  H   1.0    0.06    1.04    1.43   102.97684    74.08104   156.67907
   165  H   1.0    0.08    1.05    1.44   102.85400    72.11194   161.47519
   166  H   1.0    0.07    1.03    1.43   101.20238    69.79703   159.65728
   167  N   5.0   -0.13    3.42    2.03    99.61879    79.51400   156.73198
   168  C   4.0    0.03    4.42    4.42    98.25819    80.97665   154.78178
   169  C   4.0    0.15    3.47    3.10    98.75897    79.77289   152.21554
   170  O   6.0   -0.29    1.25    1.80   100.84900    78.90740   151.80735
   171  C   4.0   -0.05    4.30    4.20    99.01408    83.76777   154.74399
   172  C   4.0   -0.04    4.04    3.69    96.84090    85.52522   155.45075
   173  S   6.0   -0.04    2.45    3.10    97.44939    88.90405   155.19941
   174  C   4.0   -0.07    3.88    3.43   100.04209    89.45018   157.32724
   175  H   1.0    0.07    1.05    1.44   101.17782    80.39083   157.45197
   176  H   1.0    0.04    1.07    1.44    96.24563    80.95397   155.22020
   177  H   1.0    0.04    1.03    1.43   100.54098    84.06635   156.09514
   178  H   1.0    0.05    1.04    1.43    99.64525    84.26477   152.84670
   179  H   1.0    0.05    1.07    1.44    95.24975    85.10570   154.21109
   180  H   1.0    0.04    1.08    1.44    96.32500    85.15105   157.41039
   181  H   1.0    0.04    1.04    1.43   100.53153    91.45140   157.28945
   182  H   1.0    0.03    1.04    1.43    99.47517    88.90216   159.23020
   183  H   1.0    0.04    1.04    1.43   101.65592    88.32201   156.72253
   184  N   5.0   -0.09    3.64    2.20    96.84657    79.66518   150.51667
   185  C   4.0    0.03    4.57    4.63    97.10168    78.29324   148.09215
   186  C   4.0    0.14    3.43    3.09    97.96528    80.01856   145.96243
   187  O   6.0   -0.30    1.29    1.80    97.99174    82.31646   146.31770
   188  C   4.0   -0.04    4.36    4.31    94.43150    77.36727   147.61216
   189  C   4.0   -0.04    4.31    4.21    92.82712    79.46676   148.65907
   190  C   4.0   -0.01    4.32    4.23    94.28788    80.75744   150.76234
   191  H   1.0    0.05    1.05    1.44    98.40181    76.70587   148.27168
   192  H   1.0    0.04    1.03    1.43    94.11213    77.11216   145.59394
   193  H   1.0    0.06    1.03    1.43    94.09512    75.59660   148.60805
   194  H   1.0    0.05    1.03    1.43    92.41327    80.81035   147.15485
   195  H   1.0    0.05    1.03    1.43    91.07534    78.67118   149.39606
   196  H   1.0    0.05    1.02    1.43    94.32945    82.79834   150.48266
   197  H   1.0    0.04    1.02    1.43    93.47340    80.31524   152.60104
   198  N   5.0   -0.15    3.40    2.02    98.80999    79.02078   143.82137
   199  C   4.0    0.03    4.48    4.51   100.11390    80.66673   142.01102
   200  C   4.0    0.15    3.37    3.07    99.11802    80.72153   139.30115
   201  O   6.0   -0.27    1.21    1.80    99.61312    78.99054   137.82716
   202  C   4.0   -0.03    4.30    4.19   102.94471    80.05824   141.98456
   203  C   4.0   -0.03    4.29    4.18   104.64357    82.37315   141.92787
   204  C   4.0    0.26    3.15    3.03   104.85900    83.51644   139.30871
   205  O   6.0   -0.28    1.18    1.80   105.16325    85.84836   139.11784
   206  O   6.0   -0.26    1.20    1.80   104.72105    82.08025   137.43977
   207  H   1.0    0.08    1.05    1.44    98.63236    77.17263   143.30548
   208  H   1.0    0.05    1.15    1.45    99.66604    82.56024   142.68565
   209  H   1.0    0.06    1.03    1.43   103.40391    78.98677   143.68342
   210  H   1.0    0.08    1.05    1.44   103.36234    78.93574   140.30837
   211  H   1.0    0.04    1.11    1.45   103.86879    83.80746   143.18831
   212  H   1.0    0.08    1.04    1.43   106.53330    81.83647   142.54770
   213  N   5.0   -0.13    3.41    2.02    97.81222    82.76055   138.61140
   214  C   4.0    0.02    4.31    4.22    96.93349    84.71641   140.43309
   215  C   4.0    0.25    3.20    3.04    94.48252    85.91828   139.46555
   216  O   6.0   -0.25    1.21    1.80    93.92505    85.89371   137.18466
   217  C   4.0   -0.05    4.09    3.78    98.93282    86.76866   140.86206
   218  O   6.0   -0.27    1.19    1.80    93.01798    86.93684   140.95844
   219  H   1.0    0.12    1.06    1.44    97.31144    83.14416   136.78970
   220  H   1.0    0.06    1.07    1.44    96.59901    83.81502   142.25479
   221  H   1.0    0.06    1.00    1.43    98.19961    88.14816   142.20377
   222  H   1.0    0.05    1.00    1.43   100.63925    85.89560   141.61417
   223  H   1.0    0.07    1.00    1.43    99.34667    87.68706   139.06493
   224  N   5.0   -0.12    4.14    3.28    88.22375    79.53668   129.79205
   225  C   4.0    0.00    4.29    4.18    90.76732    80.63272   129.80150
   226  C   4.0    0.15    3.34    3.06    92.16193    80.25477   132.35263
   227  O   6.0   -0.26    1.22    1.80    93.68505    81.85159   133.13308
   228  C   4.0    0.05    4.16    3.91    90.61425    83.44463   129.11364
   229  O   6.0   -0.25    2.04    1.83    89.03255    83.82635   126.97636
   230  H   1.0    0.06    1.04    1.43    86.90283    80.95019   129.45001
   231  H   1.0    0.06    1.02    1.43    88.10280    78.17229   128.38231
   232  H   1.0    0.06    1.04    1.43    87.86092    78.70898   131.53626
   233  H   1.0    0.05    1.05    1.44    91.90871    79.66140   128.38798
   234  H   1.0    0.06    1.01    1.43    89.83946    84.48398   130.71423
   235  H   1.0    0.06    1.01    1.43    92.50586    84.13060   128.67711
   236  H   1.0    0.11    1.02    1.43    87.32046    83.21786   127.33729
   237  N   5.0   -0.12    3.46    2.06    91.61580    78.12505   133.60929
   238  C   4.0    0.04    4.35    4.28    92.76476    77.36349   136.04704
   239  C   4.0    0.14    3.40    3.08    92.64381    74.43064   136.11696
   240  O   6.0   -0.29    1.25    1.80    91.75564    73.25523   134.28204
   241  C   4.0    0.05    4.16    3.92    91.34746    78.58992   138.34873
   242  O   6.0   -0.21    2.09    1.84    90.96385    81.23554   137.90086
   243  C   4.0   -0.07    4.05    3.71    92.77799    78.31402   140.88474
   244  H   1.0    0.09    1.08    1.44    90.33835    76.82870   132.97435
   245  H   1.0    0.07    1.05    1.44    94.72440    77.98899   136.15098
   246  H   1.0    0.04    1.04    1.43    89.55411    77.59215   138.53392
   247  H   1.0    0.13    1.01    1.43    90.07946    81.99899   139.33705
   248  H   1.0    0.04    1.00    1.43    91.70084    79.20030   142.40030
   249  H   1.0    0.04    1.01    1.43    93.04444    76.32036   141.33071
   250  H   1.0    0.06    1.00    1.43    94.62236    79.22298   140.75624
   251  N   5.0   -0.15    3.45    2.05    93.57545    73.25523   138.15597
   252  C   4.0    0.04    4.32    4.24    92.87058    70.63985   138.78525
   253  C   4.0    0.15    3.37    3.07    89.98686    70.40741   139.08572
   254  O   6.0   -0.30    1.20    1.80    88.97208    68.33627   138.75124
   255  C   4.0   -0.07    4.09    3.79    94.21040    69.75545   141.17765
   256  H   1.0    0.07    1.06    1.44    94.81133    74.05080   139.40319
   257  H   1.0    0.06    1.06    1.44    93.48663    69.39641   137.26213
   258  H   1.0    0.05    1.00    1.43    93.64726    67.81660   141.58394
   259  H   1.0    0.04    1.00    1.43    96.24563    69.84616   140.87907
   260  H   1.0    0.05    1.00    1.43    93.67372    70.98567   142.74045
   261  N   5.0   -0.14    3.45    2.05    88.76232    72.54280   139.75846
   262  C   4.0    0.04    4.32    4.24    85.97497    72.97933   139.96444
   263  C   4.0    0.15    3.37    3.07    85.11893    72.25178   142.65541
   264  O   6.0   -0.28    1.22    1.80    82.90228    71.64707   143.12784
   265  C   4.0   -0.02    4.28    4.15    84.45941    71.59605   137.86496
   266  C   4.0    0.15    3.21    3.04    81.80057    72.65996   137.47378
   267  O   6.0   -0.27    1.22    1.80    80.77445    74.00923   139.07438
   268  N   5.0   -0.19    3.17    1.95    80.66106    72.01368   135.33272
   269  H   1.0    0.07    1.07    1.44    89.71285    74.15663   140.21578
   270  H   1.0    0.05    1.06    1.44    85.54411    74.96921   139.65264
   271  H   1.0    0.05    1.03    1.43    85.47797    71.77179   136.08295
   272  H   1.0    0.06    1.03    1.43    84.27422    69.60995   138.37707
   273  H   1.0    0.09    1.02    1.43    78.88472    72.65807   134.95289
   274  H   1.0    0.08    1.03    1.43    81.56246    70.87228   134.06850
   275  N   5.0   -0.14    3.48    2.07    86.91228    72.42564   144.41853
   276  C   4.0    0.04    4.41    4.40    86.95196    70.80803   146.63329
   277  C   4.0    0.14    3.43    3.09    88.73019    71.87006   148.61750
   278  O   6.0   -0.31    1.23    1.80    90.98841    72.22155   148.11294
   279  C   4.0   -0.04    4.32    4.23    87.90060    68.16808   145.92086
   280  C   4.0   -0.04    4.21    4.02    85.93718    66.40686   144.80970
   281  C   4.0   -0.05    4.19    3.98    87.09558    63.80282   144.36750
   282  C   4.0   -0.04    4.13    3.85    85.39294    62.11907   142.78580
   283  N   5.0   -0.12    4.02    2.91    82.74732    62.07561   143.75523
   284  H   1.0    0.08    1.06    1.44    88.37114    73.68419   144.35428
   285  H   1.0    0.06    1.06    1.44    85.04145    70.75134   147.40240
   286  H   1.0    0.05    1.04    1.43    89.39916    68.37406   144.52246
   287  H   1.0    0.04    1.04    1.43    88.64138    67.26668   147.61783
   288  H   1.0    0.05    1.03    1.43    84.35548    66.21411   146.11550
   289  H   1.0    0.06    1.03    1.43    85.27577    67.15141   143.00690
   290  H   1.0    0.04    1.03    1.43    88.88704    64.01825   143.37540
   291  H   1.0    0.04    1.03    1.43    87.40360    62.88063   146.18353
   292  H   1.0    0.05    1.02    1.43    85.35514    62.82205   140.84883
   293  H   1.0    0.04    1.02    1.43    86.12237    60.19344   142.82360
   294  H   1.0    0.05    1.01    1.43    81.63805    60.90776   142.62896
   295  H   1.0    0.06    1.01    1.43    82.71897    61.39909   145.59960
   296  H   1.0    0.06    1.02    1.43    81.99143    63.88974   143.73067
   297  N   5.0   -0.13    3.49    2.07    87.71919    72.27824   150.88139
   298  C   4.0    0.04    4.43    4.42    89.19506    73.11539   153.03946
   299  C   4.0    0.15    3.43    3.09    89.88104    70.81748   154.61927
   300  O   6.0   -0.30    1.25    1.80    88.25776    69.19987   155.05390
   301  C   4.0   -0.03    4.36    4.32    87.61525    74.87472   154.65895
   302  C   4.0   -0.02    3.54    3.13    86.60236    77.17263   153.33803
   303  C   4.0   -0.04    3.45    3.10    84.34414    77.07814   151.98499
   304  C   4.0   -0.05    3.45    3.10    87.87226    79.47998   153.49488
   305  C   4.0   -0.05    3.41    3.08    83.39361    79.21353   150.77745
   306  C   4.0   -0.04    3.41    3.08    86.94062    81.63805   152.31569
   307  C   4.0    0.06    3.42    3.08    84.69374    81.51144   150.96076
   308  O   6.0   -0.25    2.09    1.84    83.76588    83.66195   149.80047
   309  H   1.0    0.10    1.07    1.44    85.84836    72.03824   151.27823
   310  H   1.0    0.05    1.06    1.44    90.90338    74.08482   152.41963
   311  H   1.0    0.05    1.04    1.43    85.99954    73.81836   155.37705
   312  H   1.0    0.04    1.04    1.43    88.77933    75.53235   156.22553
   313  H   1.0    0.06    1.03    1.43    83.31424    75.31881   151.87161
   314  H   1.0    0.05    1.03    1.43    89.61458    79.59148   154.55313
   315  H   1.0    0.05    1.03    1.43    81.66073    79.09826   149.70409
   316  H   1.0    0.07    1.03    1.43    87.95729    83.40117   152.45175
   317  H   1.0    0.11    1.02    1.43    82.18229    83.27455   148.92174
   318  N   5.0   -0.14    3.39    2.02    92.23563    70.67197   155.50366
   319  C   4.0    0.04    4.40    4.38    92.92538    68.74823   157.40283
   320  C   4.0    0.16    3.43    3.09    91.98808    69.52491   160.06546
   321  O   6.0   -0.31    1.24    1.80    92.29611    71.66408   160.89505
   322  C   4.0   -0.05    4.28    4.16    95.77320    68.24556   157.52189
   323  C   4.0   -0.02    4.30    4.19    96.49886    66.68465   159.81790
   324  C   4.0    0.16    3.23    3.04    98.80621    65.08972   159.46263
   325  O   6.0   -0.25    1.21    1.80   100.48618    65.09539   161.05945
   326  N   5.0   -0.17    3.21    1.96    98.86857    63.62140   157.40472
   327  H   1.0    0.09    1.05    1.44    93.68505    71.82470   154.96509
   328  H   1.0    0.06    1.06    1.44    92.01643    66.98890   156.83214
   329  H   1.0    0.05    1.04    1.44    96.34768    67.21377   155.83436
   330  H   1.0    0.05    1.03    1.43    96.77287    70.04269   157.62393
   331  H   1.0    0.08    1.04    1.43    96.86168    67.96021   161.39393
   332  H   1.0    0.06    1.04    1.43    94.93605    65.42420   160.27711
   333  H   1.0    0.09    1.06    1.44    97.38703    63.62707   156.17073
   334  H   1.0    0.12    1.02    1.43   100.39736    62.49513   157.07024
   335  N   5.0   -0.13    3.53    2.10    90.92794    67.70510   161.40149
   336  C   4.0    0.04    4.44    4.45    89.49553    68.16430   163.65027
   337  C   4.0    0.08    3.27    3.05    90.44795    66.47867   165.77810
   338  O   6.0   -0.28    1.15    1.80    91.17172    64.30548   165.35669
   339  C   4.0   -0.02    4.33    4.25    86.73464    67.58605   163.04555
   340  C   4.0   -0.08    4.14    3.89    85.19263    66.90575   165.36614
   341  C   4.0   -0.07    4.13    3.86    85.59325    69.81026   161.67172
   342  H   1.0    0.11    1.10    1.44    91.04322    65.83616   160.94040
   343  H   1.0    0.05    1.06    1.44    89.73364    70.10127   164.30789
   344  H   1.0    0.06    1.07    1.44    86.67606    65.91742   161.83802
   345  H   1.0    0.04    1.00    1.43    83.25188    66.51835   164.79166
   346  H   1.0    0.05    1.01    1.43    86.01088    65.23334   166.24864
   347  H   1.0    0.04    1.00    1.43    85.23231    68.48745   166.68517
   348  H   1.0    0.04    1.00    1.43    83.62226    69.39263   161.24276
   349  H   1.0    0.04    1.00    1.43    85.71230    71.47699   162.87737
   350  H   1.0    0.06    1.00    1.43    86.64016    70.12962   159.92751
   351  N   5.0   -0.18    3.20    1.96    90.34213    59.56794   162.10447
   352  C   4.0    0.03    4.25    4.09    89.01365    58.99346   159.73476
   353  C   4.0    0.15    3.41    3.08    88.91916    61.27058   157.97920
   354  O   6.0   -0.31    1.29    1.80    89.34624    63.41731   158.79178
   355  C   4.0   -0.07    4.12    3.84    86.32646    58.12230   160.27333
   356  H   1.0    0.12    1.04    1.43    90.68417    61.44822   162.35769
   357  H   1.0    0.05    1.06    1.44    90.09646    57.53649   158.76155
   358  H   1.0    0.05    1.00    1.43    85.38538    57.71034   158.48754
   359  H   1.0    0.04    1.00    1.43    86.39260    56.42722   161.44118
   360  H   1.0    0.05    1.00    1.43    85.32302    59.62085   161.26732
   361  N   5.0   -0.13    3.48    2.06    88.31823    60.79815   155.58303
   362  C   4.0    0.04    4.48    4.51    87.80234    62.84095   153.79724
   363  C   4.0    0.14    3.47    3.10    85.02066    63.02236   153.30591
   364  O   6.0   -0.31    1.28    1.80    83.70163    61.12886   153.33425
   365  C   4.0   -0.04    4.39    4.36    89.16483    62.39686   151.34248
   366  C   4.0   -0.02    3.60    3.17    91.97107    62.45166   151.60893
   367  C   4.0   -0.04    3.50    3.11    93.25420    64.71555   151.57303
   368  C   4.0   -0.03    3.49    3.11    93.32601    60.24257   151.94341
   369  C   4.0   -0.04    3.41    3.08    95.84690    64.77981   151.82247
   370  C   4.0   -0.03    3.40    3.08    95.91115    60.30682   152.19853
   371  C   4.0   -0.03    3.45    3.09    97.17538    62.57639   152.12483
   372  H   1.0    0.08    1.05    1.44    88.17461    59.03126   154.82714
   373  H   1.0    0.07    1.08    1.44    88.44106    64.63052   154.59281
   374  H   1.0    0.05    1.04    1.43    88.63382    60.54682   150.60927
   375  H   1.0    0.04    1.04    1.43    88.62626    63.86707   150.00456
   376  H   1.0    0.06    1.03    1.43    92.21863    66.45977   151.34626
   377  H   1.0    0.06    1.03    1.43    92.34713    58.45300   152.00389
   378  H   1.0    0.06    1.03    1.43    96.83145    66.56749   151.77901
   379  H   1.0    0.07    1.03    1.43    96.95239    58.57017   152.45742
   380  H   1.0    0.09    1.06    1.44    99.20872    62.62174   152.30435
   381  N   5.0   -0.14    3.49    2.07    84.12682    65.30137   152.83726
   382  C   4.0    0.04    4.44    4.45    81.46798    65.69065   152.42530
   383  C   4.0    0.14    3.44    3.09    80.93318    68.09250   150.97021
   384  O   6.0   -0.31    1.24    1.80    82.32213    69.97277   151.16107
   385  C   4.0   -0.03    4.41    4.39    80.12249    65.92876   154.96131
   386  C   4.0   -0.02    4.17    3.94    79.91462    63.79337   156.89450
   387  C   4.0   -0.08    4.12    3.84    78.69575    64.91776   159.25099
   388  C   4.0   -0.06    4.08    3.76    78.42741    61.49168   155.93263
   389  H   1.0    0.10    1.07    1.44    85.19829    66.90008   152.73332
   390  H   1.0    0.05    1.07    1.44    80.78578    64.10895   151.29524
   391  H   1.0    0.05    1.05    1.44    81.05790    67.46700   155.96286
   392  H   1.0    0.05    1.05    1.44    78.17607    66.44843   154.53045
   393  H   1.0    0.05    1.06    1.44    81.78923    63.04504   157.30646
   394  H   1.0    0.04    1.00    1.43    78.51433    63.44566   160.67962
   395  H   1.0    0.03    1.00    1.43    79.88627    66.44276   159.95963
   396  H   1.0    0.05    1.00    1.43    76.83437    65.65097   158.75777
   397  H   1.0    0.04    1.00    1.43    78.36694    60.06494   157.41606
   398  H   1.0    0.06    1.00    1.43    76.51500    62.08317   155.44886
   399  H   1.0    0.06    1.00    1.43    79.37038    60.73390   154.26589
   400  N   5.0   -0.13    3.37    2.01    78.81480    68.03580   149.62283
   401  C   4.0    0.02    4.27    4.15    77.84726    70.25056   148.32081
   402  C   4.0    0.14    3.41    3.08    76.69642    72.12328   150.16707
   403  O   6.0   -0.31    1.26    1.80    75.97643    71.41841   152.30246
   404  H   1.0    0.08    1.05    1.44    77.71876    66.46544   149.39795
   405  H   1.0    0.06    1.03    1.43    79.37983    71.18031   147.30792
   406  H   1.0    0.04    1.03    1.43    76.39973    69.68175   146.97155
   407  N   5.0   -0.11    3.68    2.25    76.48855    74.52701   149.36961
   408  C   4.0    0.03    4.58    4.64    75.19220    76.40351   150.93619
   409  C   4.0    0.15    3.44    3.09    72.41430    75.75722   151.31225
   410  O   6.0   -0.29    1.26    1.80    71.24645    76.61894   153.13961
   411  C   4.0   -0.05    4.37    4.32    75.52101    78.87338   149.46409
   412  C   4.0   -0.04    4.31    4.22    76.01045    78.07592   146.81281
   413  C   4.0   -0.01    4.35    4.30    77.37861    75.60605   146.96210
   414  H   1.0    0.04    1.05    1.44    76.12950    76.60949   152.75978
   415  H   1.0    0.05    1.03    1.43    73.80136    79.99966   149.59071
   416  H   1.0    0.04    1.03    1.43    77.11594    79.93541   150.22187
   417  H   1.0    0.04    1.03    1.43    74.22088    77.85482   145.81692
   418  H   1.0    0.04    1.03    1.43    77.17074    79.49132   145.86984
   419  H   1.0    0.05    1.02    1.43    76.87027    74.38906   145.38040
   420  H   1.0    0.05    1.02    1.43    79.41762    75.89895   146.99800
   421  N   5.0   -0.14    3.50    2.08    71.39952    74.27568   149.54913
   422  C   4.0    0.03    4.39    4.36    69.00334    72.96043   149.85905
   423  C   4.0    0.16    3.45    3.10    68.67453    72.02124   152.57458
   424  O   6.0   -0.26    1.20    1.80    66.81882    72.64484   153.86527
   425  C   4.0   -0.05    4.28    4.15    68.91264    70.71921   148.00145
   426  C   4.0   -0.04    4.17    3.95    66.42198    69.26035   147.95798
   427  C   4.0   -0.05    4.15    3.90    66.60528    66.81504   146.42164
   428  C   4.0   -0.04    4.12    3.85    64.51524    64.96689   147.18131
   429  N   5.0   -0.12    3.99    2.82    64.51902    62.56505   145.70921
   430  H   1.0    0.07    1.07    1.44    72.21777    73.93931   147.83704
   431  H   1.0    0.06    1.05    1.44    67.45188    74.24544   149.43008
   432  H   1.0    0.04    1.03    1.43    69.23956    71.43731   146.09849
   433  H   1.0    0.05    1.03    1.43    70.39796    69.38696   148.51545
   434  H   1.0    0.06    1.03    1.43    65.89474    68.76524   149.88739
   435  H   1.0    0.04    1.03    1.43    64.96311    70.44142   147.10950
   436  H   1.0    0.04    1.03    1.43    66.40119    67.24401   144.41664
   437  H   1.0    0.05    1.03    1.43    68.42698    65.91931   146.76746
   438  H   1.0    0.05    1.02    1.43    64.75146    64.48123   149.16930
   439  H   1.0    0.04    1.02    1.43    62.68977    65.87585   146.89029
   440  H   1.0    0.05    1.01    1.43    63.05827    61.40098   146.31770
   441  H   1.0    0.05    1.01    1.43    64.27525    62.94866   143.79681
   442  H   1.0    0.06    1.01    1.43    66.22734    61.62585   145.95865
   443  N   5.0   -0.14    3.58    2.14    70.56804    70.60205   153.43063
   444  C   4.0    0.04    4.45    4.46    70.41308    69.09972   155.74554
   445  C   4.0    0.15    3.42    3.09    71.39196    70.66819   157.91117
   446  O   6.0   -0.31    1.24    1.80    71.51479    69.74978   160.06735
   447  C   4.0   -0.03    4.33    4.25    71.97021    66.69788   155.42807
   448  C   4.0    0.25    3.16    3.03    70.87417    64.95555   153.49866
   449  O   6.0   -0.29    1.19    1.80    68.50823    64.68532   153.46464
   450  O   6.0   -0.29    1.17    1.80    72.38406    63.85195   152.03601
   451  H   1.0    0.10    1.08    1.44    72.27257    70.45087   152.54246
   452  H   1.0    0.07    1.06    1.44    68.48745    68.49123   156.14806
   453  H   1.0    0.05    1.04    1.43    73.87506    67.20243   154.82714
   454  H   1.0    0.06    1.03    1.43    72.04202    65.69821   157.22709
   455  N   5.0   -0.11    3.50    2.08    71.97399    73.06247   157.41606
   456  C   4.0    0.04    4.33    4.25    72.84516    74.78212   159.39838
   457  C   4.0    0.09    3.19    3.03    70.70221    76.36383   160.54545
   458  O   6.0   -0.25    1.13    1.80    68.63485    76.51689   159.49287
   459  C   4.0   -0.04    4.35    4.30    74.92385    76.52067   158.38549
   460  C   4.0   -0.03    4.19    3.98    77.64506    75.71943   158.93729
   461  C   4.0   -0.07    4.13    3.86    78.00033    72.91130   158.43840
   462  C   4.0   -0.08    4.10    3.81    79.49699    77.27467   157.38583
   463  H   1.0    0.12    1.11    1.45    71.86250    73.86750   155.66806
   464  H   1.0    0.05    1.07    1.44    73.60861    73.62183   160.91961
   465  H   1.0    0.06    1.04    1.43    74.72543    76.62839   156.33892
   466  H   1.0    0.05    1.04    1.43    74.65929    78.38583   159.21886
   467  H   1.0    0.04    1.06    1.44    78.04757    76.06147   160.92906
   468  H   1.0    0.04    1.00    1.43    79.95242    72.39918   158.84847
   469  H   1.0    0.04    1.00    1.43    76.72476    71.84738   159.65728
   470  H   1.0    0.06    1.00    1.43    77.57136    72.52201   156.46175
   471  H   1.0    0.04    1.00    1.43    81.41506    76.66051   157.81857
   472  H   1.0    0.04    1.00    1.43    79.10204    76.98744   155.38461
   473  H   1.0    0.04    1.02    1.43    79.27022    79.26455   157.86771
   474  N   5.0   -0.21    3.06    1.93   105.29170    89.42116   163.75420
   475  C   4.0    0.00    4.03    3.68   105.20397    90.30099   161.09914
   476  C   4.0    0.07    3.08    3.02   106.45150    92.84729   160.44151
   477  O   6.0   -0.31    1.12    1.80   107.50244    93.09153   158.38738
   478  H   1.0    0.08    1.02    1.43   106.35232    87.83779   164.03766
   479  H   1.0    0.05    1.03    1.43   106.11807    88.87204   159.93129
   480  H   1.0    0.04    1.03    1.43   103.22424    90.45115   160.54923
   481  N   5.0   -0.19    3.26    1.97   110.65714    98.93359   159.27177
   482  C   4.0    0.03    4.26    4.12   113.03899    99.23426   157.98865
   483  C   4.0    0.08    3.22    3.04   114.51933   101.37120   159.20185
   484  O   6.0   -0.28    1.13    1.80   113.45038   103.29541   160.00310
   485  C   4.0   -0.05    4.41    4.40   112.53956    99.82809   155.22587
   486  C   4.0   -0.03    4.24    4.08   110.72498    98.06087   153.87849
   487  C   4.0   -0.08    4.12    3.84   110.43477    98.68448   151.10438
   488  C   4.0   -0.07    4.17    3.94   111.70486    95.40035   154.13172
   489  H   1.0    0.09    1.03    1.43   109.30757   100.16008   158.64816
   490  H   1.0    0.03    1.06    1.44   114.17473    97.52023   158.11526
   491  H   1.0    0.05    1.04    1.43   111.74755   101.72552   155.10871
   492  H   1.0    0.04    1.04    1.43   114.33397    99.75002   154.21676
   493  H   1.0    0.04    1.06    1.44   108.86338    98.26066   154.73832
   494  H   1.0    0.04    1.00    1.43   109.11365    97.35244   150.25211
   495  H   1.0    0.04    1.00    1.43   109.71271   100.60480   150.92107
   496  H   1.0    0.03    1.00    1.43   112.27316    98.53519   150.18786
   497  H   1.0    0.05    1.00    1.43   110.41372    94.11647   153.16985
   498  H   1.0    0.04    1.00    1.43   113.57436    95.28983   153.27378
   499  H   1.0    0.05    1.01    1.43   111.81966    94.91512   156.13105
   500  N   5.0   -0.19    3.24    1.96   118.73789    92.19956   158.59903
   501  C   4.0    0.03    4.24    4.09   116.22522    92.25810   159.73098
   502  C   4.0    0.08    3.29    3.05   116.32698    90.94902   162.28966
   503  O   6.0   -0.28    1.14    1.80   118.07656    89.48940   162.80745
   504  C   4.0   -0.05    4.31    4.22   114.35195    90.83898   158.08691
   505  C   4.0   -0.04    4.32    4.24   114.79155    88.02125   158.23242
   506  C   4.0   -0.01    4.27    4.15   113.05368    86.53051   156.58836
   507  N   5.0   -0.14    3.48    2.06   114.41170    84.35866   155.69074
   508  C   4.0    0.11    3.37    3.07   113.51814    82.71649   154.06747
   509  N   5.0   -0.18    3.34    2.00   111.18127    82.88300   153.27378
   510  N   5.0   -0.17    3.33    1.99   114.95141    80.81105   153.32103
   511  H   1.0    0.10    1.03    1.43   119.44042    90.41926   158.37415
   512  H   1.0    0.04    1.05    1.44   115.60667    94.21031   159.96341
   513  H   1.0    0.05    1.03    1.43   112.43614    91.23590   158.73320
   514  H   1.0    0.04    1.03    1.43   114.57142    91.43454   156.12727
   515  H   1.0    0.05    1.05    1.44   116.72209    87.61582   157.63905
   516  H   1.0    0.05    1.05    1.44   114.50635    87.40255   160.17506
   517  H   1.0    0.04    1.03    1.43   111.41367    85.90846   157.66739
   518  H   1.0    0.05    1.03    1.43   112.44790    87.66579   154.98020
   519  H   1.0    0.08    1.08    1.44   116.19628    84.07460   156.36348
   520  H   1.0    0.08    1.04    1.43   110.04279    84.29748   153.92007
   521  H   1.0    0.09    1.03    1.43   110.49791    81.59734   152.00956
   522  H   1.0    0.09    1.03    1.43   116.74276    80.62563   154.00889
   523  H   1.0    0.14    1.25    1.48   114.26642    79.52634   152.05680
   524  N   5.0   -0.21    3.31    1.98    92.18144    46.25293   148.12239
   525  C   4.0    0.03    4.39    4.36    90.71306    48.22229   149.31103
   526  C   4.0    0.15    3.41    3.08    92.36448    50.24736   150.62628
   527  O   6.0   -0.30    1.20    1.80    91.48479    52.40489   151.17052
   528  C   4.0    0.05    4.29    4.18    89.05529    46.97988   151.26878
   529  O   6.0   -0.25    2.15    1.85    90.64825    45.56267   152.92229
   530  C   4.0   -0.08    4.12    3.84    87.22465    45.18484   150.01212
   531  H   1.0    0.09    1.04    1.43    92.44636    44.68600   149.21276
   532  H   1.0    0.04    1.05    1.44    89.55738    49.19501   147.91074
   533  H   1.0    0.05    1.04    1.43    87.98033    48.39478   152.31002
   534  H   1.0    0.11    1.01    1.43    89.62797    44.72902   154.22242
   535  H   1.0    0.04    1.00    1.43    86.02971    44.29055   151.43130
   536  H   1.0    0.04    1.00    1.43    86.03240    46.21140   148.68364
   537  H   1.0    0.04    1.00    1.43    88.25791    43.72418   148.99166
   538  N   5.0   -0.14    3.45    2.05    94.74228    49.53570   151.14595
   539  C   4.0    0.03    4.34    4.27    96.51508    51.18521   152.43852
   540  C   4.0    0.09    3.24    3.04    95.45781    52.20367   154.91784
   541  O   6.0   -0.28    1.15    1.80    95.86930    54.39037   155.56035
   542  C   4.0   -0.02    4.34    4.27    97.29752    53.40214   150.76801
   543  C   4.0    0.04    3.71    3.25    98.54098    52.66459   148.35294
   544  N   5.0   -0.18    2.60    1.91    98.39924    54.15386   146.22132
   545  C   4.0   -0.01    3.62    3.18    99.93284    50.61940   147.71799
   546  C   4.0    0.05    3.56    3.15    99.65208    53.05085   144.36750
   547  N   5.0   -0.11    3.48    2.06   100.61575    50.91029   145.23111
   548  H   1.0    0.08    1.06    1.44    95.47976    47.81595   150.68486
   549  H   1.0    0.04    1.06    1.44    98.16995    50.03775   152.87316
   550  H   1.0    0.07    1.04    1.43    95.61543    54.49112   150.29368
   551  H   1.0    0.06    1.04    1.43    98.62450    54.57805   151.81680
   552  H   1.0    0.04    1.01    1.43   100.41622    49.05290   148.93497
   553  H   1.0    0.04    1.01    1.43    99.85711    53.77257   142.46833
   554  H   1.0    0.07    1.04    1.43   101.69222    49.67563   144.21444
   555  N   5.0   -0.21    3.18    1.95   122.01822    93.19473   138.84572
   556  C   4.0    0.03    4.26    4.12   119.83051    91.85459   139.88885
   557  C   4.0    0.15    3.36    3.07   117.89460    93.58109   141.26457
   558  O   6.0   -0.30    1.34    1.80   116.84974    92.85982   143.11084
   559  C   4.0   -0.03    4.26    4.12   120.75646    89.66381   141.57638
   560  C   4.0   -0.04    4.14    3.87   121.82206    87.35966   140.17231
   561  C   4.0    0.24    3.09    3.02   123.32121    85.50783   141.86362
   562  O   6.0   -0.28    1.19    1.80   123.63748    86.05186   144.12940
   563  O   6.0   -0.28    1.16    1.80   124.25942    83.49326   140.97734
   564  H   1.0    0.08    1.03    1.43   123.71796    92.59742   139.53169
   565  H   1.0    0.04    1.06    1.44   118.75000    91.07536   138.31660
   566  H   1.0    0.06    1.03    1.43   122.25132    90.37838   142.80092
   567  H   1.0    0.08    1.03    1.43   119.16856    89.00731   142.71210
   568  H   1.0    0.05    1.03    1.43   120.25564    86.31327   139.33894
   569  H   1.0    0.05    1.03    1.43   123.09354    88.01991   138.69266
   570  N   5.0   -0.15    3.40    2.02   117.40907    95.87328   140.38585
   571  C   4.0    0.03    4.36    4.30   115.09959    97.24375   141.11151
   572  C   4.0    0.14    3.29    3.05   113.90887    99.08553   139.01958
   573  O   6.0   -0.29    1.25    1.80   114.38304   101.39970   139.11596
   574  C   4.0   -0.01    4.28    4.15   115.47907    98.77031   143.64185
   575  C   4.0   -0.04    4.20    4.00   115.97183    97.20494   146.05314
   576  C   4.0   -0.07    4.15    3.91   113.15024   100.42472   144.14074
   577  C   4.0   -0.07    4.01    3.63   118.67251    96.99204   146.92241
   578  H   1.0    0.08    1.05    1.44   118.55675    96.84067   139.17643
   579  H   1.0    0.07    1.07    1.44   113.72163    95.72632   141.31560
   580  H   1.0    0.05    1.06    1.44   117.20057    99.84718   143.29981
   581  H   1.0    0.03    1.04    1.43   114.91174    98.06356   147.59705
   582  H   1.0    0.06    1.05    1.44   115.29715    95.28802   145.71488
   583  H   1.0    0.04    1.00    1.43   113.43312   101.47026   145.89251
   584  H   1.0    0.07    1.03    1.43   112.91067   101.73698   142.57037
   585  H   1.0    0.05    1.00    1.43   111.49190    99.21536   144.30514
   586  H   1.0    0.04    1.00    1.43   118.73818    95.84345   148.63073
   587  H   1.0    0.06    1.00    1.43   119.78755    96.10388   145.43520
   588  H   1.0    0.04    1.00    1.43   119.40120    98.87777   147.31548
   589  N   5.0   -0.12    3.36    2.00   112.46608    98.22305   137.09017
   590  C   4.0    0.03    4.38    4.35   112.34382    95.66425   135.89208
   591  C   4.0    0.15    3.38    3.07   111.20139    93.61370   137.45867
   592  O   6.0   -0.27    1.25    1.80   109.82203    94.20278   139.21989
   593  C   4.0   -0.04    4.37    4.33   114.91384    94.79797   134.87352
   594  C   4.0   -0.03    4.26    4.12   116.38842    96.85313   133.52993
   595  C   4.0    0.25    3.18    3.03   115.10326    97.69986   131.20367
   596  O   6.0   -0.28    1.22    1.80   113.56937    96.22228   130.18700
   597  O   6.0   -0.27    1.19    1.80   115.64399    99.85341   130.43266
   598  H   1.0    0.10    1.06    1.44   111.20620    99.37813   136.20011
   599  H   1.0    0.06    1.07    1.44   111.04972    95.92480   134.31038
   600  H   1.0    0.04    1.04    1.43   116.06012    94.13399   136.45144
   601  H   1.0    0.05    1.04    1.43   114.60934    93.26522   133.53182
   602  H   1.0    0.06    1.04    1.43   116.58738    98.47519   134.78281
   603  H   1.0    0.05    1.03    1.43   118.24652    96.12949   133.01403
   604  N   5.0   -0.14    3.40    2.02   111.69471    91.22537   136.77081
   605  C   4.0    0.05    4.37    4.33   111.03402    88.97743   138.35629
   606  C   4.0    0.18    3.52    3.12   111.90999    88.98666   141.14741
   607  O   6.0   -0.28    1.34    1.80   113.97668    88.31060   141.74834
   608  C   4.0   -0.02    4.31    4.22   112.03015    86.54538   137.10907
   609  C   4.0    0.17    3.25    3.04   111.40858    84.18756   138.63219
   610  O   6.0   -0.27    1.28    1.80   110.18634    84.31934   140.63152
   611  N   5.0   -0.18    3.17    1.95   112.25849    82.02759   137.71189
   612  H   1.0    0.07    1.06    1.44   112.55843    90.74852   135.11541
   613  H   1.0    0.08    1.06    1.44   108.97607    89.03746   138.45077
   614  H   1.0    0.05    1.03    1.43   111.17489    86.34526   135.24580
   615  H   1.0    0.05    1.03    1.43   114.07883    86.66962   136.93332
   616  H   1.0    0.10    1.02    1.43   111.90541    80.37668   138.64352
   617  H   1.0    0.08    1.03    1.43   113.26748    82.01020   136.06972
   618  N   5.0   -0.12    3.65    2.21   110.26722    89.58816   142.85572
   619  C   4.0    0.05    4.60    4.66   111.18810    90.04933   145.33315
   620  C   4.0    0.14    3.56    3.14   110.49270    88.11164   147.27201
   621  O   6.0   -0.31    1.26    1.80   111.54964    88.23023   149.34126
   622  C   4.0   -0.03    4.42    4.42   110.32094    92.59894   146.18353
   623  C   4.0    0.15    3.34    3.06   107.59797    92.96219   145.70543
   624  O   6.0   -0.28    1.33    1.80   106.77082    92.65202   143.56059
   625  N   5.0   -0.19    3.19    1.95   106.14693    93.45736   147.68586
   626  H   1.0    0.11    1.12    1.45   108.36519    89.76328   142.59116
   627  H   1.0    0.08    1.11    1.45   113.24206    89.93705   145.21410
   628  H   1.0    0.04    1.05    1.44   110.65606    92.79387   148.20743
   629  H   1.0    0.05    1.04    1.43   111.35968    94.05038   145.15552
   630  H   1.0    0.09    1.02    1.43   104.25210    93.72434   147.44965
   631  H   1.0    0.08    1.03    1.43   106.92516    93.57321   149.44520
   632  N   5.0   -0.09    3.73    2.31   108.60638    86.44694   146.74478
   633  C   4.0    0.04    4.74    4.80   108.60558    84.31771   148.40396
   634  C   4.0    0.16    3.47    3.10   109.60707    82.14440   146.89029
   635  O   6.0   -0.30    1.25    1.80   108.19393    80.46399   146.14952
   636  C   4.0   -0.03    4.38    4.34   105.82738    84.07131   149.21087
   637  C   4.0   -0.04    4.34    4.26   104.36360    85.07353   147.04525
   638  C   4.0   -0.00    4.39    4.36   106.18355    86.52125   145.35583
   639  H   1.0    0.06    1.11    1.45   109.64782    84.55824   150.16518
   640  H   1.0    0.06    1.03    1.43   105.36924    82.09483   149.56047
   641  H   1.0    0.04    1.03    1.43   105.48777    85.18385   150.90973
   642  H   1.0    0.05    1.06    1.44   103.52263    83.50355   146.00968
   643  H   1.0    0.05    1.03    1.43   102.88781    86.32708   147.74633
   644  H   1.0    0.06    1.07    1.44   106.36765    85.59668   143.52469
   645  H   1.0    0.06    1.02    1.43   105.55090    88.46414   145.10261
   646  N   5.0   -0.11    3.52    2.09   112.06587    82.30245   146.35550
   647  C   4.0    0.04    4.49    4.53   113.45389    80.23548   145.18387
   648  C   4.0    0.15    3.54    3.13   113.82237    78.29235   147.18886
   649  O   6.0   -0.32    1.58    1.80   113.99828    78.89560   149.41118
   650  C   4.0    0.05    4.25    4.11   116.15626    80.98171   144.35805
   651  O   6.0   -0.22    2.10    1.84   116.07698    83.28592   142.97478
   652  C   4.0   -0.06    4.07    3.75   117.42189    78.90685   142.75368
   653  H   1.0    0.10    1.06    1.44   113.15286    83.85258   146.71643
   654  H   1.0    0.06    1.05    1.44   112.41925    79.59996   143.51902
   655  H   1.0    0.06    1.05    1.44   117.31315    81.22806   146.04369
   656  H   1.0    0.12    1.01    1.43   117.78645    83.76749   142.44754
   657  H   1.0    0.06    1.00    1.43   119.31818    79.49658   142.20755
   658  H   1.0    0.07    1.02    1.43   117.55240    77.16003   143.83649
   659  H   1.0    0.05    1.00    1.43   116.31469    78.55761   141.05292
   660  N   5.0   -0.14    3.57    2.13   114.05696    75.96612   146.36116
   661  C   4.0    0.03    4.49    4.52   114.83293    73.94266   147.99956
   662  C   4.0    0.13    3.40    3.08   117.39589    73.01500   147.03391
   663  O   6.0   -0.31    1.22    1.80   117.92681    73.07287   144.68687
   664  C   4.0   -0.02    4.24    4.09   112.79318    71.82321   148.04302
   665  C   4.0   -0.06    4.09    3.79   110.64554    72.53291   149.83826
   666  C   4.0   -0.07    4.11    3.83   111.72111    71.25512   145.40118
   667  H   1.0    0.08    1.07    1.44   113.71796    75.42430   144.54325
   668  H   1.0    0.05    1.07    1.44   115.08307    74.58378   149.94031
   669  H   1.0    0.05    1.06    1.44   113.71021    70.10453   148.71198
   670  H   1.0    0.05    1.00    1.43   109.24347    71.02285   149.83637
   671  H   1.0    0.06    1.00    1.43   111.40959    72.77913   151.73555
   672  H   1.0    0.06    1.00    1.43   109.78587    74.29047   149.19386
   673  H   1.0    0.05    1.00    1.43   110.30998    69.76339   145.55614
   674  H   1.0    0.05    1.00    1.43   110.85513    72.96396   144.64718
   675  H   1.0    0.05    1.00    1.43   113.25578    70.64402   144.17097
   676  N   5.0   -0.14    3.44    2.04   119.02703    72.27619   148.80836
   677  C   4.0    0.04    4.45    4.46   120.95071    70.33200   148.20743
   678  C   4.0    0.25    3.30    3.05   121.92955    69.33264   150.59982
   679  O   6.0   -0.28    1.28    1.80   121.89266    70.73518   152.41396
   680  C   4.0   -0.03    4.33    4.26   123.17086    71.32392   146.66919
   681  C   4.0   -0.05    4.23    4.07   124.07428    69.39271   144.76813
   682  C   4.0   -0.05    4.22    4.04   126.72961    69.89116   143.91208
   683  C   4.0   -0.04    4.17    3.94   128.58927    69.51793   146.07015
   684  N   5.0   -0.12    4.02    2.92   131.17395    69.41782   145.01757
   685  O   6.0   -0.29    1.21    1.80   122.74117    67.15549   150.70564
   686  H   1.0    0.10    1.07    1.44   119.07924    72.94867   150.61305
   687  H   1.0    0.05    1.07    1.44   120.05942    68.88273   147.04714
   688  H   1.0    0.06    1.03    1.43   122.59006    73.01648   145.64874
   689  H   1.0    0.05    1.05    1.44   124.73318    71.76606   147.93720
   690  H   1.0    0.05    1.04    1.43   124.01954    67.52155   145.62606
   691  H   1.0    0.05    1.03    1.43   122.84817    69.44598   143.11462
   692  H   1.0    0.04    1.03    1.43   127.21930    68.58504   142.39463
   693  H   1.0    0.04    1.03    1.43   126.88265    71.83431   143.24690
   694  H   1.0    0.04    1.02    1.43   128.46197    71.09268   147.39107
   695  H   1.0    0.05    1.02    1.43   128.19088    67.74698   147.04525
   696  H   1.0    0.05    1.01    1.43   132.47933    69.16167   146.46510
   697  H   1.0    0.05    1.02    1.43   131.32646    67.92452   143.74956
   698  H   1.0    0.05    1.02    1.43   131.58364    71.09496   144.07838
   699  N   5.0   -0.20    3.22    1.96   106.29445    57.81322   148.80836
   700  C   4.0    0.03    4.35    4.29   104.37076    59.75741   148.20743
   701  C   4.0    0.25    3.31    3.05   103.39193    60.75677   150.59982
   702  O   6.0   -0.29    1.28    1.80   103.42881    59.35423   152.41396
   703  C   4.0   -0.05    4.34    4.27   102.15062    58.76550   146.66919
   704  C   4.0   -0.05    4.23    4.07   101.24719    60.69671   144.76813
   705  C   4.0   -0.05    4.22    4.04    98.59187    60.19825   143.91208
   706  C   4.0   -0.03    4.18    3.95    96.73220    60.57149   146.07015
   707  N   5.0   -0.12    4.02    2.92    94.14752    60.67160   145.01757
   708  O   6.0   -0.30    1.24    1.80   102.58031    62.93392   150.70564
   709  H   1.0    0.11    1.04    1.43   106.24223    57.14074   150.61305
   710  H   1.0    0.05    1.07    1.44   105.26205    61.20669   147.04714
   711  H   1.0    0.04    1.03    1.43   102.73141    57.07293   145.64874
   712  H   1.0    0.05    1.05    1.44   100.58829    58.32335   147.93720
   713  H   1.0    0.05    1.04    1.43   101.30193    62.56786   145.62606
   714  H   1.0    0.04    1.03    1.43   102.47330    60.64343   143.11462
   715  H   1.0    0.04    1.03    1.43    98.10217    61.50437   142.39463
   716  H   1.0    0.04    1.03    1.43    98.43883    58.25511   143.24690
   717  H   1.0    0.05    1.03    1.43    96.85950    58.99673   147.39107
   718  H   1.0    0.05    1.03    1.43    97.13059    62.34243   147.04525
   719  H   1.0    0.05    1.02    1.43    92.84215    60.92774   146.46510
   720  H   1.0    0.05    1.02    1.43    93.99501    62.16490   143.74956
   721  H   1.0    0.05    1.02    1.43    93.73783    58.99446   144.07838
   722  H   1.0    0.09    1.07    1.44   122.06213    92.98318   137.15875
   723  H   1.0    0.09    1.07    1.44   106.08429    56.47123   147.78491
   724  H   1.0    0.06    1.05    1.44    95.17815    84.08535   166.84348
   725  H   1.0    0.09    1.07    1.44    75.03092    71.05138   167.64788
   726  H   1.0    0.05    1.05    1.44    69.13602    53.21459   159.94065
   727  H   1.0    0.08    1.07    1.44    87.65846    75.66588   166.98415
   728  H   1.0    0.06    1.04    1.44    90.49332    67.13020   167.55138
   729  H   1.0    0.10    1.08    1.44    89.40638    59.03907   163.42251
   730  H   1.0    0.05    1.04    1.43    70.97589    77.28833   162.17070
   731  H   1.0    0.10    1.07    1.44   105.95528    90.64180   164.73515
   732  H   1.0    0.05    1.04    1.43   106.39847    94.27332   161.68034
   733  H   1.0    0.10    1.08    1.44   110.07458    97.35491   159.02486
   734  H   1.0    0.05    1.04    1.44   116.39744   101.24421   159.36811
   735  H   1.0    0.09    1.07    1.44   118.68443    92.92239   157.06045
   736  H   1.0    0.05    1.04    1.43   114.97191    91.26648   163.56798
   737  H   1.0    0.09    1.07    1.44    91.39916    45.74030   146.70190
   738  H   1.0    0.06    1.04    1.44    94.42024    51.08515   156.03293

  Z AO/shell   Hii/eV     exponent
  1     Wed Apr 25 08:07:45 CEST 2018   EN: 2.200 GM2: 0.406  GM3: 0.0800  RAES: 1.40
     1s    -10.707211    1.230000
  6     Wed Apr 25 08:07:45 CEST 2018   EN: 2.550 GM2: 0.538  GM3: 0.1500  RAES: 3.00
     2s    -13.970922    2.096432
     2p    -10.063292    1.800000
  7     Wed Apr 25 08:07:45 CEST 2018   EN: 3.040 GM2: 0.461  GM3:-0.0640  RAES: 1.90
     2s    -16.686243    2.339881
     2p    -12.523956    2.014332
  8     Wed Apr 25 08:07:45 CEST 2018   EN: 3.440 GM2: 0.452  GM3:-0.0517  RAES: 1.80
     2s    -20.229985    2.439742
     2p    -15.503117    2.137023
 16     Tue Apr 24 11:44:34 CEST 2018   EN: 2.580 GM2: 0.340  GM3:-0.0502  RAES: 3.10
     3s    -20.029654    1.981333
     3p    -11.377694    2.025643
     3d     -0.420282    1.702555
 no old-style atom pair restraining (fixing) potential

molecular fragmentation (1/2 indicates fragments):
111111111111111111111111111111111111111111111111111111111111111111111112
222222222222222222222222222222222222222222222222222222222222222222222222
222222222222222222222222222222222222222222222222222222222222222222222222
222222222222222222222222222222222222222222222222222222222222222222222222
222222222222222222222222222222222222222222222222222222222222222222222222
222222222222222222222222222222222222222222222222222222222222222222222222
222222222222222222222222222222222222222222222222222222222222222222222222
222222222222222222222222222222222222222222222222222222222222222222222222
222222222222222222222222222222222222222222222222222222222222222222222222
222222222222222222222222222222222222222222222222222222222222222222222222
222122222222222222
# atoms in fragment 1/2:    72   666
 fragment masses (1/2) :      526.63     4634.37
CMA distance (Bohr)    :  17.619
constraining FC (au)   :  0.0500
           ------------------------------------------------- 
          |        Self-Consistent Charge Iterations        |
           ------------------------------------------------- 

 Ncao       : 1833
 Nao        : 1830
 Nshell     : 1100
 Nel        : 2026
 T(el)      :   500.0
 intcut     :    35.0
 scfconv/Eh :  0.100E-06
   qconv/e  :  0.100E-04
 intneglect :  0.100E-08
 broydamp   :      0.400
 iter      E             dE          RMSdq      gap      omega  full diag
   1  -1161.6405548 -0.116164E+04  0.477E+00    2.97       0.0  T
   2  -1164.7145121 -0.307396E+01  0.225E+00    1.58       1.0  T
   3  -1164.9124830 -0.197971E+00  0.126E+00    1.59       1.0  T
   4  -1165.0931980 -0.180715E+00  0.299E-01    0.62       1.0  T
   5  -1165.1071678 -0.139698E-01  0.155E-01    0.82       1.0  T
   6  -1165.1096201 -0.245229E-02  0.710E-02    0.87       1.0  T
   7  -1165.1104129 -0.792781E-03  0.334E-02    0.91       1.0  T
   8  -1165.1105397 -0.126818E-03  0.173E-02    0.93       1.0  T
   9  -1165.1105914 -0.516933E-04  0.793E-03    0.94       1.0  T
  10  -1165.1105999 -0.850510E-05  0.379E-03    0.94       1.0  T
  11  -1165.1106025 -0.259077E-05  0.163E-03    0.95       2.3  T
  12  -1165.1106028 -0.344047E-06  0.808E-04    0.95       4.6  T
  13  -1165.1106029 -0.125180E-06  0.399E-04    0.95       9.2  T
  14  -1165.1106030 -0.245877E-07  0.170E-04    0.95      21.6  T
  15  -1165.1106030 -0.554178E-08  0.846E-05    0.95      43.5  T
  16  -1165.1106030 -0.102455E-08  0.428E-05    0.95      86.1  T
speedup  1.47
cpu  time for SCC    1 m 26.6 s
wall time for SCC    0 m 59.0 s

   *** convergence criteria satisfied after 16 iterations ***

          eigenvalues
 #    :        1001       1002       1003       1004       1005       1006       1007       1008
 occ. :        2.000      2.000      2.000      2.000      2.000      2.000      2.000      2.000
 eps  :        -9.866     -9.834     -9.810     -9.786     -9.785     -9.773     -9.742     -9.721
 #    :        1009       1010       1011       1012       1013       1014       1015       1016
 occ. :        2.000      2.000      2.000      2.000      2.000      0.000      0.000      0.000
 eps  :        -9.679     -9.597     -9.588     -9.579     -9.288     -8.340     -8.220     -7.981
 #    :        1017       1018       1019       1020       1021       1022       1023       1024
 occ. :        0.000      0.000      0.000      0.000      0.000      0.000      0.000      0.000
 eps  :        -7.881     -7.803     -7.782     -7.780     -7.673     -7.042     -6.925     -6.862


   #   Z            q   n(s)   n(p)   n(d)      C6AA      α(0)
   1   7 N     -0.156  1.239  3.917  0.000    24.354     7.329
   2   6 C     -0.018  1.072  2.946  0.000    20.915     6.515
   3   6 C      0.270  1.032  2.698  0.000    22.433     7.756
   4   8 O     -0.471  1.758  4.714  0.000    23.159     6.452
   5   6 C     -0.078  1.055  3.023  0.000    21.983     6.675
   6   6 C     -0.107  1.067  3.040  0.000    22.550     6.761
   7   6 C      0.366  1.023  2.611  0.000    20.787     7.461
   8   8 O     -0.673  1.786  4.886  0.000    27.971     7.091
   9   8 O     -0.654  1.781  4.873  0.000    27.479     7.028
  10   1 H      0.298  0.702  0.000  0.000     0.719     1.328
  11   1 H      0.307  0.693  0.000  0.000     0.692     1.303
  12   1 H      0.302  0.698  0.000  0.000     0.709     1.319
  13   1 H      0.125  0.875  0.000  0.000     1.575     1.962
  14   1 H      0.078  0.922  0.000  0.000     2.001     2.212
  15   1 H      0.076  0.924  0.000  0.000     2.022     2.223
  16   1 H      0.052  0.948  0.000  0.000     2.296     2.370
  17   1 H      0.055  0.945  0.000  0.000     2.256     2.349
  18   7 N     -0.156  1.238  3.918  0.000    24.384     7.334
  19   6 C      0.009  1.064  2.927  0.000    20.431     6.436
  20   6 C      0.270  1.038  2.692  0.000    22.438     7.757
  21   8 O     -0.476  1.742  4.734  0.000    23.257     6.466
  22   6 C     -0.081  1.053  3.028  0.000    22.042     6.682
  23   6 C      0.000  1.079  2.921  0.000    28.026     8.683
  24   6 C     -0.051  1.088  2.963  0.000    29.258     8.871
  25   6 C     -0.040  1.086  2.954  0.000    29.001     8.831
  26   6 C     -0.075  1.080  2.995  0.000    29.884     8.964
  27   6 C     -0.058  1.075  2.983  0.000    29.434     8.897
  28   6 C      0.144  1.045  2.811  0.000    24.853     8.170
  29   8 O     -0.445  1.730  4.715  0.000    21.741     6.294
  30   1 H      0.231  0.769  0.000  0.000     0.961     1.536
  31   1 H      0.084  0.916  0.000  0.000     1.942     2.179
  32   1 H      0.075  0.925  0.000  0.000     2.036     2.232
  33   1 H      0.066  0.934  0.000  0.000     2.133     2.284
  34   1 H      0.063  0.937  0.000  0.000     2.165     2.301
  35   1 H      0.046  0.954  0.000  0.000     2.368     2.406
  36   1 H      0.052  0.948  0.000  0.000     2.291     2.367
  37   1 H      0.044  0.956  0.000  0.000     2.391     2.418
  38   1 H      0.333  0.667  0.000  0.000     0.630     1.247
  39   7 N     -0.153  1.236  3.917  0.000    24.312     7.323
  40   6 C     -0.000  1.066  2.934  0.000    20.588     6.461
  41   6 C      0.282  1.039  2.679  0.000    22.220     7.719
  42   8 O     -0.485  1.753  4.732  0.000    23.464     6.494
  43   6 C     -0.088  1.061  3.027  0.000    22.170     6.703
  44   6 C     -0.095  1.057  3.038  0.000    22.318     6.726
  45   6 C     -0.097  1.059  3.038  0.000    22.356     6.732
  46   6 C     -0.057  1.062  2.995  0.000    21.705     6.651
  47   7 N     -0.148  1.235  3.913  0.000    24.189     7.305
  48   1 H      0.211  0.789  0.000  0.000     1.050     1.605
  49   1 H      0.108  0.892  0.000  0.000     1.713     2.047
  50   1 H      0.068  0.932  0.000  0.000     2.105     2.269
  51   1 H      0.074  0.926  0.000  0.000     2.039     2.233
  52   1 H      0.072  0.928  0.000  0.000     2.064     2.247
  53   1 H      0.074  0.926  0.000  0.000     2.043     2.235
  54   1 H      0.083  0.917  0.000  0.000     1.952     2.185
  55   1 H      0.086  0.914  0.000  0.000     1.921     2.167
  56   1 H      0.121  0.879  0.000  0.000     1.605     1.981
  57   1 H      0.117  0.883  0.000  0.000     1.638     2.001
  58   1 H      0.300  0.700  0.000  0.000     0.712     1.322
  59   1 H      0.290  0.710  0.000  0.000     0.744     1.351
  60   1 H      0.300  0.700  0.000  0.000     0.714     1.324
  61   7 N     -0.168  1.234  3.934  0.000    24.631     7.371
  62   6 C      0.030  1.051  2.920  0.000    20.065     6.376
  63   6 C      0.213  1.076  2.711  0.000    23.488     7.938
  64   8 O     -0.331  1.740  4.591  0.000    20.355     6.049
  65   6 C      0.000  1.057  2.943  0.000    20.580     6.459
  66  16 S     -0.400  1.909  4.445  0.046   158.722    21.204
  67   1 H      0.214  0.786  0.000  0.000     1.036     1.594
  68   1 H      0.084  0.916  0.000  0.000     1.937     2.177
  69   1 H      0.079  0.921  0.000  0.000     1.993     2.208
  70   1 H      0.103  0.897  0.000  0.000     1.762     2.076
  71   1 H      0.237  0.763  0.000  0.000     0.928     1.507
  72   7 N     -0.390  1.324  4.067  0.000    30.102     8.149
  73   6 C      0.037  1.052  2.911  0.000    19.969     6.365
  74   6 C      0.270  1.048  2.682  0.000    22.443     7.758
  75   8 O     -0.501  1.749  4.752  0.000    23.802     6.541
  76   6 C     -0.119  1.044  3.075  0.000    22.836     6.814
  77   1 H      0.160  0.840  0.000  0.000     1.334     1.809
  78   1 H      0.034  0.966  0.000  0.000     2.537     2.491
  79   1 H      0.044  0.956  0.000  0.000     2.392     2.419
  80   1 H      0.045  0.955  0.000  0.000     2.383     2.414
  81   1 H      0.041  0.959  0.000  0.000     2.437     2.442
  82   7 N     -0.166  1.242  3.925  0.000    24.601     7.367
  83   6 C      0.017  1.054  2.929  0.000    20.289     6.413
  84   6 C      0.274  1.038  2.688  0.000    22.367     7.745
  85   8 O     -0.489  1.758  4.731  0.000    23.532     6.504
  86   6 C     -0.069  1.050  3.019  0.000    21.810     6.648
  87   6 C     -0.084  1.052  3.032  0.000    22.108     6.694
  88   6 C     -0.093  1.052  3.041  0.000    22.280     6.720
  89   6 C     -0.053  1.060  2.994  0.000    21.625     6.638
  90   7 N     -0.144  1.232  3.912  0.000    24.109     7.293
  91   1 H      0.201  0.799  0.000  0.000     1.101     1.644
  92   1 H      0.078  0.922  0.000  0.000     1.997     2.210
  93   1 H      0.058  0.942  0.000  0.000     2.224     2.332
  94   1 H      0.047  0.953  0.000  0.000     2.357     2.401
  95   1 H      0.077  0.923  0.000  0.000     2.005     2.215
  96   1 H      0.052  0.948  0.000  0.000     2.290     2.367
  97   1 H      0.067  0.933  0.000  0.000     2.123     2.279
  98   1 H      0.085  0.915  0.000  0.000     1.930     2.173
  99   1 H      0.125  0.875  0.000  0.000     1.572     1.961
 100   1 H      0.122  0.878  0.000  0.000     1.598     1.977
 101   1 H      0.310  0.690  0.000  0.000     0.683     1.295
 102   1 H      0.284  0.716  0.000  0.000     0.764     1.370
 103   1 H      0.291  0.709  0.000  0.000     0.740     1.348
 104   7 N     -0.170  1.237  3.933  0.000    24.669     7.377
 105   6 C      0.019  1.054  2.926  0.000    20.253     6.408
 106   6 C      0.189  1.089  2.722  0.000    23.951     8.015
 107   8 O     -0.351  1.732  4.620  0.000    20.735     6.105
 108   6 C     -0.070  1.052  3.018  0.000    21.801     6.641
 109   6 C     -0.005  1.056  2.948  0.000    20.662     6.472
 110  16 S     -0.214  1.914  4.245  0.054   150.175    20.625
 111   6 C     -0.059  1.052  3.007  0.000    21.703     6.646
 112   1 H      0.222  0.778  0.000  0.000     0.999     1.566
 113   1 H      0.108  0.892  0.000  0.000     1.717     2.049
 114   1 H      0.065  0.935  0.000  0.000     2.144     2.290
 115   1 H      0.083  0.917  0.000  0.000     1.950     2.184
 116   1 H      0.075  0.925  0.000  0.000     2.036     2.231
 117   1 H      0.033  0.967  0.000  0.000     2.537     2.491
 118   1 H      0.058  0.942  0.000  0.000     2.217     2.329
 119   1 H      0.044  0.956  0.000  0.000     2.397     2.421
 120   1 H      0.066  0.934  0.000  0.000     2.133     2.284
 121   7 N     -0.398  1.336  4.062  0.000    30.326     8.179
 122   6 C      0.041  1.055  2.904  0.000    19.894     6.351
 123   6 C      0.278  1.047  2.674  0.000    22.289     7.732
 124   8 O     -0.499  1.743  4.756  0.000    23.766     6.536
 125   6 C     -0.018  1.063  2.956  0.000    20.859     6.495
 126   6 C     -0.059  1.049  3.010  0.000    21.629     6.620
 127   6 C     -0.102  1.041  3.061  0.000    22.492     6.761
 128   6 C     -0.113  1.040  3.074  0.000    22.729     6.798
 129   1 H      0.174  0.826  0.000  0.000     1.252     1.753
 130   1 H      0.021  0.979  0.000  0.000     2.715     2.577
 131   1 H      0.052  0.948  0.000  0.000     2.295     2.369
 132   1 H      0.043  0.957  0.000  0.000     2.407     2.426
 133   1 H      0.027  0.973  0.000  0.000     2.628     2.535
 134   1 H      0.056  0.944  0.000  0.000     2.245     2.343
 135   1 H      0.005  0.995  0.000  0.000     2.969     2.695
 136   1 H      0.034  0.966  0.000  0.000     2.537     2.491
 137   1 H      0.058  0.942  0.000  0.000     2.223     2.332
 138   1 H      0.037  0.963  0.000  0.000     2.490     2.468
 139   1 H      0.054  0.946  0.000  0.000     2.266     2.354
 140   7 N     -0.190  1.251  3.939  0.000    25.131     7.445
 141   6 C      0.044  1.055  2.901  0.000    19.841     6.342
 142   6 C      0.291  1.040  2.670  0.000    22.074     7.693
 143   8 O     -0.510  1.750  4.760  0.000    24.004     6.569
 144   6 C     -0.083  1.061  3.021  0.000    22.070     6.688
 145   6 C      0.369  1.023  2.608  0.000    20.743     7.454
 146   8 O     -0.646  1.768  4.878  0.000    27.287     7.004
 147   8 O     -0.663  1.780  4.882  0.000    27.706     7.057
 148   1 H      0.198  0.802  0.000  0.000     1.118     1.657
 149   1 H      0.077  0.923  0.000  0.000     2.009     2.216
 150   1 H      0.034  0.966  0.000  0.000     2.528     2.486
 151   1 H      0.047  0.953  0.000  0.000     2.363     2.404
 152   7 N     -0.181  1.240  3.941  0.000    24.928     7.415
 153   6 C      0.039  1.059  2.902  0.000    19.927     6.357
 154   6 C      0.269  1.044  2.686  0.000    22.452     7.760
 155   8 O     -0.483  1.741  4.742  0.000    23.411     6.487
 156   6 C     -0.036  1.046  2.989  0.000    21.205     6.555
 157   6 C     -0.074  1.057  3.018  0.000    21.922     6.666
 158   6 C      0.367  1.031  2.602  0.000    20.769     7.458
 159   8 O     -0.662  1.779  4.884  0.000    27.704     7.057
 160   8 O     -0.656  1.775  4.881  0.000    27.526     7.034
 161   1 H      0.204  0.796  0.000  0.000     1.088     1.634
 162   1 H      0.050  0.950  0.000  0.000     2.324     2.384
 163   1 H      0.033  0.967  0.000  0.000     2.550     2.497
 164   1 H      0.035  0.965  0.000  0.000     2.521     2.483
 165   1 H      0.025  0.975  0.000  0.000     2.655     2.548
 166   1 H      0.003  0.997  0.000  0.000     3.011     2.714
 167   7 N     -0.165  1.251  3.915  0.000    24.576     7.363
 168   6 C      0.019  1.063  2.918  0.000    20.263     6.410
 169   6 C      0.270  1.041  2.689  0.000    22.432     7.756
 170   8 O     -0.512  1.761  4.751  0.000    24.044     6.574
 171   6 C     -0.070  1.050  3.019  0.000    21.822     6.649
 172   6 C     -0.033  1.069  2.964  0.000    21.175     6.553
 173  16 S     -0.169  1.902  4.215  0.052   148.194    20.489
 174   6 C     -0.080  1.057  3.023  0.000    22.109     6.708
 175   1 H      0.210  0.790  0.000  0.000     1.057     1.611
 176   1 H      0.080  0.920  0.000  0.000     1.978     2.199
 177   1 H      0.060  0.940  0.000  0.000     2.200     2.320
 178   1 H      0.060  0.940  0.000  0.000     2.196     2.317
 179   1 H      0.067  0.933  0.000  0.000     2.118     2.276
 180   1 H      0.049  0.951  0.000  0.000     2.330     2.387
 181   1 H      0.102  0.898  0.000  0.000     1.765     2.077
 182   1 H      0.059  0.941  0.000  0.000     2.213     2.326
 183   1 H      0.051  0.949  0.000  0.000     2.307     2.375
 184   7 N     -0.087  1.240  3.848  0.000    22.939     7.113
 185   6 C      0.023  1.060  2.917  0.000    20.169     6.390
 186   6 C      0.278  1.040  2.682  0.000    22.290     7.732
 187   8 O     -0.483  1.747  4.736  0.000    23.403     6.486
 188   6 C     -0.076  1.051  3.025  0.000    21.925     6.662
 189   6 C     -0.071  1.045  3.026  0.000    21.827     6.646
 190   6 C     -0.012  1.057  2.956  0.000    20.854     6.512
 191   1 H      0.055  0.945  0.000  0.000     2.261     2.351
 192   1 H      0.062  0.938  0.000  0.000     2.173     2.305
 193   1 H      0.083  0.917  0.000  0.000     1.950     2.183
 194   1 H      0.068  0.932  0.000  0.000     2.102     2.267
 195   1 H      0.083  0.917  0.000  0.000     1.951     2.185
 196   1 H      0.083  0.917  0.000  0.000     1.949     2.183
 197   1 H      0.070  0.930  0.000  0.000     2.088     2.260
 198   7 N     -0.191  1.252  3.938  0.000    25.139     7.447
 199   6 C      0.019  1.060  2.922  0.000    20.262     6.409
 200   6 C      0.279  1.042  2.680  0.000    22.284     7.730
 201   8 O     -0.517  1.746  4.772  0.000    24.175     6.592
 202   6 C     -0.053  1.050  3.003  0.000    21.522     6.604
 203   6 C     -0.100  1.064  3.036  0.000    22.407     6.739
 204   6 C      0.373  1.023  2.604  0.000    20.676     7.442
 205   8 O     -0.667  1.775  4.892  0.000    27.811     7.071
 206   8 O     -0.667  1.772  4.896  0.000    27.832     7.073
 207   1 H      0.202  0.798  0.000  0.000     1.098     1.641
 208   1 H      0.085  0.915  0.000  0.000     1.930     2.172
 209   1 H      0.036  0.964  0.000  0.000     2.505     2.475
 210   1 H      0.046  0.954  0.000  0.000     2.365     2.405
 211   1 H      0.057  0.943  0.000  0.000     2.240     2.341
 212   1 H      0.035  0.965  0.000  0.000     2.513     2.479
 213   7 N     -0.192  1.262  3.930  0.000    25.161     7.450
 214   6 C      0.015  1.075  2.910  0.000    20.343     6.425
 215   6 C      0.370  1.016  2.614  0.000    20.732     7.452
 216   8 O     -0.616  1.764  4.852  0.000    26.515     6.904
 217   6 C     -0.096  1.038  3.057  0.000    22.385     6.747
 218   8 O     -0.616  1.742  4.874  0.000    26.519     6.904
 219   1 H      0.207  0.793  0.000  0.000     1.071     1.621
 220   1 H      0.049  0.951  0.000  0.000     2.327     2.386
 221   1 H      0.061  0.939  0.000  0.000     2.184     2.311
 222   1 H      0.023  0.977  0.000  0.000     2.693     2.566
 223   1 H      0.020  0.980  0.000  0.000     2.735     2.586
 224   7 N     -0.152  1.230  3.922  0.000    24.286     7.319
 225   6 C     -0.036  1.074  2.963  0.000    21.246     6.566
 226   6 C      0.273  1.033  2.694  0.000    22.385     7.747
 227   8 O     -0.471  1.792  4.678  0.000    23.147     6.450
 228   6 C      0.063  1.037  2.900  0.000    19.743     6.366
 229   8 O     -0.471  1.744  4.727  0.000    22.273     6.371
 230   1 H      0.308  0.692  0.000  0.000     0.689     1.301
 231   1 H      0.335  0.665  0.000  0.000     0.617     1.231
 232   1 H      0.297  0.703  0.000  0.000     0.722     1.331
 233   1 H      0.146  0.854  0.000  0.000     1.418     1.862
 234   1 H      0.065  0.935  0.000  0.000     2.139     2.287
 235   1 H      0.080  0.920  0.000  0.000     1.974     2.197
 236   1 H      0.357  0.643  0.000  0.000     0.573     1.189
 237   7 N     -0.167  1.237  3.930  0.000    24.605     7.367
 238   6 C      0.006  1.072  2.922  0.000    20.508     6.452
 239   6 C      0.255  1.052  2.693  0.000    22.708     7.803
 240   8 O     -0.444  1.740  4.704  0.000    22.590     6.372
 241   6 C      0.111  1.053  2.835  0.000    18.871     6.206
 242   8 O     -0.475  1.748  4.726  0.000    22.354     6.382
 243   6 C     -0.131  1.048  3.083  0.000    23.089     6.854
 244   1 H      0.248  0.752  0.000  0.000     0.892     1.480
 245   1 H      0.069  0.931  0.000  0.000     2.098     2.265
 246   1 H      0.053  0.947  0.000  0.000     2.285     2.364
 247   1 H      0.328  0.672  0.000  0.000     0.642     1.259
[...]
 452   1 H      0.072  0.928  0.000  0.000     2.062     2.246
 453   1 H      0.027  0.973  0.000  0.000     2.625     2.534
 454   1 H      0.046  0.954  0.000  0.000     2.376     2.411
 455   7 N     -0.160  1.243  3.917  0.000    24.453     7.344
 456   6 C      0.033  1.056  2.911  0.000    20.037     6.375
 457   6 C      0.195  1.089  2.716  0.000    23.830     7.994
 458   8 O     -0.369  1.763  4.605  0.000    21.066     6.154
 459   6 C     -0.077  1.059  3.018  0.000    21.964     6.671
 460   6 C     -0.016  1.056  2.960  0.000    20.821     6.490
 461   6 C     -0.112  1.040  3.071  0.000    22.689     6.792
 462   6 C     -0.121  1.045  3.077  0.000    22.882     6.820
 463   1 H      0.211  0.789  0.000  0.000     1.052     1.607
 464   1 H      0.086  0.914  0.000  0.000     1.918     2.166
 465   1 H      0.068  0.932  0.000  0.000     2.103     2.268
 466   1 H      0.061  0.939  0.000  0.000     2.191     2.315
 467   1 H      0.030  0.970  0.000  0.000     2.585     2.514
 468   1 H      0.037  0.963  0.000  0.000     2.490     2.468
 469   1 H      0.026  0.974  0.000  0.000     2.647     2.544
 470   1 H      0.054  0.946  0.000  0.000     2.272     2.357
 471   1 H      0.045  0.955  0.000  0.000     2.385     2.415
 472   1 H      0.049  0.951  0.000  0.000     2.339     2.392
 473   1 H      0.051  0.949  0.000  0.000     2.311     2.377
 474   7 N     -0.385  1.330  4.055  0.000    29.950     8.128
 475   6 C     -0.027  1.054  2.973  0.000    21.160     6.567
 476   6 C      0.189  1.091  2.720  0.000    23.946     8.013
 477   8 O     -0.368  1.760  4.608  0.000    21.057     6.152
 478   1 H      0.155  0.845  0.000  0.000     1.369     1.833
 479   1 H      0.064  0.936  0.000  0.000     2.150     2.293
 480   1 H      0.103  0.897  0.000  0.000     1.757     2.073
 481   7 N     -0.377  1.317  4.060  0.000    29.748     8.100
 482   6 C      0.042  1.048  2.910  0.000    19.879     6.351
 483   6 C      0.195  1.090  2.715  0.000    23.846     7.998
 484   8 O     -0.374  1.763  4.611  0.000    21.174     6.169
 485   6 C     -0.068  1.055  3.014  0.000    21.789     6.643
 486   6 C     -0.012  1.050  2.962  0.000    20.752     6.479
 487   6 C     -0.119  1.044  3.074  0.000    22.823     6.811
 488   6 C     -0.121  1.043  3.078  0.000    22.849     6.813
 489   1 H      0.170  0.830  0.000  0.000     1.273     1.767
 490   1 H      0.048  0.952  0.000  0.000     2.349     2.397
 491   1 H      0.043  0.957  0.000  0.000     2.407     2.426
 492   1 H      0.036  0.964  0.000  0.000     2.509     2.477
 493   1 H      0.049  0.951  0.000  0.000     2.335     2.390
 494   1 H      0.040  0.960  0.000  0.000     2.449     2.447
 495   1 H      0.045  0.955  0.000  0.000     2.389     2.417
 496   1 H      0.033  0.967  0.000  0.000     2.542     2.493
 497   1 H      0.038  0.962  0.000  0.000     2.473     2.459
 498   1 H      0.032  0.968  0.000  0.000     2.554     2.499
 499   1 H      0.055  0.945  0.000  0.000     2.259     2.350
 500   7 N     -0.383  1.326  4.057  0.000    29.902     8.121
 501   6 C      0.035  1.053  2.912  0.000    19.993     6.368
 502   6 C      0.196  1.087  2.717  0.000    23.825     7.994
 503   8 O     -0.377  1.767  4.610  0.000    21.220     6.176
 504   6 C     -0.080  1.056  3.024  0.000    22.011     6.677
 505   6 C     -0.074  1.045  3.029  0.000    21.902     6.661
 506   6 C     -0.025  1.047  2.979  0.000    21.091     6.550
 507   7 N     -0.150  1.211  3.939  0.000    24.244     7.313
 508   6 C      0.237  1.009  2.754  0.000    23.033     7.858
 509   7 N     -0.249  1.224  4.025  0.000    26.473     7.642
 510   7 N     -0.304  1.265  4.039  0.000    27.818     7.833
 511   1 H      0.160  0.840  0.000  0.000     1.335     1.810
 512   1 H      0.071  0.929  0.000  0.000     2.076     2.253
 513   1 H      0.064  0.936  0.000  0.000     2.158     2.297
 514   1 H      0.072  0.928  0.000  0.000     2.059     2.244
 515   1 H      0.060  0.940  0.000  0.000     2.194     2.317
 516   1 H      0.060  0.940  0.000  0.000     2.202     2.320
 517   1 H      0.080  0.920  0.000  0.000     1.983     2.202
 518   1 H      0.091  0.909  0.000  0.000     1.872     2.140
 519   1 H      0.227  0.773  0.000  0.000     0.979     1.550
 520   1 H      0.248  0.752  0.000  0.000     0.892     1.480
 521   1 H      0.215  0.785  0.000  0.000     1.032     1.591
 522   1 H      0.234  0.766  0.000  0.000     0.948     1.525
 523   1 H      0.284  0.716  0.000  0.000     0.758     1.362
 524   7 N     -0.391  1.315  4.076  0.000    30.123     8.151
 525   6 C      0.026  1.057  2.917  0.000    20.139     6.391
 526   6 C      0.263  1.059  2.678  0.000    22.561     7.778
 527   8 O     -0.507  1.767  4.740  0.000    23.933     6.559
 528   6 C      0.119  1.040  2.841  0.000    18.705     6.171
 529   8 O     -0.501  1.736  4.766  0.000    22.924     6.463
 530   6 C     -0.132  1.045  3.086  0.000    23.084     6.850
 531   1 H      0.170  0.830  0.000  0.000     1.274     1.768
 532   1 H      0.072  0.928  0.000  0.000     2.063     2.246
 533   1 H      0.017  0.983  0.000  0.000     2.772     2.603
 534   1 H      0.333  0.667  0.000  0.000     0.629     1.246
 535   1 H      0.051  0.949  0.000  0.000     2.304     2.374
 536   1 H      0.059  0.941  0.000  0.000     2.214     2.327
 537   1 H      0.059  0.941  0.000  0.000     2.212     2.326
 538   7 N     -0.151  1.239  3.912  0.000    24.277     7.318
 539   6 C      0.027  1.056  2.917  0.000    20.121     6.388
 540   6 C      0.208  1.079  2.712  0.000    23.585     7.953
 541   8 O     -0.376  1.768  4.608  0.000    21.200     6.173
 542   6 C     -0.065  1.040  3.025  0.000    21.739     6.637
 543   6 C      0.050  1.065  2.885  0.000    26.753     8.477
 544   7 N     -0.299  1.465  3.834  0.000    28.548     7.924
 545   6 C     -0.031  1.057  2.975  0.000    28.731     8.791
 546   6 C      0.078  1.062  2.860  0.000    26.221     8.399
 547   7 N     -0.087  1.239  3.848  0.000    22.926     7.111
 548   1 H      0.226  0.774  0.000  0.000     0.982     1.552
 549   1 H      0.083  0.917  0.000  0.000     1.944     2.181
 550   1 H      0.091  0.909  0.000  0.000     1.865     2.136
 551   1 H      0.047  0.953  0.000  0.000     2.363     2.404
 552   1 H      0.028  0.972  0.000  0.000     2.616     2.529
 553   1 H      0.065  0.935  0.000  0.000     2.138     2.287
 554   1 H      0.199  0.801  0.000  0.000     1.110     1.651
 555   7 N     -0.395  1.322  4.073  0.000    30.243     8.168
 556   6 C      0.036  1.062  2.902  0.000    19.992     6.370
 557   6 C      0.284  1.040  2.675  0.000    22.182     7.712
 558   8 O     -0.452  1.724  4.728  0.000    22.734     6.393
 559   6 C     -0.048  1.048  3.000  0.000    21.426     6.590
 560   6 C     -0.085  1.064  3.022  0.000    22.128     6.698
 561   6 C      0.362  1.032  2.607  0.000    20.865     7.475
 562   8 O     -0.638  1.768  4.869  0.000    27.062     6.975
 563   8 O     -0.665  1.776  4.888  0.000    27.764     7.064
 564   1 H      0.166  0.834  0.000  0.000     1.296     1.784
 565   1 H      0.012  0.988  0.000  0.000     2.863     2.646
 566   1 H      0.039  0.961  0.000  0.000     2.465     2.455
 567   1 H      0.039  0.961  0.000  0.000     2.458     2.452
 568   1 H      0.008  0.992  0.000  0.000     2.916     2.670
 569   1 H      0.023  0.977  0.000  0.000     2.695     2.567
 570   7 N     -0.188  1.242  3.946  0.000    25.080     7.438
 571   6 C      0.031  1.076  2.893  0.000    20.086     6.386
 572   6 C      0.270  1.067  2.663  0.000    22.429     7.754
 573   8 O     -0.469  1.755  4.714  0.000    23.115     6.446
 574   6 C     -0.017  1.068  2.949  0.000    20.853     6.496
 575   6 C     -0.071  1.053  3.018  0.000    21.857     6.656
 576   6 C     -0.124  1.048  3.077  0.000    22.941     6.830
 577   6 C     -0.103  1.038  3.065  0.000    22.527     6.769
 578   1 H      0.190  0.810  0.000  0.000     1.156     1.685
 579   1 H      0.042  0.958  0.000  0.000     2.426     2.436
 580   1 H      0.048  0.952  0.000  0.000     2.343     2.394
 581   1 H      0.053  0.947  0.000  0.000     2.288     2.365
 582   1 H      0.049  0.951  0.000  0.000     2.330     2.387
 583   1 H      0.067  0.933  0.000  0.000     2.118     2.276
 584   1 H      0.058  0.942  0.000  0.000     2.222     2.331
 585   1 H      0.034  0.966  0.000  0.000     2.532     2.489
 586   1 H      0.045  0.955  0.000  0.000     2.383     2.414
 587   1 H      0.016  0.984  0.000  0.000     2.793     2.614
 588   1 H      0.046  0.954  0.000  0.000     2.368     2.406
 589   7 N     -0.178  1.252  3.927  0.000    24.859     7.405
 590   6 C      0.024  1.059  2.917  0.000    20.184     6.399
 591   6 C      0.276  1.036  2.688  0.000    22.327     7.737
 592   8 O     -0.475  1.744  4.731  0.000    23.232     6.462
 593   6 C     -0.055  1.049  3.005  0.000    21.544     6.607
 594   6 C     -0.082  1.053  3.029  0.000    22.058     6.685
 595   6 C      0.375  1.012  2.613  0.000    20.638     7.435
 596   8 O     -0.659  1.771  4.888  0.000    27.608     7.045
 597   8 O     -0.656  1.769  4.887  0.000    27.526     7.034
 598   1 H      0.220  0.780  0.000  0.000     1.011     1.575
 599   1 H      0.075  0.925  0.000  0.000     2.028     2.227
 600   1 H      0.026  0.974  0.000  0.000     2.651     2.546
 601   1 H      0.050  0.950  0.000  0.000     2.323     2.383
 602   1 H      0.029  0.971  0.000  0.000     2.602     2.523
 603   1 H      0.034  0.966  0.000  0.000     2.525     2.485
 604   7 N     -0.207  1.262  3.945  0.000    25.508     7.501
 605   6 C      0.033  1.064  2.904  0.000    20.040     6.377
 606   6 C      0.304  1.023  2.673  0.000    21.839     7.655
 607   8 O     -0.488  1.727  4.761  0.000    23.517     6.502
 608   6 C     -0.091  1.059  3.032  0.000    22.232     6.712
 609   6 C      0.300  1.033  2.667  0.000    21.915     7.665
 610   8 O     -0.512  1.764  4.748  0.000    24.053     6.575
 611   7 N     -0.272  1.261  4.011  0.000    27.042     7.723
 612   1 H      0.202  0.798  0.000  0.000     1.098     1.641
 613   1 H      0.058  0.942  0.000  0.000     2.221     2.331
 614   1 H      0.071  0.929  0.000  0.000     2.071     2.251
 615   1 H      0.075  0.925  0.000  0.000     2.036     2.231
 616   1 H      0.222  0.778  0.000  0.000     0.998     1.565
 617   1 H      0.243  0.757  0.000  0.000     0.913     1.497
 618   7 N     -0.175  1.234  3.941  0.000    24.781     7.393
 619   6 C      0.043  1.036  2.921  0.000    19.824     6.333
 620   6 C      0.247  1.051  2.701  0.000    22.856     7.832
 621   8 O     -0.474  1.729  4.746  0.000    23.227     6.462
 622   6 C     -0.096  1.049  3.047  0.000    22.306     6.720
 623   6 C      0.288  1.026  2.685  0.000    22.113     7.700
 624   8 O     -0.512  1.767  4.745  0.000    24.048     6.575
 625   7 N     -0.278  1.268  4.011  0.000    27.197     7.745
 626   1 H      0.220  0.780  0.000  0.000     1.010     1.574
 627   1 H      0.095  0.905  0.000  0.000     1.828     2.114
 628   1 H      0.088  0.912  0.000  0.000     1.897     2.154
 629   1 H      0.079  0.921  0.000  0.000     1.990     2.206
 630   1 H      0.254  0.746  0.000  0.000     0.867     1.459
 631   1 H      0.238  0.762  0.000  0.000     0.932     1.512
 632   7 N     -0.100  1.240  3.860  0.000    23.189     7.152
 633   6 C      0.000  1.057  2.943  0.000    20.531     6.442
 634   6 C      0.281  1.034  2.685  0.000    22.251     7.725
 635   8 O     -0.484  1.749  4.736  0.000    23.442     6.491
 636   6 C     -0.072  1.049  3.022  0.000    21.844     6.650
 637   6 C     -0.065  1.043  3.022  0.000    21.724     6.632
 638   6 C     -0.010  1.059  2.951  0.000    20.788     6.498
 639   1 H      0.093  0.907  0.000  0.000     1.853     2.129
 640   1 H      0.062  0.938  0.000  0.000     2.179     2.309
 641   1 H      0.072  0.928  0.000  0.000     2.059     2.244
 642   1 H      0.056  0.944  0.000  0.000     2.241     2.341
 643   1 H      0.065  0.935  0.000  0.000     2.142     2.289
 644   1 H      0.074  0.926  0.000  0.000     2.037     2.232
 645   1 H      0.051  0.949  0.000  0.000     2.311     2.377
 646   7 N     -0.166  1.233  3.933  0.000    24.587     7.364
 647   6 C      0.027  1.054  2.919  0.000    20.122     6.386
 648   6 C      0.273  1.035  2.693  0.000    22.392     7.751
 649   8 O     -0.470  1.706  4.764  0.000    23.105     6.446
 650   6 C      0.121  1.046  2.833  0.000    18.681     6.168
 651   8 O     -0.461  1.727  4.734  0.000    22.081     6.343
 652   6 C     -0.139  1.048  3.091  0.000    23.252     6.877
 653   1 H      0.200  0.800  0.000  0.000     1.104     1.646
 654   1 H      0.063  0.937  0.000  0.000     2.168     2.303
 655   1 H      0.026  0.974  0.000  0.000     2.638     2.540
 656   1 H      0.300  0.700  0.000  0.000     0.721     1.334
 657   1 H      0.059  0.941  0.000  0.000     2.205     2.322
 658   1 H      0.072  0.928  0.000  0.000     2.066     2.248
 659   1 H      0.058  0.942  0.000  0.000     2.228     2.334
 660   7 N     -0.149  1.236  3.913  0.000    24.214     7.308
 661   6 C      0.011  1.066  2.923  0.000    20.382     6.427
 662   6 C      0.259  1.052  2.689  0.000    22.636     7.791
 663   8 O     -0.499  1.765  4.734  0.000    23.761     6.535
 664   6 C     -0.015  1.064  2.951  0.000    20.816     6.490
 665   6 C     -0.112  1.043  3.069  0.000    22.700     6.794
 666   6 C     -0.124  1.044  3.080  0.000    22.943     6.831
 667   1 H      0.225  0.775  0.000  0.000     0.988     1.557
 668   1 H      0.073  0.927  0.000  0.000     2.052     2.240
 669   1 H      0.038  0.962  0.000  0.000     2.473     2.459
 670   1 H      0.048  0.952  0.000  0.000     2.339     2.392
 671   1 H      0.036  0.964  0.000  0.000     2.499     2.472
 672   1 H      0.047  0.953  0.000  0.000     2.353     2.399
 673   1 H      0.063  0.937  0.000  0.000     2.164     2.300
 674   1 H      0.050  0.950  0.000  0.000     2.320     2.382
 675   1 H      0.059  0.941  0.000  0.000     2.216     2.328
 676   7 N     -0.192  1.258  3.934  0.000    25.173     7.452
 677   6 C      0.022  1.067  2.911  0.000    20.201     6.399
 678   6 C      0.384  1.000  2.616  0.000    20.506     7.412
 679   8 O     -0.636  1.754  4.882  0.000    27.022     6.970
 680   6 C     -0.062  1.049  3.013  0.000    21.670     6.625
 681   6 C     -0.066  1.044  3.022  0.000    21.748     6.638
 682   6 C     -0.093  1.053  3.040  0.000    22.259     6.716
 683   6 C     -0.043  1.057  2.986  0.000    21.434     6.607
 684   7 N     -0.149  1.237  3.912  0.000    24.210     7.308
 685   8 O     -0.643  1.755  4.888  0.000    27.197     6.992
 686   1 H      0.206  0.794  0.000  0.000     1.078     1.627
 687   1 H      0.033  0.967  0.000  0.000     2.550     2.497
 688   1 H      0.049  0.951  0.000  0.000     2.329     2.387
 689   1 H      0.038  0.962  0.000  0.000     2.481     2.463
 690   1 H      0.051  0.949  0.000  0.000     2.310     2.377
 691   1 H      0.053  0.947  0.000  0.000     2.287     2.365
 692   1 H      0.091  0.909  0.000  0.000     1.868     2.137
 693   1 H      0.073  0.927  0.000  0.000     2.056     2.242
 694   1 H      0.098  0.902  0.000  0.000     1.806     2.102
 695   1 H      0.111  0.889  0.000  0.000     1.686     2.030
 696   1 H      0.309  0.691  0.000  0.000     0.688     1.299
 697   1 H      0.307  0.693  0.000  0.000     0.693     1.304
 698   1 H      0.302  0.698  0.000  0.000     0.707     1.317
 699   7 N     -0.430  1.347  4.083  0.000    31.210     8.297
 700   6 C      0.030  1.059  2.911  0.000    20.076     6.381
 701   6 C      0.388  1.005  2.608  0.000    20.444     7.401
 702   8 O     -0.660  1.758  4.902  0.000    27.637     7.048
 703   6 C     -0.060  1.054  3.006  0.000    21.646     6.621
 704   6 C     -0.063  1.044  3.019  0.000    21.703     6.631
 705   6 C     -0.099  1.055  3.044  0.000    22.388     6.735
 706   6 C     -0.050  1.060  2.990  0.000    21.552     6.625
 707   7 N     -0.136  1.233  3.903  0.000    23.939     7.267
 708   8 O     -0.673  1.768  4.905  0.000    27.974     7.091
 709   1 H      0.135  0.865  0.000  0.000     1.510     1.925
 710   1 H     -0.007  1.007  0.000  0.000     3.184     2.790
 711   1 H      0.038  0.962  0.000  0.000     2.477     2.461
 712   1 H      0.038  0.962  0.000  0.000     2.475     2.460
 713   1 H      0.029  0.971  0.000  0.000     2.606     2.525
 714   1 H      0.047  0.953  0.000  0.000     2.357     2.401
 715   1 H      0.093  0.907  0.000  0.000     1.854     2.129
 716   1 H      0.098  0.902  0.000  0.000     1.803     2.100
 717   1 H      0.106  0.894  0.000  0.000     1.729     2.056
 718   1 H      0.088  0.912  0.000  0.000     1.896     2.153
 719   1 H      0.286  0.714  0.000  0.000     0.757     1.363
 720   1 H      0.297  0.703  0.000  0.000     0.722     1.332
 721   1 H      0.325  0.675  0.000  0.000     0.644     1.257
 722   1 H      0.176  0.824  0.000  0.000     1.238     1.743
 723   1 H      0.185  0.815  0.000  0.000     1.187     1.707
 724   1 H      0.065  0.935  0.000  0.000     2.139     2.287
 725   1 H      0.181  0.819  0.000  0.000     1.210     1.723
 726   1 H      0.102  0.898  0.000  0.000     1.769     2.080
 727   1 H      0.185  0.815  0.000  0.000     1.186     1.705
 728   1 H      0.069  0.931  0.000  0.000     2.096     2.264
 729   1 H      0.182  0.818  0.000  0.000     1.205     1.719
 730   1 H      0.083  0.917  0.000  0.000     1.951     2.184
 731   1 H      0.183  0.817  0.000  0.000     1.196     1.713
 732   1 H      0.082  0.918  0.000  0.000     1.953     2.185
 733   1 H      0.183  0.817  0.000  0.000     1.197     1.714
 734   1 H      0.064  0.936  0.000  0.000     2.148     2.292
 735   1 H      0.182  0.818  0.000  0.000     1.200     1.716
 736   1 H      0.076  0.924  0.000  0.000     2.017     2.221
 737   1 H      0.195  0.805  0.000  0.000     1.133     1.667
 738   1 H      0.076  0.924  0.000  0.000     2.017     2.221

 Mol. C6AA /au·bohr⁶  :    5098814.798989
 Mol. C8AA /au·bohr⁸  :  114741205.573960
 Mol. α(0) /au        :       3376.480044

 
molecular dipole:
                 x           y           z       tot (Debye)
 q only:     -202.455    -126.512    -164.949
   full:     -197.746    -128.926    -165.160     732.301
molecular quadrupole (traceless):
                xx          xy          yy          xz          yz          zz
 q only:    -8593.266  -29562.335   15130.889  -47025.546  -28463.032   -6537.623
  q+dip:    -7500.125  -29401.334   14321.149  -46048.779  -29130.321   -6821.024
   full:    -7494.546  -29400.327   14319.758  -46051.845  -29135.788   -6825.212
speedup  1.46
cpu  time for grad    1 m 48.7 s
wall time for grad    1 m 14.6 s

SCC energy    :   -1165.1333008
rep           :      13.5198915
ES            :       5.3422659
AES           :      -0.2505638
AXC           :       0.3651913
disp          :      -0.9534689
XB            :       0.0000000
fix           :       0.0000000
Gborn         :       0.0000000
Gsasa         :       0.0000000
Ghb           :       0.0000000
Gshift        :       0.0000000
Gsolv         :      -1.9832460    -1244.51
Etot ala COSMO:   -1165.1333008
grad norm     :       0.8057899
total E       :   -1151.5300445
atomizationE  :     206.4634816   129557.79
(atE without considering molecular charge,
 total energy contains solvation terms)
H-L gap (eV)  :          0.9475

------------------------------------------------------------------------
 * finished run on 2019/05/05 at 22:43:09.121     
------------------------------------------------------------------------
 total:
 * wall-time:     0 d,  0 h,  1 min, 16.489 sec
 *  cpu-time:     0 d,  0 h,  1 min, 51.239 sec
 * ratio c/w:     1.454 speedup
 SCF:
 * wall-time:     0 d,  0 h,  1 min, 15.512 sec
 *  cpu-time:     0 d,  0 h,  1 min, 50.235 sec
 * ratio c/w:     1.460 speedup

