      -----------------------------------------------------------      
     |                   =====================                   |     
     |                           x T B                           |     
     |                   =====================                   |     
     |                         S. Grimme                         |     
     |          Mulliken Center for Theoretical Chemistry        |     
     |                    University of Bonn                     |     
     |                 Version 6.0.1 (SAW181210)                 |     
      -----------------------------------------------------------      

   This program is distributed in the hope that it will be useful,
   but WITHOUT ANY WARRANTY; without even the implied warranty of
   MERCHANTABILITY or FITNESS FOR A PARTICULAR PURPOSE.
   
   FOR NON-COMMERCIAL, ACADEMIA USE ONLY.
   
   Cite this work as:
   S. Grimme, C. Bannwarth, P. Shushkov, J. Comput. Theory Chem., 2017,
   13, 1989-2009.
   C. Bannwarth, S. Ehlert and S. Grimme., ChemRxiv, 2018, preprint.
   http://doi.org/10.26434/chemrxiv.7246238.v1
   
   for sTDA-xTB:
   S. Grimme and C. Bannwarth, J. Chem. Phys., 2016, 145, 054103.
   
   in the mass-spec context:
   V. Asgeirsson, C. Bauer and S. Grimme, Chem. Sci., 2017, 8, 4879.
   
   if GBSA is used:
   P. Shushkov, F. März and S. Grimme, unpublished.
   
   for ANC optimizer:
   S. Grimme, unpublished.
   Rational Function algorithm used in ANCopt:
   F. Eckert, P. Pulay, H.-J. Werner, J. Comput. Chem., 1997, 18, 1473.
   
   with help from (in alphabetical order)
   C. Bannwarth, F. Bohle, G. Brandenburg, E. Caldeweyher, M. Checinski,
   S. Dohm, S. Ehlert, S. Ehrlich, F. März, H. Neugebauer, J. Pisarek,
   P. Pracht, P. Shushkov, and S. Spicher.
   
 * started run on 2019/05/09 at 22:30:42.019     
========================================================================
 # omp threads = 2
========================================================================
number of atoms            : 185
number of electrons        : 478
charge                     : 1
spin                       : .0
first test random number   : .7645

########################################################################
# WARNING! Please study the warnings concerning your input carefully
#  - Process number higher than OMP_NUM_THREADS, I hope you know what you are doing.
########################################################################

           ------------------------------------------------- 
          |                 G F N 2 - x T B                 |
          | Geometry, Frequencies, Noncovalent interactions |
          |            JCTC 2018 parametrisation            |
           ------------------------------------------------- 
 
      method parameters     
 k(s)        :  1.8500
 k(p)        :  2.2300
 k(d)        :  2.2300
 k(f)        :  2.0000
 kEN (H0ij)  : -2.0000
 D4 a1       :  0.5200
 D4 a2       :  5.0000
 D4 s6       :  1.0000
 D4 s8       :  2.7000
 D4 s9       :  5.0000
 alphaj      :  2.0000

 Solvent             : h2o
 Using internal parameter file: .param_gbsa2_h2o
 Gsolv ref. state (COSMO-RS): gsolv [1 M gas/solution]
 temperature (mdtemp)       :    298.150000000000     
 dielectric constant        :    80.2000000000000     
 rho                        :    1.00000000000000     
 mass                       :    18.0000000000000     
 surface tension            :    15.5689454083859     
 probe radius               :   0.975313790000000     
 vdW radii scaling          :    1.00000000000000     
 Gshift (Eh)                :   1.857443126794793E-003
 c1                         :    1.55243817000000     
 soset                      :   0.130326360000000     
 HB correction              :  T

            Z     q(EN)     CN     RAES       Cart. coordinates
     1  N   5.0   -0.19    3.22    1.96    73.59454    69.29948   168.23797
     2  C   4.0    0.03    4.24    4.08    74.15072    67.96228   165.91028
     3  C   4.0    0.15    3.42    3.08    72.60608    65.52569   165.87786
     4  O   6.0   -0.28    1.24    1.80    72.74609    63.97588   167.60241
     5  C   4.0   -0.07    4.10    3.81    76.97277    67.36937   165.76251
     6  H   1.0    0.10    1.02    1.43    74.01678    68.40444   169.89836
     7  H   1.0    0.04    1.05    1.44    73.57458    69.17634   164.34048
     8  H   1.0    0.04    1.00    1.43    77.35051    66.18053   164.13483
     9  H   1.0    0.05    1.00    1.43    78.04115    69.11562   165.58847
    10  H   1.0    0.05    1.00    1.43    77.56984    66.39875   167.47230
    11  N   5.0   -0.14    3.46    2.05    71.05203    65.24289   163.91150
    12  C   4.0    0.04    4.42    4.42    69.48751    63.01722   163.62664
    13  C   4.0    0.15    3.41    3.08    70.83535    61.11326   161.91934
    14  O   6.0   -0.31    1.23    1.80    72.04193    61.77224   160.06616
    15  C   4.0   -0.04    4.26    4.11    66.93818    63.75123   162.46137
    16  C   4.0   -0.05    4.18    3.96    65.08637    61.54883   162.19178
    17  C   4.0   -0.04    4.17    3.93    63.98249    60.64486   164.70745
    18  C   4.0   -0.03    4.12    3.85    61.90971    58.67152   164.32731
    19  N   5.0   -0.11    4.05    2.99    63.03081    56.17237   163.74481
    20  H   1.0    0.08    1.06    1.44    71.08757    66.51998   162.48901
    21  H   1.0    0.06    1.06    1.44    69.25510    62.22192   165.52314
    22  H   1.0    0.05    1.03    1.43    66.11163    65.24022   163.62678
    23  H   1.0    0.05    1.03    1.43    67.32244    64.54329   160.58985
    24  H   1.0    0.05    1.03    1.43    63.54706    62.21082   160.98864
    25  H   1.0    0.05    1.03    1.43    66.04942    60.02350   161.19554
    26  H   1.0    0.06    1.03    1.43    65.45149    59.84720   165.90952
    27  H   1.0    0.04    1.03    1.43    63.18400    62.26094   165.69829
    28  H   1.0    0.05    1.02    1.43    60.80788    58.49702   166.05636
    29  H   1.0    0.04    1.02    1.43    60.66217    59.24024   162.78982
    30  H   1.0    0.06    1.00    1.43    61.68159    54.72781   163.51314
    31  H   1.0    0.07    1.03    1.43    64.12613    56.28212   162.15372
    32  H   1.0    0.11    1.09    1.44    64.25442    55.69184   165.22544
    33  N   5.0   -0.14    3.49    2.07    70.47518    58.68793   162.57894
    34  C   4.0    0.03    4.41    4.39    71.38615    56.55601   161.13103
    35  C   4.0    0.14    3.47    3.10    69.38239    54.49028   161.30897
    36  O   6.0   -0.31    1.33    1.80    67.92279    54.37257   163.09808
    37  C   4.0   -0.04    4.33    4.25    73.89393    55.49435   162.13636
    38  C   4.0   -0.03    4.07    3.74    75.96966    57.48155   162.01312
    39  S   6.0   -0.05    2.48    3.10    79.08541    56.05425   161.63689
    40  C   4.0   -0.05    3.88    3.44    79.58031    54.78043   164.76590
    41  H   1.0    0.10    1.07    1.44    69.61917    58.24123   164.23017
    42  H   1.0    0.05    1.06    1.44    71.65519    57.20887   159.18628
    43  H   1.0    0.05    1.02    1.43    73.65606    54.83782   164.07958
    44  H   1.0    0.05    1.05    1.44    74.45489    53.88087   160.98011
    45  H   1.0    0.05    1.08    1.44    75.73584    58.68261   160.35827
    46  H   1.0    0.05    1.06    1.44    76.01651    58.67138   163.69506
    47  H   1.0    0.05    1.05    1.44    81.47100    53.98682   164.81568
    48  H   1.0    0.05    1.04    1.43    79.44873    56.28569   166.15596
    49  H   1.0    0.05    1.03    1.43    78.22211    53.29927   165.17637
    50  N   5.0   -0.14    3.47    2.06    69.21214    52.90334   159.35917
    51  C   4.0    0.04    4.35    4.28    67.32952    50.89258   159.42561
    52  C   4.0    0.09    3.24    3.04    68.01149    49.14106   161.64166
    53  O   6.0   -0.28    1.13    1.80    70.12907    48.26584   161.84534
    54  C   4.0   -0.04    4.25    4.10    67.26002    49.49874   156.90013
    55  C   4.0   -0.05    4.20    4.00    66.15407    51.20762   154.84327
    56  C   4.0   -0.05    4.16    3.92    66.45718    50.08070   152.20082
    57  C   4.0   -0.03    4.13    3.85    65.43011    51.91768   150.22738
    58  N   5.0   -0.12    4.01    2.89    65.86509    50.95352   147.61827
    59  H   1.0    0.08    1.06    1.44    70.56326    52.84806   158.01635
    60  H   1.0    0.05    1.05    1.44    65.49758    51.78519   159.78741
    61  H   1.0    0.05    1.03    1.43    69.17480    48.90746   156.41585
    62  H   1.0    0.05    1.03    1.43    66.11382    47.79896   157.10240
    63  H   1.0    0.04    1.03    1.43    64.15436    51.51700   155.22801
    64  H   1.0    0.04    1.03    1.43    67.09698    53.04075   154.90044
    65  H   1.0    0.05    1.03    1.43    68.45823    49.72571   151.85448
    66  H   1.0    0.05    1.02    1.43    65.45004    48.28609   152.10968
    67  H   1.0    0.05    1.02    1.43    63.40570    52.19025   150.50149
    68  H   1.0    0.04    1.02    1.43    66.36448    53.74611   150.41767
    69  H   1.0    0.07    1.02    1.43    65.18311    52.21029   146.29868
    70  H   1.0    0.06    1.02    1.43    67.77115    50.70420   147.30339
    71  H   1.0    0.06    1.02    1.43    64.97141    49.23914   147.37305
    72  N   5.0   -0.19    3.28    1.98    67.07234    50.88390   167.91391
    73  C   4.0    0.03    4.35    4.30    67.73593    52.27959   170.16757
    74  C   4.0    0.15    3.53    3.13    66.36088    54.79900   170.08695
    75  O   6.0   -0.30    1.37    1.80    65.82235    55.79730   168.05960
    76  C   4.0   -0.03    4.32    4.24    70.62114    52.75944   170.24571
    77  C   4.0   -0.01    3.57    3.15    72.05836    50.32034   169.99009
    78  C   4.0   -0.03    3.48    3.11    72.69225    49.38882   167.61530
    79  C   4.0   -0.03    3.46    3.10    72.72640    48.92247   172.10349
    80  C   4.0   -0.02    3.43    3.09    73.93417    47.11430   167.34215
    81  C   4.0   -0.03    3.43    3.09    73.99299    46.64856   171.85745
    82  C   4.0    0.08    3.44    3.09    74.59245    45.71719   169.47325
    83  O   6.0   -0.22    2.11    1.84    75.79469    43.47019   169.12847
    84  H   1.0    0.12    1.04    1.43    67.38125    51.79899   166.25704
    85  H   1.0    0.04    1.05    1.44    67.16385    51.13645   171.78680
    86  H   1.0    0.06    1.03    1.43    71.10860    54.02873   168.69351
    87  H   1.0    0.05    1.03    1.43    71.11187    53.70828   172.00509
    88  H   1.0    0.07    1.03    1.43    72.22402    50.44937   165.93476
    89  H   1.0    0.06    1.03    1.43    72.30069    49.63821   173.96437
    90  H   1.0    0.08    1.03    1.43    74.41081    46.38677   165.49968
    91  H   1.0    0.07    1.03    1.43    74.55873    45.60866   173.52048
    92  H   1.0    0.13    1.03    1.43    76.22019    42.71845   170.73762
    93  N   5.0   -0.09    3.70    2.26    65.69466    55.83745   172.26276
    94  C   4.0    0.04    4.51    4.55    64.49060    58.31252   172.27888
    95  C   4.0    0.08    3.23    3.04    66.37273    60.37081   171.48118
    96  O   6.0   -0.27    1.13    1.80    68.65158    60.03111   171.43286
    97  C   4.0   -0.04    4.35    4.29    63.78724    58.71769   175.06035
    98  C   4.0   -0.03    4.29    4.18    65.88992    57.29612   176.42581
    99  C   4.0   -0.01    4.37    4.33    66.23592    54.94106   174.79769
   100  H   1.0    0.05    1.04    1.43    62.86863    58.31878   171.00217
   101  H   1.0    0.05    1.02    1.43    63.73451    60.70440   175.58255
   102  H   1.0    0.05    1.02    1.43    61.96787    57.84985   175.46747
   103  H   1.0    0.06    1.03    1.43    67.60985    58.42652   176.43084
   104  H   1.0    0.05    1.02    1.43    65.40164    56.82943   178.36189
   105  H   1.0    0.04    1.02    1.43    68.13598    54.17327   174.95617
   106  H   1.0    0.05    1.02    1.43    64.84560    53.50527   175.32244
   107  N   5.0   -0.18    3.25    1.97    88.13446    63.72633   172.69896
   108  C   4.0    0.04    4.23    4.07    85.92051    63.39052   174.26549
   109  C   4.0    0.09    3.21    3.04    86.67921    63.32650   177.05446
   110  O   6.0   -0.25    1.12    1.80    88.29451    61.87823   177.87005
   111  C   4.0   -0.03    4.34    4.28    84.58720    60.90676   173.61014
   112  C   4.0   -0.01    3.57    3.15    83.54673    60.94991   170.97954
   113  C   4.0   -0.03    3.47    3.10    81.03402    61.56818   170.55247
   114  C   4.0   -0.03    3.48    3.11    85.07648    60.39704   168.92699
   115  C   4.0   -0.04    3.38    3.07    80.05936    61.61467   168.12874
   116  C   4.0   -0.04    3.38    3.07    84.11386    60.48239   166.49930
   117  C   4.0   -0.04    3.38    3.07    81.60571    61.09096   166.08648
   118  H   1.0    0.13    1.07    1.44    89.17799    62.17180   172.30777
   119  H   1.0    0.05    1.05    1.44    84.67052    65.00031   173.91480
   120  H   1.0    0.06    1.03    1.43    85.93987    59.36226   173.83330
   121  H   1.0    0.05    1.03    1.43    83.06324    60.60077   174.96725
   122  H   1.0    0.06    1.03    1.43    79.83058    61.96922   172.15083
   123  H   1.0    0.06    1.03    1.43    87.02697    59.86760   169.21406
   124  H   1.0    0.06    1.03    1.43    78.08380    62.03989   167.84338
   125  H   1.0    0.05    1.03    1.43    85.35312    60.04468   164.93993
   126  H   1.0    0.05    1.03    1.43    80.87299    61.11528   164.18396
   127  N   5.0   -0.17    3.26    1.97    91.27671    56.13993   174.74350
   128  C   4.0    0.03    4.23    4.05    91.42677    55.24781   172.16664
   129  C   4.0    0.09    3.21    3.04    91.72684    57.49446   170.37944
   130  O   6.0   -0.29    1.20    1.80    91.20448    59.65445   171.07268
   131  C   4.0   -0.04    4.28    4.16    89.02548    53.79292   171.49824
   132  C   4.0   -0.02    4.19    3.97    88.67189    51.47602   173.16637
   133  C   4.0    0.26    3.10    3.02    85.85845    50.63742   173.24763
   134  O   6.0   -0.30    1.24    1.80    84.24057    52.36506   173.53162
   135  O   6.0   -0.26    1.16    1.80    85.39635    48.35122   173.08345
   136  H   1.0    0.10    1.03    1.43    89.55498    56.62137   175.41689
   137  H   1.0    0.05    1.05    1.44    93.09826    54.03980   171.99312
   138  H   1.0    0.06    1.03    1.43    87.39963    55.04927   171.74444
   139  H   1.0    0.05    1.03    1.43    89.10748    53.22469   169.51896
   140  H   1.0    0.06    1.02    1.43    89.79822    49.89821   172.47835
   141  H   1.0    0.06    1.03    1.43    89.23601    51.91020   175.10700
   142  N   5.0   -0.18    3.23    1.96    89.99732    59.31413   162.20430
   143  C   4.0    0.03    4.13    3.87    88.80344    58.66204   159.82754
   144  C   4.0    0.08    3.22    3.04    88.91574    60.98740   158.11945
   145  O   6.0   -0.27    1.15    1.80    89.77057    63.00360   158.87128
   146  C   4.0   -0.08    4.09    3.79    86.05668    57.81507   160.19471
   147  H   1.0    0.11    1.04    1.43    90.21418    61.18643   162.58186
   148  H   1.0    0.05    1.05    1.44    89.88165    57.10277   158.98432
   149  H   1.0    0.04    1.00    1.43    85.29215    56.98701   158.47868
   150  H   1.0    0.04    1.00    1.43    85.97966    56.37113   161.65692
   151  H   1.0    0.04    1.00    1.43    84.86785    59.39197   160.75839
   152  N   5.0   -0.18    3.23    1.96    84.06205    65.29808   153.48009
   153  C   4.0    0.03    4.22    4.04    81.42693    65.76096   152.92968
   154  C   4.0    0.09    3.21    3.04    81.11653    68.15595   151.36131
   155  O   6.0   -0.25    1.13    1.80    82.60838    69.91695   151.44453
   156  C   4.0   -0.05    4.36    4.30    79.87121    66.04820   155.35904
   157  C   4.0   -0.02    4.19    3.97    79.89463    63.69648   157.04097
   158  C   4.0   -0.07    4.11    3.83    78.55039    64.33408   159.51066
   159  C   4.0   -0.07    4.10    3.80    78.64442    61.42660   155.76934
   160  H   1.0    0.11    1.02    1.43    85.07650    66.68976   154.31006
   161  H   1.0    0.04    1.05    1.44    80.75088    64.12025   151.87322
   162  H   1.0    0.05    1.03    1.43    80.62564    67.64619   156.42535
   163  H   1.0    0.05    1.03    1.43    77.91935    66.49953   154.86467
   164  H   1.0    0.04    1.05    1.44    81.85992    63.21270   157.48680
   165  H   1.0    0.04    1.00    1.43    78.67469    62.75126   160.81487
   166  H   1.0    0.04    1.00    1.43    79.40150    65.98236   160.39876
   167  H   1.0    0.05    1.00    1.43    76.55961    64.72614   159.17124
   168  H   1.0    0.04    1.00    1.43    78.56347    59.85819   157.09397
   169  H   1.0    0.05    1.00    1.43    76.72842    61.90191   155.19321
   170  H   1.0    0.04    1.00    1.43    79.73006    60.80930   154.14258
   171  O   6.0   -0.29    1.92    1.82    79.80599    52.63188   170.82757
   172  H   1.0    0.17    1.02    1.43    81.42268    52.37764   171.68553
   173  H   1.0    0.13    0.97    1.43    78.77059    53.43728   172.08228
   174  H   1.0    0.10    1.07    1.44    74.46751    70.75857   168.27699
   175  H   1.0    0.06    1.04    1.44    66.70778    48.70748   162.93913
   176  H   1.0    0.10    1.09    1.44    67.98239    49.44870   167.84639
   177  H   1.0    0.06    1.05    1.44    65.74511    62.07882   170.97141
   178  H   1.0    0.10    1.08    1.44    87.67040    64.35062   171.18653
   179  H   1.0    0.07    1.05    1.44    85.84876    64.49407   178.28661
   180  H   1.0    0.10    1.07    1.44    91.84590    54.93180   175.79660
   181  H   1.0    0.06    1.04    1.43    92.35542    57.22328   168.61807
   182  H   1.0    0.09    1.08    1.44    89.07768    58.68996   163.49163
   183  H   1.0    0.06    1.05    1.44    88.28244    60.88557   156.34192
   184  H   1.0    0.09    1.08    1.44    84.19692    63.97238   154.53691
   185  H   1.0    0.06    1.05    1.44    79.63922    68.33813   150.19708

  Z AO/shell   Hii/eV     exponent
  1     Wed Apr 25 08:07:45 CEST 2018   EN: 2.200 GM2: 0.406  GM3: 0.0800  RAES: 1.40
     1s    -10.707211    1.230000
  6     Wed Apr 25 08:07:45 CEST 2018   EN: 2.550 GM2: 0.538  GM3: 0.1500  RAES: 3.00
     2s    -13.970922    2.096432
     2p    -10.063292    1.800000
  7     Wed Apr 25 08:07:45 CEST 2018   EN: 3.040 GM2: 0.461  GM3:-0.0640  RAES: 1.90
     2s    -16.686243    2.339881
     2p    -12.523956    2.014332
  8     Wed Apr 25 08:07:45 CEST 2018   EN: 3.440 GM2: 0.452  GM3:-0.0517  RAES: 1.80
     2s    -20.229985    2.439742
     2p    -15.503117    2.137023
 16     Tue Apr 24 11:44:34 CEST 2018   EN: 2.580 GM2: 0.340  GM3:-0.0502  RAES: 3.10
     3s    -20.029654    1.981333
     3p    -11.377694    2.025643
     3d     -0.420282    1.702555
 no old-style atom pair restraining (fixing) potential

molecular fragmentation (1/2 indicates fragments):
111111111111111111111111111111111111111111111111111111111111111111111112
222222222222222222222222222222222222222222222222222222222222222222222222
22222222222222222222222222222112222222222
# atoms in fragment 1/2:    73   112
 fragment masses (1/2) :      462.65      747.91
CMA distance (Bohr)    :  11.314
constraining FC (au)   :  0.0500
           ------------------------------------------------- 
          |        Self-Consistent Charge Iterations        |
           ------------------------------------------------- 

 Ncao       : 443
 Nao        : 442
 Nshell     : 270
 Nel        : 478
 T(el)      :   500.0
 intcut     :    35.0
 scfconv/Eh :  0.100E-06
   qconv/e  :  0.100E-04
 intneglect :  0.100E-08
 broydamp   :      0.400
 iter      E             dE          RMSdq      gap      omega  full diag
   1   -271.1766986 -0.271177E+03  0.462E+00    2.87       0.0  T
   2   -271.7677874 -0.591089E+00  0.225E+00    1.76       1.0  T
   3   -271.8035503 -0.357629E-01  0.125E+00    2.10       1.0  T
   4   -271.8527165 -0.491662E-01  0.292E-01    1.69       1.0  T
   5   -271.8551333 -0.241685E-02  0.145E-01    1.89       1.0  T
   6   -271.8557342 -0.600842E-03  0.717E-02    1.91       1.0  T
   7   -271.8558722 -0.138066E-03  0.352E-02    1.90       1.0  T
   8   -271.8559108 -0.385671E-04  0.165E-02    1.90       1.0  T
   9   -271.8559186 -0.776262E-05  0.793E-03    1.89       1.0  T
  10   -271.8559202 -0.165795E-05  0.343E-03    1.89       2.1  T
  11   -271.8559206 -0.335824E-06  0.153E-03    1.89       4.8  T
  12   -271.8559206 -0.583373E-07  0.616E-04    1.89      11.9  T
  13   -271.8559206 -0.168232E-07  0.308E-04    1.89      23.8  T
  14   -271.8559206 -0.315549E-08  0.996E-05    1.89      73.8  T
  15   -271.8559206 -0.501814E-09  0.453E-05    1.89     162.4  T
speedup  1.56
cpu  time for SCC    3.75 s
wall time for SCC    2.40 s

   *** convergence criteria satisfied after 15 iterations ***

          eigenvalues
 #    :         227        228        229        230        231        232        233        234
 occ. :        2.000      2.000      2.000      2.000      2.000      2.000      2.000      2.000
 eps  :       -10.925    -10.895    -10.773    -10.562    -10.467    -10.268    -10.091    -10.065
 #    :         235        236        237        238        239        240        241        242
 occ. :        2.000      2.000      2.000      2.000      2.000      0.000      0.000      0.000
 eps  :       -10.010    -10.009     -9.971     -9.852     -9.828     -7.935     -7.851     -7.831
 #    :         243        244        245        246        247        248        249        250
 occ. :        0.000      0.000      0.000      0.000      0.000      0.000      0.000      0.000
 eps  :        -7.813     -7.753     -7.567     -6.524     -6.269     -6.238     -6.199     -6.169


   #   Z            q   n(s)   n(p)   n(d)      C6AA      α(0)
   1   7 N     -0.389  1.317  4.072  0.000    30.070     8.144
   2   6 C      0.034  1.058  2.908  0.000    20.013     6.372
   3   6 C      0.272  1.045  2.683  0.000    22.397     7.750
   4   8 O     -0.502  1.755  4.747  0.000    23.824     6.544
   5   6 C     -0.114  1.040  3.073  0.000    22.726     6.797
   6   1 H      0.152  0.848  0.000  0.000     1.388     1.846
   7   1 H      0.042  0.958  0.000  0.000     2.428     2.437
   8   1 H      0.041  0.959  0.000  0.000     2.434     2.440
   9   1 H      0.042  0.958  0.000  0.000     2.423     2.434
  10   1 H      0.040  0.960  0.000  0.000     2.452     2.449
  11   7 N     -0.171  1.244  3.927  0.000    24.710     7.383
  12   6 C      0.015  1.062  2.923  0.000    20.324     6.419
  13   6 C      0.272  1.044  2.685  0.000    22.410     7.752
  14   8 O     -0.471  1.745  4.726  0.000    23.160     6.452
  15   6 C     -0.080  1.057  3.023  0.000    22.021     6.680
  16   6 C     -0.085  1.053  3.032  0.000    22.125     6.697
  17   6 C     -0.094  1.052  3.042  0.000    22.292     6.722
  18   6 C     -0.046  1.056  2.989  0.000    21.488     6.617
  19   7 N     -0.155  1.236  3.920  0.000    24.348     7.329
  20   1 H      0.206  0.794  0.000  0.000     1.075     1.624
  21   1 H      0.073  0.927  0.000  0.000     2.055     2.242
  22   1 H      0.066  0.934  0.000  0.000     2.125     2.280
  23   1 H      0.063  0.937  0.000  0.000     2.166     2.301
  24   1 H      0.083  0.917  0.000  0.000     1.951     2.184
  25   1 H      0.056  0.944  0.000  0.000     2.248     2.344
  26   1 H      0.065  0.935  0.000  0.000     2.136     2.286
  27   1 H      0.078  0.922  0.000  0.000     1.997     2.210
  28   1 H      0.109  0.891  0.000  0.000     1.706     2.042
  29   1 H      0.121  0.879  0.000  0.000     1.605     1.981
  30   1 H      0.294  0.706  0.000  0.000     0.730     1.339
  31   1 H      0.272  0.728  0.000  0.000     0.804     1.404
  32   1 H      0.306  0.694  0.000  0.000     0.695     1.306
  33   7 N     -0.171  1.235  3.935  0.000    24.695     7.381
  34   6 C      0.009  1.063  2.928  0.000    20.429     6.436
  35   6 C      0.257  1.044  2.699  0.000    22.672     7.798
  36   8 O     -0.469  1.731  4.737  0.000    23.100     6.444
  37   6 C     -0.062  1.052  3.010  0.000    21.663     6.622
  38   6 C     -0.009  1.062  2.946  0.000    20.735     6.484
  39  16 S     -0.212  1.908  4.253  0.052   150.105    20.621
  40   6 C     -0.037  1.046  2.990  0.000    21.303     6.584
  41   1 H      0.210  0.790  0.000  0.000     1.055     1.609
  42   1 H      0.097  0.903  0.000  0.000     1.811     2.104
  43   1 H      0.038  0.962  0.000  0.000     2.475     2.460
  44   1 H      0.071  0.929  0.000  0.000     2.075     2.253
  45   1 H      0.088  0.912  0.000  0.000     1.894     2.152
  46   1 H      0.033  0.967  0.000  0.000     2.541     2.493
  47   1 H      0.032  0.968  0.000  0.000     2.559     2.502
  48   1 H      0.034  0.966  0.000  0.000     2.527     2.486
  49   1 H      0.046  0.954  0.000  0.000     2.366     2.405
  50   7 N     -0.154  1.241  3.913  0.000    24.322     7.325
  51   6 C      0.014  1.067  2.919  0.000    20.344     6.422
  52   6 C      0.202  1.084  2.714  0.000    23.701     7.973
  53   8 O     -0.367  1.765  4.602  0.000    21.040     6.150
  54   6 C     -0.078  1.054  3.023  0.000    21.978     6.674
  55   6 C     -0.087  1.055  3.032  0.000    22.158     6.701
  56   6 C     -0.094  1.053  3.040  0.000    22.284     6.721
  57   6 C     -0.053  1.060  2.993  0.000    21.619     6.637
  58   7 N     -0.147  1.229  3.918  0.000    24.172     7.302
  59   1 H      0.221  0.779  0.000  0.000     1.004     1.569
  60   1 H      0.105  0.895  0.000  0.000     1.745     2.066
  61   1 H      0.069  0.931  0.000  0.000     2.095     2.263
  62   1 H      0.073  0.927  0.000  0.000     2.054     2.241
  63   1 H      0.077  0.923  0.000  0.000     2.006     2.215
  64   1 H      0.070  0.930  0.000  0.000     2.082     2.256
  65   1 H      0.075  0.925  0.000  0.000     2.036     2.231
  66   1 H      0.078  0.922  0.000  0.000     2.001     2.212
  67   1 H      0.122  0.878  0.000  0.000     1.595     1.975
  68   1 H      0.121  0.879  0.000  0.000     1.609     1.984
  69   1 H      0.299  0.701  0.000  0.000     0.715     1.325
  70   1 H      0.294  0.706  0.000  0.000     0.731     1.339
  71   1 H      0.296  0.704  0.000  0.000     0.726     1.335
  72   7 N     -0.378  1.308  4.070  0.000    29.768     8.103
  73   6 C      0.034  1.057  2.909  0.000    20.008     6.371
  74   6 C      0.256  1.048  2.696  0.000    22.693     7.802
  75   8 O     -0.472  1.708  4.765  0.000    23.179     6.455
  76   6 C     -0.061  1.052  3.009  0.000    21.670     6.626
  77   6 C     -0.001  1.078  2.923  0.000    28.042     8.686
  78   6 C     -0.038  1.079  2.959  0.000    28.949     8.823
  79   6 C     -0.043  1.081  2.962  0.000    29.067     8.841
  80   6 C     -0.059  1.076  2.983  0.000    29.463     8.901
  81   6 C     -0.073  1.078  2.995  0.000    29.826     8.956
  82   6 C      0.143  1.047  2.810  0.000    24.887     8.176
  83   8 O     -0.441  1.719  4.721  0.000    21.650     6.281
  84   1 H      0.179  0.821  0.000  0.000     1.217     1.728
  85   1 H      0.040  0.960  0.000  0.000     2.451     2.448
  86   1 H      0.039  0.961  0.000  0.000     2.465     2.455
  87   1 H      0.025  0.975  0.000  0.000     2.653     2.547
  88   1 H      0.045  0.955  0.000  0.000     2.380     2.412
  89   1 H      0.032  0.968  0.000  0.000     2.554     2.499
  90   1 H      0.053  0.947  0.000  0.000     2.287     2.365
  91   1 H      0.024  0.976  0.000  0.000     2.666     2.553
  92   1 H      0.339  0.661  0.000  0.000     0.614     1.231
  93   7 N     -0.066  1.225  3.842  0.000    22.527     7.049
  94   6 C      0.015  1.068  2.917  0.000    20.293     6.409
  95   6 C      0.206  1.081  2.713  0.000    23.626     7.960
  96   8 O     -0.370  1.767  4.603  0.000    21.096     6.158
  97   6 C     -0.074  1.056  3.018  0.000    21.884     6.655
  98   6 C     -0.067  1.047  3.020  0.000    21.758     6.636
  99   6 C     -0.010  1.051  2.960  0.000    20.795     6.499
 100   1 H      0.112  0.888  0.000  0.000     1.676     2.025
 101   1 H      0.069  0.931  0.000  0.000     2.091     2.261
 102   1 H      0.089  0.911  0.000  0.000     1.893     2.152
 103   1 H      0.048  0.952  0.000  0.000     2.345     2.395
 104   1 H      0.065  0.935  0.000  0.000     2.140     2.288
 105   1 H      0.053  0.947  0.000  0.000     2.288     2.365
 106   1 H      0.072  0.928  0.000  0.000     2.064     2.247
 107   7 N     -0.395  1.315  4.080  0.000    30.221     8.165
 108   6 C      0.048  1.055  2.897  0.000    19.785     6.336
 109   6 C      0.199  1.089  2.712  0.000    23.759     7.983
 110   8 O     -0.369  1.762  4.607  0.000    21.069     6.154
 111   6 C     -0.055  1.050  3.005  0.000    21.545     6.606
 112   6 C      0.014  1.081  2.905  0.000    27.698     8.633
 113   6 C     -0.041  1.081  2.961  0.000    29.026     8.835
 114   6 C     -0.038  1.078  2.960  0.000    28.949     8.824
 115   6 C     -0.031  1.078  2.953  0.000    28.768     8.796
 116   6 C     -0.035  1.081  2.955  0.000    28.879     8.813
 117   6 C     -0.031  1.077  2.955  0.000    28.785     8.798
 118   1 H      0.187  0.813  0.000  0.000     1.173     1.697
 119   1 H      0.048  0.952  0.000  0.000     2.342     2.393
 120   1 H      0.033  0.967  0.000  0.000     2.538     2.492
 121   1 H      0.029  0.971  0.000  0.000     2.604     2.523
 122   1 H      0.030  0.970  0.000  0.000     2.590     2.517
 123   1 H      0.021  0.979  0.000  0.000     2.725     2.582
 124   1 H      0.040  0.960  0.000  0.000     2.455     2.450
 125   1 H      0.036  0.964  0.000  0.000     2.508     2.477
 126   1 H      0.043  0.957  0.000  0.000     2.405     2.425
 127   7 N     -0.366  1.302  4.064  0.000    29.442     8.059
 128   6 C      0.042  1.055  2.903  0.000    19.884     6.352
 129   6 C      0.193  1.090  2.717  0.000    23.869     8.001
 130   8 O     -0.359  1.749  4.610  0.000    20.876     6.126
 131   6 C     -0.042  1.049  2.992  0.000    21.311     6.571
 132   6 C     -0.087  1.064  3.023  0.000    22.170     6.704
 133   6 C      0.371  1.026  2.604  0.000    20.719     7.449
 134   8 O     -0.646  1.772  4.874  0.000    27.267     7.001
 135   8 O     -0.628  1.771  4.857  0.000    26.826     6.944
 136   1 H      0.148  0.852  0.000  0.000     1.414     1.862
 137   1 H      0.061  0.939  0.000  0.000     2.188     2.313
 138   1 H      0.036  0.964  0.000  0.000     2.497     2.471
 139   1 H      0.027  0.973  0.000  0.000     2.626     2.534
 140   1 H      0.022  0.978  0.000  0.000     2.699     2.569
 141   1 H      0.027  0.973  0.000  0.000     2.637     2.539
 142   7 N     -0.388  1.315  4.073  0.000    30.033     8.139
 143   6 C      0.039  1.055  2.905  0.000    19.936     6.361
 144   6 C      0.199  1.085  2.716  0.000    23.759     7.983
 145   8 O     -0.382  1.762  4.620  0.000    21.326     6.191
 146   6 C     -0.115  1.042  3.074  0.000    22.765     6.803
 147   1 H      0.164  0.836  0.000  0.000     1.308     1.792
 148   1 H      0.077  0.923  0.000  0.000     2.011     2.218
 149   1 H      0.070  0.930  0.000  0.000     2.090     2.261
 150   1 H      0.051  0.949  0.000  0.000     2.306     2.375
 151   1 H      0.050  0.950  0.000  0.000     2.314     2.379
 152   7 N     -0.378  1.309  4.070  0.000    29.774     8.104
 153   6 C      0.036  1.057  2.908  0.000    19.988     6.368
 154   6 C      0.200  1.084  2.716  0.000    23.747     7.981
 155   8 O     -0.388  1.762  4.626  0.000    21.441     6.208
 156   6 C     -0.067  1.059  3.008  0.000    21.776     6.642
 157   6 C     -0.004  1.055  2.949  0.000    20.622     6.459
 158   6 C     -0.105  1.040  3.065  0.000    22.560     6.772
 159   6 C     -0.123  1.041  3.082  0.000    22.924     6.827
 160   1 H      0.151  0.849  0.000  0.000     1.394     1.849
 161   1 H      0.076  0.924  0.000  0.000     2.016     2.221
 162   1 H      0.032  0.968  0.000  0.000     2.554     2.499
 163   1 H      0.049  0.951  0.000  0.000     2.326     2.385
 164   1 H      0.020  0.980  0.000  0.000     2.731     2.585
 165   1 H      0.032  0.968  0.000  0.000     2.564     2.504
 166   1 H      0.025  0.975  0.000  0.000     2.655     2.548
 167   1 H      0.050  0.950  0.000  0.000     2.317     2.380
 168   1 H      0.051  0.949  0.000  0.000     2.306     2.375
 169   1 H      0.058  0.942  0.000  0.000     2.223     2.332
 170   1 H      0.046  0.954  0.000  0.000     2.376     2.411
 171   8 O     -0.646  1.763  4.883  0.000    26.326     6.925
 172   1 H      0.300  0.700  0.000  0.000     0.722     1.335
 173   1 H      0.312  0.688  0.000  0.000     0.686     1.301
 174   1 H      0.183  0.817  0.000  0.000     1.199     1.715
 175   1 H      0.085  0.915  0.000  0.000     1.926     2.170
 176   1 H      0.166  0.834  0.000  0.000     1.297     1.784
 177   1 H      0.084  0.916  0.000  0.000     1.936     2.176
 178   1 H      0.180  0.820  0.000  0.000     1.214     1.725
 179   1 H      0.072  0.928  0.000  0.000     2.066     2.248
 180   1 H      0.176  0.824  0.000  0.000     1.235     1.740
 181   1 H      0.074  0.926  0.000  0.000     2.046     2.237
 182   1 H      0.166  0.834  0.000  0.000     1.297     1.784
 183   1 H      0.071  0.929  0.000  0.000     2.075     2.252
 184   1 H      0.174  0.826  0.000  0.000     1.246     1.749
 185   1 H      0.069  0.931  0.000  0.000     2.092     2.262

 Mol. C6AA /au·bohr⁶  :     306306.839519
 Mol. C8AA /au·bohr⁸  :    6919797.153853
 Mol. α(0) /au        :        836.263815

 
molecular dipole:
                 x           y           z       tot (Debye)
 q only:       38.674      53.432     138.840
   full:       39.883      52.763     140.593     394.928
molecular quadrupole (traceless):
                xx          xy          yy          xz          yz          zz
 q only:   -10523.345    3001.663   -6766.450    6755.763   11243.844   17289.795
  q+dip:   -10628.591    3011.573   -7205.872    7260.709   11217.030   17834.463
   full:   -10627.700    3013.476   -7205.042    7261.287   11218.373   17832.742
speedup  1.54
cpu  time for grad    5.05 s
wall time for grad    3.27 s

SCC energy    :    -271.8679614
rep           :       3.5498099
ES            :       0.9185721
AES           :      -0.0499365
AXC           :       0.1191444
disp          :      -0.1955710
XB            :       0.0000000
fix           :       0.0000000
Gborn         :       0.0000000
Gsasa         :       0.0000000
Ghb           :       0.0000000
Gshift        :       0.0000000
Gsolv         :      -0.3696361     -231.95
Etot ala COSMO:    -271.8679614
grad norm     :       0.5472581
total E       :    -268.3075222
atomizationE  :      49.8277746    31267.40
(atE without considering molecular charge,
 total energy contains solvation terms)
H-L gap (eV)  :          1.8923

------------------------------------------------------------------------
 * finished run on 2019/05/09 at 22:30:45.906     
------------------------------------------------------------------------
 total:
 * wall-time:     0 d,  0 h,  0 min,  3.885 sec
 *  cpu-time:     0 d,  0 h,  0 min,  5.566 sec
 * ratio c/w:     1.433 speedup
 SCF:
 * wall-time:     0 d,  0 h,  0 min,  3.506 sec
 *  cpu-time:     0 d,  0 h,  0 min,  5.406 sec
 * ratio c/w:     1.542 speedup

