      -----------------------------------------------------------      
     |                   =====================                   |     
     |                           x T B                           |     
     |                   =====================                   |     
     |                         S. Grimme                         |     
     |          Mulliken Center for Theoretical Chemistry        |     
     |                    University of Bonn                     |     
     |                 Version 6.0.1 (SAW181210)                 |     
      -----------------------------------------------------------      

   This program is distributed in the hope that it will be useful,
   but WITHOUT ANY WARRANTY; without even the implied warranty of
   MERCHANTABILITY or FITNESS FOR A PARTICULAR PURPOSE.
   
   FOR NON-COMMERCIAL, ACADEMIA USE ONLY.
   
   Cite this work as:
   S. Grimme, C. Bannwarth, P. Shushkov, J. Comput. Theory Chem., 2017,
   13, 1989-2009.
   C. Bannwarth, S. Ehlert and S. Grimme., ChemRxiv, 2018, preprint.
   http://doi.org/10.26434/chemrxiv.7246238.v1
   
   for sTDA-xTB:
   S. Grimme and C. Bannwarth, J. Chem. Phys., 2016, 145, 054103.
   
   in the mass-spec context:
   V. Asgeirsson, C. Bauer and S. Grimme, Chem. Sci., 2017, 8, 4879.
   
   if GBSA is used:
   P. Shushkov, F. März and S. Grimme, unpublished.
   
   for ANC optimizer:
   S. Grimme, unpublished.
   Rational Function algorithm used in ANCopt:
   F. Eckert, P. Pulay, H.-J. Werner, J. Comput. Chem., 1997, 18, 1473.
   
   with help from (in alphabetical order)
   C. Bannwarth, F. Bohle, G. Brandenburg, E. Caldeweyher, M. Checinski,
   S. Dohm, S. Ehlert, S. Ehrlich, F. März, H. Neugebauer, J. Pisarek,
   P. Pracht, P. Shushkov, and S. Spicher.
   
 * started run on 2019/05/05 at 18:41:04.900     
========================================================================
 # omp threads = 2
========================================================================
number of atoms            : 276
number of electrons        : 790
charge                     : -2
spin                       : .0
first test random number   : .6694

########################################################################
# WARNING! Please study the warnings concerning your input carefully
#  - Process number higher than OMP_NUM_THREADS, I hope you know what you are doing.
########################################################################

           ------------------------------------------------- 
          |                 G F N 2 - x T B                 |
          | Geometry, Frequencies, Noncovalent interactions |
          |            JCTC 2018 parametrisation            |
           ------------------------------------------------- 
 
      method parameters     
 k(s)        :  1.8500
 k(p)        :  2.2300
 k(d)        :  2.2300
 k(f)        :  2.0000
 kEN (H0ij)  : -2.0000
 D4 a1       :  0.5200
 D4 a2       :  5.0000
 D4 s6       :  1.0000
 D4 s8       :  2.7000
 D4 s9       :  5.0000
 alphaj      :  2.0000

 Solvent             : h2o
 Using internal parameter file: .param_gbsa2_h2o
 Gsolv ref. state (COSMO-RS): gsolv [1 M gas/solution]
 temperature (mdtemp)       :    298.150000000000     
 dielectric constant        :    80.2000000000000     
 rho                        :    1.00000000000000     
 mass                       :    18.0000000000000     
 surface tension            :    15.5689454083859     
 probe radius               :   0.975313790000000     
 vdW radii scaling          :    1.00000000000000     
 Gshift (Eh)                :   1.857443126794793E-003
 c1                         :    1.55243817000000     
 soset                      :   0.130326360000000     
 HB correction              :  T

            Z     q(EN)     CN     RAES       Cart. coordinates
     1  N   5.0   -0.15    3.47    2.06    -0.67438    45.31206    18.03443
     2  C   4.0    0.03    4.50    4.53     0.57908    43.94041    20.06404
     3  C   4.0    0.14    3.43    3.09    -0.36657    41.23075    20.27103
     4  O   6.0   -0.31    1.25    1.80    -2.66262    40.79594    19.64790
     5  C   4.0   -0.04    4.38    4.34    -0.18581    45.46582    22.43130
     6  C   4.0   -0.05    4.31    4.21    -0.84413    47.95509    21.48973
     7  C   4.0   -0.02    4.30    4.19    -2.07064    47.50905    18.95945
     8  H   1.0    0.03    1.05    1.44     2.60336    43.96305    19.78790
     9  H   1.0    0.05    1.03    1.43    -1.78947    44.54441    23.35572
    10  H   1.0    0.04    1.01    1.43     1.41594    45.51662    23.78889
    11  H   1.0    0.03    1.01    1.43    -2.17265    48.96649    22.77672
    12  H   1.0    0.03    1.02    1.43     0.82965    49.19257    21.26472
    13  H   1.0    0.03    1.02    1.43    -4.07355    47.08836    19.15745
    14  H   1.0    0.02    1.02    1.43    -1.81977    49.12897    17.69284
    15  N   5.0   -0.14    3.42    2.03     1.10151    39.55760    21.04718
    16  C   4.0    0.04    4.50    4.53     0.26951    36.93091    21.41843
    17  C   4.0    0.16    3.55    3.14    -1.05866    36.44490    23.93223
    18  O   6.0   -0.28    1.26    1.80     0.02960    37.07742    25.95752
    19  C   4.0   -0.03    4.34    4.28     2.34347    35.02945    21.15293
    20  C   4.0    0.14    3.34    3.06     1.67454    32.58367    22.40934
    21  O   6.0   -0.32    1.28    1.80    -0.58613    31.63068    22.07410
    22  N   5.0   -0.18    3.19    1.95     3.28851    31.54094    23.79168
    23  H   1.0    0.11    1.09    1.44     3.00395    39.85980    21.55850
    24  H   1.0    0.05    1.08    1.44    -1.20156    36.66818    19.94088
    25  H   1.0    0.05    1.03    1.43     2.78229    34.72245    19.15359
    26  H   1.0    0.06    1.02    1.43     4.07921    35.76381    22.09411
    27  H   1.0    0.09    1.02    1.43     3.02749    29.81308    24.63708
    28  H   1.0    0.09    1.03    1.43     5.08071    32.30802    24.05491
    29  N   5.0   -0.13    3.50    2.08    -3.18355    35.32390    23.89984
    30  C   4.0    0.03    4.35    4.29    -4.81604    35.12249    26.12981
    31  C   4.0    0.15    3.44    3.09    -3.41150    33.69584    28.25550
    32  O   6.0   -0.28    1.21    1.80    -3.38714    34.71215    30.48118
    33  C   4.0   -0.09    4.10    3.80    -7.29246    33.80406    25.43841
    34  H   1.0    0.08    1.06    1.44    -3.95314    34.52123    22.26855
    35  H   1.0    0.05    1.05    1.44    -5.23639    37.03214    26.78222
    36  H   1.0    0.03    1.01    1.43    -8.46599    33.65582    27.09800
    37  H   1.0    0.03    1.00    1.43    -8.29133    34.90789    24.01248
    38  H   1.0    0.04    1.00    1.43    -6.91708    31.91692    24.70141
    39  N   5.0   -0.14    3.46    2.05    -2.50153    31.60028    27.77285
    40  C   4.0    0.03    4.32    4.24    -1.61487    29.78393    29.71941
    41  C   4.0    0.15    3.38    3.07     0.88830    30.61305    30.95501
    42  O   6.0   -0.29    1.24    1.80     1.50109    29.50193    33.02802
    43  C   4.0   -0.08    4.07    3.75    -1.46519    27.09413    28.63492
    44  H   1.0    0.09    1.06    1.44    -2.23908    30.90953    25.92906
    45  H   1.0    0.05    1.06    1.44    -3.02527    29.80393    31.22253
    46  H   1.0    0.04    1.00    1.43    -0.83250    25.81300    30.08978
    47  H   1.0    0.03    1.00    1.43    -3.33247    26.51110    27.98791
    48  H   1.0    0.04    1.00    1.43    -0.15165    27.02873    27.04942
    49  N   5.0   -0.13    3.40    2.02     2.28895    32.24740    29.86167
    50  C   4.0    0.04    4.38    4.35     4.98754    32.74925    30.46123
    51  C   4.0    0.16    3.50    3.11     5.50985    32.66810    33.29827
    52  O   6.0   -0.27    1.23    1.80     4.47522    34.42597    34.73587
    53  C   4.0   -0.02    4.27    4.14     5.94503    35.22484    29.25524
    54  C   4.0   -0.01    3.52    3.13     8.61708    35.97372    30.07554
    55  C   4.0   -0.04    3.46    3.10     9.02547    38.21452    31.36914
    56  C   4.0   -0.03    3.46    3.10    10.66391    34.45932    29.48953
    57  C   4.0   -0.04    3.44    3.09    11.51403    38.91641    32.13110
    58  C   4.0   -0.03    3.46    3.10    13.13614    35.21185    30.22731
    59  C   4.0    0.06    3.45    3.10    13.46508    37.36715    31.54750
    60  O   6.0   -0.26    2.14    1.84    15.92114    38.08432    32.23732
    61  H   1.0    0.10    1.07    1.44     1.61017    33.35983    28.39823
    62  H   1.0    0.04    1.06    1.44     6.07332    31.15434    29.66523
    63  H   1.0    0.06    1.03    1.43     5.92693    34.99198    27.21718
    64  H   1.0    0.06    1.02    1.43     4.63557    36.74961    29.77942
    65  H   1.0    0.06    1.03    1.43     7.47910    39.41173    31.84271
    66  H   1.0    0.06    1.03    1.43    10.42066    32.72746    28.47288
    67  H   1.0    0.06    1.03    1.43    11.75974    40.65456    33.16554
    68  H   1.0    0.08    1.05    1.44    14.68021    33.95730    29.76678
    69  H   1.0    0.16    1.10    1.44    15.83401    39.40950    33.47692
    70  N   5.0   -0.14    3.44    2.04     6.97251    31.12179    34.13704
    71  C   4.0    0.05    4.47    4.50     7.75297    31.00495    36.79436
    72  C   4.0    0.15    3.41    3.08    10.52102    30.28801    37.11274
    73  O   6.0   -0.28    1.25    1.80    11.07143    28.13324    38.07977
    74  C   4.0   -0.02    4.32    4.24     5.98246    29.34834    38.36113
    75  C   4.0    0.15    3.23    3.04     5.49638    30.35419    40.98420
    76  O   6.0   -0.28    1.22    1.80     6.53741    32.49521    41.62898
    77  N   5.0   -0.19    3.18    1.95     4.14258    29.10461    42.44133
    78  H   1.0    0.08    1.04    1.43     7.73644    29.59116    33.07567
    79  H   1.0    0.08    1.08    1.44     7.60230    32.99251    37.43666
    80  H   1.0    0.06    1.03    1.43     4.15747    29.18115    37.38307
    81  H   1.0    0.06    1.04    1.43     6.83533    27.46594    38.54753
    82  H   1.0    0.08    1.03    1.43     3.70587    29.65255    44.25113
    83  H   1.0    0.07    1.02    1.43     3.32486    27.38590    41.88413
    84  N   5.0   -0.11    3.53    2.10    12.19377    31.88670    36.50525
    85  C   4.0    0.04    4.48    4.50    14.86107    31.68671    37.19442
    86  C   4.0    0.14    3.47    3.10    15.58390    33.94229    38.79522
    87  O   6.0   -0.26    1.27    1.80    13.80352    35.51217    39.38833
    88  C   4.0   -0.03    4.28    4.17    16.50417    31.57137    34.81812
    89  C   4.0    0.24    3.15    3.03    15.42091    29.80244    32.83026
    90  O   6.0   -0.28    1.18    1.80    14.36603    27.76041    33.62909
    91  O   6.0   -0.31    1.19    1.80    15.66910    30.41062    30.54519
    92  H   1.0    0.09    1.06    1.44    11.77995    33.51022    35.51497
    93  H   1.0    0.06    1.07    1.44    15.08170    29.93758    38.24785
    94  H   1.0    0.06    1.02    1.43    16.64541    33.48843    34.01316
    95  H   1.0    0.04    1.02    1.43    18.39632    30.90447    35.35868
    96  N   5.0   -0.15    3.55    2.11    17.78676    34.19485    39.49288
    97  C   4.0    0.03    4.54    4.60    18.55680    36.02712    41.43233
    98  C   4.0    0.15    3.47    3.10    18.73299    38.57495    40.06725
    99  O   6.0   -0.28    1.22    1.80    17.75251    40.54947    41.19665
   100  C   4.0   -0.03    4.25    4.10    21.06303    35.37513    42.75880
   101  C   4.0   -0.09    4.10    3.81    21.09891    36.55662    45.39317
   102  C   4.0   -0.09    4.15    3.89    21.37168    32.50835    42.92790
   103  H   1.0    0.06    1.06    1.44    19.28737    33.00662    38.91105
   104  H   1.0    0.06    1.06    1.44    17.04874    36.05827    42.82805
   105  H   1.0    0.03    1.06    1.44    22.62818    36.15078    41.66424
   106  H   1.0    0.02    1.00    1.43    22.86469    36.09179    46.32909
   107  H   1.0    0.04    1.00    1.43    20.92109    38.59789    45.24088
   108  H   1.0    0.03    1.00    1.43    19.53537    35.83852    46.51282
   109  H   1.0    0.02    1.00    1.43    23.14533    32.06684    43.87376
   110  H   1.0    0.04    1.00    1.43    19.80666    31.69552    43.97311
   111  H   1.0    0.03    1.01    1.43    21.42325    31.68364    41.05897
   112  N   5.0   -0.13    3.47    2.06    19.83082    38.68271    38.01715
   113  C   4.0    0.03    4.24    4.07    20.47028    40.99938    36.61086
   114  C   4.0    0.09    3.24    3.04    18.12454    42.69491    36.42114
   115  O   6.0   -0.30    1.20    1.80    16.10514    41.91779    35.61021
   116  C   4.0   -0.08    4.10    3.79    21.50194    40.35446    33.99855
   117  H   1.0    0.07    1.06    1.44    20.49038    37.06115    37.07643
   118  H   1.0    0.03    1.05    1.44    21.91683    42.02378    37.69272
   119  H   1.0    0.04    1.01    1.43    21.91403    42.06621    32.99156
   120  H   1.0    0.03    1.00    1.43    23.23880    39.25754    34.19781
   121  H   1.0    0.06    1.00    1.43    20.11720    39.25608    32.93861
   122  N   5.0   -0.20    3.18    1.95    13.23764    47.86401    33.60875
   123  C   4.0    0.03    4.22    4.05    12.23300    48.39201    31.08417
   124  C   4.0    0.07    3.21    3.04    13.14275    50.95690    30.16567
   125  O   6.0   -0.30    1.11    1.80    12.56588    52.92343    31.50853
   126  C   4.0   -0.03    4.32    4.24     9.35849    48.20540    31.09523
   127  C   4.0   -0.01    3.56    3.14     8.21085    48.36533    28.51052
   128  C   4.0   -0.04    3.45    3.10     7.31074    46.20696    27.32009
   129  C   4.0   -0.04    3.47    3.10     7.91290    50.71615    27.32938
   130  C   4.0   -0.04    3.37    3.07     6.14537    46.36642    25.01271
   131  C   4.0   -0.05    3.35    3.07     6.73029    50.89871    24.99440
   132  C   4.0   -0.05    3.38    3.07     5.83889    48.73256    23.84858
   133  H   1.0    0.08    1.01    1.43    11.92175    48.18273    35.04522
   134  H   1.0    0.05    1.06    1.44    13.02363    46.96686    29.78922
   135  H   1.0    0.04    1.03    1.43     8.83493    46.37869    31.94457
   136  H   1.0    0.05    1.03    1.43     8.62299    49.75407    32.26544
   137  H   1.0    0.05    1.03    1.43     7.46259    44.38424    28.25414
   138  H   1.0    0.05    1.03    1.43     8.53809    52.40675    28.27519
   139  H   1.0    0.06    1.03    1.43     5.47969    44.69512    24.08683
   140  H   1.0    0.04    1.03    1.43     6.51012    52.71107    24.09771
   141  H   1.0    0.04    1.03    1.43     4.96050    48.84495    22.03676
   142  N   5.0   -0.19    3.22    1.96    20.93136    47.35802    15.42465
   143  C   4.0    0.03    4.30    4.19    19.34645    46.52517    17.53546
   144  C   4.0    0.15    3.39    3.08    20.90889    45.59150    19.82928
   145  O   6.0   -0.25    1.23    1.80    22.87484    44.17294    19.35007
   146  C   4.0   -0.03    4.35    4.28    17.50801    44.48680    16.67916
   147  C   4.0   -0.02    3.63    3.18    16.81950    44.64973    13.91204
   148  C   4.0   -0.05    3.49    3.11    14.88375    46.15467    13.14215
   149  C   4.0   -0.03    3.51    3.12    18.06898    43.14834    12.18214
   150  C   4.0   -0.05    3.40    3.08    14.22203    46.24872    10.60875
   151  C   4.0   -0.04    3.39    3.08    17.39900    43.24044     9.65043
   152  C   4.0   -0.05    3.39    3.08    15.53577    44.78978     8.87948
   153  H   1.0    0.09    1.03    1.43    21.23253    45.95583    14.05368
   154  H   1.0    0.03    1.05    1.44    18.31137    48.20302    18.18640
   155  H   1.0    0.08    1.05    1.44    18.36666    42.65118    17.04111
   156  H   1.0    0.04    1.04    1.43    15.80753    44.63506    17.79230
   157  H   1.0    0.04    1.03    1.43    13.86428    47.31320    14.50325
   158  H   1.0    0.07    1.03    1.43    19.55761    41.88938    12.82303
   159  H   1.0    0.04    1.03    1.43    12.71626    47.48087    10.00219
   160  H   1.0    0.05    1.02    1.43    18.45323    42.07636     8.30751
   161  H   1.0    0.04    1.02    1.43    15.01463    44.88886     6.87402
   162  N   5.0   -0.14    3.37    2.01    20.23025    46.13058    22.03393
   163  C   4.0    0.05    4.41    4.40    21.74131    45.43482    24.31079
   164  C   4.0    0.16    3.43    3.09    22.04584    42.53335    24.48166
   165  O   6.0   -0.28    1.23    1.80    24.33591    41.67727    24.48468
   166  C   4.0   -0.04    4.28    4.16    20.68683    46.50551    26.80007
   167  C   4.0    0.14    3.21    3.04    22.12370    48.80723    27.73773
   168  O   6.0   -0.30    1.21    1.80    23.99790    49.67178    26.45720
   169  N   5.0   -0.19    3.16    1.95    21.38280    49.84586    29.83534
   170  H   1.0    0.08    1.04    1.43    18.64197    47.24009    22.46173
   171  H   1.0    0.08    1.07    1.44    23.60466    46.24672    24.00032
   172  H   1.0    0.06    1.04    1.43    18.73623    47.05683    26.51449
   173  H   1.0    0.04    1.03    1.43    20.79190    45.05383    28.26618
   174  H   1.0    0.08    1.03    1.43    22.26133    51.39114    30.56125
   175  H   1.0    0.08    1.02    1.43    19.87674    49.10607    30.82744
   176  N   5.0   -0.13    3.46    2.05    20.23573    41.10441    24.78401
   177  C   4.0    0.04    4.40    4.39    20.27166    38.35551    24.21881
   178  C   4.0    0.16    3.48    3.11    19.48641    37.94498    21.48820
   179  O   6.0   -0.28    1.28    1.80    18.51704    39.80121    20.28545
   180  C   4.0    0.03    4.16    3.92    18.57300    36.85014    26.01447
   181  O   6.0   -0.26    2.15    1.85    17.77741    34.56175    24.90702
   182  H   1.0    0.08    1.09    1.44    18.41954    41.79051    25.12325
   183  H   1.0    0.06    1.06    1.44    22.21475    37.73193    24.47511
   184  H   1.0    0.04    1.01    1.43    19.57136    36.55375    27.80448
   185  H   1.0    0.04    1.05    1.44    16.89949    37.97197    26.46055
   186  H   1.0    0.12    1.01    1.43    16.71346    33.66796    26.15879
   187  N   5.0   -0.14    3.57    2.14    19.69878    35.78995    20.50476
   188  C   4.0    0.04    4.48    4.50    18.66596    35.22330    17.99838
   189  C   4.0    0.14    3.46    3.10    15.93148    34.48657    18.44358
   190  O   6.0   -0.29    1.21    1.80    14.27304    35.00769    16.74088
   191  C   4.0   -0.05    4.21    4.01    20.20522    33.19572    16.61672
   192  C   4.0   -0.04    4.13    3.86    22.72275    34.25909    15.58634
   193  C   4.0    0.24    3.08    3.02    22.42093    36.54307    13.71638
   194  O   6.0   -0.31    1.16    1.80    21.82745    36.12649    11.53675
   195  O   6.0   -0.28    1.14    1.80    22.85990    38.79929    14.63593
   196  H   1.0    0.08    1.06    1.44    20.61234    34.28925    21.37900
   197  H   1.0    0.08    1.07    1.44    18.76833    36.91927    16.84962
   198  H   1.0    0.04    1.02    1.43    20.60989    31.63712    17.92958
   199  H   1.0    0.05    1.03    1.43    19.09096    32.52058    15.03129
   200  H   1.0    0.05    1.01    1.43    23.92758    34.84726    17.17829
   201  H   1.0    0.04    1.03    1.43    23.67535    32.75798    14.55291
   202  N   5.0   -0.14    3.58    2.14    15.39247    33.40334    20.48929
   203  C   4.0    0.03    4.41    4.39    12.89040    32.34690    21.08002
   204  C   4.0    0.15    3.43    3.09    11.24249    34.41227    22.30721
   205  O   6.0   -0.31    1.26    1.80     9.24947    33.72105    23.43689
   206  C   4.0   -0.03    4.25    4.10    13.11680    29.95436    22.75302
   207  C   4.0    0.05    3.78    3.31    14.82339    27.92294    21.69340
   208  N   5.0   -0.16    2.62    1.91    16.53402    26.68132    23.22469
   209  C   4.0   -0.02    3.66    3.21    15.00872    26.97729    19.39568
   210  C   4.0    0.05    3.68    3.22    17.69510    25.04035    21.65328
   211  N   5.0   -0.11    3.53    2.10    16.85890    25.21383    19.55822
   212  H   1.0    0.10    1.12    1.45    16.65744    33.18043    21.95136
   213  H   1.0    0.06    1.06    1.44    12.02277    31.81773    19.28641
   214  H   1.0    0.06    1.02    1.43    13.81691    30.51909    24.63263
   215  H   1.0    0.05    1.03    1.43    11.21259    29.21690    22.98572
   216  H   1.0    0.04    0.98    1.43    13.90051    27.50434    17.65412
   217  H   1.0    0.03    1.03    1.43    19.15011    23.81510    22.37857
   218  H   1.0    0.05    0.99    1.43    17.41704    24.11623    17.85844
   219  N   5.0   -0.14    3.56    2.12    11.90659    36.68034    22.17635
   220  C   4.0    0.03    4.45    4.46    10.37525    38.74604    23.26261
   221  C   4.0    0.14    3.43    3.09     8.22300    39.24045    21.42424
   222  O   6.0   -0.32    1.26    1.80     6.26406    40.46281    22.26210
   223  C   4.0   -0.04    4.28    4.15    11.90763    41.16312    23.69773
   224  C   4.0   -0.03    4.27    4.15    13.75767    40.91667    25.84550
   225  C   4.0    0.13    3.25    3.04    14.80209    43.37971    26.82958
   226  O   6.0   -0.31    1.22    1.80    14.61530    45.40919    25.51843
   227  N   5.0   -0.19    3.20    1.96    15.92735    43.39643    28.95236
   228  H   1.0    0.09    1.07    1.44    13.52151    37.31285    21.24504
   229  H   1.0    0.06    1.06    1.44     9.64197    38.12607    25.07286
   230  H   1.0    0.06    1.03    1.43    12.96419    41.62366    21.97867
   231  H   1.0    0.06    1.04    1.43    10.62687    42.69762    24.16311
   232  H   1.0    0.04    1.03    1.43    12.93731    39.89869    27.46040
   233  H   1.0    0.04    1.08    1.44    15.34217    39.83447    25.13618
   234  H   1.0    0.09    1.03    1.43    16.04849    41.76870    30.05015
   235  H   1.0    0.09    1.03    1.43    16.60482    44.97060    29.79414
   236  N   5.0   -0.13    3.47    2.06     8.44637    38.51210    19.15957
   237  C   4.0    0.03    4.48    4.51     7.03035    39.43492    16.94704
   238  C   4.0    0.13    3.48    3.11     5.77017    37.34125    15.37096
   239  O   6.0   -0.29    1.23    1.80     6.76012    35.11551    15.24106
   240  C   4.0   -0.02    4.28    4.15     8.76531    41.13036    15.32279
   241  C   4.0   -0.07    4.21    4.02     8.47687    40.49387    12.56963
   242  C   4.0   -0.08    4.12    3.84     8.18508    43.87870    15.81612
   243  H   1.0    0.10    1.08    1.44     9.73880    37.11987    18.65342
   244  H   1.0    0.05    1.06    1.44     5.45100    40.55097    17.73053
   245  H   1.0    0.05    1.06    1.44    10.74403    40.76689    15.84139
   246  H   1.0    0.04    1.01    1.43     9.68143    41.69499    11.43723
   247  H   1.0    0.06    1.01    1.43     8.99403    38.51697    12.26095
   248  H   1.0    0.05    1.02    1.43     6.53268    40.77156    11.98585
   249  H   1.0    0.04    1.01    1.43     9.38187    45.04783    14.64538
   250  H   1.0    0.03    1.01    1.43     6.22257    44.25061    15.37173
   251  H   1.0    0.04    1.00    1.43     8.52917    44.32769    17.80895
   252  N   5.0   -0.15    3.49    2.07     3.75623    37.90642    14.24579
   253  C   4.0    0.03    4.38    4.35     2.49437    36.15469    12.55590
   254  C   4.0    0.06    3.20    3.04     3.44718    36.61743     9.86132
   255  O   6.0   -0.31    1.12    1.80     2.63910    38.44236     8.60221
   256  C   4.0   -0.05    4.36    4.31    -0.36363    36.37626    12.77285
   257  C   4.0   -0.02    4.22    4.04    -1.32174    35.46207    15.33200
   258  C   4.0   -0.08    4.10    3.81    -4.14248    35.92994    15.62104
   259  C   4.0   -0.08    4.13    3.86    -0.68567    32.68178    15.69388
   260  H   1.0    0.07    1.05    1.44     2.82047    39.63291    14.42127
   261  H   1.0    0.05    1.07    1.44     3.10688    34.23595    13.09420
   262  H   1.0    0.05    1.03    1.43    -0.89668    38.36284    12.51532
   263  H   1.0    0.03    1.03    1.43    -1.23828    35.26562    11.29159
   264  H   1.0    0.05    1.07    1.44    -0.36345    36.58217    16.78181
   265  H   1.0    0.04    1.00    1.43    -4.78580    35.26464    17.44689
   266  H   1.0    0.04    1.00    1.43    -4.54331    37.94105    15.47429
   267  H   1.0    0.03    1.00    1.43    -5.18481    34.93739    14.15101
   268  H   1.0    0.05    1.00    1.43    -1.37844    32.03509    17.50889
   269  H   1.0    0.03    1.00    1.43    -1.55840    31.57899    14.20132
   270  H   1.0    0.04    1.00    1.43     1.35007    32.40961    15.63668
   271  H   1.0    0.07    1.12    1.45     0.48323    45.83632    16.90409
   272  H   1.0    0.05    1.05    1.44    18.21690    44.50059    36.97075
   273  H   1.0    0.10    1.07    1.44    13.71630    46.23455    33.69993
   274  H   1.0    0.05    1.04    1.43    14.15140    51.08687    28.57294
   275  H   1.0    0.08    1.07    1.44    20.19256    48.67727    14.64600
   276  H   1.0    0.05    1.04    1.43     4.72570    35.45370     9.09832

  Z AO/shell   Hii/eV     exponent
  1     Wed Apr 25 08:07:45 CEST 2018   EN: 2.200 GM2: 0.406  GM3: 0.0800  RAES: 1.40
     1s    -10.707211    1.230000
  6     Wed Apr 25 08:07:45 CEST 2018   EN: 2.550 GM2: 0.538  GM3: 0.1500  RAES: 3.00
     2s    -13.970922    2.096432
     2p    -10.063292    1.800000
  7     Wed Apr 25 08:07:45 CEST 2018   EN: 3.040 GM2: 0.461  GM3:-0.0640  RAES: 1.90
     2s    -16.686243    2.339881
     2p    -12.523956    2.014332
  8     Wed Apr 25 08:07:45 CEST 2018   EN: 3.440 GM2: 0.452  GM3:-0.0517  RAES: 1.80
     2s    -20.229985    2.439742
     2p    -15.503117    2.137023
 no old-style atom pair restraining (fixing) potential

molecular fragmentation (1/2 indicates fragments):
111111111111111111111111111111111111111111111111111111111111111111111111
111111111111111111111111111111111111111111111111122222222222222222222222
222222222222222222222222222222222222222222222222222222222222222222222222
222222222222222222222222222222222222222222222222222222112222
# atoms in fragment 1/2:   123   153
 fragment masses (1/2) :      916.96     1105.24
CMA distance (Bohr)    :  13.643
constraining FC (au)   :  0.0500
           ------------------------------------------------- 
          |        Self-Consistent Charge Iterations        |
           ------------------------------------------------- 

 Ncao       : 708
 Nao        : 708
 Nshell     : 420
 Nel        : 790
 T(el)      :   500.0
 intcut     :    35.0
 scfconv/Eh :  0.100E-06
   qconv/e  :  0.100E-04
 intneglect :  0.100E-08
 broydamp   :      0.400
 iter      E             dE          RMSdq      gap      omega  full diag
   1   -452.8525562 -0.452853E+03  0.494E+00    2.99       0.0  T
   2   -454.3916217 -0.153907E+01  0.229E+00    1.16       1.0  T
   3   -454.4805978 -0.889761E-01  0.133E+00    1.54       1.0  T
   4   -454.5447470 -0.641493E-01  0.341E-01    0.89       1.0  T
   5   -454.5581625 -0.134154E-01  0.155E-01    1.09       1.0  T
   6   -454.5596281 -0.146561E-02  0.704E-02    1.10       1.0  T
   7   -454.5599569 -0.328772E-03  0.248E-02    1.08       1.0  T
   8   -454.5599877 -0.308005E-04  0.130E-02    1.09       1.0  T
   9   -454.5599965 -0.886515E-05  0.539E-03    1.08       1.1  T
  10   -454.5599990 -0.248367E-05  0.241E-03    1.08       2.5  T
  11   -454.5599993 -0.317693E-06  0.110E-03    1.08       5.5  T
  12   -454.5599994 -0.688978E-07  0.543E-04    1.08      11.1  T
  13   -454.5599994 -0.240532E-07  0.251E-04    1.08      24.0  T
  14   -454.5599994 -0.363008E-08  0.125E-04    1.08      48.0  T
  15   -454.5599994 -0.852367E-09  0.493E-05    1.08     122.1  T
  16   -454.5599994 -0.201510E-09  0.194E-05    1.08     309.8  T
speedup  1.75
cpu  time for SCC    3.94 s
wall time for SCC    2.25 s

   *** convergence criteria satisfied after 16 iterations ***

          eigenvalues
 #    :         383        384        385        386        387        388        389        390
 occ. :        2.000      2.000      2.000      2.000      2.000      2.000      2.000      2.000
 eps  :       -10.638    -10.603    -10.569    -10.546    -10.524    -10.302    -10.201    -10.195
 #    :         391        392        393        394        395        396        397        398
 occ. :        2.000      2.000      2.000      2.000      2.000      0.000      0.000      0.000
 eps  :       -10.158     -9.942     -9.850     -9.733     -9.551     -8.474     -8.406     -8.393
 #    :         399        400        401        402        403        404        405        406
 occ. :        0.000      0.000      0.000      0.000      0.000      0.000      0.000      0.000
 eps  :        -7.078     -6.904     -6.693     -6.692     -6.620     -6.602     -6.564     -6.443


   #   Z            q   n(s)   n(p)   n(d)      C6AA      α(0)
   1   7 N     -0.286  1.298  3.989  0.000    27.373     7.770
   2   6 C      0.032  1.059  2.909  0.000    20.025     6.368
   3   6 C      0.261  1.040  2.700  0.000    22.609     7.787
   4   8 O     -0.545  1.768  4.777  0.000    24.802     6.677
   5   6 C     -0.048  1.047  3.001  0.000    21.395     6.580
   6   6 C     -0.051  1.046  3.005  0.000    21.459     6.590
   7   6 C      0.009  1.047  2.944  0.000    20.461     6.445
   8   1 H      0.012  0.988  0.000  0.000     2.851     2.640
   9   1 H      0.030  0.970  0.000  0.000     2.584     2.514
  10   1 H      0.032  0.968  0.000  0.000     2.561     2.503
  11   1 H      0.034  0.966  0.000  0.000     2.528     2.487
  12   1 H      0.035  0.965  0.000  0.000     2.520     2.482
  13   1 H      0.045  0.955  0.000  0.000     2.388     2.416
  14   1 H      0.039  0.961  0.000  0.000     2.459     2.453
  15   7 N     -0.166  1.253  3.913  0.000    24.587     7.364
  16   6 C      0.026  1.054  2.919  0.000    20.120     6.384
  17   6 C      0.275  1.036  2.689  0.000    22.347     7.742
  18   8 O     -0.552  1.772  4.780  0.000    24.955     6.698
  19   6 C     -0.088  1.053  3.035  0.000    22.159     6.699
  20   6 C      0.271  1.039  2.690  0.000    22.429     7.755
  21   8 O     -0.554  1.771  4.783  0.000    25.015     6.706
  22   7 N     -0.216  1.251  3.966  0.000    25.722     7.532
  23   1 H      0.224  0.776  0.000  0.000     0.992     1.560
  24   1 H      0.095  0.905  0.000  0.000     1.834     2.118
  25   1 H      0.087  0.913  0.000  0.000     1.907     2.160
  26   1 H      0.053  0.947  0.000  0.000     2.278     2.360
  27   1 H      0.241  0.759  0.000  0.000     0.919     1.502
  28   1 H      0.228  0.772  0.000  0.000     0.975     1.547
  29   7 N     -0.146  1.247  3.899  0.000    24.165     7.301
  30   6 C      0.021  1.067  2.912  0.000    20.219     6.402
  31   6 C      0.277  1.035  2.688  0.000    22.319     7.736
  32   8 O     -0.574  1.794  4.780  0.000    25.483     6.768
  33   6 C     -0.143  1.047  3.096  0.000    23.314     6.885
  34   1 H      0.232  0.768  0.000  0.000     0.958     1.533
  35   1 H      0.078  0.922  0.000  0.000     2.004     2.214
  36   1 H      0.082  0.918  0.000  0.000     1.963     2.191
  37   1 H      0.086  0.914  0.000  0.000     1.914     2.164
  38   1 H      0.078  0.922  0.000  0.000     2.000     2.211
  39   7 N     -0.142  1.239  3.904  0.000    24.085     7.289
  40   6 C      0.017  1.071  2.913  0.000    20.298     6.415
  41   6 C      0.272  1.043  2.685  0.000    22.409     7.751
  42   8 O     -0.544  1.778  4.766  0.000    24.784     6.675
  43   6 C     -0.136  1.046  3.090  0.000    23.178     6.866
  44   1 H      0.232  0.768  0.000  0.000     0.955     1.531
  45   1 H      0.098  0.902  0.000  0.000     1.802     2.099
  46   1 H      0.089  0.911  0.000  0.000     1.891     2.150
  47   1 H      0.096  0.904  0.000  0.000     1.825     2.112
  48   1 H      0.064  0.936  0.000  0.000     2.149     2.292
  49   7 N     -0.138  1.237  3.901  0.000    23.988     7.274
  50   6 C      0.031  1.070  2.900  0.000    20.067     6.379
  51   6 C      0.283  1.029  2.688  0.000    22.203     7.717
  52   8 O     -0.579  1.794  4.785  0.000    25.610     6.785
  53   6 C     -0.072  1.056  3.016  0.000    21.879     6.659
  54   6 C     -0.000  1.083  2.918  0.000    28.032     8.684
  55   6 C     -0.045  1.090  2.955  0.000    29.113     8.849
  56   6 C     -0.048  1.089  2.960  0.000    29.193     8.861
  57   6 C     -0.079  1.082  2.997  0.000    29.963     8.977
  58   6 C     -0.072  1.082  2.991  0.000    29.807     8.953
  59   6 C      0.133  1.044  2.823  0.000    25.089     8.209
  60   8 O     -0.469  1.717  4.752  0.000    22.237     6.366
  61   1 H      0.210  0.790  0.000  0.000     1.055     1.609
  62   1 H      0.048  0.952  0.000  0.000     2.343     2.394
  63   1 H      0.069  0.931  0.000  0.000     2.101     2.267
  64   1 H      0.072  0.928  0.000  0.000     2.066     2.248
  65   1 H      0.052  0.948  0.000  0.000     2.294     2.369
  66   1 H      0.043  0.957  0.000  0.000     2.411     2.428
  67   1 H      0.067  0.933  0.000  0.000     2.120     2.277
  68   1 H      0.075  0.925  0.000  0.000     2.035     2.231
  69   1 H      0.342  0.658  0.000  0.000     0.608     1.225
  70   7 N     -0.117  1.239  3.878  0.000    23.551     7.207
  71   6 C      0.032  1.058  2.910  0.000    20.027     6.370
  72   6 C      0.272  1.037  2.691  0.000    22.398     7.750
  73   8 O     -0.527  1.767  4.760  0.000    24.388     6.621
  74   6 C     -0.096  1.056  3.040  0.000    22.322     6.725
  75   6 C      0.286  1.032  2.682  0.000    22.147     7.706
  76   8 O     -0.596  1.797  4.799  0.000    26.025     6.840
  77   7 N     -0.232  1.255  3.977  0.000    26.081     7.585
  78   1 H      0.204  0.796  0.000  0.000     1.084     1.632
  79   1 H      0.093  0.907  0.000  0.000     1.852     2.128
  80   1 H      0.089  0.911  0.000  0.000     1.890     2.150
  81   1 H      0.096  0.904  0.000  0.000     1.825     2.113
  82   1 H      0.264  0.736  0.000  0.000     0.831     1.428
  83   1 H      0.252  0.748  0.000  0.000     0.876     1.466
  84   7 N     -0.118  1.225  3.894  0.000    23.576     7.211
  85   6 C      0.032  1.056  2.912  0.000    20.034     6.372
  86   6 C      0.265  1.033  2.702  0.000    22.525     7.773
  87   8 O     -0.571  1.792  4.779  0.000    25.413     6.759
  88   6 C     -0.098  1.074  3.024  0.000    22.371     6.734
  89   6 C      0.360  1.025  2.615  0.000    20.888     7.480
  90   8 O     -0.658  1.801  4.857  0.000    27.587     7.042
  91   8 O     -0.611  1.766  4.846  0.000    26.403     6.889
  92   1 H      0.186  0.814  0.000  0.000     1.182     1.703
  93   1 H      0.088  0.912  0.000  0.000     1.894     2.152
  94   1 H      0.046  0.954  0.000  0.000     2.371     2.408
  95   1 H      0.051  0.949  0.000  0.000     2.309     2.377
  96   7 N     -0.138  1.236  3.902  0.000    23.995     7.275
  97   6 C      0.014  1.074  2.913  0.000    20.332     6.417
  98   6 C      0.270  1.037  2.693  0.000    22.441     7.758
  99   8 O     -0.560  1.793  4.767  0.000    25.154     6.724
 100   6 C     -0.025  1.064  2.961  0.000    20.990     6.516
 101   6 C     -0.123  1.042  3.081  0.000    22.905     6.824
 102   6 C     -0.130  1.044  3.086  0.000    23.051     6.845
 103   1 H      0.215  0.785  0.000  0.000     1.034     1.593
 104   1 H      0.092  0.908  0.000  0.000     1.859     2.132
 105   1 H      0.059  0.941  0.000  0.000     2.214     2.327
 106   1 H      0.073  0.927  0.000  0.000     2.051     2.240
 107   1 H      0.051  0.949  0.000  0.000     2.307     2.375
 108   1 H      0.050  0.950  0.000  0.000     2.318     2.381
 109   1 H      0.081  0.919  0.000  0.000     1.968     2.194
 110   1 H      0.054  0.946  0.000  0.000     2.268     2.355
 111   1 H      0.045  0.955  0.000  0.000     2.389     2.417
 112   7 N     -0.110  1.229  3.882  0.000    23.415     7.187
 113   6 C      0.017  1.064  2.919  0.000    20.291     6.415
 114   6 C      0.209  1.088  2.704  0.000    23.574     7.951
 115   8 O     -0.368  1.749  4.619  0.000    21.047     6.151
 116   6 C     -0.149  1.046  3.103  0.000    23.436     6.903
 117   1 H      0.222  0.778  0.000  0.000     1.000     1.566
 118   1 H      0.106  0.894  0.000  0.000     1.729     2.056
 119   1 H      0.089  0.911  0.000  0.000     1.887     2.148
 120   1 H      0.095  0.905  0.000  0.000     1.833     2.117
 121   1 H      0.080  0.920  0.000  0.000     1.977     2.199
 122   7 N     -0.370  1.324  4.046  0.000    29.550     8.073
 123   6 C      0.044  1.053  2.904  0.000    19.861     6.348
 124   6 C      0.187  1.104  2.709  0.000    23.984     8.020
 125   8 O     -0.378  1.790  4.588  0.000    21.240     6.179
 126   6 C     -0.069  1.059  3.010  0.000    21.806     6.647
 127   6 C      0.005  1.085  2.911  0.000    27.919     8.667
 128   6 C     -0.038  1.080  2.958  0.000    28.944     8.822
 129   6 C     -0.043  1.083  2.960  0.000    29.071     8.842
 130   6 C     -0.037  1.081  2.955  0.000    28.911     8.817
 131   6 C     -0.034  1.081  2.953  0.000    28.844     8.807
 132   6 C     -0.037  1.080  2.958  0.000    28.932     8.821
 133   1 H      0.167  0.833  0.000  0.000     1.290     1.779
 134   1 H      0.042  0.958  0.000  0.000     2.419     2.432
 135   1 H      0.050  0.950  0.000  0.000     2.316     2.380
 136   1 H      0.064  0.936  0.000  0.000     2.154     2.295
 137   1 H      0.024  0.976  0.000  0.000     2.674     2.557
 138   1 H      0.036  0.964  0.000  0.000     2.501     2.473
 139   1 H      0.038  0.962  0.000  0.000     2.470     2.458
 140   1 H      0.047  0.953  0.000  0.000     2.362     2.404
 141   1 H      0.038  0.962  0.000  0.000     2.469     2.457
 142   7 N     -0.385  1.331  4.053  0.000    29.953     8.128
 143   6 C      0.048  1.061  2.891  0.000    19.792     6.337
 144   6 C      0.267  1.048  2.685  0.000    22.492     7.766
 145   8 O     -0.577  1.808  4.769  0.000    25.563     6.779
 146   6 C     -0.064  1.047  3.017  0.000    21.708     6.631
 147   6 C      0.019  1.077  2.904  0.000    27.571     8.613
 148   6 C     -0.044  1.077  2.966  0.000    29.084     8.844
 149   6 C     -0.029  1.080  2.948  0.000    28.714     8.788
 150   6 C     -0.040  1.081  2.958  0.000    28.988     8.830
 151   6 C     -0.024  1.075  2.949  0.000    28.608     8.771
 152   6 C     -0.032  1.076  2.956  0.000    28.800     8.801
 153   1 H      0.142  0.858  0.000  0.000     1.460     1.893
 154   1 H      0.034  0.966  0.000  0.000     2.537     2.491
 155   1 H      0.035  0.965  0.000  0.000     2.510     2.477
 156   1 H      0.039  0.961  0.000  0.000     2.466     2.456
 157   1 H      0.046  0.954  0.000  0.000     2.368     2.407
 158   1 H      0.001  0.999  0.000  0.000     3.034     2.724
 159   1 H      0.059  0.941  0.000  0.000     2.209     2.324
 160   1 H      0.016  0.984  0.000  0.000     2.799     2.616
 161   1 H      0.045  0.955  0.000  0.000     2.386     2.416
 162   7 N     -0.146  1.250  3.896  0.000    24.154     7.299
 163   6 C      0.023  1.066  2.911  0.000    20.187     6.398
 164   6 C      0.282  1.035  2.683  0.000    22.226     7.720
 165   8 O     -0.553  1.782  4.771  0.000    24.984     6.702
 166   6 C     -0.118  1.065  3.054  0.000    22.757     6.791
 167   6 C      0.280  1.037  2.684  0.000    22.264     7.726
 168   8 O     -0.544  1.791  4.753  0.000    24.771     6.673
 169   7 N     -0.244  1.255  3.989  0.000    26.375     7.627
 170   1 H      0.224  0.776  0.000  0.000     0.992     1.561
 171   1 H      0.110  0.890  0.000  0.000     1.693     2.035
 172   1 H      0.103  0.897  0.000  0.000     1.755     2.072
 173   1 H      0.088  0.912  0.000  0.000     1.901     2.156
 174   1 H      0.263  0.737  0.000  0.000     0.834     1.431
 175   1 H      0.234  0.766  0.000  0.000     0.946     1.524
 176   7 N     -0.123  1.223  3.900  0.000    23.671     7.226
 177   6 C      0.009  1.065  2.927  0.000    20.431     6.435
 178   6 C      0.277  1.031  2.693  0.000    22.320     7.737
 179   8 O     -0.552  1.777  4.774  0.000    24.958     6.698
 180   6 C      0.051  1.040  2.909  0.000    19.937     6.397
 181   8 O     -0.463  1.715  4.748  0.000    22.113     6.348
 182   1 H      0.203  0.797  0.000  0.000     1.092     1.637
 183   1 H      0.104  0.896  0.000  0.000     1.753     2.070
 184   1 H      0.080  0.920  0.000  0.000     1.975     2.197
 185   1 H      0.061  0.939  0.000  0.000     2.182     2.310
 186   1 H      0.341  0.659  0.000  0.000     0.610     1.227
 187   7 N     -0.149  1.242  3.906  0.000    24.219     7.309
 188   6 C      0.033  1.058  2.909  0.000    20.006     6.366
 189   6 C      0.264  1.039  2.697  0.000    22.547     7.776
 190   8 O     -0.562  1.777  4.784  0.000    25.199     6.730
 191   6 C     -0.060  1.058  3.002  0.000    21.650     6.625
 192   6 C     -0.095  1.074  3.022  0.000    22.328     6.729
 193   6 C      0.364  1.032  2.604  0.000    20.831     7.469
 194   8 O     -0.598  1.754  4.845  0.000    26.078     6.847
 195   8 O     -0.697  1.813  4.884  0.000    28.640     7.175
 196   1 H      0.226  0.774  0.000  0.000     0.981     1.552
 197   1 H      0.076  0.924  0.000  0.000     2.020     2.223
 198   1 H      0.058  0.942  0.000  0.000     2.227     2.334
 199   1 H      0.059  0.941  0.000  0.000     2.207     2.323
 200   1 H      0.020  0.980  0.000  0.000     2.737     2.587
 201   1 H      0.041  0.959  0.000  0.000     2.436     2.441
 202   7 N     -0.161  1.240  3.921  0.000    24.477     7.348
 203   6 C      0.013  1.072  2.914  0.000    20.354     6.424
 204   6 C      0.266  1.037  2.696  0.000    22.503     7.768
 205   8 O     -0.525  1.751  4.774  0.000    24.345     6.615
 206   6 C     -0.077  1.055  3.022  0.000    21.974     6.674
 207   6 C      0.060  1.060  2.880  0.000    25.875     8.261
 208   7 N     -0.360  1.525  3.835  0.000    30.139     8.143
 209   6 C     -0.043  1.054  2.989  0.000    28.763     8.771
 210   6 C      0.101  1.035  2.864  0.000    25.203     8.176
 211   7 N     -0.026  1.227  3.799  0.000    21.746     6.926
 212   1 H      0.238  0.762  0.000  0.000     0.930     1.511
 213   1 H      0.095  0.905  0.000  0.000     1.831     2.116
 214   1 H      0.068  0.932  0.000  0.000     2.109     2.271
 215   1 H      0.085  0.915  0.000  0.000     1.924     2.169
 216   1 H      0.031  0.969  0.000  0.000     2.580     2.512
 217   1 H      0.055  0.945  0.000  0.000     2.263     2.352
 218   1 H      0.208  0.792  0.000  0.000     1.069     1.620
 219   7 N     -0.144  1.234  3.910  0.000    24.112     7.293
 220   6 C      0.017  1.067  2.917  0.000    20.291     6.412
 221   6 C      0.262  1.042  2.696  0.000    22.575     7.781
 222   8 O     -0.523  1.764  4.759  0.000    24.304     6.610
 223   6 C     -0.061  1.043  3.017  0.000    21.661     6.625
 224   6 C     -0.107  1.054  3.053  0.000    22.535     6.757
 225   6 C      0.266  1.038  2.696  0.000    22.517     7.770
 226   8 O     -0.535  1.775  4.760  0.000    24.580     6.647
 227   7 N     -0.235  1.247  3.989  0.000    26.160     7.596
 228   1 H      0.195  0.805  0.000  0.000     1.134     1.668
 229   1 H      0.103  0.897  0.000  0.000     1.761     2.075
 230   1 H      0.062  0.938  0.000  0.000     2.178     2.308
 231   1 H      0.096  0.904  0.000  0.000     1.819     2.109
 232   1 H      0.070  0.930  0.000  0.000     2.087     2.259
 233   1 H      0.075  0.925  0.000  0.000     2.027     2.227
 234   1 H      0.224  0.776  0.000  0.000     0.993     1.561
 235   1 H      0.237  0.763  0.000  0.000     0.936     1.516
 236   7 N     -0.123  1.228  3.895  0.000    23.672     7.226
 237   6 C      0.008  1.077  2.914  0.000    20.439     6.437
 238   6 C      0.263  1.038  2.699  0.000    22.565     7.780
 239   8 O     -0.546  1.783  4.763  0.000    24.827     6.680
 240   6 C     -0.014  1.057  2.956  0.000    20.786     6.484
 241   6 C     -0.118  1.037  3.081  0.000    22.810     6.808
 242   6 C     -0.122  1.041  3.081  0.000    22.892     6.821
 243   1 H      0.206  0.794  0.000  0.000     1.074     1.623
 244   1 H      0.078  0.922  0.000  0.000     2.005     2.215
 245   1 H      0.041  0.959  0.000  0.000     2.435     2.440
 246   1 H      0.063  0.937  0.000  0.000     2.162     2.299
 247   1 H      0.037  0.963  0.000  0.000     2.494     2.470
 248   1 H      0.051  0.949  0.000  0.000     2.302     2.373
 249   1 H      0.069  0.931  0.000  0.000     2.101     2.267
 250   1 H      0.059  0.941  0.000  0.000     2.214     2.327
 251   1 H      0.044  0.956  0.000  0.000     2.390     2.418
 252   7 N     -0.114  1.232  3.883  0.000    23.497     7.199
 253   6 C      0.019  1.059  2.922  0.000    20.251     6.406
 254   6 C      0.195  1.093  2.711  0.000    23.832     7.995
 255   8 O     -0.344  1.764  4.580  0.000    20.590     6.084
 256   6 C     -0.080  1.057  3.023  0.000    22.011     6.678
 257   6 C     -0.017  1.055  2.962  0.000    20.841     6.493
 258   6 C     -0.118  1.041  3.077  0.000    22.813     6.810
 259   6 C     -0.126  1.041  3.085  0.000    22.973     6.833
 260   1 H      0.220  0.780  0.000  0.000     1.011     1.575
 261   1 H      0.098  0.902  0.000  0.000     1.808     2.103
 262   1 H      0.071  0.929  0.000  0.000     2.076     2.253
 263   1 H      0.078  0.922  0.000  0.000     2.002     2.213
 264   1 H      0.025  0.975  0.000  0.000     2.661     2.551
 265   1 H      0.042  0.958  0.000  0.000     2.427     2.436
 266   1 H      0.052  0.948  0.000  0.000     2.301     2.372
 267   1 H      0.054  0.946  0.000  0.000     2.268     2.355
 268   1 H      0.058  0.942  0.000  0.000     2.220     2.330
 269   1 H      0.056  0.944  0.000  0.000     2.240     2.341
 270   1 H      0.028  0.972  0.000  0.000     2.622     2.532
 271   1 H      0.172  0.828  0.000  0.000     1.260     1.758
 272   1 H      0.104  0.896  0.000  0.000     1.749     2.068
 273   1 H      0.178  0.822  0.000  0.000     1.225     1.734
 274   1 H      0.085  0.915  0.000  0.000     1.927     2.171
 275   1 H      0.195  0.805  0.000  0.000     1.134     1.668
 276   1 H      0.087  0.913  0.000  0.000     1.907     2.159

 Mol. C6AA /au·bohr⁶  :     774012.807345
 Mol. C8AA /au·bohr⁸  :   17520666.132517
 Mol. α(0) /au        :       1325.387648

 
molecular dipole:
                 x           y           z       tot (Debye)
 q only:      -31.971     -75.156     -46.310
   full:      -30.835     -76.359     -46.813     240.775
molecular quadrupole (traceless):
                xx          xy          yy          xz          yz          zz
 q only:     1431.428   -1806.189   -1877.887    -760.801   -2512.284     446.459
  q+dip:     1496.127   -1791.584   -1955.182    -746.136   -2573.250     459.055
   full:     1498.281   -1788.966   -1957.450    -748.258   -2575.218     459.169
speedup  1.79
cpu  time for grad    4.81 s
wall time for grad    2.68 s

SCC energy    :    -454.5689946
rep           :       5.5638282
ES            :       1.8449757
AES           :      -0.0280864
AXC           :       0.1442574
disp          :      -0.3760524
XB            :       0.0000000
fix           :       0.0000000
Gborn         :       0.0000000
Gsasa         :       0.0000000
Ghb           :       0.0000000
Gshift        :       0.0000000
Gsolv         :      -0.5033489     -315.86
Etot ala COSMO:    -454.5689946
grad norm     :       1.0581053
total E       :    -448.9752018
atomizationE  :      81.5521336    51174.74
(atE without considering molecular charge,
 total energy contains solvation terms)
H-L gap (eV)  :          1.0772

------------------------------------------------------------------------
 * finished run on 2019/05/05 at 18:41:07.877     
------------------------------------------------------------------------
 total:
 * wall-time:     0 d,  0 h,  0 min,  2.976 sec
 *  cpu-time:     0 d,  0 h,  0 min,  5.296 sec
 * ratio c/w:     1.780 speedup
 SCF:
 * wall-time:     0 d,  0 h,  0 min,  2.838 sec
 *  cpu-time:     0 d,  0 h,  0 min,  5.124 sec
 * ratio c/w:     1.805 speedup

