 
        ______________________________________
       |                                      |
       |           ==================         |
       |                 x T B                |
       |           ==================         |
       |               S. Grimme              |
       |        Universitaet Bonn, MCTC       |
       |         2015-18, Version 5.8.2       |
       |      Thu Jul 12 08:31:35 CEST 2018   |
       |______________________________________|
 
        This code comes without any warranty
        for non-commercial, academia use only.
        Preliminary GFN2 test version.
        Cite GFN-xTB work as:
        S. Grimme, C. Bannwarth, P. Shushkov
        JCTC, 13 (2017) 1989-2009
        for GFN2:
        C. Bannwarth, S. Ehlert, S. Grimme
        to be published.
        sTDA-xTB:
        S. Grimme  &  C. Bannwarth, JCP 145 (2016) 054103
        in the mass-spec context additionally:
        V. Asgeirsson, C.Bauer, S. Grimme, Chem. Sci. 8 (2017) 4879
 
        with help from
        P. Shushkov, G. Brandenburg, S. Dohm, J. Pisarek,
        F. März, M. Checinski, S. Ehrlich, S. Spicher, 
        P. Pracht, E. Caldeweyher, S. Ehlert, and C. Bannwarth.
 
        usage        :
        xtb <coord_file> [options]
        where <coord_file> is a valid file of TM)
        (*coord, Bohr) or xmol (*xyz, Angstroem)
        format.

        options:
        -chrg <int>   : molecular charge
        -uhf  <int>   : # of unpaired electrons(=2*S)
        -nox          : skip second, extended part in sTDA-xTB
        -pop          : do population analysis
                      : (default for -nox)
        -mowr <real>  : cut MO write above (def.3 Eh)
        -molden       : write formatted molden file
        -parx <file>  : read parameters for sTDA-xTB
                        calc (def:~/.param_stda2.xtb)
        -parv <file>  : read parameters for vTB part in
                        sTDA-xTB (def: ~/.param_stda1.xtb)
        -xtemp <real> : el. temp for xTB (def. 0 K)
        -etemp <real> : el. temp for GFN (def. 300 K)
        -fod          : calculate the FOD and write
                        molden.input file with
                        appropriate occupations
                        for plotting. Def. T=12500 K
 
        -gfn1         : use GFN-xTB
        -gfn2         : use GFN2-xTB
        -gfn2d3       : GFN2-xTB with D3 instead of D4
        -grad         : GFNn-xTB gradient
        -acc <real>   : GFNn-xTB accuracy (def. 1.0)
        -opt [level]  : optimize at GFNn-xTB
                      : level=crude,vloose,loose,
                      :       tight,vtight
        -hess         : compute Hessian at GFNn-xTB
        -ohess        : optimize and compute Hessian
        -omd          : optimize and do MD
        -siman        : conformational search
        -screen       : opt. loop over ensemble
        -gmd          : annealed MD for GMD procedure
        -modef        : vib mode following
        -gbsa [string1] [string2]
                        use GBSA implicit solvent
                        for solvent [string1] and
                        solvation state [string2]=
                        reference, bar1M (default=1M)
        additional GFN/opt/MD/siman options read from
        $XTBHOME/.xtbrc or $set in coordinate file
 
       spin and charge state information can be on:
       <.CHRG> (charge) and <.UHF> (=nalpha-nbeta)
       -uhf and -chrg override the file info.
       useful machine settings:
       setenv MKL_NUM_THREADS <NCORE_ON_YOUR_MACHINE>
       setenv OMP_STACKSIZE 500m
       limit stacksize unlimited
 
       total energies in Eh, gaps/HL energies in eV
       please read REVISION and HOWTO files carefully
          88  days left until this code expires
 =============================
  # OMP threads =           2
 =============================
 
 xtbhome directory:/home/kruse/Progs/XTB/
 
 argument            1 :-chrg
 argument            2 :-2
 argument            3 :-grad
 argument            4 :-gfn2
 argument            5 :-gbsa
 argument            6 :h2o
 argument            7 :-acc
 argument            8 :1
 argument            9 :-etemp
 argument           10 :500
 
 name of molecule           :
 comment line               :
 number of atoms            :   219
 number of electrons        :   596
 charge                     : -2
 spin                       : 0.0
 first test random number   :  0.0938
 
 
 -----------------------------------------
  G F N (Geometry, Frequency, Non-covalent)
        parametrization, gfnver=           3
     D4 dispersion model
 /home/kruse/Progs/XTB/.param_gfn2.xtb
 -----------------------------------------
      method parameters     
 k(s)        :  1.8500
 k(p)        :  2.2300
 k(d)        :  2.2300
 k(f)        :  2.0000
 kEN (H0ij)  : -2.0000
 D3 a1       :  0.5200
 D3 a2       :  5.0000
 D3 s8       :  2.7000
 D3atm       :  5.0000
 alphaj      :  2.0000
 
 Solvent             : h2o
 GBSA parameter file : /home/kruse/Progs/XTB/.param_gbsa_h2o
 Gsolv ref. state (COSMO-RS): gsolv [1 M gas/solution]
 temperature (mdtemp)       :    298.150000000000     
 dielectric constant        :    78.5000000000000     
 rho                        :   0.998000000000000     
 mass                       :    18.0000000000000     
 surface tension            :    15.5689470637553     
 probe radius               :   0.976041290000000     
 vdW radii scaling          :    1.00000000000000     
 Gshift (Eh)                :   2.075470419022681E-003
 c1                         :    1.58079374000000     
 soset                      :   7.194512000000000E-002
 HB correction              :  T
 
 doing EN charges ...
 sum q : -0.2000000D+01
 point charge moment (au)
     X       Y       Z   
-243.1916-362.1772-451.0990  total (Debye): 1595.078
 
            Z     q(EN)     CN     RAES       Cart. coordinates
     1  N   5.0   -0.39    3.20    1.96   114.44315   188.13901   210.05753
     2  C   4.0   -0.02    4.19    3.98   112.73785   190.20463   210.47545
     3  C   4.0    0.09    3.18    3.03   111.91353   191.49592   208.17826
     4  O   6.0   -0.19    1.09    1.80   109.81784   192.07978   207.68303
     5  C   4.0   -0.11    4.26    4.12   113.59711   191.91049   212.55356
     6  C   4.0   -0.12    4.19    3.99   113.41181   191.11836   215.22393
     7  C   4.0    0.20    3.16    3.03   115.03909   188.88281   215.84123
     8  O   6.0   -0.17    1.20    1.80   116.49479   187.90226   214.35394
     9  N   5.0   -0.32    3.18    1.95   114.77662   187.96748   218.16573
    10  H   1.0    0.12    1.05    1.44   116.08241   188.36342   210.86117
    11  H   1.0    0.04    1.05    1.44   111.02485   189.31457   211.24818
    12  H   1.0    0.04    1.03    1.43   115.57222   192.34079   212.17644
    13  H   1.0    0.05    1.03    1.43   112.72354   193.72960   212.28994
    14  H   1.0    0.05    1.03    1.43   113.79131   192.63084   216.47476
    15  H   1.0    0.05    1.03    1.43   111.46485   190.67981   215.59015
    16  H   1.0    0.11    1.03    1.43   113.61709   188.70128   219.43307
    17  H   1.0    0.11    1.02    1.43   115.73527   186.47043   218.76303
    18  N   5.0   -0.41    3.19    1.95   124.01231   166.46486   213.97678
    19  C   4.0   -0.02    4.22    4.05   125.47337   167.18978   216.08695
    20  C   4.0    0.10    3.19    3.03   126.30322   164.96487   217.62554
    21  O   6.0   -0.20    1.10    1.80   124.94891   163.28285   218.13343
    22  C   4.0   -0.12    4.19    3.99   124.20911   169.14369   217.67633
    23  S   6.0   -0.11    2.29    3.10   126.05146   170.74329   220.22174
    24  H   1.0    0.14    1.03    1.43   122.31489   167.02917   213.97635
    25  H   1.0    0.04    1.04    1.43   127.15104   168.09492   215.31662
    26  H   1.0    0.04    1.05    1.44   123.39947   170.59728   216.49932
    27  H   1.0    0.04    1.05    1.44   122.56827   168.28462   218.50970
    28  N   5.0   -0.44    3.13    1.94   129.13356   166.79711   223.61648
    29  C   4.0   -0.20    4.17    3.94   129.09955   168.01294   226.13420
    30  C   4.0    0.21    3.25    3.04   126.84528   167.44809   227.73838
    31  O   6.0   -0.16    1.19    1.80   126.85641   168.35122   229.87277
    32  H   1.0    0.18    1.06    1.44   129.16327   167.91708   222.30510
    33  H   1.0    0.15    1.06    1.44   130.65064   167.76976   226.69695
    34  H   1.0    0.06    1.04    1.43   129.16524   169.91072   225.72617
    35  N   5.0   -0.28    3.29    1.98   124.89900   166.19788   226.89939
    36  C   4.0   -0.05    4.27    4.14   122.80874   165.54838   228.26421
    37  C   4.0    0.19    3.20    3.04   120.30300   165.48019   227.09935
    38  O   6.0   -0.16    1.15    1.80   119.03307   163.55116   226.98337
    39  H   1.0    0.11    1.06    1.44   124.83977   165.58794   225.12912
    40  H   1.0    0.04    1.03    1.43   123.11700   163.69845   229.10831
    41  H   1.0    0.05    1.04    1.43   122.76112   166.74902   229.90525
    42  N   5.0   -0.25    3.34    2.00   119.41944   167.71364   226.06336
    43  C   4.0   -0.02    4.28    4.15   116.98771   168.25092   225.08006
    44  C   4.0    0.08    3.22    3.04   116.09828   166.47818   223.01076
    45  O   6.0   -0.18    1.09    1.80   113.91105   166.31803   222.47089
    46  C   4.0   -0.11    4.18    3.95   116.70422   170.84119   224.28668
    47  S   6.0   -0.12    2.15    3.10   117.72906   171.91287   221.21218
    48  H   1.0    0.12    1.08    1.44   120.58570   169.14430   225.89952
    49  H   1.0    0.04    1.04    1.43   115.72411   167.80439   226.65993
    50  H   1.0    0.04    1.04    1.44   114.71176   171.42563   224.47635
    51  H   1.0    0.04    1.05    1.44   117.56934   172.08882   225.69826
    52  N   5.0   -0.47    3.24    1.97   134.16533   171.93061   217.51183
    53  C   4.0   -0.48    4.30    4.20   132.59158   172.86363   219.59748
    54  C   4.0    0.22    3.44    3.09   131.34038   175.15063   218.66154
    55  O   6.0   -0.12    1.23    1.80   132.66452   176.90389   217.57280
    56  C   4.0   -0.08    4.22    4.04   134.60186   173.65989   221.76459
    57  C   4.0   -0.27    4.12    3.84   136.09833   171.11104   222.51674
    58  C   4.0   -0.29    4.15    3.90   132.91623   174.43847   224.01912
    59  C   4.0   -0.30    4.06    3.74   138.66000   171.06743   220.96974
    60  H   1.0    0.21    1.04    1.43   135.58138   172.76863   217.15688
    61  H   1.0    0.50    1.13    1.45   131.77106   171.89502   220.12282
    62  H   1.0    0.06    1.03    1.43   135.82597   175.12420   221.27414
    63  H   1.0    0.08    1.05    1.44   136.65019   171.46700   224.24566
    64  H   1.0    0.17    1.05    1.44   135.19998   169.75489   222.26629
    65  H   1.0    0.08    1.03    1.43   134.04020   174.78883   225.47035
    66  H   1.0    0.10    1.03    1.43   132.06899   175.96874   223.66738
    67  H   1.0    0.10    1.03    1.43   131.75940   173.15354   224.52378
    68  H   1.0    0.07    1.03    1.43   139.48838   169.48171   221.63914
    69  H   1.0    0.13    1.03    1.43   138.37823   170.87139   219.30106
    70  H   1.0    0.08    1.02    1.43   139.68649   172.53984   221.40113
    71  N   5.0   -0.39    3.47    2.06   129.12982   175.60303   218.88893
    72  C   4.0   -0.33    4.35    4.28   127.90112   177.88789   217.71295
    73  C   4.0    0.18    3.37    3.07   128.16382   179.99824   219.46361
    74  O   6.0   -0.13    1.17    1.80   129.65744   179.85348   221.38067
    75  C   4.0   -0.21    4.11    3.82   124.95749   177.20059   217.41055
    76  S   6.0   -0.16    2.26    3.10   122.95836   176.68834   220.40085
    77  H   1.0    0.19    1.17    1.46   128.09717   174.46917   219.64864
    78  H   1.0    0.35    1.12    1.45   128.28644   177.95918   216.30618
    79  H   1.0    0.11    1.08    1.44   124.17832   178.54942   216.57281
    80  H   1.0    0.08    1.06    1.44   124.74990   175.74377   216.29476
    81  N   5.0   -0.30    3.42    2.03   126.81968   182.01721   219.12237
    82  C   4.0   -0.01    4.45    4.45   127.04334   184.29161   220.53565
    83  C   4.0    0.18    3.30    3.05   126.10061   184.01839   223.14054
    84  O   6.0   -0.15    1.15    1.80   127.40856   184.49607   225.05401
    85  C   4.0   -0.06    4.30    4.19   126.17187   186.54293   219.03896
    86  C   4.0   -0.10    4.26    4.12   123.51170   186.40469   218.40301
    87  C   4.0   -0.16    4.17    3.95   127.73793   187.01720   216.80719
    88  C   4.0   -0.16    4.09    3.79   121.55573   187.01176   220.12186
    89  H   1.0    0.14    1.07    1.44   125.58538   182.11600   217.81099
    90  H   1.0    0.04    1.04    1.43   129.09587   184.60095   220.81123
    91  H   1.0    0.05    1.05    1.44   126.31602   188.13823   220.31192
    92  H   1.0    0.04    1.03    1.43   123.16530   187.49719   216.67334
    93  H   1.0    0.04    1.03    1.43   123.12817   184.50087   217.70422
    94  H   1.0    0.05    1.01    1.43   127.16077   188.59027   215.69736
    95  H   1.0    0.05    1.00    1.43   129.70410   187.31535   217.20933
    96  H   1.0    0.04    1.00    1.43   127.70414   185.41940   215.53531
    97  H   1.0    0.04    1.00    1.43   119.65868   186.79902   219.39288
    98  H   1.0    0.05    1.03    1.43   121.63559   185.89630   221.76195
    99  H   1.0    0.05    1.03    1.43   121.67090   188.93334   220.71708
   100  N   5.0   -0.27    3.37    2.01   123.78988   182.94410   223.42820
   101  C   4.0   -0.01    4.32    4.24   122.55808   182.39482   225.80062
   102  C   4.0    0.23    3.29    3.05   124.07363   180.66288   227.53388
   103  O   6.0   -0.19    1.19    1.80   124.37497   180.92183   229.74262
   104  C   4.0   -0.11    4.29    4.17   119.92884   181.75961   225.53911
   105  C   4.0    0.21    3.16    3.03   118.17519   183.84152   224.81855
   106  O   6.0   -0.18    1.17    1.80   118.70676   186.03561   225.03896
   107  N   5.0   -0.32    3.16    1.95   115.91919   183.17349   223.86153
   108  H   1.0    0.14    1.06    1.44   122.84890   182.32219   222.01406
   109  H   1.0    0.04    1.04    1.43   122.63015   184.24061   226.79481
   110  H   1.0    0.05    1.03    1.43   119.78940   180.23549   224.17943
   111  H   1.0    0.05    1.03    1.43   119.24190   180.86399   227.23587
   112  H   1.0    0.12    1.02    1.43   114.65612   184.42687   223.34179
   113  H   1.0    0.11    1.02    1.43   115.42468   181.38743   223.63210
   114  N   5.0   -0.26    3.48    2.06   125.12647   178.64836   226.44652
   115  C   4.0   -0.01    4.46    4.48   126.47035   176.76099   227.63389
   116  C   4.0    0.21    3.32    3.06   129.15908   177.35196   228.24301
   117  O   6.0   -0.18    1.17    1.80   130.47156   175.92995   229.44620
   118  C   4.0   -0.12    4.20    4.00   126.26217   174.32600   226.25350
   119  S   6.0   -0.19    2.49    3.10   123.25907   173.26492   225.66331
   120  H   1.0    0.10    1.07    1.44   124.98900   178.38010   224.55749
   121  H   1.0    0.05    1.06    1.44   125.53194   176.51836   229.43056
   122  H   1.0    0.05    1.07    1.44   127.27331   174.51275   224.49910
   123  H   1.0    0.05    1.06    1.44   127.33410   172.87388   227.22264
   124  N   5.0   -0.28    3.40    2.02   130.08127   179.50476   227.27184
   125  C   4.0   -0.02    4.24    4.08   132.55223   180.44305   227.77018
   126  C   4.0    0.19    3.16    3.03   132.66280   181.58431   230.45490
   127  O   6.0   -0.12    1.10    1.80   130.54988   181.95946   231.64382
   128  C   4.0   -0.16    4.16    3.93   133.49438   182.09365   225.88577
   129  O   6.0   -0.13    1.09    1.80   134.78081   182.16761   231.43031
   130  H   1.0    0.14    1.07    1.44   129.12544   180.59413   226.19026
   131  H   1.0    0.05    1.05    1.44   133.78739   178.81256   227.80123
   132  H   1.0    0.05    1.01    1.43   135.35642   182.75672   226.21846
   133  H   1.0    0.05    1.01    1.43   133.50408   181.28127   224.02722
   134  H   1.0    0.05    1.01    1.43   132.33254   183.75947   225.72217
   135  ZN  2.0    0.57    3.84    5.00   122.16310   172.69507   221.70366
   136  N   5.0   -0.41    3.30    1.98   113.33688   195.74501   223.32977
   137  C   4.0   -0.00    4.25    4.10   113.27750   193.41493   222.22140
   138  C   4.0    0.09    3.16    3.03   111.66654   191.44866   223.53406
   139  O   6.0   -0.20    1.10    1.80   112.05813   189.26058   223.35012
   140  C   4.0   -0.11    4.36    4.32   115.88034   192.66298   221.67503
   141  C   4.0   -0.11    4.34    4.26   117.49641   194.72899   221.04375
   142  C   4.0    0.22    3.18    3.03   120.19600   194.22919   221.10464
   143  O   6.0   -0.19    1.20    1.80   121.00373   192.35277   222.03800
   144  N   5.0   -0.31    3.16    1.95   121.72728   196.01551   220.12559
   145  H   1.0    0.12    1.05    1.44   114.79216   195.97595   224.42720
   146  H   1.0    0.04    1.03    1.43   112.28022   193.63273   220.37756
   147  H   1.0    0.05    1.04    1.43   116.61585   191.63983   223.22123
   148  H   1.0    0.05    1.04    1.43   115.96270   191.28900   220.14785
   149  H   1.0    0.05    1.03    1.43   116.99451   195.53712   219.23548
   150  H   1.0    0.05    1.05    1.44   117.08911   196.29297   222.31196
   151  H   1.0    0.11    1.02    1.43   121.08976   197.57303   219.32647
   152  H   1.0    0.10    1.02    1.43   123.60002   195.81620   220.13456
   153  N   5.0   -0.31    3.40    2.02   111.30076   188.71838   229.15699
   154  C   4.0   -0.02    4.45    4.47   112.31382   186.47793   230.33204
   155  C   4.0    0.07    3.18    3.03   110.25125   185.07263   231.76205
   156  O   6.0   -0.17    1.08    1.80   108.82987   186.13395   233.21646
   157  C   4.0   -0.11    4.48    4.51   114.28336   187.27944   231.90514
   158  C   4.0   -0.11    4.38    4.34   115.01414   189.72445   231.08945
   159  C   4.0   -0.06    4.40    4.38   112.68094   190.80197   230.16686
   160  H   1.0    0.04    1.04    1.43   112.93808   185.15909   228.87714
   161  H   1.0    0.05    1.04    1.43   113.77784   187.41695   233.86013
   162  H   1.0    0.05    1.03    1.43   115.93291   186.07978   231.94469
   163  H   1.0    0.05    1.03    1.43   115.91765   190.86056   232.47671
   164  H   1.0    0.05    1.03    1.43   116.39969   189.62971   229.58419
   165  H   1.0    0.05    1.01    1.43   111.66973   191.82750   231.62240
   166  H   1.0    0.04    1.01    1.43   112.97064   192.30068   228.75710
   167  N   5.0   -0.55    3.19    1.95   110.32224   178.73891   235.26335
   168  C   4.0   -0.32    4.16    3.91   111.30349   176.35465   236.44799
   169  C   4.0    0.01    3.18    3.03   110.77900   176.50709   239.31419
   170  O   6.0   -0.11    1.06    1.80   109.84854   178.57789   240.35045
   171  C   4.0   -0.18    4.32    4.24   114.12182   176.19595   236.00977
   172  C   4.0   -0.22    4.21    4.02   115.53530   178.60743   235.83546
   173  C   4.0   -0.20    4.21    4.02   118.27545   177.86994   235.06734
   174  C   4.0   -0.16    4.16    3.92   120.12468   180.03246   235.53959
   175  N   5.0   -0.79    4.07    3.06   122.77353   179.30660   234.79496
   176  H   1.0    0.29    1.05    1.44   110.39348   180.01073   236.21241
   177  H   1.0    0.34    1.12    1.45   110.49089   175.21493   236.02781
   178  H   1.0    0.09    1.06    1.44   114.96914   175.22943   237.33237
   179  H   1.0    0.08    1.05    1.44   114.31573   175.17725   234.45476
   180  H   1.0    0.09    1.06    1.44   114.83525   179.62799   234.51528
   181  H   1.0    0.11    1.06    1.44   115.55683   179.44840   237.38159
   182  H   1.0    0.09    1.05    1.44   118.82946   176.41753   236.00691
   183  H   1.0    0.09    1.05    1.44   118.33006   177.42077   233.29256
   184  H   1.0    0.08    1.04    1.43   119.57751   181.50416   234.55240
   185  H   1.0    0.09    1.04    1.44   120.05500   180.52180   237.28162
   186  H   1.0    0.20    1.05    1.44   123.77379   180.62938   235.17682
   187  H   1.0    0.30    1.05    1.44   123.36553   178.12995   235.70042
   188  H   1.0    0.23    1.05    1.44   122.79054   178.92986   233.16524
   189  N   5.0   -0.36    3.12    1.94   126.09216   193.85499   233.18431
   190  C   4.0   -0.13    4.21    4.01   126.03092   193.06377   230.44978
   191  C   4.0    0.07    3.16    3.03   125.18805   195.10948   228.67527
   192  O   6.0   -0.17    1.09    1.80   126.67201   195.65568   227.01442
   193  C   4.0   -0.12    4.22    4.03   124.16915   190.70278   230.21053
   194  C   4.0   -0.32    4.19    3.99   123.44925   190.29847   227.57168
   195  C   4.0   -0.38    4.10    3.80   125.47579   188.21581   231.37538
   196  H   1.0    0.10    1.02    1.43   124.85025   192.91967   234.24706
   197  H   1.0    0.15    1.09    1.44   127.54463   192.34121   230.28317
   198  H   1.0    0.10    1.07    1.44   122.74070   190.97994   231.23689
   199  H   1.0    0.08    1.04    1.43   122.25509   188.87946   227.47986
   200  H   1.0    0.10    1.04    1.43   122.47117   191.65153   226.96197
   201  H   1.0    0.11    1.04    1.43   124.83905   190.11910   226.52253
   202  H   1.0    0.11    1.03    1.43   124.38176   186.86356   231.03855
   203  H   1.0    0.11    1.03    1.43   126.86430   187.86740   230.36307
   204  H   1.0    0.14    1.03    1.43   125.91398   188.46490   232.99444
   205  H   1.0    0.20    1.05    1.44   113.76508   186.70840   210.67893
   206  H   1.0    0.07    1.04    1.43   113.17629   191.96417   206.85265
   207  H   1.0    0.19    1.05    1.44   124.71886   167.08181   212.55808
   208  H   1.0    0.07    1.03    1.43   128.07815   164.86885   218.26702
   209  H   1.0    0.19    1.04    1.43   130.51785   165.81892   223.47705
   210  H   1.0    0.07    1.03    1.43   117.34983   165.41815   222.07214
   211  H   1.0    0.20    1.05    1.44   134.66470   170.33938   217.84528
   212  H   1.0    0.20    1.06    1.44   113.39984   196.94485   222.12603
   213  H   1.0    0.07    1.03    1.43   110.20628   191.98615   224.60634
   214  H   1.0    0.20    1.09    1.44   111.52083   188.62529   227.47311
   215  H   1.0    0.07    1.03    1.43   110.03249   183.21152   231.51816
   216  H   1.0    0.20    1.05    1.44   111.23444   179.09962   233.87398
   217  H   1.0    0.07    1.02    1.43   111.14437   175.02037   240.42199
   218  H   1.0    0.19    1.03    1.43   127.64121   193.56621   233.82432
   219  H   1.0    0.07    1.02    1.43   123.49926   195.92504   228.90744
 
  Z AO/shell   Hii/eV     exponent
  1     Wed Apr 25 08:07:45 CEST 2018   EN: 2.200 GM2: 0.406  GM3: 0.0800  RAES: 1.40
     1s    -10.707211    1.230000
  6     Wed Apr 25 08:07:45 CEST 2018   EN: 2.550 GM2: 0.538  GM3: 0.1500  RAES: 3.00
     2s    -13.970922    2.096432
     2p    -10.063292    1.800000
  7     Wed Apr 25 08:07:45 CEST 2018   EN: 3.040 GM2: 0.461  GM3:-0.0640  RAES: 1.90
     2s    -16.686243    2.339881
     2p    -12.523956    2.014332
  8     Wed Apr 25 08:07:45 CEST 2018   EN: 3.440 GM2: 0.452  GM3:-0.0517  RAES: 1.80
     2s    -20.229985    2.439742
     2p    -15.503117    2.137023
 16     Tue Apr 24 11:44:34 CEST 2018   EN: 2.580 GM2: 0.340  GM3:-0.0502  RAES: 3.10
     3s    -20.029654    1.981333
     3p    -11.377694    2.025643
     3d     -0.420282    1.702555
 30     Wed Apr 25 13:34:15 CEST 2018   EN: 1.650 GM2: 0.564  GM3: 0.2313  RAES: 5.00
     4s     -7.177294    1.664847
     4p     -0.991895    1.176434
 no old-style atom pair restraing (fixing) potential
 
 molecular fragmentation (1/2 indicates fragments):
11111111111111111222222222222222222222222222222222222222222222222222222222222222
22222222222222222222222222222222222222222222222222222222222222222222222222222222
22222222222222222222222222222222222222222222112222222222222
# atoms in fragment 1/2:    19   200
 fragment masses (1/2) :      130.15     1482.17
CMA distance (Bohr)    :  19.094
constraining FC (au)   :  0.0500
 
             =======================================
             |                                     |
             |        S C C  calculation           |
             |                                     |
             =======================================
 #proc     :            2
 Ncao      :          555
 Nao       :          551
 Nel       :          596
 T(el)     :   500.0
 intcut    :    25.0
 scfconv   :  0.100E-05
   qconv   :  0.100E-03
 intneglect:  0.100E-07
 broydamp  :      0.400
 Nshell    :          327
 iter      E             dE          RMSdq      gap      omega  full diag
   1   -339.0095996 -0.339010E+03  0.536E+00    1.07       0.0  T
   2   -340.8656749 -0.185608E+01  0.249E+00    0.48       1.0  T
   3   -340.9377307 -0.720558E-01  0.141E+00    0.81       1.0  T
   4   -340.9609309 -0.232002E-01  0.647E-01    0.20       1.0  T
   5   -341.0030244 -0.420936E-01  0.323E-01    1.02       1.0  T
   6   -341.0106120 -0.758760E-02  0.169E-01    0.70       1.0  T
   7   -341.0113114 -0.699351E-03  0.972E-02    0.64       1.0  T
   8   -341.0115858 -0.274378E-03  0.489E-02    0.54       1.0  T
   9   -341.0116261 -0.403008E-04  0.325E-02    0.62       1.0  T
  10   -341.0116836 -0.574822E-04  0.174E-02    0.63       1.0  T
  11   -341.0116892 -0.569100E-05  0.865E-03    0.64       1.0  T
  12   -341.0116911 -0.185298E-05  0.382E-03    0.64       1.8  T
  13   -341.0116914 -0.277161E-06  0.167E-03    0.64       4.0  T
  14   -341.0116914 -0.667368E-07  0.879E-04    0.64       7.7  T
  15   -341.0116915 -0.121540E-07  0.341E-04    0.64      19.8  T
speedup  1.98
cpu  time for SCC    2.60 s
wall time for SCC    1.31 s

          eigenvalues
 #    :         286        287        288        289        290        291        292        293
 occ. :        2.000      2.000      2.000      2.000      2.000      2.000      2.000      2.000
 eps  :        -9.898     -9.894     -9.870     -9.703     -9.533     -9.530     -9.401     -9.367
 #    :         294        295        296        297        298        299        300        301
 occ. :        2.000      2.000      2.000      2.000      1.999      0.001      0.000      0.000
 eps  :        -9.199     -9.086     -8.959     -8.892     -8.796     -8.154     -7.635     -7.562
 #    :         302        303        304        305        306        307        308        309
 occ. :        0.000      0.000      0.000      0.000      0.000      0.000      0.000      0.000
 eps  :        -7.475     -7.335     -7.274     -7.177     -6.639     -6.587     -6.394     -5.999
 

   #   Z            q   n(s)   n(p)   n(d)      C6AA      α(0)    relVol
   1   7 N     -0.409  1.305  4.104  0.000    31.055     8.280     1.098
   2   6 C      0.041  1.034  2.925  0.000    19.922     6.360     0.515
   3   6 C      0.217  1.068  2.715  0.000    23.364     7.909     0.640
   4   8 O     -0.380  1.734  4.646  0.000    21.409     6.209     1.195
   5   6 C     -0.053  1.028  3.025  0.000    21.530     6.602     0.534
   6   6 C     -0.096  1.037  3.059  0.000    22.352     6.731     0.545
   7   6 C      0.293  1.030  2.677  0.000    21.941     7.660     0.620
   8   8 O     -0.502  1.751  4.751  0.000    23.841     6.553     1.261
   9   7 N     -0.279  1.250  4.029  0.000    27.566     7.801     1.035
  10   1 H      0.190  0.810  0.000  0.000     1.112     1.651     0.327
  11   1 H      0.045  0.955  0.000  0.000     2.375     2.409     0.477
  12   1 H      0.053  0.947  0.000  0.000     2.267     2.354     0.466
  13   1 H      0.050  0.950  0.000  0.000     2.311     2.377     0.470
  14   1 H      0.089  0.911  0.000  0.000     1.873     2.140     0.423
  15   1 H      0.075  0.925  0.000  0.000     2.011     2.217     0.439
  16   1 H      0.228  0.772  0.000  0.000     0.920     1.502     0.297
  17   1 H      0.209  0.791  0.000  0.000     1.011     1.575     0.312
  18   7 N     -0.392  1.294  4.098  0.000    30.586     8.217     1.090
  19   6 C      0.050  1.035  2.915  0.000    19.756     6.330     0.512
  20   6 C      0.224  1.072  2.704  0.000    23.222     7.887     0.638
  21   8 O     -0.372  1.728  4.644  0.000    21.239     6.185     1.190
  22   6 C      0.047  1.047  2.905  0.000    19.788     6.332     0.512
  23  16 S     -0.639  1.937  4.685  0.017   171.529    22.039     1.124
  24   1 H      0.169  0.831  0.000  0.000     1.240     1.743     0.345
  25   1 H      0.036  0.964  0.000  0.000     2.501     2.472     0.489
  26   1 H      0.010  0.990  0.000  0.000     2.889     2.657     0.526
  27   1 H     -0.009  1.009  0.000  0.000     3.213     2.802     0.554
  28   7 N     -0.417  1.296  4.121  0.000    31.304     8.313     1.103
  29   6 C     -0.011  0.989  3.022  0.000    20.884     6.523     0.528
  30   6 C      0.279  1.033  2.687  0.000    22.198     7.712     0.624
  31   8 O     -0.532  1.747  4.784  0.000    24.505     6.644     1.278
  32   1 H      0.162  0.838  0.000  0.000     1.283     1.773     0.351
  33   1 H      0.094  0.906  0.000  0.000     1.820     2.109     0.417
  34   1 H      0.042  0.958  0.000  0.000     2.420     2.432     0.481
  35   7 N     -0.133  1.199  3.934  0.000    24.155     7.303     0.969
  36   6 C     -0.013  1.012  3.001  0.000    20.849     6.504     0.526
  37   6 C      0.275  1.040  2.686  0.000    22.269     7.720     0.625
  38   8 O     -0.483  1.746  4.736  0.000    23.456     6.500     1.251
  39   1 H      0.194  0.806  0.000  0.000     1.090     1.634     0.323
  40   1 H      0.081  0.919  0.000  0.000     1.955     2.186     0.433
  41   1 H      0.103  0.897  0.000  0.000     1.730     2.056     0.407
  42   7 N     -0.189  1.237  3.953  0.000    25.418     7.491     0.994
  43   6 C      0.045  1.040  2.915  0.000    19.809     6.334     0.513
  44   6 C      0.233  1.069  2.698  0.000    23.057     7.861     0.636
  45   8 O     -0.354  1.731  4.623  0.000    20.905     6.136     1.181
  46   6 C      0.033  1.036  2.930  0.000    20.016     6.369     0.515
  47  16 S     -0.597  1.925  4.652  0.021   169.370    21.900     1.117
  48   1 H      0.200  0.800  0.000  0.000     1.055     1.608     0.318
  49   1 H      0.087  0.913  0.000  0.000     1.893     2.151     0.426
  50   1 H      0.064  0.936  0.000  0.000     2.133     2.283     0.452
  51   1 H      0.052  0.948  0.000  0.000     2.288     2.365     0.468
  52   7 N     -0.410  1.287  4.123  0.000    31.088     8.284     1.099
  53   6 C      0.019  0.995  2.987  0.000    20.253     6.404     0.518
  54   6 C      0.274  1.034  2.693  0.000    22.329     7.750     0.627
  55   8 O     -0.641  1.780  4.862  0.000    27.024     6.978     1.343
  56   6 C     -0.023  1.082  2.941  0.000    20.965     6.513     0.527
  57   6 C     -0.092  1.010  3.082  0.000    22.321     6.733     0.545
  58   6 C     -0.098  0.960  3.139  0.000    22.459     6.758     0.547
  59   6 C     -0.147  0.980  3.167  0.000    23.512     6.931     0.561
  60   1 H      0.172  0.828  0.000  0.000     1.216     1.726     0.342
  61   1 H      0.089  0.911  0.000  0.000     1.870     2.137     0.423
  62   1 H      0.022  0.978  0.000  0.000     2.691     2.565     0.507
  63   1 H      0.048  0.952  0.000  0.000     2.339     2.391     0.473
  64   1 H      0.078  0.922  0.000  0.000     1.986     2.203     0.436
  65   1 H      0.027  0.973  0.000  0.000     2.623     2.532     0.501
  66   1 H      0.008  0.992  0.000  0.000     2.922     2.673     0.529
  67   1 H      0.033  0.967  0.000  0.000     2.534     2.489     0.492
  68   1 H      0.057  0.943  0.000  0.000     2.224     2.331     0.461
  69   1 H      0.076  0.924  0.000  0.000     2.008     2.215     0.438
  70   1 H      0.043  0.957  0.000  0.000     2.395     2.420     0.479
  71   7 N     -0.131  1.212  3.919  0.000    24.110     7.296     0.968
  72   6 C      0.018  1.011  2.971  0.000    20.249     6.400     0.518
  73   6 C      0.282  1.034  2.685  0.000    22.178     7.718     0.625
  74   8 O     -0.594  1.796  4.799  0.000    25.941     6.836     1.315
  75   6 C     -0.019  1.034  2.985  0.000    20.973     6.526     0.528
  76  16 S     -0.572  1.902  4.640  0.030   168.107    21.818     1.112
  77   1 H      0.196  0.804  0.000  0.000     1.075     1.621     0.321
  78   1 H      0.125  0.875  0.000  0.000     1.544     1.942     0.384
  79   1 H      0.084  0.916  0.000  0.000     1.914     2.162     0.428
  80   1 H      0.053  0.947  0.000  0.000     2.277     2.359     0.467
  81   7 N     -0.149  1.215  3.934  0.000    24.517     7.357     0.976
  82   6 C      0.039  1.039  2.921  0.000    19.875     6.337     0.513
  83   6 C      0.279  1.044  2.677  0.000    22.218     7.719     0.625
  84   8 O     -0.537  1.777  4.759  0.000    24.633     6.661     1.282
  85   6 C     -0.009  1.032  2.977  0.000    20.701     6.469     0.524
  86   6 C     -0.055  1.024  3.032  0.000    21.557     6.605     0.535
  87   6 C     -0.119  1.023  3.096  0.000    22.834     6.810     0.551
  88   6 C     -0.120  1.009  3.112  0.000    22.934     6.837     0.553
  89   1 H      0.234  0.766  0.000  0.000     0.893     1.479     0.293
  90   1 H      0.055  0.945  0.000  0.000     2.250     2.345     0.464
  91   1 H      0.050  0.950  0.000  0.000     2.311     2.376     0.470
  92   1 H      0.052  0.948  0.000  0.000     2.280     2.361     0.467
  93   1 H      0.027  0.973  0.000  0.000     2.623     2.532     0.501
  94   1 H      0.074  0.926  0.000  0.000     2.032     2.229     0.441
  95   1 H      0.036  0.964  0.000  0.000     2.493     2.469     0.489
  96   1 H      0.044  0.956  0.000  0.000     2.388     2.416     0.478
  97   1 H      0.044  0.956  0.000  0.000     2.388     2.416     0.478
  98   1 H      0.036  0.964  0.000  0.000     2.491     2.467     0.488
  99   1 H      0.061  0.939  0.000  0.000     2.179     2.308     0.457
 100   7 N     -0.178  1.235  3.943  0.000    25.151     7.452     0.988
 101   6 C      0.044  1.035  2.922  0.000    19.828     6.335     0.513
 102   6 C      0.283  1.038  2.679  0.000    22.148     7.707     0.624
 103   8 O     -0.464  1.710  4.755  0.000    23.043     6.443     1.240
 104   6 C     -0.095  1.032  3.063  0.000    22.309     6.719     0.544
 105   6 C      0.299  1.023  2.678  0.000    21.831     7.640     0.618
 106   8 O     -0.476  1.736  4.739  0.000    23.295     6.478     1.246
 107   7 N     -0.279  1.244  4.034  0.000    27.572     7.802     1.035
 108   1 H      0.225  0.775  0.000  0.000     0.933     1.512     0.299
 109   1 H      0.081  0.919  0.000  0.000     1.951     2.184     0.432
 110   1 H      0.082  0.918  0.000  0.000     1.936     2.176     0.430
 111   1 H      0.099  0.901  0.000  0.000     1.770     2.080     0.412
 112   1 H      0.235  0.765  0.000  0.000     0.889     1.477     0.292
 113   1 H      0.224  0.776  0.000  0.000     0.942     1.520     0.301
 114   7 N     -0.173  1.225  3.949  0.000    25.051     7.437     0.987
 115   6 C      0.054  1.030  2.916  0.000    19.626     6.297     0.510
 116   6 C      0.277  1.038  2.685  0.000    22.262     7.729     0.626
 117   8 O     -0.516  1.737  4.780  0.000    24.171     6.598     1.270
 118   6 C      0.096  1.013  2.891  0.000    18.990     6.201     0.502
 119  16 S     -0.564  1.865  4.669  0.030   167.679    21.790     1.111
 120   1 H      0.172  0.828  0.000  0.000     1.218     1.727     0.342
 121   1 H      0.061  0.939  0.000  0.000     2.172     2.304     0.456
 122   1 H     -0.041  1.041  0.000  0.000     3.861     3.071     0.608
 123   1 H     -0.009  1.009  0.000  0.000     3.206     2.799     0.554
 124   7 N     -0.179  1.229  3.950  0.000    25.184     7.457     0.989
 125   6 C      0.046  1.035  2.919  0.000    19.820     6.339     0.513
 126   6 C      0.337  1.049  2.614  0.000    21.145     7.514     0.608
 127   8 O     -0.648  1.785  4.863  0.000    27.280     7.009     1.349
 128   6 C     -0.086  1.008  3.078  0.000    22.207     6.718     0.544
 129   8 O     -0.626  1.775  4.851  0.000    26.757     6.942     1.336
 130   1 H      0.179  0.821  0.000  0.000     1.177     1.698     0.336
 131   1 H      0.025  0.975  0.000  0.000     2.654     2.547     0.504
 132   1 H      0.056  0.944  0.000  0.000     2.232     2.336     0.462
 133   1 H      0.040  0.960  0.000  0.000     2.443     2.444     0.484
 134   1 H      0.033  0.967  0.000  0.000     2.539     2.492     0.493
 135  30 ZN     0.346  1.153  0.501  0.000   121.959    21.556     0.480
 136   7 N     -0.391  1.288  4.103  0.000    30.551     8.213     1.089
 137   6 C      0.047  1.030  2.923  0.000    19.787     6.332     0.513
 138   6 C      0.202  1.079  2.719  0.000    23.641     7.955     0.644
 139   8 O     -0.367  1.728  4.639  0.000    21.144     6.171     1.187
 140   6 C     -0.067  1.012  3.054  0.000    21.752     6.631     0.537
 141   6 C     -0.095  1.031  3.063  0.000    22.286     6.714     0.543
 142   6 C      0.297  1.022  2.681  0.000    21.874     7.649     0.619
 143   8 O     -0.504  1.744  4.760  0.000    23.885     6.559     1.262
 144   7 N     -0.310  1.257  4.053  0.000    28.362     7.913     1.050
 145   1 H      0.173  0.827  0.000  0.000     1.211     1.723     0.341
 146   1 H      0.068  0.932  0.000  0.000     2.091     2.261     0.447
 147   1 H      0.052  0.948  0.000  0.000     2.283     2.362     0.467
 148   1 H      0.051  0.949  0.000  0.000     2.295     2.369     0.469
 149   1 H      0.066  0.934  0.000  0.000     2.118     2.275     0.450
 150   1 H      0.090  0.910  0.000  0.000     1.855     2.129     0.421
 151   1 H      0.227  0.773  0.000  0.000     0.927     1.508     0.298
 152   1 H      0.201  0.799  0.000  0.000     1.053     1.607     0.318
 153   7 N     -0.290  1.303  3.988  0.000    27.860     7.843     1.040
 154   6 C      0.044  1.035  2.921  0.000    19.778     6.320     0.512
 155   6 C      0.201  1.088  2.710  0.000    23.662     7.961     0.644
 156   8 O     -0.382  1.757  4.625  0.000    21.435     6.213     1.196
 157   6 C     -0.045  1.011  3.034  0.000    21.330     6.562     0.531
 158   6 C     -0.053  1.018  3.036  0.000    21.490     6.589     0.533
 159   6 C      0.026  1.023  2.951  0.000    20.103     6.374     0.516
 160   1 H      0.040  0.960  0.000  0.000     2.436     2.440     0.483
 161   1 H      0.043  0.957  0.000  0.000     2.404     2.424     0.480
 162   1 H      0.046  0.954  0.000  0.000     2.365     2.404     0.476
 163   1 H      0.039  0.961  0.000  0.000     2.452     2.448     0.484
 164   1 H      0.031  0.969  0.000  0.000     2.567     2.505     0.496
 165   1 H      0.023  0.977  0.000  0.000     2.683     2.561     0.507
 166   1 H      0.020  0.980  0.000  0.000     2.723     2.580     0.511
 167   7 N     -0.415  1.288  4.127  0.000    31.236     8.304     1.102
 168   6 C      0.015  1.011  2.974  0.000    20.378     6.436     0.521
 169   6 C      0.170  1.116  2.714  0.000    24.285     8.064     0.653
 170   8 O     -0.441  1.813  4.628  0.000    22.635     6.384     1.229
 171   6 C     -0.086  1.005  3.081  0.000    22.123     6.690     0.541
 172   6 C     -0.087  0.995  3.092  0.000    22.177     6.705     0.543
 173   6 C     -0.108  1.011  3.097  0.000    22.580     6.764     0.547
 174   6 C     -0.055  1.013  3.042  0.000    21.703     6.654     0.539
 175   7 N     -0.139  1.136  4.003  0.000    24.295     7.324     0.972
 176   1 H      0.182  0.818  0.000  0.000     1.159     1.685     0.333
 177   1 H      0.124  0.876  0.000  0.000     1.549     1.945     0.385
 178   1 H      0.072  0.928  0.000  0.000     2.045     2.235     0.442
 179   1 H      0.077  0.923  0.000  0.000     1.991     2.206     0.436
 180   1 H      0.079  0.921  0.000  0.000     1.977     2.198     0.435
 181   1 H      0.076  0.924  0.000  0.000     1.999     2.210     0.437
 182   1 H      0.084  0.916  0.000  0.000     1.917     2.164     0.428
 183   1 H      0.077  0.923  0.000  0.000     1.993     2.207     0.437
 184   1 H      0.119  0.881  0.000  0.000     1.590     1.971     0.390
 185   1 H      0.131  0.869  0.000  0.000     1.498     1.913     0.379
 186   1 H      0.287  0.713  0.000  0.000     0.694     1.304     0.258
 187   1 H      0.290  0.710  0.000  0.000     0.683     1.294     0.256
 188   1 H      0.269  0.731  0.000  0.000     0.755     1.360     0.269
 189   7 N     -0.411  1.333  4.077  0.000    31.114     8.288     1.099
 190   6 C      0.002  1.035  2.963  0.000    20.581     6.462     0.523
 191   6 C      0.214  1.079  2.707  0.000    23.410     7.915     0.641
 192   8 O     -0.387  1.755  4.632  0.000    21.527     6.226     1.198
 193   6 C     -0.030  1.048  2.982  0.000    21.100     6.535     0.529
 194   6 C     -0.133  0.951  3.182  0.000    23.129     6.856     0.555
 195   6 C     -0.157  0.956  3.201  0.000    23.681     6.949     0.562
 196   1 H      0.171  0.829  0.000  0.000     1.223     1.732     0.343
 197   1 H      0.075  0.925  0.000  0.000     2.016     2.219     0.439
 198   1 H      0.072  0.928  0.000  0.000     2.047     2.237     0.443
 199   1 H      0.062  0.938  0.000  0.000     2.167     2.302     0.455
 200   1 H      0.061  0.939  0.000  0.000     2.180     2.308     0.457
 201   1 H      0.037  0.963  0.000  0.000     2.478     2.461     0.487
 202   1 H      0.063  0.937  0.000  0.000     2.156     2.295     0.454
 203   1 H      0.032  0.968  0.000  0.000     2.557     2.500     0.495
 204   1 H      0.073  0.927  0.000  0.000     2.034     2.230     0.441
 205   1 H      0.174  0.826  0.000  0.000     1.205     1.719     0.340
 206   1 H      0.055  0.945  0.000  0.000     2.246     2.343     0.464
 207   1 H      0.198  0.802  0.000  0.000     1.065     1.616     0.320
 208   1 H      0.058  0.942  0.000  0.000     2.214     2.326     0.460
 209   1 H      0.187  0.813  0.000  0.000     1.129     1.664     0.329
 210   1 H      0.046  0.954  0.000  0.000     2.360     2.402     0.475
 211   1 H      0.197  0.803  0.000  0.000     1.076     1.624     0.321
 212   1 H      0.202  0.798  0.000  0.000     1.047     1.601     0.317
 213   1 H      0.064  0.936  0.000  0.000     2.137     2.285     0.452
 214   1 H      0.180  0.820  0.000  0.000     1.168     1.692     0.335
 215   1 H      0.073  0.927  0.000  0.000     2.036     2.231     0.441
 216   1 H      0.189  0.811  0.000  0.000     1.120     1.657     0.328
 217   1 H      0.084  0.916  0.000  0.000     1.920     2.166     0.429
 218   1 H      0.179  0.821  0.000  0.000     1.176     1.698     0.336
 219   1 H      0.077  0.923  0.000  0.000     1.992     2.207     0.437

 Mol. C6AA /au*bohr^6 :     480872.151286
 Mol. C8AA /au*bohr^6 :   11581258.341925
 Mol. a(0) /au        :       1048.685479

 
molecular dipole:
                 x           y           z       tot (Debye)
 q only:     -259.929    -347.308    -446.557
   full:      622.481    -348.078    -447.487    1582.222
molecular quadrupole (traceless):
                xx          xy          yy          xz          yz          zz
 q only:    46152.431  -67929.392    6481.099  -87181.985 -116387.261  -52633.529
  q+dip:    47200.966  -67304.499    6060.290  -86384.408 -116903.465  -53261.256
   full:    47200.299  -67302.742    6058.895  -86384.061 -116901.686  -53259.194
 SCC converged in           15  cycles
speedup  1.97
cpu  time for grad    0.59 s
wall time for grad    0.30 s
 
SCC energy    :    -340.9671771
rep           :       6.2222495
ES            :       1.4489851
AES           :      -0.0601827
AXC           :       0.0972094
disp          :      -0.2712062
XB            :       0.0000000
fix           :       0.0000000
Gborn         :      -0.4668877
Gsasa         :       0.0424389
Ghb           :      -0.0501903
Gshift        :       0.0020755
Gsolv         :      -0.4725636     -296.54
Etot ala COSMO:    -334.7196417
grad norm     :       2.2592085
total E       :    -334.7253176
atomizationE  :      57.7402533    36232.56
(atE without considerung molecular charge,
 total energy contains solvation terms)
H-L gap (eV)  :          0.6420
 
speedup  1.92
cpu  time for all    3.51 s
wall time for all    1.82 s
