      -----------------------------------------------------------      
     |                   =====================                   |     
     |                           x T B                           |     
     |                   =====================                   |     
     |                         S. Grimme                         |     
     |          Mulliken Center for Theoretical Chemistry        |     
     |                    University of Bonn                     |     
     |                 Version 6.0.1 (SAW181210)                 |     
      -----------------------------------------------------------      

   This program is distributed in the hope that it will be useful,
   but WITHOUT ANY WARRANTY; without even the implied warranty of
   MERCHANTABILITY or FITNESS FOR A PARTICULAR PURPOSE.
   
   FOR NON-COMMERCIAL, ACADEMIA USE ONLY.
   
   Cite this work as:
   S. Grimme, C. Bannwarth, P. Shushkov, J. Comput. Theory Chem., 2017,
   13, 1989-2009.
   C. Bannwarth, S. Ehlert and S. Grimme., ChemRxiv, 2018, preprint.
   http://doi.org/10.26434/chemrxiv.7246238.v1
   
   for sTDA-xTB:
   S. Grimme and C. Bannwarth, J. Chem. Phys., 2016, 145, 054103.
   
   in the mass-spec context:
   V. Asgeirsson, C. Bauer and S. Grimme, Chem. Sci., 2017, 8, 4879.
   
   if GBSA is used:
   P. Shushkov, F. März and S. Grimme, unpublished.
   
   for ANC optimizer:
   S. Grimme, unpublished.
   Rational Function algorithm used in ANCopt:
   F. Eckert, P. Pulay, H.-J. Werner, J. Comput. Chem., 1997, 18, 1473.
   
   with help from (in alphabetical order)
   C. Bannwarth, F. Bohle, G. Brandenburg, E. Caldeweyher, M. Checinski,
   S. Dohm, S. Ehlert, S. Ehrlich, F. März, H. Neugebauer, J. Pisarek,
   P. Pracht, P. Shushkov, and S. Spicher.
   
 * started run on 2019/05/06 at 00:42:07.875     
========================================================================
 # omp threads = 2
========================================================================
number of atoms            : 551
number of electrons        : 1478
charge                     : 4
spin                       : .0
first test random number   : .7493

########################################################################
# WARNING! Please study the warnings concerning your input carefully
#  - Process number higher than OMP_NUM_THREADS, I hope you know what you are doing.
########################################################################

           ------------------------------------------------- 
          |                 G F N 2 - x T B                 |
          | Geometry, Frequencies, Noncovalent interactions |
          |            JCTC 2018 parametrisation            |
           ------------------------------------------------- 
 
      method parameters     
 k(s)        :  1.8500
 k(p)        :  2.2300
 k(d)        :  2.2300
 k(f)        :  2.0000
 kEN (H0ij)  : -2.0000
 D4 a1       :  0.5200
 D4 a2       :  5.0000
 D4 s6       :  1.0000
 D4 s8       :  2.7000
 D4 s9       :  5.0000
 alphaj      :  2.0000

 Solvent             : h2o
 Using internal parameter file: .param_gbsa2_h2o
 Gsolv ref. state (COSMO-RS): gsolv [1 M gas/solution]
 temperature (mdtemp)       :    298.150000000000     
 dielectric constant        :    80.2000000000000     
 rho                        :    1.00000000000000     
 mass                       :    18.0000000000000     
 surface tension            :    15.5689454083859     
 probe radius               :   0.975313790000000     
 vdW radii scaling          :    1.00000000000000     
 Gshift (Eh)                :   1.857443126794793E-003
 c1                         :    1.55243817000000     
 soset                      :   0.130326360000000     
 HB correction              :  T

            Z     q(EN)     CN     RAES       Cart. coordinates
     1  N   5.0   -0.21    3.19    1.95   122.73014    98.53409   400.11923
     2  C   4.0    0.03    4.29    4.19   121.88165    97.89914   402.68926
     3  C   4.0    0.15    3.42    3.08   119.93713    99.81343   403.63790
     4  O   6.0   -0.31    1.27    1.80   117.93213    99.11613   404.59599
     5  C   4.0   -0.05    4.26    4.11   124.07941    97.73852   404.57899
     6  C   4.0   -0.05    4.13    3.87   125.14710    95.10991   405.02307
     7  C   4.0   -0.04    4.11    3.81   127.09730    95.02298   407.22460
     8  C   4.0   -0.03    4.07    3.74   129.08907    92.88570   407.03752
     9  N   5.0   -0.11    3.97    2.78   130.71612    92.93294   404.68670
    10  H   1.0    0.09    1.02    1.43   124.64443    98.67204   399.94727
    11  H   1.0    0.04    1.06    1.44   121.03317    96.02453   402.58722
    12  H   1.0    0.05    1.03    1.43   125.61953    98.91393   403.87979
    13  H   1.0    0.05    1.04    1.43   123.42178    98.44716   406.39690
    14  H   1.0    0.05    1.03    1.43   123.60319    93.82867   405.49173
    15  H   1.0    0.04    1.03    1.43   126.09574    94.47307   403.30909
    16  H   1.0    0.05    1.03    1.43   128.11775    96.81255   407.26429
    17  H   1.0    0.05    1.02    1.43   126.07496    94.75653   408.99339
    18  H   1.0    0.06    1.02    1.43   130.35141    93.02743   408.65891
    19  H   1.0    0.06    1.02    1.43   128.10641    91.07534   407.06587
    20  H   1.0    0.08    1.01    1.43   131.99169    91.43817   404.72072
    21  H   1.0    0.06    1.01    1.43   129.58796    92.77232   403.08610
    22  H   1.0    0.07    1.01    1.43   131.71579    94.62236   404.59599
    23  N   5.0   -0.15    3.53    2.10   120.53239   102.22473   403.33744
    24  C   4.0    0.04    4.56    4.62   119.03951   104.19571   404.51663
    25  C   4.0    0.15    3.54    3.13   116.42035   104.28453   403.34878
    26  O   6.0   -0.31    1.26    1.80   114.44936   104.47161   404.64324
    27  C   4.0   -0.03    4.32    4.24   120.33586   106.74306   404.17081
    28  C   4.0   -0.07    4.14    3.87   118.56141   108.92569   404.84166
    29  C   4.0   -0.07    4.13    3.85   122.70935   106.81676   405.76951
    30  H   1.0    0.08    1.06    1.44   122.02338   102.86723   402.29809
    31  H   1.0    0.06    1.06    1.44   118.87321   103.77052   406.52541
    32  H   1.0    0.04    1.06    1.44   120.85175   106.98306   402.19037
    33  H   1.0    0.04    1.00    1.43   119.55729   110.70771   404.56954
    34  H   1.0    0.05    1.01    1.43   116.90979   108.85010   403.61145
    35  H   1.0    0.06    1.00    1.43   117.98126   108.73861   406.80886
    36  H   1.0    0.05    1.00    1.43   123.63154   108.64034   405.51629
    37  H   1.0    0.06    1.00    1.43   122.19346   106.55787   407.74617
    38  H   1.0    0.05    1.00    1.43   123.96980   105.30309   405.16858
    39  N   5.0   -0.15    3.60    2.16   116.46192   104.17681   400.86001
    40  C   4.0    0.03    4.61    4.68   114.20559   104.25051   399.41626
    41  C   4.0    0.16    3.56    3.14   112.61255   101.96394   399.96617
    42  O   6.0   -0.32    1.32    1.80   110.33921   102.17181   400.23451
    43  C   4.0   -0.03    4.41    4.41   114.86699   104.42626   396.63269
    44  C   4.0   -0.05    4.24    4.08   115.51895   107.17203   396.07711
    45  C   4.0   -0.07    4.17    3.94   112.70515   103.47194   394.98863
    46  C   4.0   -0.07    4.04    3.68   116.36554   107.60289   393.39748
    47  H   1.0    0.07    1.08    1.44   118.06630   104.03697   399.79987
    48  H   1.0    0.05    1.07    1.44   113.11522   105.91725   399.94160
    49  H   1.0    0.04    1.06    1.44   116.48271   103.22439   396.19616
    50  H   1.0    0.04    1.03    1.43   113.85032   108.33421   396.40970
    51  H   1.0    0.04    1.03    1.43   117.04774   107.75973   397.32622
    52  H   1.0    0.04    1.00    1.43   113.24939   103.62690   393.00820
    53  H   1.0    0.05    1.01    1.43   112.32153   101.50285   395.46106
    54  H   1.0    0.04    1.00    1.43   111.03274   104.61901   395.34768
    55  H   1.0    0.05    1.00    1.43   116.79640   109.60033   393.14426
    56  H   1.0    0.05    1.00    1.43   118.04740   106.46905   393.03465
    57  H   1.0    0.04    1.00    1.43   114.85187   107.04353   392.11813
    58  N   5.0   -0.14    3.52    2.09   113.82197    99.78887   400.13813
    59  C   4.0    0.04    4.39    4.37   112.49728    97.47017   400.75607
    60  C   4.0    0.16    3.40    3.08   111.21226    97.64214   403.39035
    61  O   6.0   -0.30    1.22    1.80   109.13545    96.61413   403.81176
    62  C   4.0    0.03    4.16    3.92   114.34543    95.26109   400.57844
    63  O   6.0   -0.25    2.08    1.84   113.00561    92.98586   400.55009
    64  H   1.0    0.08    1.07    1.44   115.71548    99.56399   399.86223
    65  H   1.0    0.05    1.06    1.44   110.98927    97.11869   399.39736
    66  H   1.0    0.04    1.02    1.43   115.44147    95.42738   398.84178
    67  H   1.0    0.05    1.02    1.43   115.60210    95.29132   402.21116
    68  H   1.0    0.11    1.01    1.43   114.18102    91.55911   400.43482
    69  N   5.0   -0.13    3.48    2.07   112.45570    98.97818   405.12134
    70  C   4.0    0.05    4.39    4.37   111.40123    99.51297   407.60822
    71  C   4.0    0.18    3.48    3.11   109.08632   101.20616   407.43058
    72  O   6.0   -0.30    1.27    1.80   107.14746   100.73940   408.64379
    73  C   4.0    0.05    4.15    3.90   113.40623   100.70539   409.34110
    74  O   6.0   -0.23    2.06    1.83   112.34421   102.58944   410.91902
    75  H   1.0    0.11    1.09    1.44   114.21315    99.72273   404.85678
    76  H   1.0    0.06    1.06    1.44   110.82298    97.72529   408.45104
    77  H   1.0    0.05    1.01    1.43   114.22449    99.23140   410.52407
    78  H   1.0    0.07    1.02    1.43   114.86888   101.56332   408.17325
    79  H   1.0    0.13    1.01    1.43   113.65568   103.31888   412.00372
    80  N   5.0   -0.13    3.51    2.09   109.31687   103.20171   405.95093
    81  C   4.0    0.04    4.39    4.35   107.24384   104.97995   405.66558
    82  C   4.0    0.16    3.46    3.10   104.92703   103.71194   404.55253
    83  O   6.0   -0.33    1.34    1.80   102.83133   104.21083   405.37834
    84  C   4.0   -0.07    4.13    3.86   108.02996   107.17581   404.03097
    85  H   1.0    0.11    1.09    1.44   110.89290   103.64202   404.93237
    86  H   1.0    0.06    1.06    1.44   106.76007   105.70749   407.53074
    87  H   1.0    0.04    1.00    1.43   106.44448   108.47783   403.84766
    88  H   1.0    0.05    1.00    1.43   109.62489   108.13201   404.91536
    89  H   1.0    0.05    1.00    1.43   108.57609   106.46905   402.17526
    90  N   5.0   -0.14    3.53    2.10   105.29175   102.03764   402.71950
    91  C   4.0    0.03    4.59    4.65   103.14880   100.74885   401.52708
    92  C   4.0    0.15    3.54    3.13   101.80332    98.94794   403.31287
    93  O   6.0   -0.31    1.67    1.81    99.50541    98.91582   403.45649
    94  C   4.0   -0.04    4.13    3.86   103.97650    99.34100   399.17248
    95  S   6.0   -0.06    2.39    3.10   105.20860   101.51608   396.86324
    96  H   1.0    0.11    1.09    1.44   107.01518   101.53120   402.02030
    97  H   1.0    0.05    1.09    1.44   101.80710   102.21150   400.97528
    98  H   1.0    0.05    1.07    1.44   105.45427    97.98985   399.66003
    99  H   1.0    0.04    1.09    1.44   102.36268    98.35646   398.35423
   100  H   1.0    0.07    1.00    1.43   107.13990   102.69338   397.82322
   101  N   5.0   -0.13    3.47    2.06   103.22250    97.48151   404.74717
   102  C   4.0    0.04    4.41    4.40   102.03008    95.81477   406.61422
   103  C   4.0    0.17    3.40    3.08   100.33122    97.28876   408.44915
   104  O   6.0   -0.25    1.20    1.80    98.24307    96.40059   409.10110
   105  C   4.0   -0.04    4.18    3.97   103.98028    94.02331   407.89546
   106  C   4.0   -0.04    4.17    3.95   104.14658    91.48541   406.48950
   107  C   4.0   -0.04    4.11    3.82   106.73361    90.61047   405.49928
   108  C   4.0   -0.03    4.12    3.85   106.42370    89.33490   402.90658
   109  N   5.0   -0.11    3.98    2.80   108.53641    87.73242   401.94849
   110  H   1.0    0.10    1.07    1.44   105.14624    97.38892   404.68292
   111  H   1.0    0.06    1.08    1.44   100.76586    94.50897   405.64290
   112  H   1.0    0.06    1.03    1.43   105.83977    94.90771   407.87089
   113  H   1.0    0.06    1.02    1.43   103.40013    93.65671   409.83809
   114  H   1.0    0.06    1.03    1.43   103.48706    90.01710   407.77451
   115  H   1.0    0.05    1.05    1.44   102.90314    91.59691   404.85111
   116  H   1.0    0.06    1.03    1.43   107.98272    92.23374   405.29141
   117  H   1.0    0.05    1.02    1.43   107.55564    89.25176   406.81075
   118  H   1.0    0.05    1.03    1.43   104.76263    88.11981   403.00107
   119  H   1.0    0.06    1.03    1.43   106.13268    90.82023   401.50818
   120  H   1.0    0.07    1.01    1.43   108.07532    86.99353   400.18726
   121  H   1.0    0.07    1.02    1.43   110.17291    88.80767   401.78030
   122  H   1.0    0.06    1.01    1.43   108.87278    86.24898   403.19382
   123  N   5.0   -0.13    3.49    2.07   101.11546    99.60179   409.06520
   124  C   4.0    0.04    4.51    4.55    99.72084   101.19671   410.80563
   125  C   4.0    0.16    3.45    3.09    97.62324   102.67448   409.55653
   126  O   6.0   -0.26    1.25    1.80    95.48596   102.47039   410.31997
   127  C   4.0    0.05    4.27    4.15   101.45939   103.09778   412.11144
   128  O   6.0   -0.24    2.11    1.84   103.75918   101.87135   412.81819
   129  C   4.0   -0.05    4.09    3.78   100.17248   104.22028   414.40934
   130  H   1.0    0.10    1.07    1.44   102.71983   100.42004   408.38112
   131  H   1.0    0.07    1.07    1.44    98.90826    99.90603   412.19080
   132  H   1.0    0.05    1.05    1.44   101.90158   104.64735   410.82831
   133  H   1.0    0.15    1.05    1.44   104.60767   101.20049   411.31397
   134  H   1.0    0.06    1.00    1.43   101.42537   105.57332   415.32775
   135  H   1.0    0.06    1.00    1.43    98.44149   105.18593   413.84620
   136  H   1.0    0.06    1.00    1.43    99.70005   102.72928   415.75105
   137  N   5.0   -0.14    3.56    2.12    98.23551   104.20516   407.68003
   138  C   4.0    0.04    4.45    4.47    96.33823   105.77741   406.40446
   139  C   4.0    0.15    3.43    3.09    95.32534   104.55665   404.01963
   140  O   6.0   -0.29    1.26    1.80    93.62458   105.53741   402.80831
   141  C   4.0   -0.03    4.36    4.32    97.43805   108.35878   405.80164
   142  C   4.0   -0.01    3.60    3.17    98.40559   109.64946   408.12222
   143  C   4.0   -0.03    3.50    3.12    96.79932   110.97794   409.68881
   144  C   4.0   -0.04    3.51    3.12   100.90570   109.47938   408.79875
   145  C   4.0   -0.02    3.47    3.10    97.67993   112.12122   411.84309
   146  C   4.0   -0.05    3.46    3.10   101.80332   110.60755   410.97949
   147  C   4.0    0.07    3.46    3.10   100.17626   111.93036   412.50639
   148  O   6.0   -0.24    2.10    1.84   101.07010   113.10766   414.64934
   149  H   1.0    0.11    1.12    1.45   100.02319   104.41114   406.98839
   150  H   1.0    0.07    1.07    1.44    94.74708   106.07032   407.68003
   151  H   1.0    0.05    1.04    1.43    99.00463   108.13768   404.48261
   152  H   1.0    0.05    1.04    1.43    95.97351   109.54174   404.96449
   153  H   1.0    0.07    1.03    1.43    94.82078   111.11967   409.21260
   154  H   1.0    0.06    1.03    1.43   102.19638   108.44381   407.60444
   155  H   1.0    0.09    1.07    1.44    96.39681   113.17947   413.02417
   156  H   1.0    0.05    1.03    1.43   103.77619   110.44881   411.47838
   157  H   1.0    0.12    1.02    1.43   102.88235   112.78073   414.84209
   158  N   5.0   -0.13    3.56    2.12    96.34579   102.39102   403.33366
   159  C   4.0    0.05    4.58    4.64    95.48407   101.13624   401.04331
   160  C   4.0    0.17    3.48    3.10    93.26742    99.44683   401.70471
   161  O   6.0   -0.24    1.26    1.80    93.57734    97.16404   402.21872
   162  C   4.0   -0.00    4.36    4.30    97.61757    99.64525   399.84333
   163  S   6.0   -0.05    2.40    3.10    97.70072    99.85879   396.54576
   164  H   1.0    0.13    1.14    1.45    97.74041   101.47261   404.29553
   165  H   1.0    0.06    1.10    1.44    94.84535   102.56299   399.70160
   166  H   1.0    0.06    1.26    1.48    99.41092   100.35768   400.56521
   167  H   1.0    0.08    1.11    1.45    97.39837    97.65915   400.34033
   168  H   1.0    0.07    0.98    1.43    95.58990    98.99518   395.63491
   169  N   5.0   -0.12    3.38    2.01    91.02243   100.56555   401.74440
   170  C   4.0    0.03    4.27    4.13    88.74531    99.07077   402.11101
   171  C   4.0    0.17    3.37    3.07    88.61681    96.98452   400.13246
   172  O   6.0   -0.25    1.27    1.80    89.57679    97.31522   398.04432
   173  H   1.0    0.10    1.06    1.44    90.72196   102.45716   401.53275
   174  H   1.0    0.07    1.03    1.43    88.75854    98.21851   403.98561
   175  H   1.0    0.05    1.02    1.43    87.08046   100.27075   401.93148
   176  N   5.0   -0.13    3.41    2.03    87.50187    94.82645   400.81087
   177  C   4.0    0.04    4.38    4.34    87.08046    92.71751   399.02319
   178  C   4.0    0.18    3.42    3.09    89.53144    91.90493   397.70794
   179  O   6.0   -0.24    1.26    1.80    91.46463    91.60447   398.96083
   180  C   4.0   -0.04    4.30    4.20    85.01499    93.41860   397.09945
   181  C   4.0   -0.04    4.20    4.01    82.43363    93.77387   398.35612
   182  C   4.0   -0.04    4.15    3.90    80.35493    94.62803   396.57789
   183  C   4.0   -0.02    4.13    3.86    77.81702    94.52031   397.95928
   184  N   5.0   -0.10    3.98    2.81    75.60794    95.38581   396.41726
   185  H   1.0    0.09    1.05    1.44    86.86125    94.46551   402.59289
   186  H   1.0    0.06    1.06    1.44    86.49276    91.16605   400.24396
   187  H   1.0    0.06    1.03    1.43    85.52711    95.18361   396.17160
   188  H   1.0    0.05    1.04    1.43    84.85058    91.91060   395.70483
   189  H   1.0    0.05    1.03    1.43    81.84781    91.97674   399.17626
   190  H   1.0    0.05    1.03    1.43    82.61126    95.19872   399.83200
   191  H   1.0    0.05    1.03    1.43    80.70264    96.56500   395.97129
   192  H   1.0    0.06    1.03    1.43    80.27745    93.38081   394.93950
   193  H   1.0    0.06    1.02    1.43    77.45609    92.57201   398.52242
   194  H   1.0    0.06    1.02    1.43    77.92285    95.72785   399.62602
   195  H   1.0    0.08    1.01    1.43    73.95820    95.25920   397.47740
   196  H   1.0    0.08    1.01    1.43    75.86683    97.25286   395.85979
   197  H   1.0    0.08    1.01    1.43    75.42463    94.26142   394.81477
   198  N   5.0   -0.12    3.53    2.10    89.44073    91.60824   395.20217
   199  C   4.0    0.05    4.49    4.52    91.61769    91.01676   393.64125
   200  C   4.0    0.16    3.52    3.12    93.97229    92.36791   394.48029
   201  O   6.0   -0.26    1.28    1.80    93.86647    94.47496   395.40248
   202  C   4.0    0.05    4.26    4.13    91.14337    91.88603   390.90682
   203  O   6.0   -0.24    2.15    1.85    88.49965    92.41138   390.62525
   204  C   4.0   -0.06    4.06    3.73    92.02209    89.90749   389.00765
   205  H   1.0    0.10    1.11    1.45    87.81934    91.77454   394.17227
   206  H   1.0    0.05    1.06    1.44    91.89926    88.98153   393.77542
   207  H   1.0    0.05    1.05    1.44    92.22619    93.59057   390.49675
   208  H   1.0    0.13    1.01    1.43    88.14627    92.97074   388.89615
   209  H   1.0    0.06    1.00    1.43    91.66683    90.56512   387.08957
   210  H   1.0    0.05    1.00    1.43    94.04032    89.56167   389.23252
   211  H   1.0    0.07    1.00    1.43    91.00542    88.14249   389.30811
   212  N   5.0   -0.14    3.52    2.09    96.09823    91.12636   394.15148
   213  C   4.0    0.04    4.44    4.44    98.50574    92.23185   394.80344
   214  C   4.0    0.15    3.53    3.13   100.41059    91.15471   392.94961
   215  O   6.0   -0.28    1.28    1.80   100.09689    88.98531   392.13514
   216  C   4.0    0.05    4.16    3.92    99.23707    91.57990   397.51708
   217  O   6.0   -0.24    2.07    1.83   101.80143    92.16760   397.89314
   218  H   1.0    0.10    1.08    1.44    96.21540    89.34057   393.43338
   219  H   1.0    0.05    1.06    1.44    98.47551    94.28410   394.63903
   220  H   1.0    0.06    1.01    1.43    98.08434    92.68161   398.82099
   221  H   1.0    0.06    1.02    1.43    98.94038    89.56734   397.84211
   222  H   1.0    0.12    1.01    1.43   102.29653    91.75753   399.62980
   223  N   5.0   -0.09    3.66    2.22   102.38724    92.61736   392.26175
   224  C   4.0    0.04    4.53    4.58   104.10311    91.60636   390.37203
   225  C   4.0    0.09    3.22    3.04   106.41047    90.26465   391.43216
   226  O   6.0   -0.26    1.15    1.80   107.02652    90.51976   393.65448
   227  C   4.0   -0.04    4.37    4.33   104.96105    93.95717   388.93962
   228  C   4.0   -0.04    4.30    4.20   104.54153    96.11335   390.68950
   229  C   4.0   -0.01    4.33    4.26   103.22439    95.15337   393.01953
   230  H   1.0    0.06    1.06    1.44   103.05431    90.29866   389.17583
   231  H   1.0    0.05    1.03    1.43   106.95660    93.78521   388.45585
   232  H   1.0    0.05    1.03    1.43   103.83666    94.17638   387.22752
   233  H   1.0    0.04    1.03    1.43   106.36323    96.93160   391.19406
   234  H   1.0    0.04    1.03    1.43   103.37368    97.52309   389.74653
   235  H   1.0    0.06    1.02    1.43   104.52641    95.05322   394.61257
   236  H   1.0    0.04    1.02    1.43   101.61623    96.34579   393.49952
   237  N   5.0   -0.19    3.22    1.96   114.12622    88.21241   391.76476
   238  C   4.0    0.04    4.22    4.03   116.51483    89.50876   391.81578
   239  C   4.0    0.10    3.20    3.04   117.72615    89.32357   389.20229
   240  O   6.0   -0.25    1.12    1.80   118.78628    91.16227   388.32356
   241  C   4.0   -0.04    4.22    4.05   118.21559    88.40894   393.91148
   242  C   4.0   -0.05    4.13    3.86   117.49371    89.10058   396.65915
   243  C   4.0   -0.05    4.11    3.82   116.71514    86.84803   398.36368
   244  C   4.0   -0.03    4.13    3.86   113.86355    86.34914   398.21061
   245  N   5.0   -0.11    3.98    2.81   112.83365    83.89249   399.03075
   246  H   1.0    0.09    1.04    1.43   114.04118    86.71008   392.96851
   247  H   1.0    0.05    1.06    1.44   116.26728    91.49864   392.28443
   248  H   1.0    0.05    1.03    1.43   118.16078    86.35481   393.76975
   249  H   1.0    0.06    1.03    1.43   120.13555    89.08546   393.59968
   250  H   1.0    0.04    1.03    1.43   119.11510    90.00765   397.54732
   251  H   1.0    0.04    1.03    1.43   115.90067    90.40449   396.60434
   252  H   1.0    0.05    1.03    1.43   117.70536    85.14916   397.74763
   253  H   1.0    0.05    1.02    1.43   117.19513    87.27321   400.32143
   254  H   1.0    0.04    1.03    1.43   112.93002    87.77399   399.36901
   255  H   1.0    0.05    1.04    1.43   113.30797    86.57024   396.23963
   256  H   1.0    0.07    1.02    1.43   110.88156    83.87171   398.80210
   257  H   1.0    0.07    1.02    1.43   113.61788    82.44307   397.95928
   258  H   1.0    0.07    1.02    1.43   113.25695    83.58447   400.92615
   259  N   5.0   -0.19    3.20    1.96    97.46262   104.53586   385.46063
   260  C   4.0    0.03    4.33    4.25    97.45317   103.57777   388.07034
   261  C   4.0    0.15    3.41    3.08    99.08778   105.13679   389.84479
   262  O   6.0   -0.29    1.19    1.80    98.22795   105.94938   391.90271
   263  C   4.0   -0.05    4.44    4.45    98.47929   100.90759   388.14782
   264  C   4.0   -0.02    4.20    4.01    96.71806    98.89314   387.13871
   265  C   4.0   -0.07    4.11    3.83    98.34134    96.65759   386.32612
   266  C   4.0   -0.07    4.09    3.79    94.74330    98.13725   389.12292
   267  H   1.0    0.09    1.03    1.43    97.83300   103.17526   384.14538
   268  H   1.0    0.06    1.06    1.44    95.49163   103.64580   388.69395
   269  H   1.0    0.04    1.04    1.44   100.20083   100.84145   387.01965
   270  H   1.0    0.04    1.04    1.43    98.90259   100.43138   390.10747
   271  H   1.0    0.05    1.06    1.44    95.64281    99.58667   385.52299
   272  H   1.0    0.05    1.00    1.43    97.11869    95.17227   385.58913
   273  H   1.0    0.05    1.00    1.43    99.65281    97.27742   384.86348
   274  H   1.0    0.04    1.00    1.43    99.38825    95.96028   387.95696
   275  H   1.0    0.05    1.00    1.43    93.51498    96.68783   388.32734
   276  H   1.0    0.05    1.00    1.43    95.71084    97.40403   390.78588
   277  H   1.0    0.05    1.00    1.43    93.63403    99.79643   389.63126
   278  N   5.0   -0.15    3.46    2.05   101.44616   105.50907   389.01143
   279  C   4.0    0.03    4.44    4.44   103.37557   106.76763   390.51754
   280  C   4.0    0.09    3.32    3.06   102.69527   109.45671   391.07501
   281  O   6.0   -0.32    1.17    1.80   102.84078   110.23716   393.24063
   282  C   4.0   -0.03    4.31    4.21   105.95126   106.74117   389.20607
   283  C   4.0   -0.07    4.15    3.90   107.78052   108.62712   390.40604
   284  C   4.0   -0.07    4.12    3.85   107.04731   104.09933   389.33268
   285  H   1.0    0.08    1.06    1.44   102.07733   104.94971   387.27855
   286  H   1.0    0.05    1.07    1.44   103.47194   105.69804   392.27498
   287  H   1.0    0.05    1.06    1.44   105.69615   107.30053   387.24075
   288  H   1.0    0.05    1.00    1.43   109.58143   108.54019   389.41205
   289  H   1.0    0.05    1.01    1.43   106.98494   110.52062   390.25486
   290  H   1.0    0.04    1.00    1.43   108.04697   108.13390   392.38837
   291  H   1.0    0.05    1.00    1.43   108.88223   104.08988   388.39726
   292  H   1.0    0.04    1.00    1.43   107.26273   103.55698   391.30744
   293  H   1.0    0.04    1.00    1.43   105.76607   102.79542   388.38215
   294  N   5.0   -0.19    3.23    1.96    97.99552   110.68314   396.19427
   295  C   4.0    0.03    4.30    4.20    99.15392   110.44692   398.67737
   296  C   4.0    0.15    3.48    3.11   100.50318   112.80152   399.44271
   297  O   6.0   -0.32    1.30    1.80   100.29720   113.62733   401.55354
   298  C   4.0   -0.06    4.14    3.89   101.01908   108.27185   398.70194
   299  H   1.0    0.12    1.04    1.43    98.85156   109.56820   394.87524
   300  H   1.0    0.05    1.06    1.44    97.64592   110.07276   400.02853
   301  H   1.0    0.05    1.00    1.43   101.86001   108.13201   400.57655
   302  H   1.0    0.05    1.00    1.43   100.02130   106.52763   398.24652
   303  H   1.0    0.06    1.01    1.43   102.48551   108.62901   397.29976
   304  N   5.0   -0.14    3.52    2.09   101.93560   113.86733   397.73062
   305  C   4.0    0.04    4.35    4.29   103.23762   116.20303   398.29376
   306  C   4.0    0.10    3.22    3.04   101.37624   118.33086   399.02130
   307  O   6.0   -0.27    1.11    1.80   101.75796   119.70658   400.87512
   308  C   4.0   -0.04    4.39    4.35   104.79664   117.01561   396.02042
   309  C   4.0   -0.02    4.21    4.02   106.78085   115.15423   395.05855
   310  C   4.0   -0.06    4.10    3.81   107.97516   116.14067   392.63403
   311  C   4.0   -0.08    4.13    3.86   108.75562   114.71392   397.06922
   312  H   1.0    0.10    1.08    1.44   102.23795   113.17947   395.95617
   313  H   1.0    0.05    1.06    1.44   104.49240   115.87044   399.89247
   314  H   1.0    0.05    1.04    1.43   103.50218   117.37277   394.45950
   315  H   1.0    0.06    1.04    1.43   105.79064   118.74849   396.52120
   316  H   1.0    0.05    1.06    1.44   105.89268   113.34576   394.62958
   317  H   1.0    0.05    1.00    1.43   109.38301   114.78573   391.98018
   318  H   1.0    0.06    1.00    1.43   106.50684   116.36932   391.20729
   319  H   1.0    0.06    1.00    1.43   108.87089   117.95480   393.01764
   320  H   1.0    0.04    1.00    1.43   110.15591   113.38167   396.35490
   321  H   1.0    0.05    1.00    1.43   109.66080   116.50727   397.52464
   322  H   1.0    0.04    1.00    1.43   107.84477   113.94103   398.74729
   323  N   5.0   -0.18    3.23    1.96    95.44439   117.82819   400.94693
   324  C   4.0    0.04    4.28    4.15    94.29166   117.03829   403.32421
   325  C   4.0    0.16    3.43    3.09    95.83178   118.02472   405.53141
   326  O   6.0   -0.30    1.29    1.80    94.92282   119.30785   407.23027
   327  C   4.0   -0.06    4.13    3.86    94.15749   114.16023   403.42625
   328  H   1.0    0.09    1.03    1.43    95.60879   116.39767   399.66570
   329  H   1.0    0.06    1.05    1.44    92.37547   117.78284   403.44515
   330  H   1.0    0.06    1.00    1.43    93.29388   113.59143   405.20827
   331  H   1.0    0.06    1.00    1.43    93.01987   113.48560   401.84644
   332  H   1.0    0.06    1.00    1.43    96.06611   113.39490   403.29586
   333  N   5.0   -0.13    3.55    2.11    98.24307   117.44080   405.35378
   334  C   4.0    0.04    4.30    4.20   100.03264   117.82063   407.33421
   335  C   4.0    0.11    3.27    3.05   100.46539   120.58530   407.74617
   336  O   6.0   -0.28    1.14    1.80   100.52019   121.39977   409.89101
   337  C   4.0   -0.06    4.13    3.86   102.49496   116.50349   406.65013
   338  H   1.0    0.11    1.10    1.44    99.03865   116.66412   403.77963
   339  H   1.0    0.06    1.06    1.44    99.32211   117.00427   409.08598
   340  H   1.0    0.05    1.00    1.43   103.85745   116.79829   408.16758
   341  H   1.0    0.05    1.00    1.43   102.13402   114.48905   406.41013
   342  H   1.0    0.07    1.00    1.43   103.21683   117.30096   404.89457
   343  N   5.0   -0.18    3.21    1.96    93.86458   123.06651   410.78485
   344  C   4.0    0.04    4.29    4.18    93.47718   121.94213   413.23204
   345  C   4.0    0.16    3.36    3.07    95.36880   122.67345   415.34098
   346  O   6.0   -0.27    1.26    1.80    94.67338   122.51660   417.52550
   347  C   4.0   -0.03    4.29    4.17    93.33356   119.06785   412.93536
   348  C   4.0   -0.02    4.17    3.95    92.60035   117.61087   415.30696
   349  C   4.0    0.23    3.12    3.03    92.48319   114.77440   414.82319
   350  O   6.0   -0.26    1.15    1.80    90.91283   113.88055   413.31897
   351  O   6.0   -0.27    1.15    1.80    94.16693   113.32875   416.07797
   352  H   1.0    0.13    1.09    1.44    94.20095   121.77205   409.39779
   353  H   1.0    0.07    1.07    1.44    91.68194   122.67156   413.92935
   354  H   1.0    0.07    1.03    1.43    91.92950   118.63511   411.49160
   355  H   1.0    0.06    1.03    1.43    95.18550   118.38377   412.34387
   356  H   1.0    0.07    1.03    1.43    94.00064   117.95858   416.77717
   357  H   1.0    0.07    1.03    1.43    90.74275   118.23448   415.94002
   358  N   5.0   -0.11    3.39    2.02    97.68938   123.47280   414.77406
   359  C   4.0    0.05    4.28    4.16    99.54698   124.14933   416.79229
   360  C   4.0    0.10    3.20    3.04   100.60334   126.82707   416.52395
   361  O   6.0   -0.22    1.12    1.80   100.19894   128.09507   414.59642
   362  C   4.0   -0.03    4.26    4.12   101.83166   122.36542   416.85465
   363  C   4.0   -0.02    4.22    4.04   101.27608   119.53650   416.93402
   364  C   4.0    0.16    3.22    3.04   100.15359   118.58786   419.39255
   365  O   6.0   -0.27    1.22    1.80   100.81310   119.52706   421.41456
   366  N   5.0   -0.17    3.18    1.95    98.53976   116.69058   419.25649
   367  H   1.0    0.12    1.05    1.44    98.35835   123.67878   412.97882
   368  H   1.0    0.08    1.07    1.44    98.46795   124.02460   418.54217
   369  H   1.0    0.06    1.03    1.43   102.95416   122.70935   415.16145
   370  H   1.0    0.07    1.03    1.43   102.93715   122.80762   418.53461
   371  H   1.0    0.05    1.04    1.43    99.93627   119.09242   415.43357
   372  H   1.0    0.05    1.03    1.43   103.03920   118.51605   416.62788
   373  H   1.0    0.10    1.03    1.43    98.09567   115.92524   417.54440
   374  H   1.0    0.10    1.02    1.43    97.73663   115.99138   420.86276
   375  O   6.0   -0.34    2.02    1.83   108.62712    92.33579   398.05943
   376  H   1.0    0.16    1.04    1.43   109.90079    93.28254   398.05943
   377  H   1.0    0.16    1.02    1.43   107.35155    93.28254   398.05943
   378  N   5.0   -0.21    3.21    1.96    98.97818   112.45570   429.26448
   379  C   4.0    0.03    4.29    4.19    99.51297   111.40123   426.77760
   380  C   4.0    0.17    3.46    3.10   101.20616   109.08632   426.95523
   381  O   6.0   -0.30    1.27    1.80   100.73940   107.14746   425.74203
   382  C   4.0    0.04    4.15    3.89   100.70539   113.40623   425.04472
   383  O   6.0   -0.23    2.06    1.83   102.58944   112.34421   423.46680
   384  H   1.0    0.10    1.03    1.43    99.72273   114.21315   429.52904
   385  H   1.0    0.05    1.06    1.44    97.72529   110.82298   425.93478
   386  H   1.0    0.05    1.01    1.43    99.23140   114.22449   423.86175
   387  H   1.0    0.06    1.02    1.43   101.56332   114.86888   426.21257
   388  H   1.0    0.13    1.01    1.43   103.31888   113.65568   422.38210
   389  N   5.0   -0.14    3.50    2.08   103.20171   109.31687   428.43489
   390  C   4.0    0.04    4.39    4.35   104.97995   107.24384   428.72024
   391  C   4.0    0.16    3.46    3.10   103.71194   104.92703   429.83328
   392  O   6.0   -0.32    1.34    1.80   104.21083   102.83133   429.00747
   393  C   4.0   -0.06    4.13    3.86   107.17581   108.02996   430.35485
   394  H   1.0    0.08    1.06    1.44   103.64202   110.89290   429.45345
   395  H   1.0    0.06    1.06    1.44   105.70749   106.76007   426.85508
   396  H   1.0    0.06    1.00    1.43   108.47783   106.44448   430.53815
   397  H   1.0    0.06    1.00    1.43   108.13201   109.62489   429.47046
   398  H   1.0    0.06    1.00    1.43   106.46905   108.57609   432.21056
   399  N   5.0   -0.14    3.52    2.10   102.03764   105.29175   431.66632
   400  C   4.0    0.03    4.59    4.65   100.74885   103.14880   432.85874
   401  C   4.0    0.15    3.54    3.13    98.94794   101.80332   431.07295
   402  O   6.0   -0.31    1.67    1.81    98.91582    99.50541   430.92933
   403  C   4.0   -0.04    4.13    3.86    99.34100   103.97650   435.21333
   404  S   6.0    0.00    2.37    3.10   101.51608   105.20860   437.52258
   405  H   1.0    0.08    1.07    1.44   101.53120   107.01518   432.36552
   406  H   1.0    0.06    1.09    1.44   102.21150   101.80710   433.41054
   407  H   1.0    0.05    1.07    1.44    97.98985   105.45427   434.72579
   408  H   1.0    0.05    1.09    1.44    98.35646   102.36268   436.03159
   409  H   1.0    0.06    0.98    1.43   102.69338   107.13990   436.56260
   410  N   5.0   -0.14    3.47    2.06    97.48151   103.22250   429.63864
   411  C   4.0    0.04    4.41    4.40    95.81477   102.03008   427.77159
   412  C   4.0    0.17    3.40    3.08    97.28876   100.33122   425.93667
   413  O   6.0   -0.24    1.20    1.80    96.40059    98.24307   425.28471
   414  C   4.0   -0.04    4.18    3.97    94.02331   103.98028   426.49036
   415  C   4.0   -0.04    4.17    3.95    91.48541   104.14658   427.89632
   416  C   4.0   -0.04    4.11    3.82    90.61047   106.73361   428.88653
   417  C   4.0   -0.03    4.12    3.85    89.33490   106.42370   431.47924
   418  N   5.0   -0.11    3.97    2.79    87.73242   108.53641   432.43733
   419  H   1.0    0.08    1.06    1.44    97.38892   105.14624   429.70289
   420  H   1.0    0.07    1.08    1.44    94.50897   100.76586   428.74291
   421  H   1.0    0.05    1.03    1.43    94.90771   105.83977   426.51493
   422  H   1.0    0.06    1.02    1.43    93.65671   103.40013   424.54772
   423  H   1.0    0.06    1.03    1.43    90.01710   103.48706   426.61130
   424  H   1.0    0.05    1.05    1.44    91.59691   102.90314   429.53471
   425  H   1.0    0.05    1.03    1.43    92.23374   107.98272   429.09440
   426  H   1.0    0.06    1.02    1.43    89.25176   107.55564   427.57506
   427  H   1.0    0.06    1.03    1.43    88.11981   104.76263   431.38475
   428  H   1.0    0.05    1.03    1.43    90.82023   106.13268   432.87763
   429  H   1.0    0.08    1.01    1.43    86.99353   108.07532   434.19855
   430  H   1.0    0.07    1.01    1.43    88.80767   110.17291   432.60551
   431  H   1.0    0.08    1.01    1.43    86.24898   108.87278   431.19200
   432  N   5.0   -0.13    3.49    2.07    99.60179   101.11546   425.32062
   433  C   4.0    0.04    4.51    4.55   101.19671    99.72084   423.58018
   434  C   4.0    0.16    3.45    3.09   102.67448    97.62324   424.82929
   435  O   6.0   -0.26    1.25    1.80   102.47039    95.48596   424.06584
   436  C   4.0    0.05    4.27    4.15   103.09778   101.45939   422.27438
   437  O   6.0   -0.24    2.11    1.84   101.87135   103.75918   421.56762
   438  C   4.0   -0.05    4.09    3.78   104.22028   100.17248   419.97647
   439  H   1.0    0.10    1.07    1.44   100.42004   102.71983   426.00470
   440  H   1.0    0.08    1.07    1.44    99.90603    98.90826   422.19501
   441  H   1.0    0.05    1.05    1.44   104.64735   101.90158   423.55751
   442  H   1.0    0.15    1.05    1.44   101.20049   104.60767   423.07185
   443  H   1.0    0.06    1.00    1.43   105.57332   101.42537   419.05807
   444  H   1.0    0.06    1.00    1.43   105.18593    98.44149   420.53961
   445  H   1.0    0.06    1.00    1.43   102.72928    99.70005   418.63477
   446  N   5.0   -0.14    3.56    2.12   104.20516    98.23551   426.70579
   447  C   4.0    0.04    4.45    4.47   105.77741    96.33823   427.98135
   448  C   4.0    0.16    3.43    3.09   104.55665    95.32534   430.36619
   449  O   6.0   -0.26    1.26    1.80   105.53741    93.62458   431.57750
   450  C   4.0   -0.02    4.36    4.31   108.35878    97.43805   428.58418
   451  C   4.0   -0.01    3.60    3.17   109.64946    98.40559   426.26359
   452  C   4.0   -0.03    3.50    3.12   110.97794    96.79932   424.69701
   453  C   4.0   -0.03    3.51    3.12   109.47938   100.90570   425.58707
   454  C   4.0   -0.03    3.46    3.10   112.12122    97.67993   422.54272
   455  C   4.0   -0.04    3.46    3.10   110.60755   101.80332   423.40633
   456  C   4.0    0.07    3.46    3.10   111.93036   100.17626   421.87943
   457  O   6.0   -0.24    2.10    1.84   113.10766   101.07010   419.73648
   458  H   1.0    0.11    1.12    1.45   104.41114   100.02319   427.39743
   459  H   1.0    0.07    1.07    1.44   106.07032    94.74708   426.70579
   460  H   1.0    0.06    1.04    1.43   108.13768    99.00463   429.90320
   461  H   1.0    0.07    1.03    1.43   109.54174    95.97351   429.42132
   462  H   1.0    0.07    1.03    1.43   111.11967    94.82078   425.17322
   463  H   1.0    0.06    1.03    1.43   108.44381   102.19638   426.78138
   464  H   1.0    0.07    1.03    1.43   113.17947    96.39681   421.36164
   465  H   1.0    0.06    1.03    1.43   110.44881   103.77619   422.90744
   466  H   1.0    0.12    1.02    1.43   112.78073   102.88235   419.54373
   467  N   5.0   -0.12    3.56    2.12   102.39102    96.34579   431.05216
   468  C   4.0    0.06    4.48    4.51   101.13624    95.48407   433.34251
   469  C   4.0    0.11    3.24    3.04    99.44683    93.26742   432.68110
   470  O   6.0   -0.23    1.13    1.80    97.16404    93.57734   432.16710
   471  C   4.0   -0.00    4.36    4.30    99.64525    97.61757   434.54248
   472  S   6.0   -0.01    2.40    3.10    99.85879    97.70072   437.84005
   473  H   1.0    0.13    1.14    1.45   101.47261    97.74041   430.09029
   474  H   1.0    0.07    1.09    1.44   102.56299    94.84535   434.68421
   475  H   1.0    0.07    1.26    1.48   100.35768    99.41092   433.82061
   476  H   1.0    0.09    1.11    1.45    97.65915    97.39837   434.04548
   477  H   1.0    0.08    0.98    1.43    98.99518    95.58990   438.75090
   478  N   5.0   -0.17    3.16    1.95   123.47280    97.68938   419.61176
   479  C   4.0    0.04    4.18    3.96   124.14933    99.54698   417.59353
   480  C   4.0    0.09    3.20    3.04   126.82707   100.60334   417.86187
   481  O   6.0   -0.23    1.12    1.80   128.09507   100.19894   419.78939
   482  C   4.0   -0.04    4.26    4.12   122.36542   101.83166   417.53117
   483  C   4.0   -0.03    4.22    4.04   119.53650   101.27608   417.45180
   484  C   4.0    0.16    3.22    3.04   118.58786   100.15359   414.99327
   485  O   6.0   -0.28    1.22    1.80   119.52706   100.81310   412.97126
   486  N   5.0   -0.18    3.18    1.95   116.69058    98.53976   415.12933
   487  H   1.0    0.11    1.02    1.43   123.67878    98.35835   421.40700
   488  H   1.0    0.06    1.05    1.44   124.02460    98.46795   415.84364
   489  H   1.0    0.06    1.03    1.43   122.70935   102.95416   419.22436
   490  H   1.0    0.06    1.03    1.43   122.80762   102.93715   415.85120
   491  H   1.0    0.05    1.04    1.43   119.09242    99.93627   418.95224
   492  H   1.0    0.05    1.03    1.43   118.51605   103.03920   417.75794
   493  H   1.0    0.09    1.03    1.43   115.92524    98.09567   416.84142
   494  H   1.0    0.10    1.02    1.43   115.99138    97.73663   413.52306
   495  N   5.0   -0.19    3.22    1.96   125.05639   111.79619   412.06230
   496  C   4.0    0.03    4.23    4.06   122.39755   112.16279   412.56119
   497  C   4.0    0.09    3.21    3.04   121.94968   114.99360   412.97504
   498  O   6.0   -0.29    1.13    1.80   120.14878   116.04807   411.99427
   499  C   4.0   -0.04    4.29    4.17   121.61142   110.55275   414.80618
   500  C   4.0   -0.03    4.23    4.05   118.79762   110.16913   415.14067
   501  C   4.0    0.15    3.21    3.04   117.52206   108.47783   413.22826
   502  O   6.0   -0.29    1.21    1.80   118.64455   106.66936   412.33253
   503  N   5.0   -0.18    3.16    1.95   115.08998   109.01451   412.66323
   504  H   1.0    0.10    1.03    1.43   125.99748   110.87400   413.47015
   505  H   1.0    0.05    1.06    1.44   121.21458   111.53918   410.99461
   506  H   1.0    0.06    1.04    1.43   122.45991   108.68759   414.59076
   507  H   1.0    0.05    1.03    1.43   122.31251   111.45226   416.52206
   508  H   1.0    0.05    1.03    1.43   118.47826   109.33387   416.99638
   509  H   1.0    0.05    1.04    1.43   117.87921   112.00973   415.02917
   510  H   1.0    0.08    1.02    1.43   114.20748   110.50172   413.51550
   511  H   1.0    0.10    1.02    1.43   114.13756   107.93359   411.38389
   512  N   5.0   -0.18    3.22    1.96   122.09330   118.69180   406.81453
   513  C   4.0    0.04    4.27    4.13   119.69146   118.41590   405.55598
   514  C   4.0    0.11    3.26    3.05   117.88299   120.41523   406.45737
   515  O   6.0   -0.24    1.13    1.80   116.81719   121.77961   404.93993
   516  C   4.0   -0.04    4.40    4.37   118.69936   115.76083   406.00951
   517  C   4.0   -0.01    3.64    3.19   115.93280   115.46415   405.69959
   518  C   4.0   -0.03    3.54    3.13   114.90101   115.30730   403.36578
   519  C   4.0   -0.03    3.52    3.12   114.40023   115.19391   407.75940
   520  C   4.0   -0.03    3.42    3.08   112.34988   114.93691   403.03886
   521  C   4.0   -0.03    3.41    3.08   111.83398   114.80085   407.47405
   522  C   4.0   -0.04    3.40    3.08   110.79652   114.69314   405.09488
   523  H   1.0    0.10    1.03    1.43   122.60542   117.16868   407.87845
   524  H   1.0    0.06    1.06    1.44   119.89933   118.65211   403.52074
   525  H   1.0    0.04    1.04    1.43   119.61020   114.48716   404.67158
   526  H   1.0    0.06    1.05    1.44   119.16801   115.21092   407.93892
   527  H   1.0    0.06    1.04    1.43   116.10476   115.47548   401.72739
   528  H   1.0    0.06    1.03    1.43   115.20336   115.28840   409.63400
   529  H   1.0    0.05    1.03    1.43   111.56942   114.83865   401.15669
   530  H   1.0    0.05    1.03    1.43   110.64534   114.57786   409.11811
   531  H   1.0    0.05    1.03    1.43   108.78774   114.42102   404.85111
   532  H   1.0    0.10    1.07    1.44   122.21057    97.33012   399.03615
   533  H   1.0    0.06    1.04    1.44   107.45351    89.15325   390.31507
   534  H   1.0    0.10    1.07    1.44   112.88628    89.28926   392.20691
   535  H   1.0    0.08    1.04    1.44   117.64164    87.70272   388.23441
   536  H   1.0    0.11    1.07    1.44    95.93983   105.19841   385.09358
   537  H   1.0    0.06    1.05    1.44   102.12749   110.59662   389.67884
   538  H   1.0    0.11    1.07    1.44    96.35966   110.22679   396.28523
   539  H   1.0    0.07    1.04    1.43    99.82212   118.62152   397.98626
   540  H   1.0    0.11    1.07    1.44    94.49638   119.04681   400.23362
   541  H   1.0    0.08    1.05    1.44   100.70470   121.73512   406.26572
   542  H   1.0    0.12    1.07    1.44    92.47956   123.94714   410.33900
   543  H   1.0    0.08    1.04    1.43   101.63709   127.57887   417.91578
   544  H   1.0    0.10    1.07    1.44    97.29549   112.57789   429.47943
   545  H   1.0    0.09    1.04    1.43   100.15515    91.51574   432.65040
   546  H   1.0    0.10    1.07    1.44   121.84495    97.22886   419.43693
   547  H   1.0    0.06    1.04    1.43   127.57887   101.63709   416.47003
   548  H   1.0    0.10    1.07    1.44   125.24643   110.87570   410.64485
   549  H   1.0    0.07    1.05    1.44   123.13757   115.99015   414.05526
   550  H   1.0    0.11    1.07    1.44   123.31712   118.92642   405.65705
   551  H   1.0    0.08    1.05    1.44   117.55320   120.62683   408.30603

  Z AO/shell   Hii/eV     exponent
  1     Wed Apr 25 08:07:45 CEST 2018   EN: 2.200 GM2: 0.406  GM3: 0.0800  RAES: 1.40
     1s    -10.707211    1.230000
  6     Wed Apr 25 08:07:45 CEST 2018   EN: 2.550 GM2: 0.538  GM3: 0.1500  RAES: 3.00
     2s    -13.970922    2.096432
     2p    -10.063292    1.800000
  7     Wed Apr 25 08:07:45 CEST 2018   EN: 3.040 GM2: 0.461  GM3:-0.0640  RAES: 1.90
     2s    -16.686243    2.339881
     2p    -12.523956    2.014332
  8     Wed Apr 25 08:07:45 CEST 2018   EN: 3.440 GM2: 0.452  GM3:-0.0517  RAES: 1.80
     2s    -20.229985    2.439742
     2p    -15.503117    2.137023
 16     Tue Apr 24 11:44:34 CEST 2018   EN: 2.580 GM2: 0.340  GM3:-0.0502  RAES: 3.10
     3s    -20.029654    1.981333
     3p    -11.377694    2.025643
     3d     -0.420282    1.702555
 no old-style atom pair restraining (fixing) potential

molecular fragmentation (1/2 indicates fragments):
111111111111111111111111111111111111111111111111111111111111111111111111
111111111111111111111111111111111111111111111111111111111111111111111111
111111111111111111111111111111111111111111111111111111111111111111111111
111111111111111111112222222222222222222222222222222222222222222222222222
222222222222222222222222222222222222222222222222222222222222222222222222
222222222222222222222222222222222222222222222222222222222222222222222222
222222222222222222222222222222222222222222222222222222222222222222222222
22222222222222222222222222211222222222222222222
# atoms in fragment 1/2:   238   313
 fragment masses (1/2) :     1659.99     2121.60
CMA distance (Bohr)    :  14.030
constraining FC (au)   :  0.0500
           ------------------------------------------------- 
          |        Self-Consistent Charge Iterations        |
           ------------------------------------------------- 

 Ncao       : 1355
 Nao        : 1351
 Nshell     : 815
 Nel        : 1478
 T(el)      :   500.0
 intcut     :    35.0
 scfconv/Eh :  0.100E-06
   qconv/e  :  0.100E-04
 intneglect :  0.100E-08
 broydamp   :      0.400
 iter      E             dE          RMSdq      gap      omega  full diag
   1   -846.1520749 -0.846152E+03  0.471E+00    2.57       0.0  T
   2   -848.0739653 -0.192189E+01  0.225E+00    1.57       1.0  T
   3   -848.1882031 -0.114238E+00  0.122E+00    1.67       1.0  T
   4   -848.3250384 -0.136835E+00  0.296E-01    1.03       1.0  T
   5   -848.3332356 -0.819718E-02  0.140E-01    1.26       1.0  T
   6   -848.3351648 -0.192920E-02  0.604E-02    1.23       1.0  T
   7   -848.3355389 -0.374133E-03  0.297E-02    1.27       1.0  T
   8   -848.3355948 -0.559154E-04  0.132E-02    1.28       1.0  T
   9   -848.3356185 -0.236830E-04  0.609E-03    1.29       1.0  T
  10   -848.3356217 -0.316545E-05  0.290E-03    1.29       1.5  T
  11   -848.3356226 -0.960001E-06  0.130E-03    1.29       3.3  T
  12   -848.3356228 -0.141023E-06  0.551E-04    1.29       7.7  T
  13   -848.3356228 -0.314513E-07  0.277E-04    1.29      15.4  T
  14   -848.3356228 -0.557316E-08  0.110E-04    1.29      38.8  T
  15   -848.3356228 -0.113323E-08  0.508E-05    1.29      83.8  T
  16   -848.3356228 -0.278760E-09  0.242E-05    1.29     176.3  T
speedup  1.99
cpu  time for SCC   22.27 s
wall time for SCC   11.18 s

   *** convergence criteria satisfied after 16 iterations ***

          eigenvalues
 #    :         727        728        729        730        731        732        733        734
 occ. :        2.000      2.000      2.000      2.000      2.000      2.000      2.000      2.000
 eps  :       -10.256    -10.243    -10.222    -10.204    -10.197    -10.130    -10.039    -10.020
 #    :         735        736        737        738        739        740        741        742
 occ. :        2.000      2.000      2.000      2.000      2.000      0.000      0.000      0.000
 eps  :        -9.979     -9.973     -9.920     -9.815     -9.686     -8.397     -7.940     -7.856
 #    :         743        744        745        746        747        748        749        750
 occ. :        0.000      0.000      0.000      0.000      0.000      0.000      0.000      0.000
 eps  :        -7.813     -7.763     -7.714     -7.694     -7.552     -7.437     -7.429     -7.087


   #   Z            q   n(s)   n(p)   n(d)      C6AA      α(0)
   1   7 N     -0.408  1.335  4.073  0.000    30.600     8.216
   2   6 C      0.014  1.064  2.922  0.000    20.349     6.425
   3   6 C      0.266  1.047  2.687  0.000    22.516     7.771
   4   8 O     -0.500  1.747  4.753  0.000    23.775     6.537
   5   6 C     -0.080  1.056  3.024  0.000    22.026     6.681
   6   6 C     -0.082  1.056  3.026  0.000    22.071     6.689
   7   6 C     -0.093  1.060  3.033  0.000    22.276     6.721
   8   6 C     -0.052  1.066  2.986  0.000    21.625     6.640
   9   7 N     -0.147  1.236  3.911  0.000    24.170     7.302
  10   1 H      0.167  0.833  0.000  0.000     1.288     1.778
  11   1 H      0.067  0.933  0.000  0.000     2.124     2.279
  12   1 H      0.058  0.942  0.000  0.000     2.228     2.334
  13   1 H      0.046  0.954  0.000  0.000     2.370     2.407
  14   1 H      0.068  0.932  0.000  0.000     2.107     2.270
  15   1 H      0.065  0.935  0.000  0.000     2.147     2.291
  16   1 H      0.069  0.931  0.000  0.000     2.093     2.263
  17   1 H      0.079  0.921  0.000  0.000     1.993     2.208
  18   1 H      0.110  0.890  0.000  0.000     1.692     2.034
  19   1 H      0.122  0.878  0.000  0.000     1.596     1.975
  20   1 H      0.298  0.702  0.000  0.000     0.718     1.327
  21   1 H      0.294  0.706  0.000  0.000     0.733     1.341
  22   1 H      0.293  0.707  0.000  0.000     0.734     1.342
  23   7 N     -0.173  1.243  3.930  0.000    24.749     7.389
  24   6 C      0.011  1.061  2.928  0.000    20.375     6.424
  25   6 C      0.270  1.041  2.689  0.000    22.438     7.758
  26   8 O     -0.502  1.759  4.743  0.000    23.820     6.544
  27   6 C     -0.026  1.062  2.964  0.000    20.991     6.516
  28   6 C     -0.114  1.042  3.072  0.000    22.735     6.799
  29   6 C     -0.125  1.043  3.082  0.000    22.955     6.831
  30   1 H      0.220  0.780  0.000  0.000     1.009     1.574
  31   1 H      0.083  0.917  0.000  0.000     1.950     2.183
  32   1 H      0.052  0.948  0.000  0.000     2.300     2.372
  33   1 H      0.047  0.953  0.000  0.000     2.352     2.398
  34   1 H      0.039  0.961  0.000  0.000     2.457     2.451
  35   1 H      0.043  0.957  0.000  0.000     2.415     2.430
  36   1 H      0.049  0.951  0.000  0.000     2.336     2.390
  37   1 H      0.053  0.947  0.000  0.000     2.288     2.365
  38   1 H      0.060  0.940  0.000  0.000     2.197     2.318
  39   7 N     -0.170  1.238  3.932  0.000    24.671     7.377
  40   6 C      0.008  1.054  2.938  0.000    20.425     6.431
  41   6 C      0.279  1.033  2.688  0.000    22.271     7.729
  42   8 O     -0.487  1.733  4.754  0.000    23.491     6.498
  43   6 C     -0.038  1.067  2.972  0.000    21.214     6.550
  44   6 C     -0.067  1.049  3.019  0.000    21.781     6.643
  45   6 C     -0.131  1.045  3.087  0.000    23.081     6.850
  46   6 C     -0.118  1.039  3.080  0.000    22.828     6.813
  47   1 H      0.221  0.779  0.000  0.000     1.005     1.571
  48   1 H      0.078  0.922  0.000  0.000     1.995     2.209
  49   1 H      0.065  0.935  0.000  0.000     2.145     2.290
  50   1 H      0.042  0.958  0.000  0.000     2.416     2.431
  51   1 H      0.038  0.962  0.000  0.000     2.475     2.460
  52   1 H      0.073  0.927  0.000  0.000     2.057     2.243
  53   1 H      0.059  0.941  0.000  0.000     2.206     2.323
  54   1 H      0.050  0.950  0.000  0.000     2.316     2.380
  55   1 H      0.036  0.964  0.000  0.000     2.504     2.474
  56   1 H      0.046  0.954  0.000  0.000     2.374     2.409
  57   1 H      0.053  0.947  0.000  0.000     2.287     2.365
  58   7 N     -0.173  1.238  3.935  0.000    24.737     7.387
  59   6 C      0.002  1.066  2.932  0.000    20.545     6.454
  60   6 C      0.265  1.047  2.689  0.000    22.535     7.773
  61   8 O     -0.481  1.743  4.737  0.000    23.359     6.480
  62   6 C      0.053  1.039  2.907  0.000    19.885     6.386
  63   8 O     -0.448  1.703  4.745  0.000    21.795     6.302
  64   1 H      0.213  0.787  0.000  0.000     1.040     1.598
  65   1 H      0.108  0.892  0.000  0.000     1.715     2.048
  66   1 H      0.064  0.936  0.000  0.000     2.147     2.291
  67   1 H      0.059  0.941  0.000  0.000     2.212     2.326
  68   1 H      0.355  0.645  0.000  0.000     0.578     1.194
  69   7 N     -0.174  1.248  3.926  0.000    24.760     7.390
  70   6 C      0.013  1.061  2.926  0.000    20.369     6.427
  71   6 C      0.288  1.035  2.677  0.000    22.119     7.702
  72   8 O     -0.517  1.751  4.766  0.000    24.161     6.590
  73   6 C      0.073  1.040  2.887  0.000    19.570     6.337
  74   8 O     -0.477  1.727  4.750  0.000    22.407     6.390
  75   1 H      0.228  0.772  0.000  0.000     0.974     1.546
  76   1 H      0.095  0.905  0.000  0.000     1.831     2.116
  77   1 H      0.053  0.947  0.000  0.000     2.277     2.360
  78   1 H      0.068  0.932  0.000  0.000     2.108     2.271
  79   1 H      0.320  0.680  0.000  0.000     0.664     1.280
  80   7 N     -0.173  1.247  3.926  0.000    24.741     7.387
  81   6 C      0.024  1.051  2.924  0.000    20.162     6.393
  82   6 C      0.282  1.039  2.679  0.000    22.223     7.720
  83   8 O     -0.514  1.743  4.771  0.000    24.103     6.582
  84   6 C     -0.133  1.043  3.090  0.000    23.104     6.852
  85   1 H      0.245  0.755  0.000  0.000     0.902     1.488
  86   1 H      0.069  0.931  0.000  0.000     2.094     2.263
  87   1 H      0.058  0.942  0.000  0.000     2.223     2.331
  88   1 H      0.083  0.917  0.000  0.000     1.950     2.184
  89   1 H      0.082  0.918  0.000  0.000     1.962     2.190
  90   7 N     -0.183  1.247  3.936  0.000    24.975     7.422
  91   6 C      0.024  1.054  2.923  0.000    20.145     6.384
  92   6 C      0.267  1.032  2.701  0.000    22.502     7.768
  93   8 O     -0.497  1.766  4.730  0.000    23.703     6.528
  94   6 C     -0.028  1.065  2.963  0.000    21.080     6.537
  95  16 S     -0.290  1.920  4.329  0.041   153.589    20.859
  96   1 H      0.247  0.753  0.000  0.000     0.893     1.481
  97   1 H      0.062  0.938  0.000  0.000     2.172     2.305
  98   1 H      0.096  0.904  0.000  0.000     1.823     2.111
  99   1 H      0.083  0.917  0.000  0.000     1.946     2.182
 100   1 H      0.226  0.774  0.000  0.000     0.978     1.547
 101   7 N     -0.168  1.250  3.919  0.000    24.641     7.372
 102   6 C      0.008  1.073  2.919  0.000    20.442     6.438
 103   6 C      0.280  1.042  2.677  0.000    22.256     7.725
 104   8 O     -0.516  1.777  4.739  0.000    24.138     6.587
 105   6 C     -0.084  1.061  3.023  0.000    22.110     6.695
 106   6 C     -0.085  1.057  3.028  0.000    22.119     6.696
 107   6 C     -0.101  1.059  3.043  0.000    22.439     6.745
 108   6 C     -0.068  1.063  3.005  0.000    21.905     6.681
 109   7 N     -0.135  1.230  3.904  0.000    23.910     7.262
 110   1 H      0.251  0.749  0.000  0.000     0.881     1.470
 111   1 H      0.094  0.906  0.000  0.000     1.845     2.124
 112   1 H      0.091  0.909  0.000  0.000     1.871     2.139
 113   1 H      0.057  0.943  0.000  0.000     2.235     2.338
 114   1 H      0.065  0.935  0.000  0.000     2.141     2.288
 115   1 H      0.053  0.947  0.000  0.000     2.278     2.360
 116   1 H      0.098  0.902  0.000  0.000     1.799     2.098
 117   1 H      0.091  0.909  0.000  0.000     1.867     2.137
 118   1 H      0.108  0.892  0.000  0.000     1.718     2.050
 119   1 H      0.128  0.872  0.000  0.000     1.547     1.945
 120   1 H      0.303  0.697  0.000  0.000     0.704     1.314
 121   1 H      0.302  0.698  0.000  0.000     0.707     1.317
 122   1 H      0.301  0.699  0.000  0.000     0.711     1.321
 123   7 N     -0.180  1.243  3.938  0.000    24.908     7.412
 124   6 C      0.013  1.060  2.926  0.000    20.349     6.422
 125   6 C      0.284  1.032  2.683  0.000    22.182     7.713
 126   8 O     -0.513  1.748  4.765  0.000    24.070     6.578
 127   6 C      0.112  1.046  2.842  0.000    18.828     6.193
 128   8 O     -0.471  1.720  4.750  0.000    22.274     6.371
 129   6 C     -0.117  1.040  3.077  0.000    22.800     6.809
 130   1 H      0.214  0.786  0.000  0.000     1.037     1.595
 131   1 H      0.073  0.927  0.000  0.000     2.053     2.241
 132   1 H      0.026  0.974  0.000  0.000     2.642     2.542
 133   1 H      0.340  0.660  0.000  0.000     0.613     1.230
 134   1 H      0.076  0.924  0.000  0.000     2.019     2.222
 135   1 H      0.024  0.976  0.000  0.000     2.668     2.554
 136   1 H      0.060  0.940  0.000  0.000     2.199     2.319
 137   7 N     -0.214  1.258  3.956  0.000    25.671     7.525
 138   6 C      0.036  1.055  2.910  0.000    19.977     6.363
 139   6 C      0.277  1.036  2.687  0.000    22.310     7.735
 140   8 O     -0.519  1.741  4.778  0.000    24.204     6.596
 141   6 C     -0.064  1.047  3.017  0.000    21.721     6.633
 142   6 C      0.000  1.072  2.927  0.000    28.015     8.682
 143   6 C     -0.031  1.075  2.956  0.000    28.780     8.798
 144   6 C     -0.050  1.080  2.970  0.000    29.231     8.867
 145   6 C     -0.052  1.074  2.978  0.000    29.285     8.875
 146   6 C     -0.080  1.078  3.002  0.000    29.996     8.982
 147   6 C      0.145  1.043  2.812  0.000    24.844     8.170
 148   8 O     -0.450  1.735  4.715  0.000    21.841     6.309
 149   1 H      0.246  0.754  0.000  0.000     0.899     1.485
 150   1 H      0.058  0.942  0.000  0.000     2.228     2.334
 151   1 H      0.061  0.939  0.000  0.000     2.188     2.313
 152   1 H      0.055  0.945  0.000  0.000     2.259     2.351
 153   1 H     -0.001  1.001  0.000  0.000     3.083     2.746
 154   1 H      0.060  0.940  0.000  0.000     2.196     2.317
 155   1 H      0.032  0.968  0.000  0.000     2.565     2.504
 156   1 H      0.071  0.929  0.000  0.000     2.074     2.252
 157   1 H      0.355  0.645  0.000  0.000     0.576     1.193
 158   7 N     -0.199  1.259  3.939  0.000    25.316     7.473
 159   6 C      0.051  1.048  2.900  0.000    19.681     6.310
 160   6 C      0.279  1.041  2.680  0.000    22.275     7.729
 161   8 O     -0.496  1.763  4.734  0.000    23.703     6.527
 162   6 C     -0.007  1.064  2.943  0.000    20.682     6.472
 163  16 S     -0.306  1.881  4.379  0.047   154.351    20.910
 164   1 H      0.232  0.768  0.000  0.000     0.955     1.530
 165   1 H      0.045  0.955  0.000  0.000     2.387     2.416
 166   1 H      0.124  0.876  0.000  0.000     1.581     1.966
 167   1 H      0.064  0.936  0.000  0.000     2.155     2.296
 168   1 H      0.166  0.834  0.000  0.000     1.290     1.776
 169   7 N     -0.170  1.242  3.928  0.000    24.680     7.378
 170   6 C     -0.026  1.049  2.977  0.000    21.102     6.551
 171   6 C      0.292  1.031  2.677  0.000    22.050     7.689
 172   8 O     -0.484  1.753  4.731  0.000    23.440     6.491
 173   1 H      0.210  0.790  0.000  0.000     1.056     1.610
 174   1 H      0.069  0.931  0.000  0.000     2.101     2.267
 175   1 H      0.094  0.906  0.000  0.000     1.841     2.122
 176   7 N     -0.172  1.246  3.926  0.000    24.720     7.384
 177   6 C      0.013  1.071  2.916  0.000    20.363     6.427
 178   6 C      0.288  1.036  2.676  0.000    22.122     7.702
 179   8 O     -0.508  1.760  4.749  0.000    23.970     6.564
 180   6 C     -0.088  1.057  3.031  0.000    22.182     6.705
 181   6 C     -0.079  1.050  3.029  0.000    22.006     6.678
 182   6 C     -0.091  1.053  3.038  0.000    22.232     6.713
 183   6 C     -0.053  1.062  2.991  0.000    21.621     6.637
 184   7 N     -0.149  1.236  3.913  0.000    24.212     7.308
 185   1 H      0.214  0.786  0.000  0.000     1.040     1.597
 186   1 H      0.085  0.915  0.000  0.000     1.923     2.169
 187   1 H      0.066  0.934  0.000  0.000     2.135     2.285
 188   1 H      0.073  0.927  0.000  0.000     2.056     2.242
 189   1 H      0.068  0.932  0.000  0.000     2.112     2.273
 190   1 H      0.052  0.948  0.000  0.000     2.298     2.370
 191   1 H      0.073  0.927  0.000  0.000     2.056     2.242
 192   1 H      0.083  0.917  0.000  0.000     1.949     2.183
 193   1 H      0.120  0.880  0.000  0.000     1.612     1.985
 194   1 H      0.114  0.886  0.000  0.000     1.666     2.019
 195   1 H      0.304  0.696  0.000  0.000     0.702     1.313
 196   1 H      0.296  0.704  0.000  0.000     0.725     1.334
 197   1 H      0.301  0.699  0.000  0.000     0.711     1.321
 198   7 N     -0.176  1.239  3.938  0.000    24.819     7.399
 199   6 C      0.019  1.058  2.923  0.000    20.260     6.409
 200   6 C      0.292  1.025  2.683  0.000    22.057     7.692
 201   8 O     -0.494  1.754  4.740  0.000    23.651     6.520
 202   6 C      0.113  1.046  2.841  0.000    18.814     6.190
 203   8 O     -0.482  1.726  4.756  0.000    22.519     6.406
 204   6 C     -0.142  1.049  3.092  0.000    23.291     6.882
 205   1 H      0.240  0.760  0.000  0.000     0.924     1.506
 206   1 H      0.059  0.941  0.000  0.000     2.209     2.324
 207   1 H      0.030  0.970  0.000  0.000     2.589     2.516
 208   1 H      0.347  0.653  0.000  0.000     0.594     1.211
 209   1 H      0.067  0.933  0.000  0.000     2.114     2.274
 210   1 H      0.058  0.942  0.000  0.000     2.223     2.331
 211   1 H      0.068  0.932  0.000  0.000     2.107     2.270
 212   7 N     -0.186  1.243  3.943  0.000    25.028     7.430
 213   6 C      0.028  1.049  2.923  0.000    20.095     6.382
 214   6 C      0.259  1.044  2.697  0.000    22.638     7.793
 215   8 O     -0.505  1.752  4.753  0.000    23.896     6.554
 216   6 C      0.079  1.035  2.886  0.000    19.462     6.318
 217   8 O     -0.447  1.702  4.745  0.000    21.782     6.300
 218   1 H      0.220  0.780  0.000  0.000     1.010     1.575
 219   1 H      0.067  0.933  0.000  0.000     2.117     2.275
 220   1 H      0.016  0.984  0.000  0.000     2.792     2.613
 221   1 H      0.044  0.956  0.000  0.000     2.402     2.424
 222   1 H      0.337  0.663  0.000  0.000     0.619     1.236
 223   7 N     -0.055  1.227  3.828  0.000    22.312     7.016
 224   6 C      0.014  1.060  2.926  0.000    20.309     6.411
 225   6 C      0.185  1.087  2.728  0.000    24.025     8.027
 226   8 O     -0.313  1.733  4.580  0.000    20.024     5.999
 227   6 C     -0.074  1.051  3.022  0.000    21.879     6.655
 228   6 C     -0.080  1.044  3.035  0.000    21.992     6.672
 229   6 C     -0.019  1.057  2.962  0.000    20.963     6.526
 230   1 H      0.083  0.917  0.000  0.000     1.945     2.181
 231   1 H      0.078  0.922  0.000  0.000     1.999     2.211
 232   1 H      0.064  0.936  0.000  0.000     2.157     2.297
 233   1 H      0.091  0.909  0.000  0.000     1.873     2.140
 234   1 H      0.061  0.939  0.000  0.000     2.193     2.316
 235   1 H      0.103  0.897  0.000  0.000     1.757     2.073
 236   1 H      0.056  0.944  0.000  0.000     2.244     2.343
 237   7 N     -0.399  1.337  4.062  0.000    30.357     8.183
 238   6 C      0.030  1.056  2.914  0.000    20.087     6.384
 239   6 C      0.202  1.089  2.709  0.000    23.712     7.975
 240   8 O     -0.398  1.765  4.633  0.000    21.649     6.238
 241   6 C     -0.083  1.062  3.021  0.000    22.083     6.691
 242   6 C     -0.089  1.059  3.030  0.000    22.203     6.709
 243   6 C     -0.102  1.060  3.042  0.000    22.459     6.748
 244   6 C     -0.075  1.058  3.017  0.000    22.031     6.700
 245   7 N     -0.144  1.230  3.915  0.000    24.110     7.293
 246   1 H      0.186  0.814  0.000  0.000     1.180     1.702
 247   1 H      0.063  0.937  0.000  0.000     2.168     2.303
 248   1 H      0.065  0.935  0.000  0.000     2.140     2.287
 249   1 H      0.040  0.960  0.000  0.000     2.449     2.447
 250   1 H      0.070  0.930  0.000  0.000     2.081     2.256
 251   1 H      0.077  0.923  0.000  0.000     2.012     2.218
 252   1 H      0.079  0.921  0.000  0.000     1.985     2.203
 253   1 H      0.092  0.908  0.000  0.000     1.855     2.130
 254   1 H      0.123  0.877  0.000  0.000     1.592     1.973
 255   1 H      0.120  0.880  0.000  0.000     1.611     1.985
 256   1 H      0.298  0.702  0.000  0.000     0.721     1.330
 257   1 H      0.295  0.705  0.000  0.000     0.730     1.338
 258   1 H      0.303  0.697  0.000  0.000     0.703     1.314
 259   7 N     -0.402  1.329  4.073  0.000    30.438     8.194
 260   6 C      0.034  1.054  2.911  0.000    20.005     6.370
 261   6 C      0.267  1.051  2.682  0.000    22.491     7.766
 262   8 O     -0.527  1.777  4.750  0.000    24.391     6.622
 263   6 C     -0.080  1.059  3.021  0.000    22.003     6.675
 264   6 C     -0.013  1.054  2.958  0.000    20.764     6.481
 265   6 C     -0.122  1.047  3.075  0.000    22.886     6.820
 266   6 C     -0.103  1.042  3.062  0.000    22.531     6.769
 267   1 H      0.171  0.829  0.000  0.000     1.265     1.762
 268   1 H      0.021  0.979  0.000  0.000     2.723     2.581
 269   1 H      0.066  0.934  0.000  0.000     2.133     2.284
 270   1 H      0.053  0.947  0.000  0.000     2.284     2.363
 271   1 H      0.028  0.972  0.000  0.000     2.613     2.528
 272   1 H      0.042  0.958  0.000  0.000     2.419     2.432
 273   1 H      0.052  0.948  0.000  0.000     2.293     2.368
 274   1 H      0.054  0.946  0.000  0.000     2.266     2.354
 275   1 H      0.034  0.966  0.000  0.000     2.526     2.485
 276   1 H      0.031  0.969  0.000  0.000     2.571     2.507
 277   1 H      0.023  0.977  0.000  0.000     2.696     2.568
 278   7 N     -0.163  1.244  3.919  0.000    24.534     7.357
 279   6 C      0.015  1.059  2.926  0.000    20.325     6.419
 280   6 C      0.210  1.078  2.712  0.000    23.545     7.947
 281   8 O     -0.366  1.741  4.625  0.000    21.011     6.146
 282   6 C     -0.025  1.062  2.963  0.000    20.982     6.514
 283   6 C     -0.123  1.044  3.079  0.000    22.913     6.825
 284   6 C     -0.139  1.048  3.091  0.000    23.235     6.872
 285   1 H      0.225  0.775  0.000  0.000     0.985     1.555
 286   1 H      0.099  0.901  0.000  0.000     1.795     2.095
 287   1 H      0.054  0.946  0.000  0.000     2.274     2.358
 288   1 H      0.069  0.931  0.000  0.000     2.098     2.265
 289   1 H      0.034  0.966  0.000  0.000     2.527     2.486
 290   1 H      0.063  0.937  0.000  0.000     2.170     2.303
 291   1 H      0.074  0.926  0.000  0.000     2.043     2.235
 292   1 H      0.075  0.925  0.000  0.000     2.031     2.229
 293   1 H      0.056  0.944  0.000  0.000     2.245     2.343
 294   7 N     -0.399  1.324  4.075  0.000    30.353     8.182
 295   6 C      0.038  1.045  2.916  0.000    19.936     6.358
 296   6 C      0.277  1.032  2.691  0.000    22.323     7.738
 297   8 O     -0.510  1.735  4.774  0.000    23.995     6.568
 298   6 C     -0.115  1.043  3.072  0.000    22.754     6.800
 299   1 H      0.174  0.826  0.000  0.000     1.250     1.751
 300   1 H      0.013  0.987  0.000  0.000     2.849     2.640
 301   1 H      0.032  0.968  0.000  0.000     2.561     2.503
 302   1 H      0.042  0.958  0.000  0.000     2.424     2.435
 303   1 H      0.087  0.913  0.000  0.000     1.910     2.161
 304   7 N     -0.165  1.239  3.926  0.000    24.572     7.362
 305   6 C      0.026  1.057  2.917  0.000    20.137     6.389
 306   6 C      0.199  1.092  2.708  0.000    23.751     7.981
 307   8 O     -0.374  1.765  4.609  0.000    21.176     6.170
 308   6 C     -0.080  1.057  3.024  0.000    22.017     6.678
 309   6 C     -0.018  1.054  2.964  0.000    20.865     6.497
 310   6 C     -0.120  1.045  3.075  0.000    22.857     6.816
 311   6 C     -0.122  1.042  3.079  0.000    22.880     6.819
 312   1 H      0.238  0.762  0.000  0.000     0.933     1.513
 313   1 H      0.087  0.913  0.000  0.000     1.912     2.162
 314   1 H      0.055  0.945  0.000  0.000     2.262     2.352
 315   1 H      0.061  0.939  0.000  0.000     2.183     2.310
 316   1 H      0.054  0.946  0.000  0.000     2.277     2.360
 317   1 H      0.062  0.938  0.000  0.000     2.176     2.307
 318   1 H      0.037  0.963  0.000  0.000     2.488     2.467
 319   1 H      0.042  0.958  0.000  0.000     2.423     2.434
 320   1 H      0.061  0.939  0.000  0.000     2.192     2.315
 321   1 H      0.042  0.958  0.000  0.000     2.421     2.433
 322   1 H      0.043  0.957  0.000  0.000     2.413     2.429
 323   7 N     -0.393  1.327  4.066  0.000    30.170     8.158
 324   6 C      0.036  1.053  2.911  0.000    19.971     6.364
 325   6 C      0.276  1.040  2.685  0.000    22.340     7.740
 326   8 O     -0.520  1.750  4.770  0.000    24.236     6.601
 327   6 C     -0.113  1.044  3.069  0.000    22.720     6.796
 328   1 H      0.164  0.836  0.000  0.000     1.311     1.794
 329   1 H      0.021  0.979  0.000  0.000     2.725     2.582
 330   1 H      0.025  0.975  0.000  0.000     2.662     2.551
 331   1 H      0.055  0.945  0.000  0.000     2.262     2.352
 332   1 H      0.066  0.934  0.000  0.000     2.125     2.280
 333   7 N     -0.165  1.239  3.925  0.000    24.560     7.360
 334   6 C      0.039  1.043  2.919  0.000    19.926     6.356
 335   6 C      0.210  1.080  2.711  0.000    23.559     7.950
 336   8 O     -0.366  1.742  4.623  0.000    21.005     6.145
 337   6 C     -0.133  1.047  3.086  0.000    23.098     6.851
 338   1 H      0.242  0.758  0.000  0.000     0.916     1.500
 339   1 H      0.056  0.944  0.000  0.000     2.243     2.342
 340   1 H      0.079  0.921  0.000  0.000     1.989     2.205
 341   1 H      0.082  0.918  0.000  0.000     1.961     2.190
 342   1 H      0.085  0.915  0.000  0.000     1.927     2.171
 343   7 N     -0.416  1.322  4.094  0.000    30.809     8.244
 344   6 C      0.042  1.055  2.903  0.000    19.887     6.353
 345   6 C      0.272  1.051  2.676  0.000    22.399     7.750
 346   8 O     -0.510  1.742  4.769  0.000    24.016     6.571
 347   6 C     -0.031  1.047  2.983  0.000    21.114     6.541
 348   6 C     -0.079  1.058  3.021  0.000    22.016     6.680
 349   6 C      0.350  1.045  2.606  0.000    21.059     7.510
 350   8 O     -0.617  1.774  4.843  0.000    26.541     6.907
 351   8 O     -0.689  1.810  4.879  0.000    28.413     7.146
 352   1 H      0.186  0.814  0.000  0.000     1.181     1.702
 353   1 H      0.022  0.978  0.000  0.000     2.706     2.573
 354   1 H      0.028  0.972  0.000  0.000     2.614     2.529
 355   1 H      0.017  0.983  0.000  0.000     2.774     2.605
 356   1 H      0.031  0.969  0.000  0.000     2.579     2.511
 357   1 H      0.020  0.980  0.000  0.000     2.731     2.584
 358   7 N     -0.161  1.241  3.919  0.000    24.474     7.347
 359   6 C      0.023  1.063  2.914  0.000    20.209     6.403
 360   6 C      0.193  1.090  2.716  0.000    23.872     8.002
 361   8 O     -0.369  1.765  4.604  0.000    21.070     6.154
 362   6 C     -0.068  1.050  3.018  0.000    21.804     6.647
 363   6 C     -0.093  1.054  3.039  0.000    22.275     6.719
 364   6 C      0.289  1.035  2.676  0.000    22.109     7.699
 365   8 O     -0.508  1.741  4.767  0.000    23.962     6.563
 366   7 N     -0.257  1.258  3.999  0.000    26.668     7.670
 367   1 H      0.214  0.786  0.000  0.000     1.035     1.594
 368   1 H      0.102  0.898  0.000  0.000     1.767     2.079
 369   1 H      0.074  0.926  0.000  0.000     2.042     2.234
 370   1 H      0.089  0.911  0.000  0.000     1.887     2.148
 371   1 H      0.048  0.952  0.000  0.000     2.342     2.393
 372   1 H      0.096  0.904  0.000  0.000     1.824     2.112
 373   1 H      0.204  0.796  0.000  0.000     1.086     1.633
 374   1 H      0.213  0.787  0.000  0.000     1.043     1.600
 375   8 O     -0.609  1.644  4.964  0.000    25.390     6.801
 376   1 H      0.322  0.678  0.000  0.000     0.659     1.274
 377   1 H      0.287  0.713  0.000  0.000     0.762     1.371
 378   7 N     -0.392  1.320  4.072  0.000    30.162     8.157
 379   6 C      0.020  1.057  2.923  0.000    20.249     6.409
 380   6 C      0.281  1.040  2.679  0.000    22.238     7.722
 381   8 O     -0.511  1.748  4.763  0.000    24.032     6.573
 382   6 C      0.078  1.043  2.880  0.000    19.497     6.326
 383   8 O     -0.485  1.724  4.761  0.000    22.575     6.414
 384   1 H      0.167  0.833  0.000  0.000     1.293     1.781
 385   1 H      0.049  0.951  0.000  0.000     2.330     2.387
 386   1 H      0.023  0.977  0.000  0.000     2.693     2.566
 387   1 H      0.045  0.955  0.000  0.000     2.385     2.415
 388   1 H      0.332  0.668  0.000  0.000     0.633     1.249
 389   7 N     -0.163  1.242  3.921  0.000    24.533     7.356
 390   6 C      0.018  1.053  2.929  0.000    20.270     6.410
 391   6 C      0.281  1.039  2.681  0.000    22.251     7.725
 392   8 O     -0.485  1.732  4.753  0.000    23.459     6.494
 393   6 C     -0.140  1.045  3.094  0.000    23.237     6.872
 394   1 H      0.233  0.767  0.000  0.000     0.951     1.528
 395   1 H      0.086  0.914  0.000  0.000     1.921     2.167
 396   1 H      0.079  0.921  0.000  0.000     1.994     2.208
 397   1 H      0.086  0.914  0.000  0.000     1.922     2.168
 398   1 H      0.073  0.927  0.000  0.000     2.051     2.240
 399   7 N     -0.175  1.242  3.933  0.000    24.783     7.394
 400   6 C      0.011  1.059  2.930  0.000    20.359     6.418
 401   6 C      0.266  1.031  2.703  0.000    22.510     7.770
 402   8 O     -0.473  1.756  4.717  0.000    23.184     6.456
 403   6 C     -0.019  1.063  2.955  0.000    20.906     6.509
 404  16 S     -0.312  1.939  4.327  0.046   154.622    20.929
 405   1 H      0.227  0.773  0.000  0.000     0.979     1.550
 406   1 H      0.092  0.908  0.000  0.000     1.863     2.135
 407   1 H      0.092  0.908  0.000  0.000     1.864     2.135
 408   1 H      0.091  0.909  0.000  0.000     1.865     2.135
 409   1 H      0.220  0.780  0.000  0.000     1.001     1.564
 410   7 N     -0.162  1.246  3.916  0.000    24.505     7.352
 411   6 C      0.005  1.075  2.920  0.000    20.500     6.447
 412   6 C      0.279  1.041  2.680  0.000    22.276     7.729
 413   8 O     -0.506  1.773  4.733  0.000    23.923     6.558
 414   6 C     -0.078  1.060  3.018  0.000    21.996     6.678
 415   6 C     -0.086  1.057  3.028  0.000    22.132     6.698
 416   6 C     -0.090  1.057  3.033  0.000    22.220     6.712
 417   6 C     -0.057  1.061  2.996  0.000    21.693     6.649
 418   7 N     -0.148  1.235  3.913  0.000    24.191     7.305
 419   1 H      0.226  0.774  0.000  0.000     0.981     1.552
 420   1 H      0.101  0.899  0.000  0.000     1.773     2.082
 421   1 H      0.073  0.927  0.000  0.000     2.058     2.243
 422   1 H      0.057  0.943  0.000  0.000     2.237     2.339
 423   1 H      0.064  0.936  0.000  0.000     2.150     2.293
 424   1 H      0.070  0.930  0.000  0.000     2.089     2.260
 425   1 H      0.073  0.927  0.000  0.000     2.048     2.238
 426   1 H      0.076  0.924  0.000  0.000     2.023     2.224
 427   1 H      0.117  0.883  0.000  0.000     1.637     2.001
 428   1 H      0.122  0.878  0.000  0.000     1.597     1.976
 429   1 H      0.309  0.691  0.000  0.000     0.687     1.299
 430   1 H      0.300  0.700  0.000  0.000     0.712     1.322
 431   1 H      0.295  0.705  0.000  0.000     0.728     1.336
 432   7 N     -0.177  1.242  3.935  0.000    24.838     7.402
 433   6 C      0.009  1.062  2.929  0.000    20.418     6.433
 434   6 C      0.282  1.032  2.687  0.000    22.234     7.722
 435   8 O     -0.495  1.741  4.754  0.000    23.673     6.523
 436   6 C      0.113  1.046  2.841  0.000    18.820     6.192
 437   8 O     -0.483  1.729  4.754  0.000    22.533     6.408
 438   6 C     -0.125  1.042  3.083  0.000    22.950     6.831
 439   1 H      0.210  0.790  0.000  0.000     1.055     1.609
 440   1 H      0.073  0.927  0.000  0.000     2.052     2.240
 441   1 H      0.033  0.967  0.000  0.000     2.547     2.496
 442   1 H      0.326  0.674  0.000  0.000     0.647     1.263
 443   1 H      0.082  0.918  0.000  0.000     1.958     2.188
 444   1 H      0.052  0.948  0.000  0.000     2.295     2.369
 445   1 H      0.057  0.943  0.000  0.000     2.236     2.339
 446   7 N     -0.208  1.255  3.953  0.000    25.525     7.504
 447   6 C      0.025  1.059  2.916  0.000    20.146     6.390
 448   6 C      0.276  1.036  2.688  0.000    22.332     7.739
 449   8 O     -0.499  1.744  4.755  0.000    23.768     6.536
 450   6 C     -0.074  1.049  3.025  0.000    21.900     6.660
 451   6 C      0.000  1.073  2.927  0.000    28.022     8.683
 452   6 C     -0.042  1.081  2.961  0.000    29.038     8.838
 453   6 C     -0.045  1.082  2.963  0.000    29.116     8.850
 454   6 C     -0.059  1.069  2.990  0.000    29.476     8.904
 455   6 C     -0.075  1.077  2.998  0.000    29.878     8.964
 456   6 C      0.142  1.043  2.816  0.000    24.913     8.181
 457   8 O     -0.428  1.712  4.716  0.000    21.400     6.245
 458   1 H      0.241  0.759  0.000  0.000     0.920     1.502
 459   1 H      0.084  0.916  0.000  0.000     1.942     2.179
 460   1 H      0.058  0.942  0.000  0.000     2.226     2.333
 461   1 H      0.073  0.927  0.000  0.000     2.056     2.242
 462   1 H      0.044  0.956  0.000  0.000     2.401     2.423
 463   1 H      0.041  0.959  0.000  0.000     2.436     2.441
 464   1 H      0.062  0.938  0.000  0.000     2.176     2.307
 465   1 H      0.048  0.952  0.000  0.000     2.350     2.397
 466   1 H      0.340  0.660  0.000  0.000     0.611     1.228
 467   7 N     -0.182  1.252  3.931  0.000    24.953     7.419
 468   6 C      0.039  1.050  2.911  0.000    19.888     6.344
 469   6 C      0.198  1.089  2.712  0.000    23.777     7.986
 470   8 O     -0.364  1.769  4.595  0.000    20.978     6.141
 471   6 C     -0.014  1.066  2.948  0.000    20.802     6.490
 472  16 S     -0.341  1.907  4.386  0.048   155.951    21.018
 473   1 H      0.230  0.770  0.000  0.000     0.966     1.540
 474   1 H      0.084  0.916  0.000  0.000     1.942     2.179
 475   1 H      0.121  0.879  0.000  0.000     1.608     1.983
 476   1 H      0.077  0.923  0.000  0.000     2.008     2.216
 477   1 H      0.190  0.810  0.000  0.000     1.153     1.679
 478   7 N     -0.385  1.334  4.051  0.000    29.951     8.128
 479   6 C      0.029  1.063  2.907  0.000    20.104     6.388
 480   6 C      0.194  1.089  2.717  0.000    23.862     8.000
 481   8 O     -0.387  1.773  4.614  0.000    21.432     6.207
 482   6 C     -0.063  1.048  3.014  0.000    21.695     6.630
 483   6 C     -0.092  1.054  3.038  0.000    22.245     6.714
 484   6 C      0.282  1.035  2.683  0.000    22.218     7.718
 485   8 O     -0.496  1.747  4.748  0.000    23.691     6.526
 486   7 N     -0.269  1.261  4.009  0.000    26.970     7.713
 487   1 H      0.151  0.849  0.000  0.000     1.395     1.850
 488   1 H      0.090  0.910  0.000  0.000     1.879     2.143
 489   1 H      0.040  0.960  0.000  0.000     2.444     2.445
 490   1 H      0.067  0.933  0.000  0.000     2.123     2.279
 491   1 H      0.055  0.945  0.000  0.000     2.255     2.348
 492   1 H      0.070  0.930  0.000  0.000     2.089     2.260
 493   1 H      0.216  0.784  0.000  0.000     1.028     1.588
 494   1 H      0.227  0.773  0.000  0.000     0.977     1.549
 495   7 N     -0.391  1.325  4.066  0.000    30.120     8.151
 496   6 C      0.038  1.050  2.912  0.000    19.946     6.362
 497   6 C      0.196  1.093  2.711  0.000    23.823     7.993
 498   8 O     -0.370  1.754  4.616  0.000    21.082     6.156
 499   6 C     -0.065  1.051  3.014  0.000    21.740     6.637
 500   6 C     -0.098  1.052  3.046  0.000    22.366     6.732
 501   6 C      0.282  1.039  2.680  0.000    22.231     7.720
 502   8 O     -0.475  1.742  4.733  0.000    23.243     6.464
 503   7 N     -0.285  1.266  4.018  0.000    27.355     7.768
 504   1 H      0.170  0.830  0.000  0.000     1.270     1.766
 505   1 H      0.058  0.942  0.000  0.000     2.228     2.334
 506   1 H      0.074  0.926  0.000  0.000     2.040     2.233
 507   1 H      0.048  0.952  0.000  0.000     2.339     2.392
 508   1 H      0.076  0.924  0.000  0.000     2.017     2.221
 509   1 H      0.049  0.951  0.000  0.000     2.335     2.390
 510   1 H      0.211  0.789  0.000  0.000     1.053     1.607
 511   1 H      0.222  0.778  0.000  0.000     1.001     1.567
 512   7 N     -0.392  1.326  4.066  0.000    30.150     8.155
 513   6 C      0.046  1.046  2.908  0.000    19.809     6.339
 514   6 C      0.211  1.084  2.706  0.000    23.540     7.946
 515   8 O     -0.389  1.759  4.629  0.000    21.456     6.210
 516   6 C     -0.079  1.056  3.023  0.000    21.987     6.673
 517   6 C      0.009  1.069  2.922  0.000    27.811     8.651
 518   6 C     -0.041  1.073  2.968  0.000    29.021     8.836
 519   6 C     -0.045  1.078  2.967  0.000    29.113     8.850
 520   6 C     -0.039  1.079  2.960  0.000    28.958     8.825
 521   6 C     -0.038  1.079  2.959  0.000    28.934     8.822
 522   6 C     -0.037  1.076  2.961  0.000    28.930     8.821
 523   1 H      0.165  0.835  0.000  0.000     1.301     1.787
 524   1 H      0.048  0.952  0.000  0.000     2.347     2.396
 525   1 H      0.062  0.938  0.000  0.000     2.175     2.307
 526   1 H      0.070  0.930  0.000  0.000     2.087     2.259
 527   1 H      0.040  0.960  0.000  0.000     2.453     2.449
 528   1 H      0.034  0.966  0.000  0.000     2.529     2.487
 529   1 H      0.050  0.950  0.000  0.000     2.321     2.383
 530   1 H      0.030  0.970  0.000  0.000     2.589     2.516
 531   1 H      0.032  0.968  0.000  0.000     2.564     2.504
 532   1 H      0.192  0.808  0.000  0.000     1.147     1.678
 533   1 H      0.085  0.915  0.000  0.000     1.923     2.168
 534   1 H      0.190  0.810  0.000  0.000     1.161     1.687
 535   1 H      0.064  0.936  0.000  0.000     2.149     2.292
 536   1 H      0.170  0.830  0.000  0.000     1.274     1.768
 537   1 H      0.064  0.936  0.000  0.000     2.153     2.295
 538   1 H      0.166  0.834  0.000  0.000     1.298     1.785
 539   1 H      0.074  0.926  0.000  0.000     2.044     2.236
 540   1 H      0.186  0.814  0.000  0.000     1.182     1.703
 541   1 H      0.077  0.923  0.000  0.000     2.004     2.214
 542   1 H      0.178  0.822  0.000  0.000     1.226     1.735
 543   1 H      0.096  0.904  0.000  0.000     1.821     2.110
 544   1 H      0.198  0.802  0.000  0.000     1.117     1.655
 545   1 H      0.076  0.924  0.000  0.000     2.020     2.223
 546   1 H      0.187  0.813  0.000  0.000     1.176     1.699
 547   1 H      0.079  0.921  0.000  0.000     1.984     2.203
 548   1 H      0.192  0.808  0.000  0.000     1.150     1.679
 549   1 H      0.072  0.928  0.000  0.000     2.061     2.245
 550   1 H      0.190  0.810  0.000  0.000     1.160     1.687
 551   1 H      0.067  0.933  0.000  0.000     2.123     2.278

 Mol. C6AA /au·bohr⁶  :    2766561.733805
 Mol. C8AA /au·bohr⁸  :   62884323.945886
 Mol. α(0) /au        :       2496.479272

 
molecular dipole:
                 x           y           z       tot (Debye)
 q only:      445.371     357.690    1607.162
   full:      442.293     359.003    1606.966    4333.634
molecular quadrupole (traceless):
                xx          xy          yy          xz          yz          zz
 q only:  -288013.213   60028.555 -317225.457  268347.694  215988.533  605238.671
  q+dip:  -288612.742   59730.437 -316585.946  266459.744  216763.517  605198.688
   full:  -288612.429   59730.448 -316587.424  266458.887  216759.848  605199.853
speedup  1.99
cpu  time for grad   25.80 s
wall time for grad   12.94 s

SCC energy    :    -848.3617146
rep           :      10.2380525
ES            :       3.2488807
AES           :      -0.1555570
AXC           :       0.2884570
disp          :      -0.6838644
XB            :       0.0000000
fix           :       0.0000000
Gborn         :       0.0000000
Gsasa         :       0.0000000
Ghb           :       0.0000000
Gshift        :       0.0000000
Gsolv         :      -1.3027106     -817.46
Etot ala COSMO:    -848.3617146
grad norm     :       0.8622902
total E       :    -838.0671107
atomizationE  :     149.3469765    93716.64
(atE without considering molecular charge,
 total energy contains solvation terms)
H-L gap (eV)  :          1.2893

------------------------------------------------------------------------
 * finished run on 2019/05/06 at 00:42:21.958     
------------------------------------------------------------------------
 total:
 * wall-time:     0 d,  0 h,  0 min, 14.082 sec
 *  cpu-time:     0 d,  0 h,  0 min, 27.472 sec
 * ratio c/w:     1.951 speedup
 SCF:
 * wall-time:     0 d,  0 h,  0 min, 13.576 sec
 *  cpu-time:     0 d,  0 h,  0 min, 26.986 sec
 * ratio c/w:     1.988 speedup

