      -----------------------------------------------------------      
     |                   =====================                   |     
     |                           x T B                           |     
     |                   =====================                   |     
     |                         S. Grimme                         |     
     |          Mulliken Center for Theoretical Chemistry        |     
     |                    University of Bonn                     |     
     |                 Version 6.0.1 (SAW181210)                 |     
      -----------------------------------------------------------      

   This program is distributed in the hope that it will be useful,
   but WITHOUT ANY WARRANTY; without even the implied warranty of
   MERCHANTABILITY or FITNESS FOR A PARTICULAR PURPOSE.
   
   FOR NON-COMMERCIAL, ACADEMIA USE ONLY.
   
   Cite this work as:
   S. Grimme, C. Bannwarth, P. Shushkov, J. Comput. Theory Chem., 2017,
   13, 1989-2009.
   C. Bannwarth, S. Ehlert and S. Grimme., ChemRxiv, 2018, preprint.
   http://doi.org/10.26434/chemrxiv.7246238.v1
   
   for sTDA-xTB:
   S. Grimme and C. Bannwarth, J. Chem. Phys., 2016, 145, 054103.
   
   in the mass-spec context:
   V. Asgeirsson, C. Bauer and S. Grimme, Chem. Sci., 2017, 8, 4879.
   
   if GBSA is used:
   P. Shushkov, F. März and S. Grimme, unpublished.
   
   for ANC optimizer:
   S. Grimme, unpublished.
   Rational Function algorithm used in ANCopt:
   F. Eckert, P. Pulay, H.-J. Werner, J. Comput. Chem., 1997, 18, 1473.
   
   with help from (in alphabetical order)
   C. Bannwarth, F. Bohle, G. Brandenburg, E. Caldeweyher, M. Checinski,
   S. Dohm, S. Ehlert, S. Ehrlich, F. März, H. Neugebauer, J. Pisarek,
   P. Pracht, P. Shushkov, and S. Spicher.
   
 * started run on 2019/05/08 at 09:27:02.631     
========================================================================
 # omp threads = 2
========================================================================
number of atoms            : 327
number of electrons        : 926
charge                     : -2
spin                       : .0
first test random number   : .2881

########################################################################
# WARNING! Please study the warnings concerning your input carefully
#  - Process number higher than OMP_NUM_THREADS, I hope you know what you are doing.
########################################################################

           ------------------------------------------------- 
          |                 G F N 2 - x T B                 |
          | Geometry, Frequencies, Noncovalent interactions |
          |            JCTC 2018 parametrisation            |
           ------------------------------------------------- 
 
      method parameters     
 k(s)        :  1.8500
 k(p)        :  2.2300
 k(d)        :  2.2300
 k(f)        :  2.0000
 kEN (H0ij)  : -2.0000
 D4 a1       :  0.5200
 D4 a2       :  5.0000
 D4 s6       :  1.0000
 D4 s8       :  2.7000
 D4 s9       :  5.0000
 alphaj      :  2.0000

 Solvent             : h2o
 Using internal parameter file: .param_gbsa2_h2o
 Gsolv ref. state (COSMO-RS): gsolv [1 M gas/solution]
 temperature (mdtemp)       :    298.150000000000     
 dielectric constant        :    80.2000000000000     
 rho                        :    1.00000000000000     
 mass                       :    18.0000000000000     
 surface tension            :    15.5689454083859     
 probe radius               :   0.975313790000000     
 vdW radii scaling          :    1.00000000000000     
 Gshift (Eh)                :   1.857443126794793E-003
 c1                         :    1.55243817000000     
 soset                      :   0.130326360000000     
 HB correction              :  T

            Z     q(EN)     CN     RAES       Cart. coordinates
     1  N   5.0   -0.22    3.30    1.98    11.79343   144.42240   -15.71566
     2  C   4.0    0.03    4.41    4.40    13.02190   144.84586   -18.08242
     3  C   4.0    0.15    3.44    3.09    15.75794   145.68323   -17.87914
     4  O   6.0   -0.31    1.31    1.80    17.38409   144.63239   -19.14468
     5  C   4.0   -0.03    4.39    4.36    11.35498   146.63363   -19.48443
     6  C   4.0   -0.03    4.30    4.19     9.02829   145.10278   -20.12748
     7  C   4.0    0.24    3.16    3.03     7.89983   146.47570   -22.43541
     8  O   6.0   -0.30    1.18    1.80     6.44291   148.23657   -21.75215
     9  O   6.0   -0.29    1.14    1.80     8.53940   145.85773   -24.65503
    10  H   1.0    0.07    1.03    1.43    10.05339   145.13624   -15.35281
    11  H   1.0    0.04    1.07    1.44    13.16251   143.04517   -19.12979
    12  H   1.0    0.05    1.03    1.43    10.93619   148.29703   -18.35343
    13  H   1.0    0.07    1.04    1.43    12.29826   147.23017   -21.22796
    14  H   1.0    0.04    1.03    1.43     9.55539   143.19305   -20.71457
    15  H   1.0    0.04    1.02    1.43     7.65791   145.00722   -18.60695
    16  N   5.0   -0.15    3.44    2.04    16.25873   147.67427   -16.41044
    17  C   4.0    0.03    4.38    4.35    18.88010   148.35173   -15.89005
    18  C   4.0    0.15    3.48    3.10    20.40238   146.00556   -14.96098
    19  O   6.0   -0.31    1.36    1.80    22.41460   145.37321   -15.93733
    20  C   4.0   -0.05    4.20    3.99    19.18279   150.58058   -14.04919
    21  C   4.0   -0.05    4.13    3.85    17.91156   153.03506   -14.91902
    22  C   4.0   -0.01    4.10    3.81    19.06099   154.63956   -17.05774
    23  N   5.0   -0.14    3.31    1.99    21.63225   155.64631   -16.66400
    24  C   4.0    0.09    3.29    3.05    22.50801   157.94705   -15.94736
    25  N   5.0   -0.19    3.22    1.96    21.16022   159.50816   -14.48994
    26  N   5.0   -0.19    3.21    1.96    24.86609   158.71114   -16.60761
    27  H   1.0    0.07    1.06    1.44    14.89510   148.27744   -15.19902
    28  H   1.0    0.06    1.05    1.44    19.73960   148.85678   -17.71944
    29  H   1.0    0.03    1.03    1.43    18.33153   150.02761   -12.25550
    30  H   1.0    0.05    1.03    1.43    21.21025   150.85960   -13.78852
    31  H   1.0    0.04    1.03    1.43    15.98579   152.57171   -15.49411
    32  H   1.0    0.03    1.03    1.43    17.77334   154.23921   -13.24523
    33  H   1.0    0.06    1.02    1.43    19.13877   153.52653   -18.79292
    34  H   1.0    0.04    1.03    1.43    17.79228   156.24132   -17.34685
    35  H   1.0    0.09    1.07    1.44    22.98237   154.45621   -17.32293
    36  H   1.0    0.07    1.03    1.43    19.32356   159.12004   -14.11018
    37  H   1.0    0.07    1.03    1.43    21.51197   161.38399   -14.44836
    38  H   1.0    0.09    1.02    1.43    26.05516   157.53108   -17.51816
    39  H   1.0    0.08    1.03    1.43    25.48342   160.42991   -16.06089
    40  N   5.0   -0.15    3.48    2.07    19.42193   144.79782   -12.97986
    41  C   4.0    0.02    4.33    4.26    20.46867   142.47823   -11.90406
    42  C   4.0    0.17    3.56    3.14    21.55206   140.93786   -14.13096
    43  O   6.0   -0.30    1.26    1.80    23.64057   139.92580   -14.21250
    44  C   4.0   -0.06    4.15    3.90    18.42304   140.84885   -10.49489
    45  C   4.0   -0.06    4.07    3.74    17.04275   141.96620    -8.11628
    46  C   4.0   -0.02    4.11    3.83    14.75353   140.48888    -6.88155
    47  N   5.0   -0.15    3.39    2.02    15.13412   140.37882    -4.15772
    48  C   4.0    0.08    3.35    3.06    16.42461   138.54929    -2.97302
    49  N   5.0   -0.20    3.22    1.96    15.97922   136.09303    -3.43214
    50  N   5.0   -0.20    3.24    1.96    18.01182   139.18283    -1.13307
    51  H   1.0    0.07    1.07    1.44    17.63874   145.26223   -12.44470
    52  H   1.0    0.04    1.04    1.43    22.00840   142.98248   -10.61905
    53  H   1.0    0.04    1.03    1.43    17.02454   140.33693   -11.91586
    54  H   1.0    0.04    1.02    1.43    19.38888   139.10934    -9.94996
    55  H   1.0    0.04    1.03    1.43    18.47811   142.19474    -6.65176
    56  H   1.0    0.03    1.02    1.43    16.40635   143.86103    -8.60731
    57  H   1.0    0.03    1.02    1.43    12.96500   141.47201    -7.11730
    58  H   1.0    0.03    1.02    1.43    14.58573   138.58742    -7.66222
    59  H   1.0    0.07    1.08    1.44    15.33186   142.12543    -3.38316
    60  H   1.0    0.07    1.03    1.43    14.79160   135.65087    -4.86080
    61  H   1.0    0.07    1.03    1.43    17.32757   134.80136    -3.03278
    62  H   1.0    0.07    1.03    1.43    18.41231   141.03806    -0.84430
    63  H   1.0    0.07    1.03    1.43    19.21148   137.90541    -0.38651
    64  N   5.0   -0.14    3.58    2.14    19.93072   140.71576   -16.02050
    65  C   4.0    0.05    4.61    4.68    20.67345   139.16710   -18.07837
    66  C   4.0    0.16    3.53    3.13    22.67256   140.35159   -19.80707
    67  O   6.0   -0.30    1.39    1.80    24.65313   139.25718   -20.32127
    68  C   4.0   -0.05    4.25    4.10    18.39354   138.24544   -19.56602
    69  C   4.0   -0.03    4.19    3.99    19.49214   136.58835   -21.63631
    70  C   4.0    0.25    3.08    3.02    21.61837   134.56036   -20.73157
    71  O   6.0   -0.29    1.23    1.80    22.21519   134.37948   -18.45420
    72  O   6.0   -0.29    1.15    1.80    22.42642   133.19818   -22.48965
    73  H   1.0    0.09    1.08    1.44    18.21956   141.56084   -16.02850
    74  H   1.0    0.09    1.14    1.45    21.61786   137.51144   -17.26686
    75  H   1.0    0.04    1.02    1.43    17.18176   137.16944   -18.28921
    76  H   1.0    0.05    1.02    1.43    17.34135   139.86248   -20.30712
    77  H   1.0    0.04    1.02    1.43    18.01673   135.55987   -22.64387
    78  H   1.0    0.05    1.03    1.43    20.46352   137.77896   -23.01556
    79  N   5.0   -0.14    3.57    2.13    22.15108   142.60157   -20.81046
    80  C   4.0    0.03    4.49    4.52    23.83270   143.72716   -22.64655
    81  C   4.0    0.16    3.54    3.14    26.47281   143.70422   -21.55279
    82  O   6.0   -0.31    1.26    1.80    28.36176   143.08506   -22.75318
    83  C   4.0   -0.04    4.32    4.23    23.05944   146.47512   -23.07395
    84  C   4.0   -0.03    4.18    3.96    20.56922   146.64107   -24.52077
    85  C   4.0    0.25    3.09    3.02    19.24401   149.24354   -24.12628
    86  O   6.0   -0.28    1.16    1.80    16.87645   149.17688   -24.03365
    87  O   6.0   -0.30    1.17    1.80    20.65982   151.12602   -23.91790
    88  H   1.0    0.11    1.10    1.44    20.48741   143.46901   -20.43272
    89  H   1.0    0.05    1.05    1.44    23.80492   142.65066   -24.42078
    90  H   1.0    0.06    1.03    1.43    22.86677   147.41159   -21.24550
    91  H   1.0    0.05    1.03    1.43    24.53699   147.45424   -24.12116
    92  H   1.0    0.04    1.02    1.43    20.89057   146.39673   -26.54419
    93  H   1.0    0.06    1.03    1.43    19.22368   145.19878   -23.91443
    94  N   5.0   -0.13    3.60    2.16    26.47340   144.60519   -19.20806
    95  C   4.0    0.04    4.42    4.41    28.72289   145.11012   -17.77866
    96  C   4.0    0.15    3.46    3.10    30.30020   142.73764   -17.39019
    97  O   6.0   -0.30    1.25    1.80    32.55061   142.67458   -17.90283
    98  C   4.0   -0.03    4.32    4.23    27.98319   146.28219   -15.27381
    99  C   4.0   -0.03    4.15    3.90    29.84316   148.26538   -14.31244
   100  C   4.0    0.24    3.09    3.02    28.79494   151.01076   -14.74681
   101  O   6.0   -0.30    1.15    1.80    29.47774   152.66490   -13.20046
   102  O   6.0   -0.30    1.18    1.80    27.33404   151.29010   -16.58836
   103  H   1.0    0.12    1.14    1.45    24.79564   144.90609   -18.33908
   104  H   1.0    0.06    1.06    1.44    29.90698   146.41630   -18.87746
   105  H   1.0    0.07    1.06    1.44    26.17279   147.23082   -15.56026
   106  H   1.0    0.05    1.03    1.43    27.69709   144.79276   -13.87541
   107  H   1.0    0.04    1.02    1.43    30.20602   148.03951   -12.29473
   108  H   1.0    0.05    1.02    1.43    31.64780   148.12223   -15.29653
   109  N   5.0   -0.14    3.48    2.06    29.14871   140.72591   -16.35042
   110  C   4.0    0.04    4.39    4.37    30.54666   138.37376   -16.16084
   111  C   4.0    0.16    3.41    3.08    30.79999   136.93826   -18.67886
   112  O   6.0   -0.30    1.22    1.80    32.20278   135.09904   -18.80704
   113  C   4.0    0.04    4.13    3.85    29.44651   136.61324   -14.11412
   114  O   6.0   -0.23    2.04    1.83    27.34531   135.15650   -14.85935
   115  H   1.0    0.11    1.07    1.44    27.24442   140.65987   -16.13877
   116  H   1.0    0.05    1.07    1.44    32.47087   138.90046   -15.59874
   117  H   1.0    0.05    1.02    1.43    30.88845   135.23337   -13.59911
   118  H   1.0    0.04    1.01    1.43    28.96358   137.79190   -12.47331
   119  H   1.0    0.15    1.02    1.43    25.95176   136.23271   -15.34830
   120  N   5.0   -0.12    3.56    2.12    29.54294   137.94708   -20.63133
   121  C   4.0    0.05    4.35    4.29    29.53805   136.81235   -23.13166
   122  C   4.0    0.16    3.47    3.10    32.22961   136.96901   -24.13578
   123  O   6.0   -0.30    1.22    1.80    33.29844   135.22874   -25.25072
   124  C   4.0   -0.06    4.12    3.84    27.72421   138.15184   -24.94904
   125  H   1.0    0.13    1.14    1.45    28.00663   139.02977   -20.28103
   126  H   1.0    0.07    1.05    1.44    29.02403   134.80275   -22.99505
   127  H   1.0    0.05    1.00    1.43    27.98196   137.37067   -26.83193
   128  H   1.0    0.07    1.01    1.43    25.79618   137.80398   -24.34016
   129  H   1.0    0.07    1.03    1.43    28.10552   140.15855   -24.96835
   130  N   5.0   -0.14    3.50    2.07    33.34574   139.19110   -23.57851
   131  C   4.0    0.04    4.33    4.25    35.95792   139.56832   -24.28157
   132  C   4.0    0.15    3.35    3.06    37.95077   139.45203   -22.13823
   133  O   6.0   -0.32    1.29    1.80    40.18703   139.53054   -22.74403
   134  C   4.0   -0.07    4.08    3.76    36.26065   141.78423   -26.09797
   135  H   1.0    0.10    1.07    1.44    32.29957   140.60552   -22.83355
   136  H   1.0    0.06    1.11    1.45    36.40693   137.82408   -25.31616
   137  H   1.0    0.05    1.00    1.43    38.25448   142.10095   -26.47068
   138  H   1.0    0.04    1.00    1.43    35.28021   141.37821   -27.85409
   139  H   1.0    0.05    1.00    1.43    35.45304   143.47665   -25.25162
   140  N   5.0   -0.13    3.41    2.03    37.23355   138.94860   -19.75174
   141  C   4.0    0.04    4.32    4.23    38.98705   137.98825   -17.81965
   142  C   4.0    0.16    3.38    3.07    40.64143   135.78158   -18.79239
   143  O   6.0   -0.32    1.23    1.80    42.89427   135.78015   -18.28890
   144  C   4.0   -0.07    4.10    3.81    37.56260   137.04074   -15.48548
   145  H   1.0    0.10    1.07    1.44    35.38284   139.04298   -19.30472
   146  H   1.0    0.05    1.05    1.44    40.30204   139.50004   -17.29845
   147  H   1.0    0.04    1.00    1.43    38.88316   136.12710   -14.20680
   148  H   1.0    0.04    1.00    1.43    36.69982   138.63344   -14.51572
   149  H   1.0    0.06    1.00    1.43    36.09695   135.70067   -16.02009
   150  N   5.0   -0.14    3.49    2.07    39.31388   133.98778   -20.02719
   151  C   4.0    0.04    4.31    4.21    40.07598   131.55399   -21.10720
   152  C   4.0    0.16    3.53    3.13    41.33245   132.24079   -23.56150
   153  O   6.0   -0.30    1.41    1.80    43.63355   132.20855   -23.68373
   154  C   4.0   -0.07    4.11    3.82    37.87408   129.75655   -21.49600
   155  H   1.0    0.09    1.09    1.44    37.44062   134.35024   -20.19453
   156  H   1.0    0.08    1.07    1.44    41.52276   130.71155   -19.87435
   157  H   1.0    0.05    1.00    1.43    38.49234   128.18329   -22.65937
   158  H   1.0    0.05    1.00    1.43    37.21714   129.03218   -19.69011
   159  H   1.0    0.06    1.00    1.43    36.29460   130.69545   -22.42798
   160  N   5.0   -0.14    3.50    2.08    39.82678   133.12559   -25.37563
   161  C   4.0    0.04    4.35    4.30    40.81350   134.01941   -27.78468
   162  C   4.0    0.17    3.46    3.10    43.51826   135.12264   -27.45203
   163  O   6.0   -0.29    1.23    1.80    45.20220   134.73935   -28.99048
   164  C   4.0   -0.04    4.21    4.02    38.85938   135.88947   -28.85803
   165  C   4.0   -0.03    4.12    3.84    39.21352   136.68524   -31.62240
   166  C   4.0    0.25    3.05    3.02    38.17661   134.92985   -33.79975
   167  O   6.0   -0.29    1.16    1.80    36.09190   135.53610   -34.73636
   168  O   6.0   -0.27    1.15    1.80    39.57451   133.18490   -34.55469
   169  H   1.0    0.09    1.07    1.44    37.92657   133.05203   -25.20914
   170  H   1.0    0.08    1.05    1.44    41.06152   132.42785   -29.10013
   171  H   1.0    0.06    1.03    1.43    36.97585   135.06724   -28.62816
   172  H   1.0    0.04    1.04    1.43    39.00376   137.60704   -27.72521
   173  H   1.0    0.05    1.03    1.43    38.28152   138.50702   -31.89918
   174  H   1.0    0.06    1.03    1.43    41.23708   136.89030   -31.98375
   175  N   5.0   -0.13    3.52    2.09    43.91867   136.58323   -25.41423
   176  C   4.0    0.04    4.54    4.60    46.39136   137.52104   -24.79264
   177  C   4.0    0.15    3.68    3.22    48.15804   135.86598   -23.30797
   178  O   6.0   -0.32    1.46    1.80    50.20477   135.42703   -24.33925
   179  C   4.0   -0.02    4.33    4.25    46.29070   140.02257   -23.33831
   180  C   4.0   -0.07    4.19    3.97    48.61391   140.53866   -21.67527
   181  C   4.0   -0.08    4.14    3.88    45.96031   142.06574   -25.33099
   182  H   1.0    0.11    1.09    1.44    42.48337   137.03894   -24.24248
   183  H   1.0    0.06    1.08    1.44    47.36343   137.79769   -26.60805
   184  H   1.0    0.06    1.06    1.44    44.61028   139.97980   -22.13532
   185  H   1.0    0.03    1.00    1.43    48.68033   142.55768   -21.28693
   186  H   1.0    0.05    1.01    1.43    48.50330   139.55189   -19.88635
   187  H   1.0    0.05    1.01    1.43    50.34272   140.00408   -22.64383
   188  H   1.0    0.04    1.00    1.43    45.56582   143.88287   -24.45214
   189  H   1.0    0.04    1.00    1.43    47.65812   142.23277   -26.47452
   190  H   1.0    0.05    1.00    1.43    44.37412   141.59486   -26.55050
   191  N   5.0   -0.15    3.54    2.11    47.84729   135.38050   -20.84838
   192  C   4.0    0.04    4.45    4.47    49.98969   134.10028   -19.68172
   193  C   4.0    0.18    3.52    3.12    50.70667   131.79279   -21.35755
   194  O   6.0   -0.30    1.30    1.80    52.91359   131.08716   -21.50007
   195  C   4.0   -0.05    4.18    3.95    49.69257   133.48568   -16.87706
   196  C   4.0   -0.03    4.13    3.86    47.25873   132.05441   -16.22108
   197  C   4.0    0.25    3.07    3.02    46.73302   129.42088   -17.56506
   198  O   6.0   -0.29    1.17    1.80    48.56156   128.00886   -18.03621
   199  O   6.0   -0.30    1.17    1.80    44.45423   128.88755   -17.97560
   200  H   1.0    0.11    1.08    1.44    46.12880   135.40314   -20.00816
   201  H   1.0    0.06    1.06    1.44    51.62877   135.36776   -19.87772
   202  H   1.0    0.05    1.03    1.43    51.32009   132.34215   -16.33400
   203  H   1.0    0.04    1.03    1.43    49.71446   135.24577   -15.80104
   204  H   1.0    0.04    1.02    1.43    47.26318   131.62139   -14.19983
   205  H   1.0    0.07    1.04    1.43    45.59888   133.21705   -16.58519
   206  N   5.0   -0.12    3.60    2.16    48.84812   130.80629   -22.76016
   207  C   4.0    0.04    4.41    4.40    49.11572   128.81640   -24.62499
   208  C   4.0    0.16    3.54    3.13    51.39152   129.25648   -26.30779
   209  O   6.0   -0.31    1.26    1.80    52.88810   127.57037   -26.83048
   210  C   4.0   -0.03    4.30    4.20    46.76524   128.83851   -26.33627
   211  C   4.0   -0.03    4.18    3.96    46.92710   127.09482   -28.61716
   212  C   4.0    0.25    3.05    3.02    45.44186   127.91722   -31.09797
   213  O   6.0   -0.27    1.15    1.80    43.57337   129.33145   -30.93243
   214  O   6.0   -0.29    1.17    1.80    46.32930   126.87274   -33.02974
   215  H   1.0    0.11    1.12    1.45    47.04484   131.35667   -22.46472
   216  H   1.0    0.06    1.06    1.44    49.32877   127.00638   -23.64247
   217  H   1.0    0.06    1.03    1.43    45.10284   128.37444   -25.20435
   218  H   1.0    0.08    1.04    1.43    46.47103   130.76318   -27.01985
   219  H   1.0    0.06    1.04    1.44    48.87918   126.85440   -29.20923
   220  H   1.0    0.04    1.03    1.43    46.08080   125.26653   -28.15546
   221  N   5.0   -0.13    3.57    2.13    51.46284   131.54609   -27.31885
   222  C   4.0    0.04    4.43    4.43    53.55296   132.38469   -28.82121
   223  C   4.0    0.16    3.55    3.14    55.95890   132.29342   -27.23142
   224  O   6.0   -0.32    1.40    1.80    57.68420   130.85314   -27.82275
   225  C   4.0   -0.05    4.26    4.12    53.01167   135.00072   -29.88893
   226  C   4.0   -0.05    4.18    3.97    55.25619   136.04870   -31.38456
   227  C   4.0   -0.02    4.16    3.92    54.56539   137.70651   -33.65960
   228  N   5.0   -0.14    3.38    2.01    53.77815   136.15494   -35.79922
   229  C   4.0    0.09    3.32    3.06    54.20051   136.51332   -38.26115
   230  N   5.0   -0.20    3.23    1.96    55.83359   138.23236   -39.11638
   231  N   5.0   -0.19    3.24    1.96    53.08169   134.97280   -39.92689
   232  H   1.0    0.12    1.13    1.45    50.30130   132.90950   -26.65314
   233  H   1.0    0.06    1.06    1.44    53.82684   131.01642   -30.36263
   234  H   1.0    0.05    1.03    1.43    51.31587   134.84698   -31.06014
   235  H   1.0    0.05    1.03    1.43    52.54585   136.25927   -28.32447
   236  H   1.0    0.03    1.03    1.43    56.44473   137.17022   -30.13270
   237  H   1.0    0.05    1.03    1.43    56.41028   134.48205   -32.07640
   238  H   1.0    0.04    1.02    1.43    53.01364   138.97739   -33.16418
   239  H   1.0    0.03    1.03    1.43    56.21026   138.83066   -34.18660
   240  H   1.0    0.08    1.07    1.44    52.44425   134.85996   -35.34750
   241  H   1.0    0.07    1.03    1.43    56.65359   139.52720   -37.98302
   242  H   1.0    0.07    1.03    1.43    55.91461   138.57486   -40.98642
   243  H   1.0    0.08    1.03    1.43    51.71306   133.77713   -39.35667
   244  H   1.0    0.07    1.02    1.43    53.19639   135.23993   -41.81669
   245  N   5.0   -0.14    3.49    2.07    56.26976   133.87565   -25.29241
   246  C   4.0    0.05    4.56    4.62    58.82373   133.93521   -24.31015
   247  C   4.0    0.17    3.50    3.11    59.63768   131.43573   -23.09549
   248  O   6.0   -0.29    1.28    1.80    61.89041   130.93068   -22.89176
   249  C   4.0    0.05    4.21    4.02    59.39957   136.29459   -22.75416
   250  O   6.0   -0.25    2.13    1.84    57.62225   136.34025   -20.77896
   251  C   4.0   -0.08    4.06    3.72    59.31119   138.68644   -24.39442
   252  H   1.0    0.10    1.05    1.44    54.85410   134.84887   -24.47048
   253  H   1.0    0.05    1.08    1.44    60.07220   134.03850   -25.97896
   254  H   1.0    0.04    1.04    1.43    61.31892   136.05357   -21.97996
   255  H   1.0    0.11    1.02    1.43    57.97276   137.76239   -19.69221
   256  H   1.0    0.03    1.00    1.43    59.76008   140.33028   -23.24835
   257  H   1.0    0.03    1.00    1.43    60.68514   138.56353   -25.91293
   258  H   1.0    0.04    1.00    1.43    57.43195   138.91954   -25.18673
   259  N   5.0   -0.13    3.55    2.11    57.84773   129.76722   -22.56626
   260  C   4.0    0.04    4.48    4.51    58.57067   127.18240   -22.09304
   261  C   4.0    0.16    3.72    3.26    60.30942   126.28734   -24.18761
   262  O   6.0   -0.29    1.29    1.80    62.30880   125.17285   -23.83313
   263  C   4.0   -0.04    4.36    4.31    56.32119   125.38275   -22.24457
   264  C   4.0   -0.05    4.26    4.13    57.24311   122.64382   -22.55990
   265  C   4.0   -0.02    4.20    4.00    55.06903   120.90055   -23.26295
   266  N   5.0   -0.14    3.41    2.03    53.88725   121.69130   -25.61552
   267  C   4.0    0.10    3.34    3.06    51.47890   122.31773   -25.97523
   268  N   5.0   -0.19    3.27    1.97    49.93221   122.72147   -24.03089
   269  N   5.0   -0.19    3.25    1.97    50.50030   122.26399   -28.30235
   270  H   1.0    0.12    1.12    1.45    56.00965   130.27139   -22.41877
   271  H   1.0    0.05    1.05    1.44    59.56215   127.01940   -20.27810
   272  H   1.0    0.05    1.02    1.43    55.17587   125.56644   -20.53983
   273  H   1.0    0.07    1.05    1.44    55.14756   125.92939   -23.84765
   274  H   1.0    0.05    1.07    1.44    58.67917   122.49526   -24.01665
   275  H   1.0    0.04    1.03    1.43    58.08071   122.01094   -20.78799
   276  H   1.0    0.03    1.02    1.43    55.76354   118.97229   -23.52171
   277  H   1.0    0.04    1.03    1.43    53.67892   120.87040   -21.74644
   278  H   1.0    0.07    1.07    1.44    55.00847   121.55736   -27.15418
   279  H   1.0    0.09    1.03    1.43    50.55201   122.82994   -22.23395
   280  H   1.0    0.08    1.03    1.43    48.06755   122.96557   -24.31653
   281  H   1.0    0.08    1.03    1.43    51.58578   122.28954   -29.86200
   282  H   1.0    0.08    1.04    1.43    48.68487   122.76015   -28.58261
   283  N   5.0   -0.14    3.59    2.15    59.24381   126.40883   -26.45897
   284  C   4.0    0.04    4.38    4.35    60.67641   125.50625   -28.56995
   285  C   4.0    0.10    3.30    3.05    63.40813   126.46002   -28.39692
   286  O   6.0   -0.29    1.12    1.80    65.12608   124.91467   -28.59000
   287  C   4.0   -0.05    4.24    4.07    59.41832   126.10081   -31.09873
   288  C   4.0   -0.05    4.18    3.95    58.61000   123.71200   -32.51593
   289  C   4.0   -0.05    4.14    3.88    55.88247   122.89207   -32.02538
   290  C   4.0   -0.05    4.10    3.80    55.56482   120.00639   -32.02885
   291  N   5.0   -0.13    3.98    2.81    56.38765   118.76947   -34.41923
   292  H   1.0    0.12    1.12    1.45    57.75411   127.56159   -26.79020
   293  H   1.0    0.05    1.07    1.44    60.87932   123.45145   -28.33467
   294  H   1.0    0.06    1.03    1.43    57.80601   127.34035   -30.78755
   295  H   1.0    0.04    1.03    1.43    60.76033   127.14822   -32.26001
   296  H   1.0    0.03    1.03    1.43    58.80952   124.05029   -34.53892
   297  H   1.0    0.04    1.03    1.43    59.89996   122.18912   -31.98271
   298  H   1.0    0.05    1.03    1.43    55.27670   123.68180   -30.22146
   299  H   1.0    0.04    1.02    1.43    54.65505   123.69917   -33.47337
   300  H   1.0    0.03    1.02    1.43    56.66251   119.15989   -30.49459
   301  H   1.0    0.03    1.02    1.43    53.57402   119.52090   -31.78819
   302  H   1.0    0.04    1.02    1.43    56.16083   116.85229   -34.26662
   303  H   1.0    0.04    0.97    1.43    55.34219   119.33421   -36.10417
   304  H   1.0    0.04    1.02    1.43    58.24930   119.14829   -34.79781
   305  N   5.0   -0.21    3.22    1.96    23.80776   156.45761    -8.94798
   306  C   4.0    0.03    4.25    4.11    22.74799   154.63677    -7.26470
   307  C   4.0    0.07    3.27    3.05    23.56280   155.14809    -4.60248
   308  O   6.0   -0.32    1.14    1.80    21.89697   155.26260    -2.99569
   309  C   4.0   -0.05    4.34    4.27    23.46154   151.94300    -8.03307
   310  C   4.0   -0.02    4.17    3.94    22.42154   149.82608    -6.33640
   311  C   4.0   -0.08    4.12    3.84    22.00014   147.45845    -7.92558
   312  C   4.0   -0.08    4.09    3.78    24.13037   149.15492    -4.08912
   313  H   1.0    0.09    1.03    1.43    24.13276   155.88794   -10.74179
   314  H   1.0    0.04    1.06    1.44    20.67320   154.81372    -7.26373
   315  H   1.0    0.04    1.04    1.43    22.75208   151.64963    -9.94818
   316  H   1.0    0.05    1.03    1.43    25.51954   151.79349    -8.11602
   317  H   1.0    0.04    1.05    1.44    20.60085   150.43015    -5.54765
   318  H   1.0    0.03    1.00    1.43    21.32890   145.94935    -6.70833
   319  H   1.0    0.04    1.00    1.43    20.61603   147.79420    -9.39847
   320  H   1.0    0.04    1.00    1.43    23.77453   146.89170    -8.79459
   321  H   1.0    0.03    1.00    1.43    23.33310   147.55078    -3.07869
   322  H   1.0    0.04    1.00    1.43    26.02675   148.67558    -4.71808
   323  H   1.0    0.04    1.00    1.43    24.24591   150.69901    -2.74303
   324  H   1.0    0.08    1.08    1.44    11.58595   142.75164   -15.47463
   325  H   1.0    0.06    1.04    1.43    63.75179   128.29942   -28.13317
   326  H   1.0    0.09    1.08    1.44    22.76083   157.79210    -9.07308
   327  H   1.0    0.04    1.04    1.43    25.39536   155.37868    -4.20300

  Z AO/shell   Hii/eV     exponent
  1     Wed Apr 25 08:07:45 CEST 2018   EN: 2.200 GM2: 0.406  GM3: 0.0800  RAES: 1.40
     1s    -10.707211    1.230000
  6     Wed Apr 25 08:07:45 CEST 2018   EN: 2.550 GM2: 0.538  GM3: 0.1500  RAES: 3.00
     2s    -13.970922    2.096432
     2p    -10.063292    1.800000
  7     Wed Apr 25 08:07:45 CEST 2018   EN: 3.040 GM2: 0.461  GM3:-0.0640  RAES: 1.90
     2s    -16.686243    2.339881
     2p    -12.523956    2.014332
  8     Wed Apr 25 08:07:45 CEST 2018   EN: 3.440 GM2: 0.452  GM3:-0.0517  RAES: 1.80
     2s    -20.229985    2.439742
     2p    -15.503117    2.137023
 no old-style atom pair restraining (fixing) potential

molecular fragmentation (1/2 indicates fragments):
111111111111111111111111111111111111111111111111111111111111111111111111
111111111111111111111111111111111111111111111111111111111111111111111111
111111111111111111111111111111111111111111111111111111111111111111111111
111111111111111111111111111111111111111111111111111111111111111111111111
111111111111111122222222222222222221122
# atoms in fragment 1/2:   306    21
 fragment masses (1/2) :     2228.36      115.17
CMA distance (Bohr)    :  26.234
constraining FC (au)   :  0.0500
           ------------------------------------------------- 
          |        Self-Consistent Charge Iterations        |
           ------------------------------------------------- 

 Ncao       : 819
 Nao        : 819
 Nshell     : 491
 Nel        : 926
 T(el)      :   500.0
 intcut     :    35.0
 scfconv/Eh :  0.100E-06
   qconv/e  :  0.100E-04
 intneglect :  0.100E-08
 broydamp   :      0.400
 iter      E             dE          RMSdq      gap      omega  full diag
   1   -534.8885856 -0.534889E+03  0.487E+00    3.58       0.0  T
   2   -536.3491475 -0.146056E+01  0.224E+00    2.41       1.0  T
   3   -536.4502468 -0.101099E+00  0.129E+00    2.67       1.0  T
   4   -536.5410548 -0.908079E-01  0.288E-01    1.73       1.0  T
   5   -536.5460379 -0.498312E-02  0.151E-01    1.84       1.0  T
   6   -536.5468699 -0.832042E-03  0.536E-02    1.82       1.0  T
   7   -536.5470803 -0.210392E-03  0.240E-02    1.84       1.0  T
   8   -536.5471016 -0.212448E-04  0.948E-03    1.85       1.0  T
   9   -536.5471079 -0.635681E-05  0.392E-03    1.85       1.4  T
  10   -536.5471085 -0.585485E-06  0.134E-03    1.85       4.1  T
  11   -536.5471086 -0.138625E-06  0.568E-04    1.85       9.7  T
  12   -536.5471087 -0.174846E-07  0.242E-04    1.85      22.9  T
  13   -536.5471087 -0.224713E-08  0.992E-05    1.85      55.8  T
  14   -536.5471087 -0.548653E-09  0.379E-05    1.85     145.8  T
speedup  1.81
cpu  time for SCC    5.61 s
wall time for SCC    3.11 s

   *** convergence criteria satisfied after 14 iterations ***

          eigenvalues
 #    :         451        452        453        454        455        456        457        458
 occ. :        2.000      2.000      2.000      2.000      2.000      2.000      2.000      2.000
 eps  :       -10.370    -10.355    -10.186    -10.120    -10.043    -10.032    -10.021     -9.993
 #    :         459        460        461        462        463        464        465        466
 occ. :        2.000      2.000      2.000      2.000      2.000      0.000      0.000      0.000
 eps  :        -9.878     -9.722     -9.698     -9.649     -9.486     -7.639     -7.223     -7.066
 #    :         467        468        469        470        471        472        473        474
 occ. :        0.000      0.000      0.000      0.000      0.000      0.000      0.000      0.000
 eps  :        -6.901     -6.901     -6.768     -6.757     -6.719     -6.698     -6.622     -6.604


   #   Z            q   n(s)   n(p)   n(d)      C6AA      α(0)
   1   7 N     -0.387  1.285  4.102  0.000    30.023     8.138
   2   6 C      0.046  1.048  2.906  0.000    19.792     6.333
   3   6 C      0.270  1.048  2.682  0.000    22.446     7.758
   4   8 O     -0.523  1.757  4.766  0.000    24.301     6.609
   5   6 C     -0.031  1.042  2.990  0.000    21.101     6.535
   6   6 C     -0.080  1.062  3.019  0.000    22.016     6.677
   7   6 C      0.366  1.029  2.605  0.000    20.793     7.463
   8   8 O     -0.647  1.771  4.876  0.000    27.311     7.007
   9   8 O     -0.671  1.795  4.876  0.000    27.929     7.085
  10   1 H      0.182  0.818  0.000  0.000     1.203     1.718
  11   1 H      0.009  0.991  0.000  0.000     2.910     2.668
  12   1 H      0.054  0.946  0.000  0.000     2.270     2.356
  13   1 H     -0.000  1.000  0.000  0.000     3.062     2.736
  14   1 H      0.007  0.993  0.000  0.000     2.941     2.682
  15   1 H      0.044  0.956  0.000  0.000     2.398     2.422
  16   7 N     -0.186  1.265  3.921  0.000    25.034     7.431
  17   6 C      0.026  1.063  2.912  0.000    20.153     6.393
  18   6 C      0.273  1.049  2.678  0.000    22.380     7.746
  19   8 O     -0.503  1.761  4.742  0.000    23.847     6.547
  20   6 C     -0.077  1.056  3.021  0.000    21.967     6.673
  21   6 C     -0.087  1.055  3.032  0.000    22.171     6.705
  22   6 C     -0.012  1.053  2.958  0.000    20.881     6.523
  23   7 N     -0.141  1.207  3.934  0.000    24.059     7.285
  24   6 C      0.233  1.029  2.738  0.000    23.123     7.873
  25   7 N     -0.238  1.246  3.992  0.000    26.220     7.605
  26   7 N     -0.251  1.241  4.010  0.000    26.526     7.649
  27   1 H      0.240  0.760  0.000  0.000     0.924     1.506
  28   1 H      0.047  0.953  0.000  0.000     2.360     2.402
  29   1 H      0.090  0.910  0.000  0.000     1.878     2.143
  30   1 H      0.063  0.937  0.000  0.000     2.159     2.298
  31   1 H      0.075  0.925  0.000  0.000     2.027     2.227
  32   1 H      0.102  0.898  0.000  0.000     1.767     2.079
  33   1 H      0.052  0.948  0.000  0.000     2.292     2.367
  34   1 H      0.097  0.903  0.000  0.000     1.816     2.107
  35   1 H      0.193  0.807  0.000  0.000     1.145     1.676
  36   1 H      0.251  0.749  0.000  0.000     0.880     1.469
  37   1 H      0.271  0.729  0.000  0.000     0.808     1.408
  38   1 H      0.223  0.777  0.000  0.000     0.998     1.565
  39   1 H      0.275  0.725  0.000  0.000     0.793     1.395
  40   7 N     -0.175  1.247  3.928  0.000    24.791     7.395
  41   6 C      0.005  1.076  2.919  0.000    20.515     6.451
  42   6 C      0.287  1.038  2.675  0.000    22.136     7.706
  43   8 O     -0.510  1.753  4.757  0.000    24.010     6.570
  44   6 C     -0.087  1.062  3.024  0.000    22.162     6.704
  45   6 C     -0.093  1.067  3.026  0.000    22.286     6.724
  46   6 C     -0.029  1.063  2.965  0.000    21.184     6.570
  47   7 N     -0.158  1.236  3.922  0.000    24.422     7.340
  48   6 C      0.233  1.025  2.742  0.000    23.109     7.871
  49   7 N     -0.243  1.253  3.990  0.000    26.350     7.624
  50   7 N     -0.245  1.246  4.000  0.000    26.400     7.631
  51   1 H      0.232  0.768  0.000  0.000     0.959     1.534
  52   1 H      0.103  0.897  0.000  0.000     1.761     2.075
  53   1 H      0.054  0.946  0.000  0.000     2.273     2.358
  54   1 H      0.080  0.920  0.000  0.000     1.977     2.199
  55   1 H      0.084  0.916  0.000  0.000     1.943     2.180
  56   1 H      0.077  0.923  0.000  0.000     2.009     2.216
  57   1 H      0.107  0.893  0.000  0.000     1.724     2.053
  58   1 H      0.085  0.915  0.000  0.000     1.928     2.171
  59   1 H      0.239  0.761  0.000  0.000     0.926     1.508
  60   1 H      0.243  0.757  0.000  0.000     0.910     1.495
  61   1 H      0.256  0.744  0.000  0.000     0.861     1.453
  62   1 H      0.255  0.745  0.000  0.000     0.864     1.456
  63   1 H      0.262  0.738  0.000  0.000     0.838     1.434
  64   7 N     -0.176  1.239  3.937  0.000    24.811     7.398
  65   6 C      0.025  1.049  2.925  0.000    20.120     6.381
  66   6 C      0.288  1.046  2.666  0.000    22.122     7.702
  67   8 O     -0.517  1.751  4.766  0.000    24.152     6.589
  68   6 C     -0.059  1.053  3.007  0.000    21.635     6.621
  69   6 C     -0.090  1.068  3.022  0.000    22.219     6.712
  70   6 C      0.370  1.034  2.596  0.000    20.729     7.450
  71   8 O     -0.600  1.762  4.838  0.000    26.127     6.853
  72   8 O     -0.641  1.778  4.863  0.000    27.142     6.985
  73   1 H      0.195  0.805  0.000  0.000     1.131     1.666
  74   1 H      0.113  0.887  0.000  0.000     1.671     2.021
  75   1 H      0.059  0.941  0.000  0.000     2.215     2.327
  76   1 H      0.029  0.971  0.000  0.000     2.599     2.521
  77   1 H      0.025  0.975  0.000  0.000     2.661     2.551
  78   1 H     -0.012  1.012  0.000  0.000     3.281     2.833
  79   7 N     -0.197  1.256  3.941  0.000    25.271     7.466
  80   6 C      0.042  1.054  2.903  0.000    19.853     6.342
  81   6 C      0.284  1.035  2.680  0.000    22.186     7.714
  82   8 O     -0.515  1.743  4.771  0.000    24.118     6.584
  83   6 C     -0.042  1.050  2.992  0.000    21.322     6.573
  84   6 C     -0.085  1.064  3.022  0.000    22.130     6.698
  85   6 C      0.371  1.024  2.605  0.000    20.708     7.447
  86   8 O     -0.649  1.781  4.868  0.000    27.353     7.012
  87   8 O     -0.626  1.763  4.863  0.000    26.769     6.937
  88   1 H      0.227  0.773  0.000  0.000     0.979     1.550
  89   1 H      0.034  0.966  0.000  0.000     2.531     2.488
  90   1 H      0.042  0.958  0.000  0.000     2.428     2.437
  91   1 H      0.043  0.957  0.000  0.000     2.413     2.429
  92   1 H      0.015  0.985  0.000  0.000     2.812     2.623
  93   1 H      0.014  0.986  0.000  0.000     2.824     2.628
  94   7 N     -0.202  1.256  3.947  0.000    25.395     7.484
  95   6 C      0.041  1.053  2.906  0.000    19.885     6.349
  96   6 C      0.276  1.047  2.676  0.000    22.324     7.738
  97   8 O     -0.487  1.738  4.749  0.000    23.497     6.499
  98   6 C     -0.056  1.050  3.006  0.000    21.572     6.611
  99   6 C     -0.098  1.067  3.031  0.000    22.378     6.736
 100   6 C      0.365  1.028  2.608  0.000    20.818     7.467
 101   8 O     -0.618  1.763  4.855  0.000    26.568     6.911
 102   8 O     -0.645  1.776  4.870  0.000    27.257     7.000
 103   1 H      0.234  0.766  0.000  0.000     0.946     1.524
 104   1 H      0.054  0.946  0.000  0.000     2.268     2.355
 105   1 H      0.069  0.931  0.000  0.000     2.095     2.263
 106   1 H      0.038  0.962  0.000  0.000     2.477     2.461
 107   1 H      0.038  0.962  0.000  0.000     2.469     2.457
 108   1 H      0.016  0.984  0.000  0.000     2.795     2.614
 109   7 N     -0.185  1.247  3.937  0.000    25.000     7.426
 110   6 C      0.008  1.068  2.924  0.000    20.443     6.438
 111   6 C      0.279  1.043  2.678  0.000    22.285     7.730
 112   8 O     -0.496  1.742  4.753  0.000    23.691     6.526
 113   6 C      0.069  1.040  2.891  0.000    19.640     6.350
 114   8 O     -0.456  1.712  4.744  0.000    21.966     6.327
 115   1 H      0.200  0.800  0.000  0.000     1.105     1.646
 116   1 H      0.093  0.907  0.000  0.000     1.853     2.129
 117   1 H      0.088  0.912  0.000  0.000     1.894     2.152
 118   1 H      0.070  0.930  0.000  0.000     2.081     2.256
 119   1 H      0.305  0.695  0.000  0.000     0.706     1.320
 120   7 N     -0.205  1.267  3.939  0.000    25.461     7.494
 121   6 C      0.046  1.052  2.901  0.000    19.802     6.336
 122   6 C      0.280  1.046  2.674  0.000    22.265     7.728
 123   8 O     -0.500  1.749  4.752  0.000    23.793     6.540
 124   6 C     -0.118  1.040  3.078  0.000    22.815     6.811
 125   1 H      0.228  0.772  0.000  0.000     0.974     1.546
 126   1 H      0.046  0.954  0.000  0.000     2.377     2.411
 127   1 H      0.049  0.951  0.000  0.000     2.336     2.390
 128   1 H      0.045  0.955  0.000  0.000     2.384     2.415
 129   1 H      0.084  0.916  0.000  0.000     1.942     2.179
 130   7 N     -0.182  1.244  3.938  0.000    24.943     7.417
 131   6 C      0.018  1.059  2.924  0.000    20.280     6.413
 132   6 C      0.263  1.053  2.683  0.000    22.558     7.777
 133   8 O     -0.479  1.733  4.746  0.000    23.315     6.474
 134   6 C     -0.121  1.039  3.082  0.000    22.884     6.822
 135   1 H      0.205  0.795  0.000  0.000     1.081     1.628
 136   1 H      0.088  0.912  0.000  0.000     1.898     2.154
 137   1 H      0.080  0.920  0.000  0.000     1.977     2.199
 138   1 H      0.058  0.942  0.000  0.000     2.227     2.334
 139   1 H      0.068  0.932  0.000  0.000     2.111     2.272
 140   7 N     -0.177  1.244  3.933  0.000    24.834     7.401
 141   6 C      0.021  1.069  2.910  0.000    20.238     6.407
 142   6 C      0.280  1.043  2.676  0.000    22.259     7.725
 143   8 O     -0.463  1.730  4.733  0.000    22.974     6.426
 144   6 C     -0.135  1.045  3.090  0.000    23.147     6.860
 145   1 H      0.191  0.809  0.000  0.000     1.151     1.681
 146   1 H      0.096  0.904  0.000  0.000     1.821     2.110
 147   1 H      0.088  0.912  0.000  0.000     1.902     2.156
 148   1 H      0.078  0.922  0.000  0.000     1.996     2.209
 149   1 H      0.062  0.938  0.000  0.000     2.173     2.305
 150   7 N     -0.188  1.251  3.937  0.000    25.074     7.437
 151   6 C      0.023  1.061  2.916  0.000    20.199     6.401
 152   6 C      0.284  1.034  2.683  0.000    22.198     7.716
 153   8 O     -0.483  1.734  4.749  0.000    23.417     6.488
 154   6 C     -0.128  1.042  3.086  0.000    23.013     6.840
 155   1 H      0.192  0.808  0.000  0.000     1.148     1.678
 156   1 H      0.106  0.894  0.000  0.000     1.729     2.056
 157   1 H      0.068  0.932  0.000  0.000     2.109     2.271
 158   1 H      0.084  0.916  0.000  0.000     1.942     2.179
 159   1 H      0.046  0.954  0.000  0.000     2.373     2.409
 160   7 N     -0.193  1.253  3.940  0.000    25.191     7.454
 161   6 C      0.034  1.063  2.903  0.000    20.012     6.371
 162   6 C      0.296  1.041  2.662  0.000    21.969     7.675
 163   8 O     -0.484  1.736  4.748  0.000    23.442     6.491
 164   6 C     -0.051  1.056  2.995  0.000    21.493     6.600
 165   6 C     -0.095  1.072  3.023  0.000    22.321     6.728
 166   6 C      0.368  1.028  2.604  0.000    20.757     7.456
 167   8 O     -0.650  1.773  4.877  0.000    27.389     7.017
 168   8 O     -0.635  1.776  4.859  0.000    26.992     6.966
 169   1 H      0.195  0.805  0.000  0.000     1.133     1.667
 170   1 H      0.067  0.933  0.000  0.000     2.120     2.277
 171   1 H      0.029  0.971  0.000  0.000     2.603     2.523
 172   1 H      0.043  0.957  0.000  0.000     2.409     2.427
 173   1 H      0.027  0.973  0.000  0.000     2.623     2.533
 174   1 H      0.025  0.975  0.000  0.000     2.656     2.549
 175   7 N     -0.180  1.240  3.939  0.000    24.891     7.410
 176   6 C      0.031  1.054  2.915  0.000    20.044     6.373
 177   6 C      0.281  1.049  2.669  0.000    22.244     7.726
 178   8 O     -0.497  1.725  4.772  0.000    23.707     6.528
 179   6 C     -0.023  1.062  2.961  0.000    20.950     6.509
 180   6 C     -0.128  1.044  3.084  0.000    23.018     6.841
 181   6 C     -0.120  1.044  3.076  0.000    22.837     6.812
 182   1 H      0.189  0.811  0.000  0.000     1.164     1.690
 183   1 H      0.083  0.917  0.000  0.000     1.950     2.184
 184   1 H      0.044  0.956  0.000  0.000     2.390     2.418
 185   1 H      0.073  0.927  0.000  0.000     2.050     2.239
 186   1 H      0.045  0.955  0.000  0.000     2.384     2.415
 187   1 H      0.055  0.945  0.000  0.000     2.254     2.348
 188   1 H      0.059  0.941  0.000  0.000     2.206     2.323
 189   1 H      0.066  0.934  0.000  0.000     2.131     2.283
 190   1 H      0.029  0.971  0.000  0.000     2.604     2.524
 191   7 N     -0.181  1.254  3.926  0.000    24.913     7.413
 192   6 C      0.031  1.066  2.903  0.000    20.047     6.373
 193   6 C      0.296  1.046  2.657  0.000    21.972     7.675
 194   8 O     -0.487  1.717  4.770  0.000    23.508     6.501
 195   6 C     -0.061  1.053  3.008  0.000    21.678     6.629
 196   6 C     -0.106  1.070  3.036  0.000    22.537     6.761
 197   6 C      0.363  1.034  2.603  0.000    20.841     7.470
 198   8 O     -0.625  1.762  4.863  0.000    26.731     6.932
 199   8 O     -0.657  1.781  4.876  0.000    27.563     7.039
 200   1 H      0.206  0.794  0.000  0.000     1.077     1.626
 201   1 H      0.082  0.918  0.000  0.000     1.957     2.188
 202   1 H      0.061  0.939  0.000  0.000     2.187     2.313
 203   1 H      0.059  0.941  0.000  0.000     2.211     2.326
 204   1 H      0.026  0.974  0.000  0.000     2.640     2.541
 205   1 H      0.030  0.970  0.000  0.000     2.591     2.517
 206   7 N     -0.189  1.243  3.945  0.000    25.090     7.439
 207   6 C      0.031  1.059  2.911  0.000    20.066     6.379
 208   6 C      0.276  1.039  2.684  0.000    22.324     7.738
 209   8 O     -0.471  1.707  4.764  0.000    23.158     6.452
 210   6 C     -0.043  1.046  2.997  0.000    21.341     6.576
 211   6 C     -0.108  1.077  3.031  0.000    22.564     6.765
 212   6 C      0.368  1.027  2.605  0.000    20.757     7.455
 213   8 O     -0.651  1.800  4.850  0.000    27.398     7.018
 214   8 O     -0.626  1.753  4.873  0.000    26.763     6.936
 215   1 H      0.190  0.810  0.000  0.000     1.158     1.686
 216   1 H      0.060  0.940  0.000  0.000     2.198     2.318
 217   1 H      0.009  0.991  0.000  0.000     2.901     2.663
 218   1 H      0.030  0.970  0.000  0.000     2.590     2.517
 219   1 H      0.061  0.939  0.000  0.000     2.193     2.316
 220   1 H      0.023  0.977  0.000  0.000     2.687     2.563
 221   7 N     -0.180  1.250  3.930  0.000    24.893     7.410
 222   6 C      0.022  1.060  2.918  0.000    20.209     6.401
 223   6 C      0.266  1.047  2.687  0.000    22.520     7.773
 224   8 O     -0.463  1.728  4.735  0.000    22.979     6.427
 225   6 C     -0.083  1.053  3.029  0.000    22.073     6.688
 226   6 C     -0.087  1.054  3.034  0.000    22.168     6.703
 227   6 C     -0.026  1.056  2.970  0.000    21.126     6.560
 228   7 N     -0.136  1.209  3.928  0.000    23.953     7.269
 229   6 C      0.234  1.021  2.745  0.000    23.102     7.869
 230   7 N     -0.242  1.228  4.014  0.000    26.328     7.621
 231   7 N     -0.256  1.236  4.020  0.000    26.658     7.668
 232   1 H      0.205  0.795  0.000  0.000     1.081     1.629
 233   1 H      0.094  0.906  0.000  0.000     1.840     2.121
 234   1 H      0.056  0.944  0.000  0.000     2.242     2.342
 235   1 H      0.057  0.943  0.000  0.000     2.239     2.340
 236   1 H      0.075  0.925  0.000  0.000     2.028     2.227
 237   1 H      0.088  0.912  0.000  0.000     1.896     2.153
 238   1 H      0.077  0.923  0.000  0.000     2.015     2.220
 239   1 H      0.105  0.895  0.000  0.000     1.738     2.062
 240   1 H      0.213  0.787  0.000  0.000     1.044     1.601
 241   1 H      0.250  0.750  0.000  0.000     0.884     1.473
 242   1 H      0.260  0.740  0.000  0.000     0.846     1.441
 243   1 H      0.233  0.767  0.000  0.000     0.953     1.529
 244   1 H      0.260  0.740  0.000  0.000     0.844     1.439
 245   7 N     -0.158  1.233  3.925  0.000    24.428     7.341
 246   6 C      0.017  1.065  2.918  0.000    20.269     6.406
 247   6 C      0.283  1.038  2.679  0.000    22.199     7.716
 248   8 O     -0.511  1.748  4.763  0.000    24.029     6.572
 249   6 C      0.118  1.044  2.839  0.000    18.753     6.183
 250   8 O     -0.497  1.734  4.763  0.000    22.829     6.450
 251   6 C     -0.144  1.048  3.095  0.000    23.332     6.888
 252   1 H      0.203  0.797  0.000  0.000     1.090     1.635
 253   1 H      0.093  0.907  0.000  0.000     1.852     2.128
 254   1 H      0.033  0.967  0.000  0.000     2.544     2.494
 255   1 H      0.342  0.658  0.000  0.000     0.607     1.224
 256   1 H      0.066  0.934  0.000  0.000     2.125     2.280
 257   1 H      0.070  0.930  0.000  0.000     2.090     2.261
 258   1 H      0.060  0.940  0.000  0.000     2.194     2.316
 259   7 N     -0.189  1.246  3.943  0.000    25.107     7.442
 260   6 C      0.028  1.055  2.918  0.000    20.097     6.380
 261   6 C      0.291  1.038  2.671  0.000    22.066     7.695
 262   8 O     -0.496  1.749  4.747  0.000    23.696     6.527
 263   6 C     -0.091  1.059  3.033  0.000    22.221     6.708
 264   6 C     -0.087  1.054  3.033  0.000    22.160     6.702
 265   6 C     -0.035  1.057  2.978  0.000    21.278     6.582
 266   7 N     -0.126  1.201  3.925  0.000    23.746     7.237
 267   6 C      0.235  1.022  2.743  0.000    23.075     7.865
 268   7 N     -0.237  1.217  4.020  0.000    26.202     7.602
 269   7 N     -0.243  1.228  4.015  0.000    26.338     7.622
 270   1 H      0.225  0.775  0.000  0.000     0.986     1.555
 271   1 H      0.052  0.948  0.000  0.000     2.295     2.369
 272   1 H      0.047  0.953  0.000  0.000     2.360     2.402
 273   1 H      0.078  0.922  0.000  0.000     1.996     2.209
 274   1 H      0.079  0.921  0.000  0.000     1.985     2.203
 275   1 H      0.073  0.927  0.000  0.000     2.048     2.238
 276   1 H      0.120  0.880  0.000  0.000     1.617     1.988
 277   1 H      0.078  0.922  0.000  0.000     2.005     2.214
 278   1 H      0.246  0.754  0.000  0.000     0.897     1.484
 279   1 H      0.230  0.770  0.000  0.000     0.967     1.540
 280   1 H      0.213  0.787  0.000  0.000     1.042     1.599
 281   1 H      0.254  0.746  0.000  0.000     0.867     1.458
 282   1 H      0.214  0.786  0.000  0.000     1.039     1.597
 283   7 N     -0.177  1.249  3.929  0.000    24.841     7.402
 284   6 C      0.020  1.063  2.917  0.000    20.231     6.403
 285   6 C      0.216  1.082  2.701  0.000    23.427     7.927
 286   8 O     -0.371  1.751  4.620  0.000    21.113     6.161
 287   6 C     -0.086  1.055  3.031  0.000    22.132     6.698
 288   6 C     -0.093  1.057  3.036  0.000    22.274     6.719
 289   6 C     -0.109  1.056  3.053  0.000    22.582     6.766
 290   6 C     -0.064  1.064  3.000  0.000    21.830     6.670
 291   7 N     -0.142  1.231  3.911  0.000    24.061     7.285
 292   1 H      0.229  0.771  0.000  0.000     0.971     1.543
 293   1 H      0.099  0.901  0.000  0.000     1.792     2.093
 294   1 H      0.083  0.917  0.000  0.000     1.949     2.183
 295   1 H      0.068  0.932  0.000  0.000     2.113     2.273
 296   1 H      0.084  0.916  0.000  0.000     1.940     2.178
 297   1 H      0.080  0.920  0.000  0.000     1.976     2.199
 298   1 H      0.077  0.923  0.000  0.000     2.012     2.218
 299   1 H      0.086  0.914  0.000  0.000     1.920     2.167
 300   1 H      0.128  0.872  0.000  0.000     1.547     1.945
 301   1 H      0.116  0.884  0.000  0.000     1.645     2.006
 302   1 H      0.304  0.696  0.000  0.000     0.700     1.311
 303   1 H      0.303  0.697  0.000  0.000     0.706     1.316
 304   1 H      0.295  0.705  0.000  0.000     0.728     1.337
 305   7 N     -0.384  1.308  4.077  0.000    29.941     8.127
 306   6 C      0.043  1.049  2.907  0.000    19.863     6.348
 307   6 C      0.207  1.084  2.709  0.000    23.612     7.958
 308   8 O     -0.377  1.751  4.626  0.000    21.219     6.176
 309   6 C     -0.070  1.059  3.010  0.000    21.827     6.650
 310   6 C     -0.019  1.061  2.958  0.000    20.882     6.500
 311   6 C     -0.123  1.044  3.078  0.000    22.899     6.822
 312   6 C     -0.117  1.043  3.074  0.000    22.794     6.808
 313   1 H      0.149  0.851  0.000  0.000     1.411     1.860
 314   1 H      0.044  0.956  0.000  0.000     2.398     2.422
 315   1 H      0.041  0.959  0.000  0.000     2.432     2.439
 316   1 H      0.039  0.961  0.000  0.000     2.462     2.454
 317   1 H      0.053  0.947  0.000  0.000     2.283     2.363
 318   1 H      0.065  0.935  0.000  0.000     2.140     2.288
 319   1 H      0.037  0.963  0.000  0.000     2.486     2.466
 320   1 H      0.020  0.980  0.000  0.000     2.734     2.586
 321   1 H      0.060  0.940  0.000  0.000     2.200     2.319
 322   1 H      0.031  0.969  0.000  0.000     2.575     2.509
 323   1 H      0.036  0.964  0.000  0.000     2.509     2.477
 324   1 H      0.189  0.811  0.000  0.000     1.165     1.691
 325   1 H      0.051  0.949  0.000  0.000     2.303     2.373
 326   1 H      0.195  0.805  0.000  0.000     1.129     1.664
 327   1 H      0.068  0.932  0.000  0.000     2.107     2.270

 Mol. C6AA /au·bohr⁶  :    1006361.987900
 Mol. C8AA /au·bohr⁸  :   22185678.223944
 Mol. α(0) /au        :       1489.310479

 
molecular dipole:
                 x           y           z       tot (Debye)
 q only:      -29.144    -287.150      56.887
   full:      -34.527    -285.433      56.633     744.846
molecular quadrupole (traceless):
                xx          xy          yy          xz          yz          zz
 q only:    21297.577   -6856.680  -40493.632      75.013   12591.589   19196.055
  q+dip:    20637.087   -7784.467  -39824.095     341.768   12431.236   19187.008
   full:    20632.261   -7779.919  -39821.215     341.622   12428.424   19188.954
speedup  1.83
cpu  time for grad    6.63 s
wall time for grad    3.62 s

SCC energy    :    -536.5576819
rep           :       5.8873882
ES            :       2.9116934
AES           :      -0.1966886
AXC           :       0.1340918
disp          :      -0.4376702
XB            :       0.0000000
fix           :       0.0000000
Gborn         :       0.0000000
Gsasa         :       0.0000000
Ghb           :       0.0000000
Gshift        :       0.0000000
Gsolv         :      -1.1824358     -741.99
Etot ala COSMO:    -536.5576819
grad norm     :       0.3406995
total E       :    -530.6359650
atomizationE  :      93.2438626    58511.41
(atE without considering molecular charge,
 total energy contains solvation terms)
H-L gap (eV)  :          1.8478

------------------------------------------------------------------------
 * finished run on 2019/05/08 at 09:27:06.595     
------------------------------------------------------------------------
 total:
 * wall-time:     0 d,  0 h,  0 min,  3.963 sec
 *  cpu-time:     0 d,  0 h,  0 min,  7.278 sec
 * ratio c/w:     1.836 speedup
 SCF:
 * wall-time:     0 d,  0 h,  0 min,  3.872 sec
 *  cpu-time:     0 d,  0 h,  0 min,  7.141 sec
 * ratio c/w:     1.844 speedup

