 
        ______________________________________
       |                                      |
       |           ==================         |
       |                 x T B                |
       |           ==================         |
       |               S. Grimme              |
       |        Universitaet Bonn, MCTC       |
       |         2015-18, Version 5.8.2       |
       |      Thu Jul 12 08:31:35 CEST 2018   |
       |______________________________________|
 
        This code comes without any warranty
        for non-commercial, academia use only.
        Preliminary GFN2 test version.
        Cite GFN-xTB work as:
        S. Grimme, C. Bannwarth, P. Shushkov
        JCTC, 13 (2017) 1989-2009
        for GFN2:
        C. Bannwarth, S. Ehlert, S. Grimme
        to be published.
        sTDA-xTB:
        S. Grimme  &  C. Bannwarth, JCP 145 (2016) 054103
        in the mass-spec context additionally:
        V. Asgeirsson, C.Bauer, S. Grimme, Chem. Sci. 8 (2017) 4879
 
        with help from
        P. Shushkov, G. Brandenburg, S. Dohm, J. Pisarek,
        F. März, M. Checinski, S. Ehrlich, S. Spicher, 
        P. Pracht, E. Caldeweyher, S. Ehlert, and C. Bannwarth.
 
        usage        :
        xtb <coord_file> [options]
        where <coord_file> is a valid file of TM)
        (*coord, Bohr) or xmol (*xyz, Angstroem)
        format.

        options:
        -chrg <int>   : molecular charge
        -uhf  <int>   : # of unpaired electrons(=2*S)
        -nox          : skip second, extended part in sTDA-xTB
        -pop          : do population analysis
                      : (default for -nox)
        -mowr <real>  : cut MO write above (def.3 Eh)
        -molden       : write formatted molden file
        -parx <file>  : read parameters for sTDA-xTB
                        calc (def:~/.param_stda2.xtb)
        -parv <file>  : read parameters for vTB part in
                        sTDA-xTB (def: ~/.param_stda1.xtb)
        -xtemp <real> : el. temp for xTB (def. 0 K)
        -etemp <real> : el. temp for GFN (def. 300 K)
        -fod          : calculate the FOD and write
                        molden.input file with
                        appropriate occupations
                        for plotting. Def. T=12500 K
 
        -gfn1         : use GFN-xTB
        -gfn2         : use GFN2-xTB
        -gfn2d3       : GFN2-xTB with D3 instead of D4
        -grad         : GFNn-xTB gradient
        -acc <real>   : GFNn-xTB accuracy (def. 1.0)
        -opt [level]  : optimize at GFNn-xTB
                      : level=crude,vloose,loose,
                      :       tight,vtight
        -hess         : compute Hessian at GFNn-xTB
        -ohess        : optimize and compute Hessian
        -omd          : optimize and do MD
        -siman        : conformational search
        -screen       : opt. loop over ensemble
        -gmd          : annealed MD for GMD procedure
        -modef        : vib mode following
        -gbsa [string1] [string2]
                        use GBSA implicit solvent
                        for solvent [string1] and
                        solvation state [string2]=
                        reference, bar1M (default=1M)
        additional GFN/opt/MD/siman options read from
        $XTBHOME/.xtbrc or $set in coordinate file
 
       spin and charge state information can be on:
       <.CHRG> (charge) and <.UHF> (=nalpha-nbeta)
       -uhf and -chrg override the file info.
       useful machine settings:
       setenv MKL_NUM_THREADS <NCORE_ON_YOUR_MACHINE>
       setenv OMP_STACKSIZE 500m
       limit stacksize unlimited
 
       total energies in Eh, gaps/HL energies in eV
       please read REVISION and HOWTO files carefully
          88  days left until this code expires
 =============================
  # OMP threads =           2
 =============================
 
 xtbhome directory:/home/kruse/Progs/XTB/
 
 argument            1 :-chrg
 argument            2 :-1
 argument            3 :-grad
 argument            4 :-gfn2
 argument            5 :-gbsa
 argument            6 :h2o
 argument            7 :-acc
 argument            8 :1
 argument            9 :-etemp
 argument           10 :500
 
 name of molecule           :
 comment line               :
 number of atoms            :    85
 number of electrons        :   246
 charge                     : -1
 spin                       : 0.0
 first test random number   :  0.2603
 
 
 -----------------------------------------
  G F N (Geometry, Frequency, Non-covalent)
        parametrization, gfnver=           3
     D4 dispersion model
 /home/kruse/Progs/XTB/.param_gfn2.xtb
 -----------------------------------------
      method parameters     
 k(s)        :  1.8500
 k(p)        :  2.2300
 k(d)        :  2.2300
 k(f)        :  2.0000
 kEN (H0ij)  : -2.0000
 D3 a1       :  0.5200
 D3 a2       :  5.0000
 D3 s8       :  2.7000
 D3atm       :  5.0000
 alphaj      :  2.0000
 
 Solvent             : h2o
 GBSA parameter file : /home/kruse/Progs/XTB/.param_gbsa_h2o
 Gsolv ref. state (COSMO-RS): gsolv [1 M gas/solution]
 temperature (mdtemp)       :    298.150000000000     
 dielectric constant        :    78.5000000000000     
 rho                        :   0.998000000000000     
 mass                       :    18.0000000000000     
 surface tension            :    15.5689470637553     
 probe radius               :   0.976041290000000     
 vdW radii scaling          :    1.00000000000000     
 Gshift (Eh)                :   2.075470419022681E-003
 c1                         :    1.58079374000000     
 soset                      :   7.194512000000000E-002
 HB correction              :  T
 
 doing EN charges ...
 sum q : -0.1000000D+01
 point charge moment (au)
     X       Y       Z   
-142.3510-163.2258-205.9461  total (Debye):  759.655
 
            Z     q(EN)     CN     RAES       Cart. coordinates
     1  N   5.0   -0.42    3.20    1.96   144.06880   168.05342   198.06609
     2  C   4.0   -0.01    4.26    4.12   143.65862   168.87014   200.54633
     3  C   4.0    0.22    3.28    3.05   141.65334   167.44835   201.99098
     4  O   6.0   -0.20    1.16    1.80   141.52614   167.27717   204.20900
     5  C   4.0   -0.11    4.39    4.37   143.35596   171.64364   200.77028
     6  C   4.0   -0.11    4.10    3.79   145.23089   173.41103   200.05400
     7  S   6.0   -0.02    2.42    3.10   144.59706   176.49159   201.26386
     8  C   4.0   -0.18    3.97    3.58   143.66107   178.04328   198.42216
     9  H   1.0    0.15    1.04    1.43   143.84507   169.27382   196.79117
    10  H   1.0    0.04    1.04    1.43   145.45345   168.43325   201.54447
    11  H   1.0    0.04    1.04    1.43   141.64718   172.11798   199.73935
    12  H   1.0    0.04    1.05    1.44   142.80360   172.13201   202.69145
    13  H   1.0    0.04    1.05    1.44   147.06258   172.75670   200.67895
    14  H   1.0    0.04    1.05    1.44   145.46786   173.43369   198.02323
    15  H   1.0    0.05    1.04    1.43   143.15589   179.95624   198.79980
    16  H   1.0    0.05    1.04    1.43   145.11776   178.08302   197.06562
    17  H   1.0    0.05    1.04    1.43   142.08535   177.17568   197.60471
    18  N   5.0   -0.26    3.41    2.03   139.78627   166.46355   200.49438
    19  C   4.0   -0.01    4.21    4.03   137.65097   165.15999   201.28089
    20  C   4.0    0.10    3.18    3.03   138.09858   162.34683   201.69698
    21  O   6.0   -0.22    1.34    1.80   137.44062   161.29401   203.54457
    22  C   4.0   -0.15    4.19    3.98   135.54605   165.68594   199.76673
    23  H   1.0    0.12    1.06    1.44   139.89889   166.58782   198.64326
    24  H   1.0    0.04    1.06    1.44   137.26360   165.87748   203.17216
    25  H   1.0    0.04    1.00    1.43   133.80706   164.73634   200.36132
    26  H   1.0    0.05    1.01    1.43   135.03486   167.61655   199.58371
    27  H   1.0    0.04    1.00    1.43   135.79700   165.01259   197.83919
    28  N   5.0   -0.42    3.23    1.96   143.86090   159.72823   202.20336
    29  C   4.0   -0.01    4.29    4.17   146.13904   159.28638   203.39880
    30  C   4.0    0.20    3.29    3.05   146.25927   160.02368   206.15111
    31  O   6.0   -0.17    1.15    1.80   147.14733   158.62761   207.74920
    32  C   4.0   -0.11    4.33    4.26   148.28164   160.08980   201.84431
    33  C   4.0    0.24    3.17    3.03   148.55882   158.92665   199.37154
    34  O   6.0   -0.21    1.19    1.80   146.91583   158.69639   197.89914
    35  N   5.0   -0.31    3.19    1.95   150.82981   157.95549   198.87157
    36  H   1.0    0.14    1.04    1.43   143.65118   161.39360   201.56106
    37  H   1.0    0.04    1.04    1.43   146.24193   157.18201   203.50955
    38  H   1.0    0.05    1.03    1.43   148.15331   162.10549   201.64556
    39  H   1.0    0.04    1.02    1.43   150.03955   159.93264   202.97295
    40  H   1.0    0.11    1.02    1.43   151.22327   157.02875   197.28354
    41  H   1.0    0.11    1.02    1.43   152.29570   158.08451   200.04303
    42  N   5.0   -0.29    3.36    2.01   145.27868   162.27881   206.77759
    43  C   4.0   -0.02    4.33    4.26   145.25345   163.37020   209.25979
    44  C   4.0    0.22    3.33    3.06   142.70473   163.73377   210.25393
    45  O   6.0   -0.19    1.20    1.80   140.94794   164.07191   208.88952
    46  C   4.0   -0.12    4.25    4.10   146.85084   165.70117   209.50109
    47  C   4.0   -0.12    4.17    3.94   149.63205   165.49683   209.50479
    48  C   4.0    0.23    3.09    3.02   150.84106   165.38019   206.93648
    49  O   6.0   -0.16    1.12    1.80   152.19878   167.17626   206.31212
    50  O   6.0   -0.14    1.14    1.80   150.32617   163.53443   205.51290
    51  H   1.0    0.15    1.06    1.44   144.52567   163.35902   205.57025
    52  H   1.0    0.04    1.04    1.44   146.26260   161.93441   210.39208
    53  H   1.0    0.05    1.03    1.43   146.34768   166.92226   207.97092
    54  H   1.0    0.05    1.03    1.43   146.25250   166.73046   211.13119
    55  H   1.0    0.05    1.03    1.43   150.48647   166.95889   210.57515
    56  H   1.0    0.04    1.02    1.43   150.13577   163.80722   210.53198
    57  N   5.0   -0.28    3.38    2.01   142.41326   163.74500   212.79290
    58  C   4.0   -0.01    4.28    4.16   140.11531   164.16348   214.04321
    59  C   4.0    0.11    3.15    3.03   138.93681   166.75993   213.48357
    60  O   6.0   -0.22    1.10    1.80   140.04857   168.38947   212.54512
    61  C   4.0   -0.11    4.29    4.17   140.29491   163.59034   216.76500
    62  C   4.0    0.23    3.10    3.02   140.88823   160.96952   217.51122
    63  O   6.0   -0.15    1.15    1.80   140.33922   159.34537   215.86858
    64  O   6.0   -0.15    1.12    1.80   141.88618   160.56065   219.58792
    65  H   1.0    0.14    1.06    1.44   143.82810   163.59029   213.90941
    66  H   1.0    0.04    1.04    1.43   138.81911   162.75120   213.26682
    67  H   1.0    0.05    1.03    1.43   141.64138   164.86270   217.59195
    68  H   1.0    0.04    1.02    1.43   138.55094   164.15550   217.72821
    69  N   5.0   -0.36    4.28    3.69   136.92174   159.55268   207.71918
    70  C   4.0    0.02    4.18    3.96   134.78316   159.04278   208.88378
    71  C   4.0    0.08    3.23    3.04   132.98084   157.60229   207.31636
    72  O   6.0   -0.19    1.11    1.80   133.51169   156.91112   205.24664
    73  C   4.0   -0.17    4.21    4.02   133.67733   161.25599   210.03142
    74  H   1.0    0.08    1.02    1.43   138.13803   160.87018   208.55961
    75  H   1.0    0.08    1.01    1.43   138.12983   158.06052   207.28276
    76  H   1.0    0.09    1.24    1.47   136.62685   160.37142   205.92781
    77  H   1.0    0.04    1.05    1.44   135.35704   157.80375   210.47347
    78  H   1.0    0.05    1.01    1.43   132.00306   160.85289   211.09839
    79  H   1.0    0.05    1.01    1.43   134.89593   162.24200   211.30653
    80  H   1.0    0.05    1.01    1.43   133.13731   162.57793   208.62950
    81  H   1.0    0.19    1.05    1.44   145.66863   167.49821   197.90845
    82  H   1.0    0.07    1.03    1.43   138.98022   161.32461   200.37455
    83  H   1.0    0.20    1.06    1.44   143.70000   158.67219   200.87994
    84  H   1.0    0.07    1.03    1.43   137.13280   167.09584   213.93500
    85  H   1.0    0.07    1.03    1.43   131.26532   157.18563   207.99048
 
  Z AO/shell   Hii/eV     exponent
  1     Wed Apr 25 08:07:45 CEST 2018   EN: 2.200 GM2: 0.406  GM3: 0.0800  RAES: 1.40
     1s    -10.707211    1.230000
  6     Wed Apr 25 08:07:45 CEST 2018   EN: 2.550 GM2: 0.538  GM3: 0.1500  RAES: 3.00
     2s    -13.970922    2.096432
     2p    -10.063292    1.800000
  7     Wed Apr 25 08:07:45 CEST 2018   EN: 3.040 GM2: 0.461  GM3:-0.0640  RAES: 1.90
     2s    -16.686243    2.339881
     2p    -12.523956    2.014332
  8     Wed Apr 25 08:07:45 CEST 2018   EN: 3.440 GM2: 0.452  GM3:-0.0517  RAES: 1.80
     2s    -20.229985    2.439742
     2p    -15.503117    2.137023
 16     Tue Apr 24 11:44:34 CEST 2018   EN: 2.580 GM2: 0.340  GM3:-0.0502  RAES: 3.10
     3s    -20.029654    1.981333
     3p    -11.377694    2.025643
     3d     -0.420282    1.702555
 no old-style atom pair restraing (fixing) potential
 
 molecular fragmentation (1/2 indicates fragments):
11111111111111111111111111122222222222222222222222222222222222222222222222222222
11222
# atoms in fragment 1/2:    29    56
 fragment masses (1/2) :      204.29      432.41
CMA distance (Bohr)    :  10.694
constraining FC (au)   :  0.0500
 
             =======================================
             |                                     |
             |        S C C  calculation           |
             |                                     |
             =======================================
 #proc     :            2
 Ncao      :          220
 Nao       :          219
 Nel       :          246
 T(el)     :   500.0
 intcut    :    25.0
 scfconv   :  0.100E-05
   qconv   :  0.100E-03
 intneglect:  0.100E-07
 broydamp  :      0.400
 Nshell    :          129
 iter      E             dE          RMSdq      gap      omega  full diag
   1   -142.6777601 -0.142678E+03  0.552E+00    2.87       0.0  T
   2   -143.2865630 -0.608803E+00  0.257E+00    1.79       1.0  T
   3   -143.3109844 -0.244214E-01  0.126E+00    1.93       1.0  T
   4   -143.3188375 -0.785309E-02  0.335E-01    1.54       1.0  T
   5   -143.3207171 -0.187961E-02  0.179E-01    1.71       1.0  T
   6   -143.3209555 -0.238324E-03  0.549E-02    1.75       1.0  T
   7   -143.3209844 -0.289735E-04  0.234E-02    1.80       1.0  T
   8   -143.3209878 -0.333431E-05  0.919E-03    1.81       1.2  T
   9   -143.3209885 -0.714942E-06  0.388E-03    1.81       2.8  T
  10   -143.3209886 -0.122013E-06  0.166E-03    1.81       6.5  T
  11   -143.3209886 -0.182619E-07  0.748E-04    1.81      14.5  T
  12   -143.3209886 -0.322851E-08  0.344E-04    1.81      31.5  T
speedup  2.01
cpu  time for SCC    0.31 s
wall time for SCC    0.15 s

          eigenvalues
 #    :         111        112        113        114        115        116        117        118
 occ. :        2.000      2.000      2.000      2.000      2.000      2.000      2.000      2.000
 eps  :       -11.087    -11.042    -11.005    -10.984    -10.694    -10.640    -10.271    -10.236
 #    :         119        120        121        122        123        124        125        126
 occ. :        2.000      2.000      2.000      2.000      2.000      0.000      0.000      0.000
 eps  :       -10.185    -10.168     -9.839     -9.836     -9.813     -7.999     -7.641     -7.271
 #    :         127        128        129        130        131        132        133        134
 occ. :        0.000      0.000      0.000      0.000      0.000      0.000      0.000      0.000
 eps  :        -6.193     -6.103     -6.015     -5.430     -5.367     -4.674     -4.568     -3.657
 

   #   Z            q   n(s)   n(p)   n(d)      C6AA      α(0)    relVol
   1   7 N     -0.395  1.278  4.117  0.000    30.663     8.228     1.091
   2   6 C      0.046  1.035  2.919  0.000    19.813     6.337     0.513
   3   6 C      0.270  1.044  2.686  0.000    22.375     7.745     0.627
   4   8 O     -0.482  1.742  4.740  0.000    23.437     6.497     1.250
   5   6 C     -0.049  1.023  3.026  0.000    21.407     6.576     0.532
   6   6 C      0.014  1.032  2.954  0.000    20.393     6.437     0.521
   7  16 S     -0.268  1.921  4.290  0.057   153.465    20.846     1.063
   8   6 C     -0.058  1.030  3.028  0.000    21.877     6.701     0.542
   9   1 H      0.193  0.807  0.000  0.000     1.095     1.638     0.324
  10   1 H      0.006  0.994  0.000  0.000     2.953     2.687     0.532
  11   1 H      0.048  0.952  0.000  0.000     2.338     2.391     0.473
  12   1 H      0.028  0.972  0.000  0.000     2.615     2.528     0.500
  13   1 H      0.025  0.975  0.000  0.000     2.646     2.543     0.503
  14   1 H      0.063  0.937  0.000  0.000     2.155     2.295     0.454
  15   1 H      0.077  0.923  0.000  0.000     1.995     2.208     0.437
  16   1 H      0.071  0.929  0.000  0.000     2.054     2.241     0.443
  17   1 H      0.076  0.924  0.000  0.000     2.007     2.215     0.438
  18   7 N     -0.193  1.230  3.963  0.000    25.507     7.504     0.995
  19   6 C      0.044  1.018  2.938  0.000    19.862     6.348     0.514
  20   6 C      0.211  1.087  2.702  0.000    23.469     7.928     0.642
  21   8 O     -0.321  1.692  4.629  0.000    20.172     6.030     1.160
  22   6 C     -0.131  1.015  3.116  0.000    23.069     6.843     0.554
  23   1 H      0.225  0.775  0.000  0.000     0.936     1.515     0.300
  24   1 H      0.081  0.919  0.000  0.000     1.951     2.184     0.432
  25   1 H      0.075  0.925  0.000  0.000     2.022     2.223     0.440
  26   1 H      0.084  0.916  0.000  0.000     1.918     2.166     0.428
  27   1 H      0.070  0.930  0.000  0.000     2.067     2.248     0.445
  28   7 N     -0.386  1.279  4.107  0.000    30.403     8.193     1.087
  29   6 C      0.058  1.030  2.912  0.000    19.604     6.302     0.510
  30   6 C      0.278  1.048  2.674  0.000    22.227     7.719     0.625
  31   8 O     -0.511  1.746  4.764  0.000    24.055     6.582     1.267
  32   6 C     -0.088  1.036  3.052  0.000    22.153     6.693     0.542
  33   6 C      0.309  1.016  2.675  0.000    21.656     7.610     0.616
  34   8 O     -0.474  1.710  4.764  0.000    23.248     6.471     1.245
  35   7 N     -0.302  1.261  4.041  0.000    28.157     7.884     1.046
  36   1 H      0.157  0.843  0.000  0.000     1.312     1.794     0.355
  37   1 H      0.040  0.960  0.000  0.000     2.444     2.444     0.484
  38   1 H      0.061  0.939  0.000  0.000     2.171     2.303     0.456
  39   1 H      0.045  0.955  0.000  0.000     2.381     2.413     0.477
  40   1 H      0.233  0.767  0.000  0.000     0.900     1.485     0.294
  41   1 H      0.208  0.792  0.000  0.000     1.019     1.581     0.313
  42   7 N     -0.167  1.217  3.951  0.000    24.920     7.417     0.984
  43   6 C      0.030  1.040  2.930  0.000    20.058     6.371     0.516
  44   6 C      0.277  1.032  2.691  0.000    22.246     7.726     0.625
  45   8 O     -0.463  1.707  4.755  0.000    23.008     6.438     1.239
  46   6 C     -0.041  1.028  3.014  0.000    21.310     6.568     0.532
  47   6 C     -0.089  1.046  3.044  0.000    22.241     6.716     0.544
  48   6 C      0.363  1.023  2.614  0.000    20.702     7.431     0.601
  49   8 O     -0.641  1.766  4.875  0.000    27.093     6.985     1.344
  50   8 O     -0.667  1.776  4.892  0.000    27.743     7.069     1.360
  51   1 H      0.196  0.804  0.000  0.000     1.080     1.627     0.322
  52   1 H      0.058  0.942  0.000  0.000     2.210     2.324     0.460
  53   1 H      0.033  0.967  0.000  0.000     2.541     2.492     0.493
  54   1 H      0.047  0.953  0.000  0.000     2.348     2.396     0.474
  55   1 H      0.038  0.962  0.000  0.000     2.465     2.454     0.486
  56   1 H      0.022  0.978  0.000  0.000     2.700     2.569     0.508
  57   7 N     -0.177  1.220  3.957  0.000    25.134     7.449     0.988
  58   6 C      0.038  1.040  2.922  0.000    19.929     6.354     0.514
  59   6 C      0.213  1.073  2.715  0.000    23.432     7.919     0.641
  60   8 O     -0.356  1.727  4.629  0.000    20.933     6.140     1.181
  61   6 C     -0.091  1.053  3.038  0.000    22.231     6.707     0.543
  62   6 C      0.372  1.009  2.618  0.000    20.553     7.404     0.599
  63   8 O     -0.653  1.769  4.884  0.000    27.387     7.023     1.351
  64   8 O     -0.642  1.774  4.868  0.000    27.130     6.990     1.345
  65   1 H      0.189  0.811  0.000  0.000     1.115     1.653     0.327
  66   1 H      0.090  0.910  0.000  0.000     1.859     2.132     0.422
  67   1 H      0.039  0.961  0.000  0.000     2.458     2.451     0.485
  68   1 H      0.067  0.933  0.000  0.000     2.101     2.266     0.448
  69   7 N     -0.161  1.197  3.964  0.000    24.769     7.395     0.981
  70   6 C      0.036  1.001  2.963  0.000    20.022     6.378     0.516
  71   6 C      0.207  1.063  2.731  0.000    23.567     7.949     0.643
  72   8 O     -0.360  1.740  4.621  0.000    21.017     6.152     1.184
  73   6 C     -0.155  1.015  3.140  0.000    23.530     6.909     0.559
  74   1 H      0.265  0.735  0.000  0.000     0.771     1.375     0.272
  75   1 H      0.265  0.735  0.000  0.000     0.770     1.374     0.272
  76   1 H      0.346  0.654  0.000  0.000     0.525     1.132     0.224
  77   1 H      0.118  0.882  0.000  0.000     1.603     1.979     0.392
  78   1 H      0.099  0.901  0.000  0.000     1.776     2.084     0.412
  79   1 H      0.073  0.927  0.000  0.000     2.033     2.229     0.441
  80   1 H      0.086  0.914  0.000  0.000     1.896     2.153     0.426
  81   1 H      0.180  0.820  0.000  0.000     1.168     1.692     0.335
  82   1 H      0.090  0.910  0.000  0.000     1.860     2.132     0.422
  83   1 H      0.209  0.791  0.000  0.000     1.012     1.574     0.311
  84   1 H      0.085  0.915  0.000  0.000     1.907     2.159     0.427
  85   1 H      0.094  0.906  0.000  0.000     1.818     2.108     0.417

 Mol. C6AA /au*bohr^6 :      72502.411841
 Mol. C8AA /au*bohr^6 :    1663623.660679
 Mol. a(0) /au        :        402.420117

 
molecular dipole:
                 x           y           z       tot (Debye)
 q only:     -155.075    -163.350    -216.984
   full:      311.732    -162.862    -216.954     792.362
molecular quadrupole (traceless):
                xx          xy          yy          xz          yz          zz
 q only:    12962.856  -38020.113    8771.375  -50281.638  -53152.429  -21734.232
  q+dip:    13308.370  -37549.923    8700.720  -49815.077  -52994.856  -22009.090
   full:    13308.620  -37550.073    8701.084  -49814.401  -52995.443  -22009.704
 SCC converged in           12  cycles
speedup  1.82
cpu  time for grad    0.08 s
wall time for grad    0.04 s
 
SCC energy    :    -143.2935309
rep           :       1.9055087
ES            :       0.7242750
AES           :      -0.0320896
AXC           :       0.0299876
disp          :      -0.0871121
XB            :       0.0000000
fix           :       0.0000000
Gborn         :      -0.2393801
Gsasa         :       0.0253822
Ghb           :      -0.0213003
Gshift        :       0.0020755
Gsolv         :      -0.2332227     -146.35
Etot ala COSMO:    -141.3907461
grad norm     :       0.5207279
total E       :    -141.3845887
atomizationE  :      23.6261530    14825.64
(atE without considerung molecular charge,
 total energy contains solvation terms)
H-L gap (eV)  :          1.8140
 
speedup  1.78
cpu  time for all    0.54 s
wall time for all    0.30 s
