      -----------------------------------------------------------      
     |                   =====================                   |     
     |                           x T B                           |     
     |                   =====================                   |     
     |                         S. Grimme                         |     
     |          Mulliken Center for Theoretical Chemistry        |     
     |                    University of Bonn                     |     
     |                 Version 6.0.1 (SAW181210)                 |     
      -----------------------------------------------------------      

   This program is distributed in the hope that it will be useful,
   but WITHOUT ANY WARRANTY; without even the implied warranty of
   MERCHANTABILITY or FITNESS FOR A PARTICULAR PURPOSE.
   
   FOR NON-COMMERCIAL, ACADEMIA USE ONLY.
   
   Cite this work as:
   S. Grimme, C. Bannwarth, P. Shushkov, J. Comput. Theory Chem., 2017,
   13, 1989-2009.
   C. Bannwarth, S. Ehlert and S. Grimme., ChemRxiv, 2018, preprint.
   http://doi.org/10.26434/chemrxiv.7246238.v1
   
   for sTDA-xTB:
   S. Grimme and C. Bannwarth, J. Chem. Phys., 2016, 145, 054103.
   
   in the mass-spec context:
   V. Asgeirsson, C. Bauer and S. Grimme, Chem. Sci., 2017, 8, 4879.
   
   if GBSA is used:
   P. Shushkov, F. März and S. Grimme, unpublished.
   
   for ANC optimizer:
   S. Grimme, unpublished.
   Rational Function algorithm used in ANCopt:
   F. Eckert, P. Pulay, H.-J. Werner, J. Comput. Chem., 1997, 18, 1473.
   
   with help from (in alphabetical order)
   C. Bannwarth, F. Bohle, G. Brandenburg, E. Caldeweyher, M. Checinski,
   S. Dohm, S. Ehlert, S. Ehrlich, F. März, H. Neugebauer, J. Pisarek,
   P. Pracht, P. Shushkov, and S. Spicher.
   
 * started run on 2019/05/12 at 13:13:52.421     
========================================================================
 # omp threads = 2
========================================================================
number of atoms            : 432
number of electrons        : 1178
charge                     : 0
spin                       : .0
first test random number   : .0116

########################################################################
# WARNING! Please study the warnings concerning your input carefully
#  - Process number higher than OMP_NUM_THREADS, I hope you know what you are doing.
########################################################################

           ------------------------------------------------- 
          |                 G F N 2 - x T B                 |
          | Geometry, Frequencies, Noncovalent interactions |
          |            JCTC 2018 parametrisation            |
           ------------------------------------------------- 
 
      method parameters     
 k(s)        :  1.8500
 k(p)        :  2.2300
 k(d)        :  2.2300
 k(f)        :  2.0000
 kEN (H0ij)  : -2.0000
 D4 a1       :  0.5200
 D4 a2       :  5.0000
 D4 s6       :  1.0000
 D4 s8       :  2.7000
 D4 s9       :  5.0000
 alphaj      :  2.0000

 Solvent             : h2o
 Using internal parameter file: .param_gbsa2_h2o
 Gsolv ref. state (COSMO-RS): gsolv [1 M gas/solution]
 temperature (mdtemp)       :    298.150000000000     
 dielectric constant        :    80.2000000000000     
 rho                        :    1.00000000000000     
 mass                       :    18.0000000000000     
 surface tension            :    15.5689454083859     
 probe radius               :   0.975313790000000     
 vdW radii scaling          :    1.00000000000000     
 Gshift (Eh)                :   1.857443126794793E-003
 c1                         :    1.55243817000000     
 soset                      :   0.130326360000000     
 HB correction              :  T

            Z     q(EN)     CN     RAES       Cart. coordinates
     1  N   5.0   -0.21    3.24    1.97    39.15349    74.06616   143.46489
     2  C   4.0    0.03    4.31    4.21    37.10680    75.12654   141.99480
     3  C   4.0    0.15    3.40    3.08    36.79872    77.98456   142.39566
     4  O   6.0   -0.30    1.23    1.80    35.82745    79.33280   140.80452
     5  C   4.0   -0.04    4.33    4.26    34.69298    73.65603   142.64276
     6  C   4.0   -0.01    3.56    3.14    32.44002    74.37725   141.07838
     7  C   4.0   -0.03    3.47    3.10    30.59841    75.96054   142.06430
     8  C   4.0   -0.04    3.46    3.10    32.09884    73.36170   138.68305
     9  C   4.0   -0.04    3.37    3.07    28.43602    76.51846   140.70870
    10  C   4.0   -0.04    3.38    3.07    29.92592    73.89789   137.32893
    11  C   4.0   -0.04    3.37    3.07    28.09069    75.47673   138.33300
    12  H   1.0    0.08    1.02    1.43    38.70561    72.76719   144.84137
    13  H   1.0    0.05    1.05    1.44    37.54058    74.86553   139.98570
    14  H   1.0    0.04    1.03    1.43    35.12573    71.65456   142.37881
    15  H   1.0    0.04    1.03    1.43    34.27725    73.91138   144.65205
    16  H   1.0    0.05    1.03    1.43    30.81214    76.67311   143.96320
    17  H   1.0    0.05    1.03    1.43    33.50197    72.08802   137.93295
    18  H   1.0    0.05    1.03    1.43    27.00826    77.71572   141.53387
    19  H   1.0    0.05    1.03    1.43    29.62292    73.03967   135.50592
    20  H   1.0    0.05    1.03    1.43    26.39350    75.88707   137.27753
    21  N   5.0   -0.15    3.44    2.04    37.74789    78.91406   144.56326
    22  C   4.0    0.04    4.30    4.19    37.94907    81.62023   144.98065
    23  C   4.0    0.09    3.22    3.04    39.60078    82.90648   142.94277
    24  O   6.0   -0.29    1.14    1.80    39.14483    85.05774   142.25141
    25  C   4.0   -0.05    4.25    4.10    39.10972    82.17959   147.58202
    26  C   4.0   -0.05    4.16    3.91    37.25622    82.02763   149.80510
    27  C   4.0   -0.05    4.16    3.92    35.55514    84.36363   149.99428
    28  C   4.0   -0.03    4.12    3.83    33.96070    84.29385   152.39995
    29  N   5.0   -0.11    4.03    2.94    32.56652    86.69126   152.79287
    30  H   1.0    0.08    1.07    1.44    38.37191    77.73033   145.92407
    31  H   1.0    0.06    1.05    1.44    36.07260    82.48407   144.82811
    32  H   1.0    0.04    1.03    1.43    40.64619    80.84006   147.90066
    33  H   1.0    0.05    1.03    1.43    39.93439    84.06856   147.53476
    34  H   1.0    0.04    1.02    1.43    36.10798    80.32167   149.68049
    35  H   1.0    0.04    1.03    1.43    38.36266    81.87740   151.53713
    36  H   1.0    0.04    1.03    1.43    36.75480    86.03916   150.03364
    37  H   1.0    0.05    1.03    1.43    34.30455    84.46008   148.36181
    38  H   1.0    0.05    1.02    1.43    32.58389    82.76104   152.31495
    39  H   1.0    0.05    1.02    1.43    35.15113    83.97559   154.05042
    40  H   1.0    0.11    1.13    1.45    31.10044    86.46607   154.22592
    41  H   1.0    0.06    1.02    1.43    33.73159    88.13298   153.34442
    42  H   1.0    0.08    1.02    1.43    31.58001    87.23023   151.21378
    43  N   5.0   -0.20    3.21    1.96    37.81573    82.91160   134.76974
    44  C   4.0    0.03    4.27    4.15    35.73390    84.51951   133.99674
    45  C   4.0    0.16    3.53    3.13    36.03951    87.23391   134.97436
    46  O   6.0   -0.30    1.45    1.80    35.18106    87.82896   137.05355
    47  C   4.0   -0.04    4.33    4.25    33.27543    83.55769   135.23923
    48  C   4.0   -0.05    4.19    3.97    32.45386    80.87636   134.59039
    49  C   4.0   -0.05    4.18    3.96    31.14323    80.67472   132.02932
    50  C   4.0   -0.04    4.12    3.85    30.86781    77.91387   131.26414
    51  N   5.0   -0.12    4.01    2.89    33.18169    77.10233   129.84800
    52  H   1.0    0.10    1.03    1.43    38.57052    83.26454   136.48274
    53  H   1.0    0.04    1.04    1.44    35.65359    84.50398   131.93237
    54  H   1.0    0.06    1.04    1.43    33.62741    83.62091   137.26657
    55  H   1.0    0.05    1.03    1.43    31.78375    84.89440   134.75768
    56  H   1.0    0.04    1.03    1.43    34.08908    79.63962   134.70000
    57  H   1.0    0.04    1.03    1.43    31.15130    80.23333   136.05419
    58  H   1.0    0.04    1.03    1.43    29.28280    81.54854   132.12981
    59  H   1.0    0.04    1.03    1.43    32.21451    81.69702   130.59917
    60  H   1.0    0.04    1.03    1.43    30.64823    76.76251   132.95770
    61  H   1.0    0.05    1.02    1.43    29.20144    77.64544   130.08611
    62  H   1.0    0.05    1.02    1.43    33.00048    77.60144   127.97716
    63  H   1.0    0.05    1.02    1.43    34.76477    78.06897   130.53728
    64  H   1.0    0.05    1.02    1.43    33.41514    75.17728   129.95799
    65  N   5.0   -0.13    3.47    2.06    37.00424    89.02997   133.48849
    66  C   4.0    0.04    4.45    4.46    36.76127    91.59875   134.43439
    67  C   4.0    0.17    3.62    3.18    34.00224    91.83766   135.31125
    68  O   6.0   -0.31    1.44    1.80    32.31297    90.95113   133.99693
    69  C   4.0    0.03    4.14    3.89    37.30233    93.54284   132.36287
    70  O   6.0   -0.25    2.06    1.83    39.84454    93.29244   131.63560
    71  H   1.0    0.08    1.05    1.44    37.85586    88.73056   131.81215
    72  H   1.0    0.05    1.05    1.44    38.06856    91.90305   136.01092
    73  H   1.0    0.04    1.01    1.43    36.03738    93.21721   130.74942
    74  H   1.0    0.04    1.01    1.43    36.92072    95.42794   133.13948
    75  H   1.0    0.12    1.02    1.43    40.29508    94.65256   130.51187
    76  N   5.0   -0.15    3.43    2.03    33.51856    93.18554   137.39406
    77  C   4.0    0.03    4.41    4.39    30.96948    93.34718   138.43836
    78  C   4.0    0.17    3.57    3.15    28.99095    93.22032   136.33450
    79  O   6.0   -0.32    1.34    1.80    27.36940    91.56476   136.32418
    80  C   4.0   -0.05    4.34    4.28    30.69785    95.77894   140.00220
    81  C   4.0   -0.02    4.19    3.98    27.96041    96.56000   140.57949
    82  C   4.0   -0.07    4.11    3.82    26.46913    94.47504   141.89792
    83  C   4.0   -0.07    4.11    3.82    27.99601    98.92484   142.23762
    84  H   1.0    0.08    1.06    1.44    34.93707    93.78462   138.52120
    85  H   1.0    0.05    1.05    1.44    30.61470    91.69802   139.64691
    86  H   1.0    0.04    1.03    1.43    31.68111    95.52295   141.79604
    87  H   1.0    0.04    1.03    1.43    31.59547    97.34835   139.00907
    88  H   1.0    0.05    1.05    1.44    26.99432    97.04888   138.81505
    89  H   1.0    0.06    1.00    1.43    24.55711    95.12522   142.29719
    90  H   1.0    0.05    1.00    1.43    26.34308    92.77650   140.74972
    91  H   1.0    0.04    1.00    1.43    27.34734    94.00298   143.69650
    92  H   1.0    0.06    1.00    1.43    26.08954    99.59972   142.61029
    93  H   1.0    0.05    1.00    1.43    28.87200    98.53839   144.05704
    94  H   1.0    0.05    1.00    1.43    29.01714   100.46803   141.34168
    95  N   5.0   -0.14    3.50    2.07    29.10153    95.04172   134.59034
    96  C   4.0    0.03    4.32    4.24    27.23423    95.35145   132.60183
    97  C   4.0    0.16    3.47    3.10    26.43671    92.80197   131.45074
    98  O   6.0   -0.30    1.25    1.80    24.19679    92.26205   131.15198
    99  C   4.0   -0.07    4.12    3.84    28.34230    97.03734   130.53928
   100  H   1.0    0.07    1.07    1.44    30.35063    96.46883   134.80157
   101  H   1.0    0.05    1.05    1.44    25.51857    96.22628   133.38071
   102  H   1.0    0.05    1.00    1.43    26.98114    97.25611   129.01707
   103  H   1.0    0.04    1.00    1.43    28.75509    98.90110   131.30052
   104  H   1.0    0.04    1.00    1.43    30.06055    96.20437   129.78374
   105  N   5.0   -0.14    3.51    2.09    28.34511    91.36193   130.63971
   106  C   4.0    0.03    4.47    4.50    27.93854    89.03635   129.23344
   107  C   4.0    0.16    3.47    3.10    26.01142    87.35642   130.60302
   108  O   6.0   -0.30    1.22    1.80    24.23570    86.33710   129.53690
   109  C   4.0   -0.02    4.32    4.23    30.43223    87.56604   128.81628
   110  C   4.0   -0.05    4.17    3.95    32.66422    89.19829   127.91304
   111  C   4.0   -0.08    4.13    3.85    29.94644    85.39436   126.97557
   112  C   4.0   -0.08    4.01    3.63    32.29628    90.52986   125.38623
   113  H   1.0    0.11    1.12    1.45    30.07848    91.60749   131.42359
   114  H   1.0    0.05    1.05    1.44    27.08308    89.52970   127.41029
   115  H   1.0    0.05    1.06    1.44    30.98381    86.80112   130.65863
   116  H   1.0    0.05    1.03    1.43    33.09144    90.59986   129.36029
   117  H   1.0    0.04    1.03    1.43    34.30217    87.95475   127.76535
   118  H   1.0    0.04    1.00    1.43    31.69877    84.40133   126.58900
   119  H   1.0    0.05    1.00    1.43    28.55454    84.09387   127.73897
   120  H   1.0    0.05    1.00    1.43    29.20489    86.11798   125.20306
   121  H   1.0    0.04    1.00    1.43    33.93949    91.68687   124.95630
   122  H   1.0    0.04    1.00    1.43    32.05825    89.18135   123.85787
   123  H   1.0    0.04    1.00    1.43    30.64860    91.75821   125.42433
   124  N   5.0   -0.15    3.49    2.07    26.56513    86.91760   133.05633
   125  C   4.0    0.03    4.41    4.40    24.95006    85.30674   134.57015
   126  C   4.0    0.15    3.47    3.10    22.55540    86.61404   135.49636
   127  O   6.0   -0.32    1.32    1.80    20.59815    85.42328   135.86112
   128  C   4.0   -0.05    4.25    4.11    26.40604    84.14468   136.79354
   129  C   4.0   -0.04    4.19    3.97    26.88301    85.93785   139.02779
   130  C   4.0   -0.01    4.22    4.04    29.58988    85.65696   139.99189
   131  N   5.0   -0.14    3.41    2.03    29.87558    86.81249   142.45652
   132  C   4.0    0.10    3.35    3.06    32.06726    87.32329   143.55187
   133  N   5.0   -0.17    3.27    1.97    34.24715    87.22945   142.32675
   134  N   5.0   -0.19    3.24    1.97    32.05139    87.84357   146.05353
   135  H   1.0    0.10    1.07    1.44    27.77527    88.08571   133.96890
   136  H   1.0    0.06    1.06    1.44    24.31634    83.77828   133.31763
   137  H   1.0    0.04    1.03    1.43    25.33943    82.50295   137.42573
   138  H   1.0    0.04    1.04    1.43    28.20148    83.47678   136.05162
   139  H   1.0    0.06    1.04    1.43    26.57659    87.89581   138.47770
   140  H   1.0    0.05    1.02    1.43    25.56408    85.53549   140.56299
   141  H   1.0    0.04    1.02    1.43    30.06652    83.64663   140.13469
   142  H   1.0    0.06    1.03    1.43    30.86959    86.58920   138.66898
   143  H   1.0    0.11    1.11    1.45    28.32323    86.84989   143.60633
   144  H   1.0    0.12    1.06    1.44    34.36482    87.04644   140.42021
   145  H   1.0    0.11    1.04    1.43    35.90993    87.52235   143.21746
   146  H   1.0    0.11    1.05    1.44    30.31894    88.04528   146.84570
   147  H   1.0    0.08    1.03    1.43    33.43527    88.96306   146.73721
   148  N   5.0   -0.14    3.56    2.12    22.74199    89.09311   135.89259
   149  C   4.0    0.04    4.46    4.47    20.58971    90.57036   136.69181
   150  C   4.0    0.16    3.51    3.12    18.32953    89.92161   134.99544
   151  O   6.0   -0.31    1.25    1.80    16.20469    89.54753   135.84683
   152  C   4.0   -0.04    4.29    4.18    21.28981    93.36737   136.53314
   153  C   4.0   -0.03    4.23    4.06    19.15622    95.09761   137.41765
   154  C   4.0    0.15    3.24    3.04    18.52438    94.54774   140.16339
   155  O   6.0   -0.29    1.20    1.80    19.74912    95.40829   141.92035
   156  N   5.0   -0.19    3.19    1.95    16.54826    92.98632   140.49637
   157  H   1.0    0.11    1.12    1.45    24.39015    90.03563   135.62574
   158  H   1.0    0.05    1.05    1.44    20.07538    90.06442   138.63936
   159  H   1.0    0.05    1.03    1.43    22.94265    93.69411   137.72221
   160  H   1.0    0.06    1.03    1.43    21.76953    93.81258   134.57603
   161  H   1.0    0.05    1.03    1.43    19.78147    97.05634   137.28805
   162  H   1.0    0.05    1.03    1.43    17.48630    94.84654   136.23763
   163  H   1.0    0.10    1.04    1.43    15.69107    92.13013   139.02199
   164  H   1.0    0.10    1.03    1.43    15.98292    92.58278   142.26850
   165  N   5.0   -0.13    3.53    2.10    18.91769    89.76091   132.55081
   166  C   4.0    0.04    4.42    4.41    17.09216    89.07029   130.62636
   167  C   4.0    0.16    3.47    3.10    15.84828    86.56205   131.35902
   168  O   6.0   -0.31    1.29    1.80    13.55319    86.32996   131.59905
   169  C   4.0   -0.03    4.28    4.17    18.43868    88.86320   128.07721
   170  C   4.0   -0.03    4.17    3.94    16.62646    88.26173   125.91842
   171  C   4.0    0.25    3.09    3.02    15.17503    90.63581   124.91086
   172  O   6.0   -0.28    1.18    1.80    15.02418    92.51036   126.33071
   173  O   6.0   -0.27    1.16    1.80    14.28111    90.43036   122.73840
   174  H   1.0    0.11    1.09    1.44    20.64374    90.32996   131.94651
   175  H   1.0    0.07    1.05    1.44    15.60033    90.50566   130.47306
   176  H   1.0    0.07    1.03    1.43    19.32204    90.69022   127.69276
   177  H   1.0    0.06    1.03    1.43    19.92694    87.43601   128.18929
   178  H   1.0    0.06    1.02    1.43    17.63909    87.45662   124.31481
   179  H   1.0    0.06    1.03    1.43    15.18692    86.90416   126.51121
   180  N   5.0   -0.14    3.53    2.10    17.45617    84.64458   131.66626
   181  C   4.0    0.03    4.41    4.40    16.67749    82.03418   132.03177
   182  C   4.0    0.16    3.46    3.10    14.90276    81.76525   134.29559
   183  O   6.0   -0.31    1.26    1.80    13.07601    80.34402   134.26102
   184  C   4.0   -0.04    4.27    4.14    19.02131    80.36021   132.32256
   185  C   4.0   -0.03    4.17    3.94    18.42493    77.57417   131.93227
   186  C   4.0    0.25    3.09    3.02    20.82458    75.91849   131.47613
   187  O   6.0   -0.32    1.28    1.80    20.36321    73.73832   130.66201
   188  O   6.0   -0.31    1.17    1.80    22.93553    76.79547   131.93865
   189  H   1.0    0.10    1.08    1.44    19.32568    84.97491   131.47807
   190  H   1.0    0.05    1.05    1.44    15.59739    81.44014   130.35744
   191  H   1.0    0.06    1.03    1.43    20.38595    80.93671   130.88104
   192  H   1.0    0.06    1.03    1.43    19.87547    80.68782   134.16938
   193  H   1.0    0.05    1.02    1.43    17.41830    76.79926   133.55831
   194  H   1.0    0.05    1.03    1.43    17.20642    77.33919   130.28253
   195  N   5.0   -0.14    3.53    2.10    15.58018    83.12914   136.30090
   196  C   4.0    0.03    4.51    4.55    14.03071    83.29684   138.54683
   197  C   4.0    0.16    3.53    3.13    11.31282    83.96158   137.81558
   198  O   6.0   -0.31    1.26    1.80     9.49715    82.65590   138.39909
   199  C   4.0   -0.02    4.30    4.19    15.09128    85.32741   140.31955
   200  C   4.0   -0.07    4.14    3.87    13.28936    85.72942   142.53671
   201  C   4.0   -0.07    4.12    3.83    17.72012    84.58760   141.24299
   202  H   1.0    0.11    1.11    1.45    17.10591    84.27548   136.17282
   203  H   1.0    0.05    1.05    1.44    13.98727    81.45476   139.50143
   204  H   1.0    0.06    1.06    1.44    15.24684    87.08265   139.23769
   205  H   1.0    0.04    1.00    1.43    13.83275    87.40166   143.59911
   206  H   1.0    0.05    1.01    1.43    11.36581    86.00531   141.87721
   207  H   1.0    0.04    1.00    1.43    13.33394    84.10002   143.78826
   208  H   1.0    0.04    1.00    1.43    18.49791    86.08520   142.41908
   209  H   1.0    0.05    1.00    1.43    17.65528    82.86741   142.36535
   210  H   1.0    0.06    1.01    1.43    19.00423    84.30943   139.66765
   211  N   5.0   -0.14    3.52    2.09    11.07520    86.15890   136.59132
   212  C   4.0    0.04    4.36    4.30     8.60397    87.04771   135.81735
   213  C   4.0    0.17    3.47    3.10     7.27567    85.05849   134.18138
   214  O   6.0   -0.31    1.28    1.80     5.10948    84.37886   134.62422
   215  C   4.0   -0.06    4.11    3.82     8.84455    89.54434   134.41443
   216  H   1.0    0.11    1.08    1.44    12.60221    87.11196   135.95016
   217  H   1.0    0.05    1.05    1.44     7.42615    87.29439   137.50970
   218  H   1.0    0.05    1.00    1.43     7.00097    90.16352   133.75775
   219  H   1.0    0.05    1.00    1.43     9.62126    90.97334   135.66721
   220  H   1.0    0.07    1.00    1.43    10.09560    89.34106   132.79530
   221  N   5.0   -0.13    3.41    2.02     8.65992    84.14870   132.27915
   222  C   4.0    0.02    4.25    4.10     7.60009    82.43061   130.43489
   223  C   4.0    0.16    3.37    3.07     6.26741    80.17859   131.66203
   224  O   6.0   -0.29    1.23    1.80     4.19469    79.44516   130.92578
   225  H   1.0    0.12    1.10    1.44    10.40358    84.86796   131.95218
   226  H   1.0    0.06    1.02    1.43     6.22662    83.40554   129.22802
   227  H   1.0    0.05    1.03    1.43     9.13754    81.72479   129.25630
   228  N   5.0   -0.14    3.49    2.07     7.56208    79.00657   133.48371
   229  C   4.0    0.04    4.51    4.55     6.59851    76.67431   134.55903
   230  C   4.0    0.15    3.46    3.10     4.47847    77.18196   136.46414
   231  O   6.0   -0.28    1.22    1.80     2.65084    75.76881   136.59298
   232  C   4.0   -0.02    4.32    4.23     8.73904    75.02754   135.64881
   233  C   4.0   -0.05    4.18    3.96     8.02388    72.21895   135.53647
   234  C   4.0   -0.07    4.13    3.87     9.41064    75.79398   138.34778
   235  C   4.0   -0.07    4.01    3.63     8.05841    71.12379   132.87124
   236  H   1.0    0.11    1.08    1.44     9.31480    79.60186   133.97204
   237  H   1.0    0.06    1.07    1.44     5.68874    75.65979   132.99511
   238  H   1.0    0.05    1.06    1.44    10.40043    75.34718   134.45418
   239  H   1.0    0.04    1.03    1.43     9.39491    71.18558   136.67833
   240  H   1.0    0.06    1.03    1.43     6.15579    71.99460   136.38004
   241  H   1.0    0.04    1.00    1.43    11.04981    74.72427   138.97122
   242  H   1.0    0.06    1.00    1.43     9.87744    77.79321   138.43796
   243  H   1.0    0.05    1.00    1.43     7.84012    75.41878   139.61826
   244  H   1.0    0.05    1.00    1.43     7.65287    69.11348   132.94525
   245  H   1.0    0.05    1.00    1.43     6.66426    72.04402   131.67636
   246  H   1.0    0.04    1.00    1.43     9.91260    71.39881   132.02834
   247  N   5.0   -0.14    3.51    2.09     4.79629    79.20798   137.93906
   248  C   4.0    0.04    4.41    4.40     2.82997    80.04250   139.64425
   249  C   4.0    0.16    3.46    3.10     0.45572    80.84859   138.20398
   250  O   6.0   -0.28    1.24    1.80    -1.60102    80.90209   139.25969
   251  C   4.0   -0.04    4.25    4.10     3.71446    82.22424   141.34112
   252  C   4.0   -0.05    4.17    3.93     4.50022    81.43370   144.01082
   253  C   4.0   -0.01    4.19    3.99     2.28245    80.49897   145.62108
   254  N   5.0   -0.14    3.40    2.02     2.92642    80.72153   148.28566
   255  C   4.0    0.10    3.33    3.06     1.37227    80.32278   150.21304
   256  N   5.0   -0.18    3.25    1.97    -1.02120    79.66728   149.88482
   257  N   5.0   -0.18    3.24    1.97     2.26042    80.56082   152.57141
   258  H   1.0    0.11    1.09    1.44     6.31500    80.34629   137.70430
   259  H   1.0    0.06    1.06    1.44     2.23728    78.41457   140.78575
   260  H   1.0    0.06    1.03    1.43     5.30505    83.14214   140.40278
   261  H   1.0    0.05    1.04    1.43     2.19118    83.60889   141.47663
   262  H   1.0    0.04    1.02    1.43     5.95701    79.98325   143.89194
   263  H   1.0    0.04    1.03    1.43     5.30967    83.10575   144.90563
   264  H   1.0    0.05    1.02    1.43     0.60315    81.63372   145.20985
   265  H   1.0    0.05    1.02    1.43     1.84319    78.52347   145.19919
   266  H   1.0    0.08    1.07    1.44     4.72651    81.22396   148.68003
   267  H   1.0    0.09    1.02    1.43    -1.83198    79.44809   148.15927
   268  H   1.0    0.09    1.03    1.43    -2.15359    79.46335   151.39708
   269  H   1.0    0.09    1.03    1.43     4.03718    81.16350   152.91042
   270  H   1.0    0.09    1.03    1.43     1.08317    80.44955   154.05848
   271  N   5.0   -0.12    3.50    2.08     0.75050    81.43162   135.76281
   272  C   4.0    0.05    4.25    4.11    -1.44465    82.08768   134.26256
   273  C   4.0    0.10    3.22    3.04    -2.92115    79.64958   133.69370
   274  O   6.0   -0.26    1.11    1.80    -5.14638    79.38160   134.25982
   275  C   4.0   -0.06    4.09    3.79    -0.64777    83.41678   131.83937
   276  H   1.0    0.12    1.10    1.44     2.46995    81.89548   135.06707
   277  H   1.0    0.07    1.05    1.44    -2.70338    83.29803   135.38594
   278  H   1.0    0.05    1.00    1.43    -2.29198    83.80825   130.67454
   279  H   1.0    0.06    1.00    1.43     0.28304    85.18928   132.30072
   280  H   1.0    0.07    1.00    1.43     0.67404    82.24732   130.78733
   281  N   5.0   -0.15    3.43    2.04    10.16485    73.30370   149.14041
   282  C   4.0    0.02    4.37    4.33    12.42769    72.51559   147.77852
   283  C   4.0    0.08    3.19    3.04    14.73508    72.44994   149.54253
   284  O   6.0   -0.29    1.13    1.80    15.53563    74.34801   150.61514
   285  C   4.0   -0.04    4.34    4.28    12.70076    74.55357   145.75072
   286  C   4.0   -0.03    4.27    4.14    11.76654    76.92901   147.09604
   287  C   4.0    0.00    4.24    4.08     9.61530    75.97465   148.78057
   288  H   1.0    0.03    1.04    1.43    12.12929    70.62013   147.01638
   289  H   1.0    0.04    1.02    1.43    14.63754    74.75017   145.10585
   290  H   1.0    0.03    1.03    1.43    11.46164    74.10336   144.16780
   291  H   1.0    0.07    1.03    1.43    13.25644    77.72710   148.26820
   292  H   1.0    0.04    1.02    1.43    11.12684    78.37204   145.78226
   293  H   1.0    0.06    1.02    1.43     9.58398    76.97934   150.58279
   294  H   1.0    0.04    1.02    1.43     7.78221    76.17075   147.84279
   295  N   5.0   -0.19    3.26    1.97    23.87799    64.23095   141.77900
   296  C   4.0    0.03    4.21    4.01    21.60123    65.70642   142.17773
   297  C   4.0    0.08    3.20    3.04    19.37678    63.86975   142.40061
   298  O   6.0   -0.29    1.14    1.80    19.15631    62.15089   140.86400
   299  C   4.0   -0.05    4.24    4.07    21.21630    67.62016   139.99552
   300  C   4.0   -0.05    4.20    3.99    22.07870    66.61654   137.42488
   301  C   4.0   -0.05    4.16    3.92    21.24538    68.35327   135.26148
   302  C   4.0   -0.04    4.10    3.81    22.09996    67.32179   132.69229
   303  N   5.0   -0.12    4.02    2.92    20.87424    68.70663   130.57900
   304  H   1.0    0.09    1.03    1.43    23.81099    62.94400   140.36852
   305  H   1.0    0.04    1.05    1.44    21.80761    66.73101   143.95728
   306  H   1.0    0.04    1.03    1.43    19.21832    68.12908   139.94304
   307  H   1.0    0.04    1.02    1.43    22.26173    69.33779   140.45163
   308  H   1.0    0.04    1.03    1.43    24.13418    66.48302   137.41353
   309  H   1.0    0.05    1.03    1.43    21.28618    64.73233   137.16134
   310  H   1.0    0.04    1.04    1.43    19.19716    68.56398   135.31243
   311  H   1.0    0.05    1.03    1.43    22.04078    70.23125   135.55031
   312  H   1.0    0.04    1.02    1.43    24.13991    67.55434   132.52241
   313  H   1.0    0.04    1.02    1.43    21.64650    65.31707   132.53672
   314  H   1.0    0.06    1.02    1.43    21.60262    68.20115   128.85401
   315  H   1.0    0.06    1.02    1.43    18.94894    68.48753   130.59076
   316  H   1.0    0.10    1.08    1.44    21.11896    70.70435   130.75031
   317  N   5.0   -0.17    3.24    1.96    20.49776    86.02112   157.39020
   318  C   4.0    0.04    4.31    4.21    22.56018    87.60321   156.55103
   319  C   4.0    0.18    3.41    3.08    21.59887    90.15954   155.52606
   320  O   6.0   -0.24    1.23    1.80    19.41854    90.86989   155.79318
   321  C   4.0   -0.02    4.29    4.19    24.11601    86.13382   154.61436
   322  C   4.0    0.24    3.17    3.03    26.85211    87.03541   154.26658
   323  O   6.0   -0.31    1.33    1.80    28.51078    85.99983   155.60544
   324  O   6.0   -0.31    1.25    1.80    27.34012    88.64733   152.60954
   325  H   1.0    0.13    1.06    1.44    19.85044    84.77563   156.09507
   326  H   1.0    0.06    1.05    1.44    23.71376    88.08059   158.22092
   327  H   1.0    0.07    1.04    1.43    24.21282    84.17446   155.25096
   328  H   1.0    0.09    1.03    1.43    23.13875    86.19088   152.79708
   329  N   5.0   -0.13    3.58    2.14    23.44433    91.54644   154.48045
   330  C   4.0    0.05    4.41    4.39    23.02725    93.99241   153.32429
   331  C   4.0    0.17    3.48    3.11    21.42089    93.54783   150.96563
   332  O   6.0   -0.26    1.21    1.80    19.46758    94.68361   150.51382
   333  C   4.0   -0.04    4.24    4.07    25.50928    95.33379   152.60259
   334  C   4.0   -0.02    4.18    3.95    27.78676    94.70774   154.26270
   335  C   4.0    0.26    3.09    3.02    27.42752    95.00205   157.18183
   336  O   6.0   -0.27    1.16    1.80    25.77216    96.47480   157.97860
   337  O   6.0   -0.26    1.16    1.80    28.93558    93.74046   158.49437
   338  H   1.0    0.10    1.17    1.46    25.09399    90.69706   154.01362
   339  H   1.0    0.08    1.05    1.44    21.94317    95.15053   154.65711
   340  H   1.0    0.05    1.03    1.43    25.99426    94.82825   150.66048
   341  H   1.0    0.06    1.03    1.43    25.14106    97.35909   152.68312
   342  H   1.0    0.07    1.03    1.43    28.41084    92.77185   153.94074
   343  H   1.0    0.05    1.03    1.43    29.34326    95.96674   153.75608
   344  N   5.0   -0.13    3.54    2.11    22.45412    91.82790   149.37958
   345  C   4.0    0.04    4.43    4.43    20.86978    90.53840   147.55420
   346  C   4.0    0.17    3.50    3.11    19.17773    88.67945   149.01269
   347  O   6.0   -0.26    1.31    1.80    19.38049    88.35956   151.28744
   348  C   4.0   -0.04    4.25    4.11    22.50570    89.26812   145.56348
   349  C   4.0    0.25    3.14    3.03    23.99593    87.03017   146.77392
   350  O   6.0   -0.31    1.27    1.80    22.73033    85.42660   147.93985
   351  O   6.0   -0.31    1.23    1.80    26.31878    87.00234   146.42141
   352  H   1.0    0.10    1.09    1.44    23.83798    90.74402   150.14081
   353  H   1.0    0.06    1.06    1.44    19.64915    91.99122   146.71672
   354  H   1.0    0.04    1.02    1.43    21.33252    88.50399   144.05014
   355  H   1.0    0.05    1.03    1.43    23.81278    90.64995   144.77459
   356  N   5.0   -0.15    3.37    2.01    17.28122    87.62187   147.67130
   357  C   4.0    0.02    4.27    4.13    15.32560    86.22468   148.94597
   358  C   4.0    0.16    3.35    3.06    15.87690    83.45124   149.44163
   359  O   6.0   -0.29    1.24    1.80    14.20655    82.09890   150.33139
   360  H   1.0    0.07    1.06    1.44    17.23340    87.75285   145.77310
   361  H   1.0    0.08    1.04    1.43    15.07973    87.07889   150.81960
   362  H   1.0    0.04    1.02    1.43    13.54616    86.39213   147.91688
   363  N   5.0   -0.13    3.49    2.07    18.14689    82.56524   148.81702
   364  C   4.0    0.04    4.36    4.30    18.87100    80.08443   149.71405
   365  C   4.0    0.10    3.24    3.04    19.30334    80.14064   152.57860
   366  O   6.0   -0.28    1.18    1.80    19.85852    82.07638   153.71691
   367  C   4.0   -0.03    4.34    4.27    21.35413    79.26570   148.47599
   368  C   4.0   -0.01    3.55    3.14    21.09902    78.65053   145.71048
   369  C   4.0   -0.04    3.47    3.10    19.54157    76.69539   144.90686
   370  C   4.0   -0.04    3.46    3.10    22.50931    79.95160   143.92243
   371  C   4.0   -0.05    3.38    3.07    19.40244    76.05198   142.37481
   372  C   4.0   -0.04    3.38    3.07    22.35045    79.32273   141.38923
   373  C   4.0   -0.04    3.37    3.07    20.80577    77.36599   140.60369
   374  H   1.0    0.12    1.11    1.44    19.59232    83.79258   148.48006
   375  H   1.0    0.06    1.05    1.44    17.33843    78.75933   149.29105
   376  H   1.0    0.07    1.04    1.43    22.69905    80.80677   148.72337
   377  H   1.0    0.05    1.03    1.43    22.06546    77.60989   149.48786
   378  H   1.0    0.05    1.03    1.43    18.48053    75.64232   146.29934
   379  H   1.0    0.06    1.03    1.43    23.73194    81.47184   144.52612
   380  H   1.0    0.04    1.03    1.43    18.22802    74.49990   141.77885
   381  H   1.0    0.05    1.03    1.43    23.43405    80.37538   140.01994
   382  H   1.0    0.05    1.03    1.43    20.70643    76.87881   138.62462
   383  N   5.0   -0.12    4.09    3.11    16.67702    62.02466   132.26532
   384  C   4.0    0.00    4.22    4.03    15.85049    63.22490   134.70654
   385  C   4.0    0.08    3.19    3.03    14.28055    61.17103   136.12936
   386  O   6.0   -0.29    1.14    1.80    12.08758    60.80934   135.54143
   387  C   4.0   -0.03    4.31    4.23    14.17011    65.51738   134.11328
   388  C   4.0   -0.02    3.55    3.14    14.34152    67.49998   136.15042
   389  C   4.0   -0.04    3.48    3.11    13.97198    66.85354   138.66707
   390  C   4.0   -0.05    3.48    3.10    14.91725    69.99697   135.55284
   391  C   4.0   -0.05    3.38    3.07    14.15859    68.67383   140.53533
   392  C   4.0   -0.05    3.37    3.07    15.12954    71.81433   137.42335
   393  C   4.0   -0.05    3.38    3.07    14.74055    71.15078   139.92046
   394  H   1.0    0.05    1.02    1.43    17.56598    63.29932   131.08699
   395  H   1.0    0.06    1.02    1.43    17.86555    60.50740   132.58579
   396  H   1.0    0.07    1.02    1.43    15.07761    61.38036   131.33469
   397  H   1.0    0.04    1.04    1.43    17.49652    63.77808   135.82063
   398  H   1.0    0.04    1.03    1.43    14.67745    66.37375   132.31055
   399  H   1.0    0.06    1.04    1.43    12.21013    64.86962   133.97082
   400  H   1.0    0.06    1.03    1.43    13.50431    64.93837   139.18868
   401  H   1.0    0.05    1.03    1.43    15.17671    70.58185   133.61469
   402  H   1.0    0.05    1.03    1.43    13.85246    68.18504   142.49035
   403  H   1.0    0.05    1.03    1.43    15.56959    73.74625   136.92893
   404  H   1.0    0.04    1.03    1.43    14.84674    72.55739   141.39058
   405  N   5.0   -0.20    3.24    1.97    23.44433   110.50145   147.49996
   406  C   4.0    0.04    4.21    4.02    23.02725   108.05548   148.65612
   407  C   4.0    0.09    3.22    3.04    21.42089   108.50007   151.01478
   408  O   6.0   -0.26    1.11    1.80    19.46758   107.36429   151.46659
   409  C   4.0   -0.04    4.22    4.04    25.50928   106.71411   149.37782
   410  C   4.0   -0.03    4.18    3.95    27.78676   107.34015   147.71771
   411  C   4.0    0.25    3.09    3.02    27.42752   107.04585   144.79858
   412  O   6.0   -0.29    1.16    1.80    25.77216   105.57309   144.00181
   413  O   6.0   -0.28    1.16    1.80    28.93558   108.30743   143.48604
   414  H   1.0    0.09    1.03    1.43    25.09399   111.35083   147.96679
   415  H   1.0    0.07    1.05    1.44    21.94317   106.89736   147.32330
   416  H   1.0    0.05    1.03    1.43    25.99426   107.21965   151.31993
   417  H   1.0    0.06    1.03    1.43    25.14106   104.68880   149.29728
   418  H   1.0    0.05    1.03    1.43    28.41084   109.27605   148.03967
   419  H   1.0    0.05    1.03    1.43    29.34326   106.08115   148.22433
   420  H   1.0    0.09    1.07    1.44    40.23730    73.26075   142.43086
   421  H   1.0    0.06    1.04    1.43    41.05686    81.97426   142.17995
   422  H   1.0    0.09    1.09    1.44    37.29607    81.29283   134.81571
   423  H   1.0    0.07    1.05    1.44    -2.06287    78.20526   132.82862
   424  H   1.0    0.09    1.10    1.44     8.99466    72.07230   149.05762
   425  H   1.0    0.05    1.04    1.44    15.64210    70.82118   149.85161
   426  H   1.0    0.09    1.08    1.44    25.17029    65.27120   141.40428
   427  H   1.0    0.05    1.04    1.43    18.11609    64.07713   143.79299
   428  H   1.0    0.10    1.07    1.44    20.99477    85.10646   158.73517
   429  H   1.0    0.06    1.05    1.44    19.13425    78.55397   153.59099
   430  H   1.0    0.06    1.04    1.43    15.07862    60.16280   137.51414
   431  H   1.0    0.11    1.07    1.44    23.44662   110.33632   145.80724
   432  H   1.0    0.06    1.05    1.44    21.95561   109.78423   152.29386

  Z AO/shell   Hii/eV     exponent
  1     Wed Apr 25 08:07:45 CEST 2018   EN: 2.200 GM2: 0.406  GM3: 0.0800  RAES: 1.40
     1s    -10.707211    1.230000
  6     Wed Apr 25 08:07:45 CEST 2018   EN: 2.550 GM2: 0.538  GM3: 0.1500  RAES: 3.00
     2s    -13.970922    2.096432
     2p    -10.063292    1.800000
  7     Wed Apr 25 08:07:45 CEST 2018   EN: 3.040 GM2: 0.461  GM3:-0.0640  RAES: 1.90
     2s    -16.686243    2.339881
     2p    -12.523956    2.014332
  8     Wed Apr 25 08:07:45 CEST 2018   EN: 3.440 GM2: 0.452  GM3:-0.0517  RAES: 1.80
     2s    -20.229985    2.439742
     2p    -15.503117    2.137023
 no old-style atom pair restraining (fixing) potential

molecular fragmentation (1/2 indicates fragments):
111111111111111111111111111111111111111111222222222222222222222222222222
222222222222222222222222222222222222222222222222222222222222222222222222
222222222222222222222222222222222222222222222222222222222222222222222222
222222222222222222222222222222222222222222222222222222222222222222222222
222222222222222222222222222222222222222222222222222222222222222222222222
222222222222222222222222222222222222222222222222222222222221122222222222
# atoms in fragment 1/2:    44   388
 fragment masses (1/2) :      278.37     2699.07
CMA distance (Bohr)    :  17.036
constraining FC (au)   :  0.0500
           ------------------------------------------------- 
          |        Self-Consistent Charge Iterations        |
           ------------------------------------------------- 

 Ncao       : 1062
 Nao        : 1062
 Nshell     : 642
 Nel        : 1178
 T(el)      :   500.0
 intcut     :    35.0
 scfconv/Eh :  0.100E-06
   qconv/e  :  0.100E-04
 intneglect :  0.100E-08
 broydamp   :      0.400
 iter      E             dE          RMSdq      gap      omega  full diag
   1   -674.8041115 -0.674804E+03  0.467E+00    2.87       0.0  T
   2   -676.4257022 -0.162159E+01  0.221E+00    1.22       1.0  T
   3   -676.5303621 -0.104660E+00  0.126E+00    1.23       1.0  T
   4   -676.6429534 -0.112591E+00  0.271E-01    0.67       1.0  T
   5   -676.6492824 -0.632900E-02  0.139E-01    0.89       1.0  T
   6   -676.6503032 -0.102081E-02  0.589E-02    0.91       1.0  T
   7   -676.6506751 -0.371857E-03  0.256E-02    0.93       1.0  T
   8   -676.6507166 -0.415586E-04  0.129E-02    0.94       1.0  T
   9   -676.6507355 -0.188150E-04  0.564E-03    0.94       1.0  T
  10   -676.6507382 -0.277670E-05  0.249E-03    0.95       1.9  T
  11   -676.6507389 -0.625351E-06  0.106E-03    0.95       4.6  T
