      -----------------------------------------------------------      
     |                   =====================                   |     
     |                           x T B                           |     
     |                   =====================                   |     
     |                         S. Grimme                         |     
     |          Mulliken Center for Theoretical Chemistry        |     
     |                    University of Bonn                     |     
     |                 Version 6.0.1 (SAW181210)                 |     
      -----------------------------------------------------------      

   This program is distributed in the hope that it will be useful,
   but WITHOUT ANY WARRANTY; without even the implied warranty of
   MERCHANTABILITY or FITNESS FOR A PARTICULAR PURPOSE.
   
   FOR NON-COMMERCIAL, ACADEMIA USE ONLY.
   
   Cite this work as:
   S. Grimme, C. Bannwarth, P. Shushkov, J. Comput. Theory Chem., 2017,
   13, 1989-2009.
   C. Bannwarth, S. Ehlert and S. Grimme., ChemRxiv, 2018, preprint.
   http://doi.org/10.26434/chemrxiv.7246238.v1
   
   for sTDA-xTB:
   S. Grimme and C. Bannwarth, J. Chem. Phys., 2016, 145, 054103.
   
   in the mass-spec context:
   V. Asgeirsson, C. Bauer and S. Grimme, Chem. Sci., 2017, 8, 4879.
   
   if GBSA is used:
   P. Shushkov, F. März and S. Grimme, unpublished.
   
   for ANC optimizer:
   S. Grimme, unpublished.
   Rational Function algorithm used in ANCopt:
   F. Eckert, P. Pulay, H.-J. Werner, J. Comput. Chem., 1997, 18, 1473.
   
   with help from (in alphabetical order)
   C. Bannwarth, F. Bohle, G. Brandenburg, E. Caldeweyher, M. Checinski,
   S. Dohm, S. Ehlert, S. Ehrlich, F. März, H. Neugebauer, J. Pisarek,
   P. Pracht, P. Shushkov, and S. Spicher.
   
 * started run on 2019/05/11 at 21:00:47.565     
========================================================================
 # omp threads = 2
========================================================================
number of atoms            : 252
number of electrons        : 722
charge                     : -3
spin                       : .0
first test random number   : .0602

########################################################################
# WARNING! Please study the warnings concerning your input carefully
#  - Process number higher than OMP_NUM_THREADS, I hope you know what you are doing.
########################################################################

           ------------------------------------------------- 
          |                 G F N 2 - x T B                 |
          | Geometry, Frequencies, Noncovalent interactions |
          |            JCTC 2018 parametrisation            |
           ------------------------------------------------- 
 
      method parameters     
 k(s)        :  1.8500
 k(p)        :  2.2300
 k(d)        :  2.2300
 k(f)        :  2.0000
 kEN (H0ij)  : -2.0000
 D4 a1       :  0.5200
 D4 a2       :  5.0000
 D4 s6       :  1.0000
 D4 s8       :  2.7000
 D4 s9       :  5.0000
 alphaj      :  2.0000

 Solvent             : h2o
 Using internal parameter file: .param_gbsa2_h2o
 Gsolv ref. state (COSMO-RS): gsolv [1 M gas/solution]
 temperature (mdtemp)       :    298.150000000000     
 dielectric constant        :    80.2000000000000     
 rho                        :    1.00000000000000     
 mass                       :    18.0000000000000     
 surface tension            :    15.5689454083859     
 probe radius               :   0.975313790000000     
 vdW radii scaling          :    1.00000000000000     
 Gshift (Eh)                :   1.857443126794793E-003
 c1                         :    1.55243817000000     
 soset                      :   0.130326360000000     
 HB correction              :  T

            Z     q(EN)     CN     RAES       Cart. coordinates
     1  N   5.0   -0.23    3.18    1.95   -24.14780   155.19366    10.05739
     2  C   4.0    0.03    4.24    4.08   -22.53509   153.13495     9.31278
     3  C   4.0    0.06    3.22    3.04   -22.53891   152.63402     6.44767
     4  O   6.0   -0.33    1.12    1.80   -20.52174   152.39943     5.32970
     5  C   4.0   -0.05    4.35    4.29   -23.28420   150.67055    10.62800
     6  C   4.0   -0.03    4.19    3.99   -21.14088   148.69437    10.26023
     7  C   4.0   -0.08    4.08    3.76   -19.94572   148.09130    12.79277
     8  C   4.0   -0.09    4.07    3.75   -22.14025   146.40019     8.82423
     9  H   1.0    0.08    1.02    1.43   -25.49133   154.85775    11.39108
    10  H   1.0    0.04    1.07    1.44   -20.59078   153.59227     9.78309
    11  H   1.0    0.04    1.03    1.43   -23.56899   151.02350    12.63497
    12  H   1.0    0.03    1.03    1.43   -25.06160   149.95263     9.85604
    13  H   1.0    0.04    1.07    1.44   -19.67926   149.53570     9.07083
    14  H   1.0    0.03    1.00    1.43   -18.45877   146.70658    12.61843
    15  H   1.0    0.04    0.99    1.43   -19.11962   149.82165    13.62189
    16  H   1.0    0.05    0.99    1.43   -21.35028   147.38572    14.15707
    17  H   1.0    0.03    1.00    1.43   -20.65094   145.03103     8.48051
    18  H   1.0    0.03    1.00    1.43   -23.67514   145.48595     9.82271
    19  H   1.0    0.03    0.99    1.43   -22.84406   146.97913     6.93429
    20  N   5.0   -0.23    3.21    1.96   -14.21483   150.40763    21.17655
    21  C   4.0    0.03    4.35    4.30   -16.91357   150.23006    20.61475
    22  C   4.0    0.14    3.47    3.10   -17.90746   147.74239    19.65926
    23  O   6.0   -0.31    1.28    1.80   -20.22148   147.47241    19.62354
    24  C   4.0   -0.05    4.25    4.09   -17.67240   152.31452    18.66508
    25  C   4.0   -0.05    4.17    3.94   -17.51141   154.87464    19.94958
    26  C   4.0   -0.01    4.15    3.89   -20.08234   156.17418    20.47073
    27  N   5.0   -0.15    3.39    2.02   -20.63245   158.09183    18.57102
    28  C   4.0    0.08    3.33    3.06   -22.14705   157.87133    16.53845
    29  N   5.0   -0.18    3.27    1.97   -24.29824   156.51998    16.67430
    30  N   5.0   -0.20    3.26    1.97   -21.59248   159.05253    14.50986
    31  H   1.0    0.07    1.03    1.43   -13.04724   150.77644    19.72136
    32  H   1.0    0.04    1.07    1.44   -17.94024   150.57530    22.33926
    33  H   1.0    0.03    1.02    1.43   -16.38484   152.10753    17.05432
    34  H   1.0    0.05    1.03    1.43   -19.58307   151.84960    18.02920
    35  H   1.0    0.04    1.02    1.43   -16.50806   154.61777    21.78068
    36  H   1.0    0.03    1.04    1.43   -16.34302   156.09844    18.81823
    37  H   1.0    0.05    1.02    1.43   -21.58931   154.75931    20.52035
    38  H   1.0    0.06    1.02    1.43   -20.04009   157.07398    22.34172
    39  H   1.0    0.06    1.09    1.44   -19.12544   159.22117    18.23299
    40  H   1.0    0.11    1.04    1.43   -24.74996   155.37675    18.13845
    41  H   1.0    0.09    1.03    1.43   -25.48099   156.36826    15.21007
    42  H   1.0    0.06    1.03    1.43   -20.15420   160.33358    14.38335
    43  H   1.0    0.06    1.02    1.43   -22.83825   159.29480    13.01925
    44  N   5.0   -0.16    3.49    2.07   -16.24384   146.00142    18.96737
    45  C   4.0    0.03    4.40    4.37   -17.06974   143.40259    18.83544
    46  C   4.0    0.16    3.44    3.09   -18.04672   142.56324    21.44904
    47  O   6.0   -0.32    1.28    1.80   -19.83836   141.16790    21.64655
    48  C   4.0   -0.06    4.19    3.98   -14.90204   141.68118    17.82690
    49  C   4.0   -0.06    4.09    3.78   -14.14883   141.95961    15.02572
    50  C   4.0   -0.02    4.12    3.85   -15.92842   140.78373    12.99667
    51  N   5.0   -0.15    3.35    2.00   -16.31968   138.05728    13.13216
    52  C   4.0    0.08    3.32    3.06   -16.39281   136.34302    11.27108
    53  N   5.0   -0.21    3.23    1.96   -15.22303   136.66493     9.07992
    54  N   5.0   -0.20    3.23    1.96   -17.64689   134.18224    11.66270
    55  H   1.0    0.07    1.07    1.44   -14.37362   146.36999    18.93734
    56  H   1.0    0.05    1.06    1.44   -18.68722   143.24779    17.58152
    57  H   1.0    0.03    1.03    1.43   -13.24893   142.06115    19.00200
    58  H   1.0    0.04    1.03    1.43   -15.45724   139.73568    18.18917
    59  H   1.0    0.03    1.02    1.43   -13.97787   143.98420    14.57899
    60  H   1.0    0.03    1.03    1.43   -12.28027   141.12364    14.83475
    61  H   1.0    0.03    1.03    1.43   -17.76953   141.68680    13.17496
    62  H   1.0    0.03    1.03    1.43   -15.15904   141.26607    11.14913
    63  H   1.0    0.07    1.07    1.44   -17.15004   137.49865    14.78063
    64  H   1.0    0.06    1.03    1.43   -14.99609   138.44649     8.41112
    65  H   1.0    0.06    1.03    1.43   -15.50195   135.36468     7.69042
    66  H   1.0    0.07    1.02    1.43   -18.25966   133.63832    13.41697
    67  H   1.0    0.06    1.02    1.43   -17.53796   132.75844    10.36622
    68  N   5.0   -0.14    3.50    2.08   -16.90509   143.56266    23.46791
    69  C   4.0    0.03    4.44    4.45   -17.93389   143.02979    25.96310
    70  C   4.0    0.15    3.43    3.09   -20.32696   144.59746    26.40202
    71  O   6.0   -0.30    1.37    1.80   -22.36173   143.44597    26.47036
    72  C   4.0   -0.05    4.17    3.94   -15.77047   143.09918    27.91463
    73  C   4.0   -0.04    4.16    3.92   -14.31850   140.57491    27.62341
    74  C   4.0    0.24    3.04    3.02   -11.63284   140.32249    28.92503
    75  O   6.0   -0.32    1.15    1.80   -11.60369   139.73816    31.18992
    76  O   6.0   -0.32    1.15    1.80    -9.76386   140.66507    27.50872
    77  H   1.0    0.07    1.06    1.44   -15.25625   144.55264    23.36659
    78  H   1.0    0.06    1.08    1.44   -18.64658   141.08038    25.95182
    79  H   1.0    0.04    1.01    1.43   -14.51986   144.72116    27.53573
    80  H   1.0    0.04    1.02    1.43   -16.47818   143.27943    29.83491
    81  H   1.0    0.04    1.03    1.43   -15.51252   139.07725    28.35026
    82  H   1.0    0.05    1.02    1.43   -13.99092   140.26500    25.59038
    83  N   5.0   -0.15    3.45    2.05   -20.13364   147.11573    26.53514
    84  C   4.0    0.03    4.37    4.33   -22.31125   148.72842    27.06749
    85  C   4.0    0.17    3.49    3.11   -24.68485   147.55995    25.82536
    86  O   6.0   -0.31    1.24    1.80   -26.61721   147.26076    27.06884
    87  C   4.0   -0.04    4.17    3.94   -21.75323   151.50506    26.34807
    88  C   4.0   -0.04    4.18    3.95   -19.50626   152.46365    27.89859
    89  C   4.0    0.24    3.06    3.02   -18.51278   155.24083    27.48227
    90  O   6.0   -0.32    1.17    1.80   -20.04426   156.82088    26.67676
    91  O   6.0   -0.32    1.17    1.80   -16.28596   155.60322    28.05779
    92  H   1.0    0.07    1.07    1.44   -18.42360   147.91263    26.58087
    93  H   1.0    0.05    1.06    1.44   -22.72142   148.69222    29.10056
    94  H   1.0    0.05    1.02    1.43   -21.43888   151.67717    24.33153
    95  H   1.0    0.05    1.01    1.43   -23.47316   152.64642    26.77372
    96  H   1.0    0.04    1.02    1.43   -19.99517   152.40630    29.91730
    97  H   1.0    0.04    1.04    1.43   -17.87664   151.26624    27.63690
    98  N   5.0   -0.12    3.48    2.06   -24.47943   146.81811    23.37317
    99  C   4.0    0.05    4.44    4.44   -26.70451   145.86063    22.15084
   100  C   4.0    0.16    3.54    3.13   -27.23447   143.06021    22.54873
   101  O   6.0   -0.31    1.33    1.80   -29.41533   142.38458    22.84657
   102  C   4.0   -0.04    4.24    4.09   -26.68287   146.34549    19.29881
   103  C   4.0   -0.04    4.14    3.89   -28.34866   148.56105    18.48602
   104  C   4.0    0.24    3.07    3.02   -27.36396   151.31099    18.91107
   105  O   6.0   -0.32    1.21    1.80   -27.65606   152.73067    17.03424
   106  O   6.0   -0.30    1.16    1.80   -26.42150   151.93675    20.94905
   107  H   1.0    0.11    1.08    1.44   -22.97263   147.27986    22.34076
   108  H   1.0    0.07    1.07    1.44   -28.33750   146.81464    23.01781
   109  H   1.0    0.06    1.04    1.43   -24.76621   146.62622    18.68396
   110  H   1.0    0.04    1.03    1.43   -27.42950   144.63522    18.35846
   111  H   1.0    0.04    1.02    1.43   -28.70396   148.42657    16.43678
   112  H   1.0    0.04    1.02    1.43   -30.20126   148.46636    19.42543
   113  N   5.0   -0.14    3.44    2.04   -25.37489   141.36982    22.32904
   114  C   4.0    0.05    4.50    4.54   -26.24092   138.83588    22.88546
   115  C   4.0    0.16    3.50    3.11   -27.38057   138.55341    25.52248
   116  O   6.0   -0.30    1.26    1.80   -28.94430   136.88976    25.88488
   117  C   4.0    0.03    4.11    3.83   -24.37128   136.68033    22.28738
   118  O   6.0   -0.26    2.07    1.83   -25.75094   134.91738    20.87386
   119  H   1.0    0.12    1.07    1.44   -23.50237   141.79327    22.45247
   120  H   1.0    0.07    1.09    1.44   -27.81328   138.45016    21.60703
   121  H   1.0    0.05    1.01    1.43   -22.75638   137.43916    21.24373
   122  H   1.0    0.04    1.00    1.43   -23.65323   135.87167    24.07791
   123  H   1.0    0.11    1.03    1.43   -25.02599   133.27504    21.05886
   124  N   5.0   -0.14    3.46    2.05   -26.59346   140.16284    27.33349
   125  C   4.0    0.04    4.34    4.27   -27.98834   140.37280    29.65873
   126  C   4.0    0.16    3.55    3.14   -30.83629   140.51223    29.13234
   127  O   6.0   -0.30    1.33    1.80   -32.29458   138.75284    29.49224
   128  C   4.0   -0.07    4.13    3.85   -27.26022   142.70587    31.21982
   129  H   1.0    0.12    1.11    1.44   -25.27560   141.47684    26.95846
   130  H   1.0    0.05    1.05    1.44   -27.74495   138.66640    30.80341
   131  H   1.0    0.04    0.98    1.43   -28.75031   143.05126    32.68529
   132  H   1.0    0.04    1.01    1.43   -25.50917   142.41131    32.17129
   133  H   1.0    0.07    1.01    1.43   -27.12593   144.40158    30.06030
   134  N   5.0   -0.14    3.52    2.09   -31.67170   142.78603    28.38622
   135  C   4.0    0.03    4.38    4.35   -34.34722   143.28798    28.75742
   136  C   4.0    0.17    3.51    3.12   -35.88565   141.23503    27.42289
   137  O   6.0   -0.30    1.26    1.80   -37.73854   140.28551    28.39066
   138  C   4.0   -0.08    4.10    3.80   -35.01346   145.93232    27.77199
   139  H   1.0    0.09    1.07    1.44   -30.47726   144.25598    28.12722
   140  H   1.0    0.06    1.06    1.44   -34.79443   143.14629    30.76647
   141  H   1.0    0.04    1.00    1.43   -37.02426   146.23276    28.04155
   142  H   1.0    0.04    1.00    1.43   -33.97976   147.32545    28.85093
   143  H   1.0    0.05    1.00    1.43   -34.53558   146.07819    25.79784
   144  N   5.0   -0.14    3.50    2.07   -35.08906   140.71500    25.05132
   145  C   4.0    0.03    4.34    4.26   -36.32157   138.87805    23.45670
   146  C   4.0    0.16    3.50    3.12   -37.08143   136.53263    24.96594
   147  O   6.0   -0.32    1.31    1.80   -39.25519   135.71985    25.02483
   148  C   4.0   -0.07    4.14    3.87   -34.53636   138.04075    21.33235
   149  H   1.0    0.10    1.08    1.44   -33.41555   141.41818    24.44454
   150  H   1.0    0.04    1.05    1.44   -38.07418   139.69653    22.69016
   151  H   1.0    0.04    1.00    1.43   -35.46892   136.53995    20.25293
   152  H   1.0    0.04    1.01    1.43   -34.12942   139.60866    20.11980
   153  H   1.0    0.06    1.01    1.43   -32.80939   137.30076    22.14473
   154  N   5.0   -0.14    3.52    2.09   -35.12392   135.34260    26.03681
   155  C   4.0    0.04    4.37    4.33   -35.44798   133.08034    27.53363
   156  C   4.0    0.16    3.49    3.11   -37.45936   133.48899    29.57615
   157  O   6.0   -0.32    1.31    1.80   -39.32376   132.13789    29.64202
   158  C   4.0   -0.07    4.14    3.88   -32.93597   132.36467    28.72543
   159  H   1.0    0.11    1.08    1.44   -33.41762   136.17335    26.12522
   160  H   1.0    0.05    1.05    1.44   -36.17678   131.55709    26.30445
   161  H   1.0    0.04    1.00    1.43   -33.22500   130.81415    30.03027
   162  H   1.0    0.05    1.01    1.43   -31.60051   131.83855    27.29040
   163  H   1.0    0.06    1.00    1.43   -32.20182   133.99355    29.75805
   164  N   5.0   -0.14    3.53    2.10   -36.86123   135.30877    31.19041
   165  C   4.0    0.03    4.35    4.30   -38.30453   136.23027    33.31473
   166  C   4.0    0.15    3.44    3.09   -40.89851   137.23247    32.56957
   167  O   6.0   -0.32    1.25    1.80   -42.30875   138.23793    34.18134
   168  C   4.0   -0.03    4.26    4.13   -36.75367   138.31219    34.68437
   169  C   4.0   -0.03    4.13    3.85   -37.70172   139.07354    37.32886
   170  C   4.0    0.24    3.07    3.02   -36.31536   141.49356    38.38422
   171  O   6.0   -0.31    1.18    1.80   -35.02134   142.74123    36.89905
   172  O   6.0   -0.31    1.16    1.80   -36.66152   141.96042    40.66342
   173  H   1.0    0.10    1.10    1.44   -35.34173   136.40204    30.75888
   174  H   1.0    0.04    1.05    1.44   -38.67692   134.67565    34.64713
   175  H   1.0    0.05    1.03    1.43   -34.83458   137.62605    34.86202
   176  H   1.0    0.07    1.04    1.43   -36.74597   139.97271    33.48976
   177  H   1.0    0.06    1.02    1.43   -39.73823   139.48204    37.25435
   178  H   1.0    0.04    1.01    1.43   -37.43501   137.50584    38.65797
   179  N   5.0   -0.13    3.57    2.13   -41.65189   136.68890    30.22525
   180  C   4.0    0.04    4.54    4.59   -44.20816   137.27821    29.42661
   181  C   4.0    0.14    3.56    3.14   -45.39799   135.21852    27.82554
   182  O   6.0   -0.31    1.26    1.80   -47.71544   134.87179    27.93116
   183  C   4.0   -0.02    4.27    4.13   -44.29022   139.89375    28.14006
   184  C   4.0   -0.08    4.16    3.92   -46.77641   140.17298    26.70714
   185  C   4.0   -0.07    4.13    3.87   -44.00680   141.88765    30.19732
   186  H   1.0    0.12    1.12    1.45   -40.36152   136.50430    28.84152
   187  H   1.0    0.06    1.09    1.44   -45.34701   137.38297    31.12061
   188  H   1.0    0.06    1.05    1.44   -42.67075   139.99046    26.85043
   189  H   1.0    0.03    1.01    1.43   -46.92990   142.04766    26.00462
   190  H   1.0    0.05    1.00    1.43   -46.78411   138.84217    25.10784
   191  H   1.0    0.04    1.01    1.43   -48.32997   139.69949    27.92503
   192  H   1.0    0.03    1.01    1.43   -44.15035   143.72134    29.41043
   193  H   1.0    0.04    1.00    1.43   -45.41466   141.61331    31.66870
   194  H   1.0    0.06    0.99    1.43   -42.12603   141.71186    31.10853
   195  N   5.0   -0.14    3.51    2.08   -43.87749   133.72899    26.40330
   196  C   4.0    0.04    4.46    4.48   -44.89158   131.24575    25.90298
   197  C   4.0    0.16    3.45    3.10   -45.13975   129.81291    28.41893
   198  O   6.0   -0.29    1.23    1.80   -46.32735   127.84025    28.50224
   199  C   4.0   -0.04    4.18    3.95   -43.55093   129.75364    23.80223
   200  C   4.0   -0.03    4.15    3.90   -45.49669   128.58530    22.00325
   201  C   4.0    0.24    3.05    3.02   -44.48980   127.25820    19.51669
   202  O   6.0   -0.31    1.15    1.80   -42.86285   125.55997    19.77519
   203  O   6.0   -0.32    1.16    1.80   -45.47403   127.94748    17.50561
   204  H   1.0    0.12    1.10    1.44   -42.00305   134.07027    26.22212
   205  H   1.0    0.06    1.09    1.44   -46.83869   131.53755    25.29499
   206  H   1.0    0.05    1.02    1.43   -42.29657   131.03615    22.77186
   207  H   1.0    0.06    1.01    1.43   -42.33300   128.27327    24.62718
   208  H   1.0    0.05    1.03    1.43   -46.56876   127.17079    23.03896
   209  H   1.0    0.04    1.03    1.43   -46.76885   130.07128    21.37317
   210  N   5.0   -0.13    3.57    2.14   -44.22608   130.97352    30.49609
   211  C   4.0    0.05    4.46    4.48   -44.63895   129.86277    32.94750
   212  C   4.0    0.16    3.53    3.13   -47.33690   130.47765    33.70584
   213  O   6.0   -0.27    1.25    1.80   -48.91154   128.84097    34.24696
   214  C   4.0   -0.04    4.26    4.13   -42.90410   130.85556    35.04882
   215  C   4.0   -0.03    4.15    3.90   -40.82178   128.96412    35.71221
   216  C   4.0    0.25    3.09    3.02   -41.90209   126.54156    37.02942
   217  O   6.0   -0.31    1.17    1.80   -41.18885   126.19935    39.26031
   218  O   6.0   -0.30    1.19    1.80   -43.32635   125.17911    35.81271
   219  H   1.0    0.11    1.13    1.45   -42.63676   132.07421    30.28256
   220  H   1.0    0.08    1.07    1.44   -44.45543   127.79745    32.83735
   221  H   1.0    0.05    1.02    1.43   -42.10751   132.68090    34.45625
   222  H   1.0    0.05    1.03    1.43   -44.02521   131.20922    36.76164
   223  H   1.0    0.05    1.02    1.43   -39.84002   128.42704    33.96942
   224  H   1.0    0.04    1.02    1.43   -39.45996   129.83494    37.01399
   225  N   5.0   -0.14    3.50    2.08   -47.84757   132.94368    33.77957
   226  C   4.0    0.04    4.37    4.33   -50.26205   133.74908    34.75893
   227  C   4.0    0.10    3.30    3.05   -52.30717   132.48769    33.18086
   228  O   6.0   -0.30    1.12    1.80   -53.95804   131.19630    34.09764
   229  C   4.0   -0.06    4.25    4.09   -50.58642   136.62106    34.76054
   230  C   4.0   -0.05    4.20    3.99   -51.93805   137.35748    37.22628
   231  C   4.0   -0.02    4.20    4.00   -51.66824   140.18827    37.77857
   232  N   5.0   -0.15    3.41    2.03   -52.27038   140.72986    40.39044
   233  C   4.0    0.08    3.33    3.06   -54.27817   141.88138    41.30044
   234  N   5.0   -0.21    3.25    1.97   -56.22689   142.47206    39.82761
   235  N   5.0   -0.21    3.24    1.96   -54.39273   142.36937    43.78346
   236  H   1.0    0.08    1.07    1.44   -46.43043   134.20990    33.58114
   237  H   1.0    0.05    1.06    1.44   -50.45458   132.99684    36.68706
   238  H   1.0    0.04    1.03    1.43   -48.74121   137.52011    34.68503
   239  H   1.0    0.04    1.03    1.43   -51.67199   137.21213    33.11286
   240  H   1.0    0.04    1.03    1.43   -53.89638   136.78725    37.13689
   241  H   1.0    0.04    1.04    1.43   -51.03365   136.32768    38.76111
   242  H   1.0    0.03    1.03    1.43   -49.69803   140.72285    37.48085
   243  H   1.0    0.03    1.03    1.43   -52.83057   141.29655    36.50506
   244  H   1.0    0.06    1.07    1.44   -50.91208   140.20310    41.64276
   245  H   1.0    0.07    1.04    1.43   -56.25640   142.02652    38.00191
   246  H   1.0    0.06    1.02    1.43   -57.67676   143.57001    40.47777
   247  H   1.0    0.06    1.03    1.43   -52.88023   142.18005    44.89798
   248  H   1.0    0.06    1.02    1.43   -55.80977   143.50424    44.45050
   249  H   1.0    0.08    1.08    1.44   -23.20119   156.45401    10.69615
   250  H   1.0    0.03    1.04    1.43   -24.17640   152.50242     5.51366
   251  H   1.0    0.09    1.07    1.44   -13.94968   151.65737    22.29923
   252  H   1.0    0.06    1.05    1.44   -52.32415   132.70958    31.30428

  Z AO/shell   Hii/eV     exponent
  1     Wed Apr 25 08:07:45 CEST 2018   EN: 2.200 GM2: 0.406  GM3: 0.0800  RAES: 1.40
     1s    -10.707211    1.230000
  6     Wed Apr 25 08:07:45 CEST 2018   EN: 2.550 GM2: 0.538  GM3: 0.1500  RAES: 3.00
     2s    -13.970922    2.096432
     2p    -10.063292    1.800000
  7     Wed Apr 25 08:07:45 CEST 2018   EN: 3.040 GM2: 0.461  GM3:-0.0640  RAES: 1.90
     2s    -16.686243    2.339881
     2p    -12.523956    2.014332
  8     Wed Apr 25 08:07:45 CEST 2018   EN: 3.440 GM2: 0.452  GM3:-0.0517  RAES: 1.80
     2s    -20.229985    2.439742
     2p    -15.503117    2.137023
 no old-style atom pair restraining (fixing) potential

molecular fragmentation (1/2 indicates fragments):
111111111111111111122222222222222222222222222222222222222222222222222222
222222222222222222222222222222222222222222222222222222222222222222222222
222222222222222222222222222222222222222222222222222222222222222222222222
222222222222222222222222222222221122
# atoms in fragment 1/2:    21   231
 fragment masses (1/2) :      115.17     1712.77
CMA distance (Bohr)    :  22.624
constraining FC (au)   :  0.0500
           ------------------------------------------------- 
          |        Self-Consistent Charge Iterations        |
           ------------------------------------------------- 

 Ncao       : 636
 Nao        : 636
 Nshell     : 380
 Nel        : 722
 T(el)      :   500.0
 intcut     :    35.0
 scfconv/Eh :  0.100E-06
   qconv/e  :  0.100E-04
 intneglect :  0.100E-08
 broydamp   :      0.400
 iter      E             dE          RMSdq      gap      omega  full diag
   1   -417.3326763 -0.417333E+03  0.496E+00    3.50       0.0  T
   2   -418.5673279 -0.123465E+01  0.225E+00    2.39       1.0  T
   3   -418.6482627 -0.809348E-01  0.131E+00    2.64       1.0  T
   4   -418.7145733 -0.663106E-01  0.271E-01    1.65       1.0  T
   5   -418.7185901 -0.401677E-02  0.142E-01    1.79       1.0  T
   6   -418.7190483 -0.458274E-03  0.520E-02    1.77       1.0  T
   7   -418.7192088 -0.160458E-03  0.204E-02    1.81       1.0  T
   8   -418.7192187 -0.991666E-05  0.858E-03    1.81       1.0  T
   9   -418.7192231 -0.435764E-05  0.351E-03    1.82       1.8  T
  10   -418.7192234 -0.357331E-06  0.135E-03    1.82       4.7  T
  11   -418.7192235 -0.105898E-06  0.533E-04    1.82      11.8  T
  12   -418.7192235 -0.105316E-07  0.230E-04    1.82      27.4  T
  13   -418.7192235 -0.166818E-08  0.104E-04    1.82      60.7  T
  14   -418.7192235 -0.479645E-09  0.371E-05    1.82     170.0  T
  15   -418.7192235 -0.664500E-10  0.155E-05    1.82     405.5  T
speedup  1.23
cpu  time for SCC    5.87 s
wall time for SCC    4.75 s

   *** convergence criteria satisfied after 15 iterations ***

          eigenvalues
 #    :         349        350        351        352        353        354        355        356
 occ. :        2.000      2.000      2.000      2.000      2.000      2.000      2.000      2.000
 eps  :       -10.482    -10.366    -10.354    -10.228    -10.173    -10.103    -10.100     -9.951
 #    :         357        358        359        360        361        362        363        364
 occ. :        2.000      2.000      2.000      2.000      2.000      0.000      0.000      0.000
 eps  :        -9.856     -9.824     -9.693     -9.665     -9.532     -7.716     -7.547     -7.055
 #    :         365        366        367        368        369        370        371        372
 occ. :        0.000      0.000      0.000      0.000      0.000      0.000      0.000      0.000
 eps  :        -6.719     -6.676     -6.636     -6.523     -6.495     -6.473     -6.442     -6.435


   #   Z            q   n(s)   n(p)   n(d)      C6AA      α(0)
   1   7 N     -0.382  1.305  4.077  0.000    29.875     8.118
   2   6 C      0.035  1.057  2.908  0.000    19.995     6.369
   3   6 C      0.202  1.093  2.706  0.000    23.710     7.974
   4   8 O     -0.370  1.755  4.615  0.000    21.100     6.159
   5   6 C     -0.074  1.064  3.010  0.000    21.909     6.663
   6   6 C     -0.019  1.060  2.959  0.000    20.880     6.499
   7   6 C     -0.107  1.042  3.064  0.000    22.601     6.780
   8   6 C     -0.114  1.044  3.070  0.000    22.750     6.802
   9   1 H      0.154  0.846  0.000  0.000     1.375     1.837
  10   1 H      0.057  0.943  0.000  0.000     2.234     2.337
  11   1 H      0.045  0.955  0.000  0.000     2.385     2.415
  12   1 H      0.044  0.956  0.000  0.000     2.403     2.424
  13   1 H      0.049  0.951  0.000  0.000     2.331     2.388
  14   1 H      0.054  0.946  0.000  0.000     2.267     2.355
  15   1 H      0.030  0.970  0.000  0.000     2.588     2.516
  16   1 H      0.020  0.980  0.000  0.000     2.729     2.583
  17   1 H      0.056  0.944  0.000  0.000     2.245     2.343
  18   1 H      0.037  0.963  0.000  0.000     2.489     2.467
  19   1 H      0.030  0.970  0.000  0.000     2.593     2.518
  20   7 N     -0.401  1.318  4.083  0.000    30.395     8.188
  21   6 C      0.024  1.057  2.919  0.000    20.176     6.397
  22   6 C      0.266  1.042  2.691  0.000    22.505     7.770
  23   8 O     -0.521  1.758  4.763  0.000    24.251     6.603
  24   6 C     -0.070  1.061  3.009  0.000    21.845     6.654
  25   6 C     -0.072  1.055  3.016  0.000    21.870     6.658
  26   6 C     -0.007  1.052  2.955  0.000    20.803     6.511
  27   7 N     -0.168  1.249  3.920  0.000    24.642     7.373
  28   6 C      0.246  1.011  2.743  0.000    22.871     7.830
  29   7 N     -0.236  1.229  4.008  0.000    26.184     7.600
  30   7 N     -0.233  1.233  4.000  0.000    26.107     7.589
  31   1 H      0.185  0.815  0.000  0.000     1.186     1.706
  32   1 H      0.032  0.968  0.000  0.000     2.552     2.498
  33   1 H      0.066  0.934  0.000  0.000     2.127     2.281
  34   1 H      0.045  0.955  0.000  0.000     2.382     2.413
  35   1 H      0.035  0.965  0.000  0.000     2.522     2.483
  36   1 H      0.079  0.921  0.000  0.000     1.988     2.205
  37   1 H      0.053  0.947  0.000  0.000     2.282     2.363
  38   1 H      0.071  0.929  0.000  0.000     2.073     2.252
  39   1 H      0.234  0.766  0.000  0.000     0.950     1.527
  40   1 H      0.216  0.784  0.000  0.000     1.028     1.588
  41   1 H      0.238  0.762  0.000  0.000     0.933     1.513
  42   1 H      0.269  0.731  0.000  0.000     0.813     1.412
  43   1 H      0.254  0.746  0.000  0.000     0.870     1.461
  44   7 N     -0.168  1.239  3.929  0.000    24.638     7.372
  45   6 C      0.005  1.067  2.928  0.000    20.495     6.445
  46   6 C      0.277  1.042  2.682  0.000    22.318     7.736
  47   8 O     -0.472  1.735  4.737  0.000    23.178     6.455
  48   6 C     -0.083  1.058  3.025  0.000    22.091     6.692
  49   6 C     -0.088  1.059  3.029  0.000    22.191     6.708
  50   6 C     -0.025  1.053  2.972  0.000    21.123     6.561
  51   7 N     -0.136  1.212  3.924  0.000    23.956     7.269
  52   6 C      0.236  1.020  2.744  0.000    23.066     7.863
  53   7 N     -0.245  1.257  3.988  0.000    26.396     7.631
  54   7 N     -0.258  1.254  4.004  0.000    26.693     7.673
  55   1 H      0.232  0.768  0.000  0.000     0.957     1.532
  56   1 H      0.103  0.897  0.000  0.000     1.761     2.075
  57   1 H      0.064  0.936  0.000  0.000     2.158     2.297
  58   1 H      0.072  0.928  0.000  0.000     2.061     2.245
  59   1 H      0.080  0.920  0.000  0.000     1.979     2.200
  60   1 H      0.096  0.904  0.000  0.000     1.821     2.110
  61   1 H      0.077  0.923  0.000  0.000     2.010     2.217
  62   1 H      0.100  0.900  0.000  0.000     1.782     2.088
  63   1 H      0.215  0.785  0.000  0.000     1.031     1.590
  64   1 H      0.251  0.749  0.000  0.000     0.879     1.469
  65   1 H      0.257  0.743  0.000  0.000     0.856     1.449
  66   1 H      0.240  0.760  0.000  0.000     0.923     1.505
  67   1 H      0.257  0.743  0.000  0.000     0.857     1.450
  68   7 N     -0.186  1.249  3.938  0.000    25.037     7.431
  69   6 C      0.021  1.066  2.913  0.000    20.222     6.402
  70   6 C      0.269  1.048  2.683  0.000    22.459     7.760
  71   8 O     -0.492  1.749  4.743  0.000    23.601     6.513
  72   6 C     -0.055  1.057  2.998  0.000    21.571     6.613
  73   6 C     -0.100  1.079  3.020  0.000    22.405     6.740
  74   6 C      0.371  1.025  2.603  0.000    20.708     7.447
  75   8 O     -0.638  1.775  4.863  0.000    27.066     6.975
  76   8 O     -0.637  1.770  4.868  0.000    27.056     6.974
  77   1 H      0.209  0.791  0.000  0.000     1.059     1.612
  78   1 H      0.087  0.913  0.000  0.000     1.912     2.163
  79   1 H      0.040  0.960  0.000  0.000     2.449     2.447
  80   1 H      0.036  0.964  0.000  0.000     2.503     2.474
  81   1 H      0.019  0.981  0.000  0.000     2.743     2.590
  82   1 H      0.034  0.966  0.000  0.000     2.535     2.490
  83   7 N     -0.177  1.247  3.930  0.000    24.830     7.401
  84   6 C      0.027  1.070  2.903  0.000    20.134     6.390
  85   6 C      0.289  1.045  2.666  0.000    22.096     7.698
  86   8 O     -0.507  1.746  4.761  0.000    23.932     6.559
  87   6 C     -0.044  1.052  2.992  0.000    21.364     6.582
  88   6 C     -0.095  1.069  3.026  0.000    22.318     6.727
  89   6 C      0.377  1.019  2.605  0.000    20.621     7.431
  90   8 O     -0.627  1.764  4.862  0.000    26.781     6.938
  91   8 O     -0.629  1.763  4.867  0.000    26.854     6.948
  92   1 H      0.207  0.793  0.000  0.000     1.072     1.622
  93   1 H      0.054  0.946  0.000  0.000     2.276     2.359
  94   1 H      0.046  0.954  0.000  0.000     2.369     2.407
  95   1 H      0.040  0.960  0.000  0.000     2.450     2.448
  96   1 H      0.014  0.986  0.000  0.000     2.822     2.627
  97   1 H      0.020  0.980  0.000  0.000     2.728     2.583
  98   7 N     -0.178  1.246  3.931  0.000    24.852     7.404
  99   6 C      0.039  1.052  2.909  0.000    19.917     6.354
 100   6 C      0.276  1.045  2.679  0.000    22.337     7.743
 101   8 O     -0.504  1.739  4.765  0.000    23.875     6.551
 102   6 C     -0.057  1.054  3.003  0.000    21.593     6.615
 103   6 C     -0.096  1.073  3.023  0.000    22.330     6.729
 104   6 C      0.367  1.025  2.609  0.000    20.781     7.460
 105   8 O     -0.629  1.755  4.873  0.000    26.831     6.945
 106   8 O     -0.638  1.775  4.863  0.000    27.080     6.977
 107   1 H      0.213  0.787  0.000  0.000     1.041     1.598
 108   1 H      0.058  0.942  0.000  0.000     2.223     2.332
 109   1 H      0.067  0.933  0.000  0.000     2.113     2.273
 110   1 H      0.045  0.955  0.000  0.000     2.381     2.413
 111   1 H      0.041  0.959  0.000  0.000     2.434     2.440
 112   1 H      0.010  0.990  0.000  0.000     2.890     2.658
 113   7 N     -0.181  1.257  3.925  0.000    24.930     7.416
 114   6 C      0.015  1.063  2.922  0.000    20.293     6.409
 115   6 C      0.276  1.045  2.679  0.000    22.328     7.738
 116   8 O     -0.488  1.743  4.745  0.000    23.526     6.503
 117   6 C      0.074  1.038  2.887  0.000    19.562     6.339
 118   8 O     -0.473  1.717  4.756  0.000    22.309     6.376
 119   1 H      0.223  0.777  0.000  0.000     0.998     1.565
 120   1 H      0.108  0.892  0.000  0.000     1.715     2.048
 121   1 H      0.077  0.923  0.000  0.000     2.012     2.218
 122   1 H      0.025  0.975  0.000  0.000     2.660     2.551
 123   1 H      0.359  0.641  0.000  0.000     0.568     1.183
 124   7 N     -0.197  1.247  3.949  0.000    25.272     7.466
 125   6 C      0.033  1.053  2.914  0.000    20.022     6.371
 126   6 C      0.283  1.046  2.670  0.000    22.204     7.717
 127   8 O     -0.487  1.742  4.745  0.000    23.488     6.498
 128   6 C     -0.130  1.046  3.084  0.000    23.064     6.849
 129   1 H      0.225  0.775  0.000  0.000     0.988     1.557
 130   1 H      0.064  0.936  0.000  0.000     2.153     2.295
 131   1 H      0.047  0.953  0.000  0.000     2.358     2.402
 132   1 H      0.073  0.927  0.000  0.000     2.051     2.240
 133   1 H      0.073  0.927  0.000  0.000     2.053     2.240
 134   7 N     -0.186  1.255  3.931  0.000    25.029     7.430
 135   6 C      0.032  1.058  2.910  0.000    20.030     6.371
 136   6 C      0.289  1.039  2.672  0.000    22.102     7.698
 137   8 O     -0.495  1.745  4.750  0.000    23.670     6.523
 138   6 C     -0.133  1.043  3.090  0.000    23.108     6.854
 139   1 H      0.213  0.787  0.000  0.000     1.040     1.597
 140   1 H      0.052  0.948  0.000  0.000     2.294     2.369
 141   1 H      0.078  0.922  0.000  0.000     2.003     2.213
 142   1 H      0.074  0.926  0.000  0.000     2.038     2.233
 143   1 H      0.073  0.927  0.000  0.000     2.049     2.238
 144   7 N     -0.186  1.245  3.941  0.000    25.033     7.431
 145   6 C      0.025  1.059  2.916  0.000    20.163     6.394
 146   6 C      0.282  1.044  2.675  0.000    22.229     7.721
 147   8 O     -0.503  1.742  4.760  0.000    23.844     6.547
 148   6 C     -0.137  1.046  3.092  0.000    23.192     6.866
 149   1 H      0.219  0.781  0.000  0.000     1.016     1.579
 150   1 H      0.076  0.924  0.000  0.000     2.023     2.224
 151   1 H      0.074  0.926  0.000  0.000     2.047     2.237
 152   1 H      0.092  0.908  0.000  0.000     1.861     2.133
 153   1 H      0.068  0.932  0.000  0.000     2.107     2.270
 154   7 N     -0.176  1.248  3.929  0.000    24.821     7.399
 155   6 C      0.025  1.060  2.915  0.000    20.157     6.393
 156   6 C      0.281  1.037  2.682  0.000    22.248     7.724
 157   8 O     -0.494  1.741  4.753  0.000    23.663     6.522
 158   6 C     -0.137  1.043  3.094  0.000    23.189     6.865
 159   1 H      0.227  0.773  0.000  0.000     0.979     1.550
 160   1 H      0.070  0.930  0.000  0.000     2.087     2.259
 161   1 H      0.064  0.936  0.000  0.000     2.147     2.291
 162   1 H      0.095  0.905  0.000  0.000     1.831     2.116
 163   1 H      0.069  0.931  0.000  0.000     2.100     2.266
 164   7 N     -0.184  1.249  3.936  0.000    24.998     7.426
 165   6 C      0.032  1.060  2.908  0.000    20.045     6.377
 166   6 C      0.274  1.046  2.680  0.000    22.370     7.745
 167   8 O     -0.494  1.747  4.747  0.000    23.652     6.520
 168   6 C     -0.041  1.049  2.992  0.000    21.313     6.572
 169   6 C     -0.100  1.075  3.025  0.000    22.410     6.742
 170   6 C      0.376  1.023  2.601  0.000    20.634     7.434
 171   8 O     -0.638  1.765  4.873  0.000    27.076     6.976
 172   8 O     -0.642  1.765  4.877  0.000    27.167     6.988
 173   1 H      0.222  0.778  0.000  0.000     1.000     1.567
 174   1 H      0.055  0.945  0.000  0.000     2.261     2.352
 175   1 H      0.031  0.969  0.000  0.000     2.574     2.509
 176   1 H      0.039  0.961  0.000  0.000     2.462     2.454
 177   1 H      0.048  0.952  0.000  0.000     2.346     2.395
 178   1 H      0.013  0.987  0.000  0.000     2.841     2.636
 179   7 N     -0.185  1.255  3.930  0.000    25.014     7.428
 180   6 C      0.021  1.062  2.917  0.000    20.217     6.401
 181   6 C      0.267  1.051  2.682  0.000    22.488     7.767
 182   8 O     -0.484  1.745  4.739  0.000    23.437     6.491
 183   6 C     -0.010  1.061  2.949  0.000    20.723     6.475
 184   6 C     -0.126  1.040  3.086  0.000    22.962     6.832
 185   6 C     -0.114  1.039  3.074  0.000    22.729     6.797
 186   1 H      0.203  0.797  0.000  0.000     1.093     1.638
 187   1 H      0.083  0.917  0.000  0.000     1.949     2.183
 188   1 H      0.032  0.968  0.000  0.000     2.556     2.500
 189   1 H      0.078  0.922  0.000  0.000     2.001     2.212
 190   1 H      0.031  0.969  0.000  0.000     2.570     2.507
 191   1 H      0.070  0.930  0.000  0.000     2.081     2.256
 192   1 H      0.067  0.933  0.000  0.000     2.116     2.275
 193   1 H      0.061  0.939  0.000  0.000     2.191     2.315
 194   1 H      0.021  0.979  0.000  0.000     2.717     2.578
 195   7 N     -0.204  1.260  3.944  0.000    25.445     7.492
 196   6 C      0.028  1.065  2.907  0.000    20.091     6.379
 197   6 C      0.282  1.047  2.670  0.000    22.220     7.719
 198   8 O     -0.501  1.752  4.750  0.000    23.817     6.543
 199   6 C     -0.041  1.051  2.990  0.000    21.311     6.573
 200   6 C     -0.096  1.072  3.024  0.000    22.343     6.731
 201   6 C      0.371  1.027  2.602  0.000    20.707     7.446
 202   8 O     -0.650  1.774  4.876  0.000    27.376     7.015
 203   8 O     -0.625  1.761  4.864  0.000    26.733     6.932
 204   1 H      0.218  0.782  0.000  0.000     1.017     1.580
 205   1 H      0.086  0.914  0.000  0.000     1.920     2.167
 206   1 H      0.042  0.958  0.000  0.000     2.418     2.432
 207   1 H      0.021  0.979  0.000  0.000     2.718     2.578
 208   1 H      0.020  0.980  0.000  0.000     2.730     2.584
 209   1 H      0.026  0.974  0.000  0.000     2.646     2.544
 210   7 N     -0.225  1.276  3.948  0.000    25.905     7.559
 211   6 C      0.038  1.051  2.911  0.000    19.933     6.356
 212   6 C      0.279  1.044  2.677  0.000    22.284     7.732
 213   8 O     -0.496  1.756  4.739  0.000    23.689     6.526
 214   6 C     -0.043  1.055  2.988  0.000    21.344     6.577
 215   6 C     -0.091  1.070  3.021  0.000    22.237     6.715
 216   6 C      0.376  1.021  2.604  0.000    20.638     7.434
 217   8 O     -0.648  1.767  4.881  0.000    27.328     7.009
 218   8 O     -0.623  1.767  4.857  0.000    26.701     6.928
 219   1 H      0.224  0.776  0.000  0.000     0.992     1.560
 220   1 H      0.066  0.934  0.000  0.000     2.126     2.280
 221   1 H      0.026  0.974  0.000  0.000     2.649     2.545
 222   1 H      0.031  0.969  0.000  0.000     2.573     2.508
 223   1 H      0.010  0.990  0.000  0.000     2.887     2.657
 224   1 H      0.019  0.981  0.000  0.000     2.743     2.590
 225   7 N     -0.173  1.246  3.927  0.000    24.750     7.389
 226   6 C      0.028  1.060  2.912  0.000    20.091     6.381
 227   6 C      0.218  1.077  2.705  0.000    23.396     7.922
 228   8 O     -0.346  1.738  4.608  0.000    20.638     6.091
 229   6 C     -0.080  1.057  3.023  0.000    22.018     6.680
 230   6 C     -0.088  1.058  3.030  0.000    22.181     6.704
 231   6 C     -0.027  1.052  2.975  0.000    21.141     6.561
 232   7 N     -0.131  1.203  3.928  0.000    23.851     7.253
 233   6 C      0.235  1.016  2.749  0.000    23.073     7.864
 234   7 N     -0.243  1.224  4.019  0.000    26.338     7.622
 235   7 N     -0.262  1.244  4.018  0.000    26.804     7.689
 236   1 H      0.193  0.807  0.000  0.000     1.142     1.674
 237   1 H      0.085  0.915  0.000  0.000     1.928     2.172
 238   1 H      0.065  0.935  0.000  0.000     2.147     2.291
 239   1 H      0.081  0.919  0.000  0.000     1.973     2.197
 240   1 H      0.087  0.913  0.000  0.000     1.904     2.158
 241   1 H      0.067  0.933  0.000  0.000     2.119     2.276
 242   1 H      0.081  0.919  0.000  0.000     1.968     2.194
 243   1 H      0.100  0.900  0.000  0.000     1.786     2.090
 244   1 H      0.228  0.772  0.000  0.000     0.973     1.545
 245   1 H      0.244  0.756  0.000  0.000     0.908     1.492
 246   1 H      0.263  0.737  0.000  0.000     0.834     1.431
 247   1 H      0.243  0.757  0.000  0.000     0.911     1.495
 248   1 H      0.262  0.738  0.000  0.000     0.840     1.436
 249   1 H      0.186  0.814  0.000  0.000     1.182     1.703
 250   1 H      0.072  0.928  0.000  0.000     2.067     2.248
 251   1 H      0.169  0.831  0.000  0.000     1.276     1.769
 252   1 H      0.064  0.936  0.000  0.000     2.148     2.292

 Mol. C6AA /au·bohr⁶  :     611346.057737
 Mol. C8AA /au·bohr⁸  :   13480823.447803
 Mol. α(0) /au        :       1160.848654

 
molecular dipole:
                 x           y           z       tot (Debye)
 q only:      104.616    -396.012    -105.882
   full:      107.330    -395.207    -105.007    1074.597
molecular quadrupole (traceless):
                xx          xy          yy          xz          yz          zz
 q only:    24263.856   19954.832  -49041.707    4491.778  -21218.549   24777.852
  q+dip:    23921.243   20475.814  -48722.415    4605.268  -20988.446   24801.171
   full:    23918.753   20471.438  -48718.552    4605.965  -20988.173   24799.799
speedup  1.30
cpu  time for grad    7.00 s
wall time for grad    5.40 s

SCC energy    :    -418.7267105
rep           :       4.6077274
ES            :       2.3337305
AES           :      -0.0786035
AXC           :       0.1013396
disp          :      -0.3181724
XB            :       0.0000000
fix           :       0.0000000
Gborn         :       0.0000000
Gsasa         :       0.0000000
Ghb           :       0.0000000
Gshift        :       0.0000000
Gsolv         :      -0.9619329     -603.62
Etot ala COSMO:    -418.7267105
grad norm     :       0.3784479
total E       :    -414.0982953
atomizationE  :      72.7384504    45644.07
(atE without considering molecular charge,
 total energy contains solvation terms)
H-L gap (eV)  :          1.8159

------------------------------------------------------------------------
 * finished run on 2019/05/11 at 21:00:53.702     
------------------------------------------------------------------------
 total:
 * wall-time:     0 d,  0 h,  0 min,  6.133 sec
 *  cpu-time:     0 d,  0 h,  0 min,  7.622 sec
 * ratio c/w:     1.243 speedup
 SCF:
 * wall-time:     0 d,  0 h,  0 min,  5.725 sec
 *  cpu-time:     0 d,  0 h,  0 min,  7.411 sec
 * ratio c/w:     1.294 speedup

