      -----------------------------------------------------------      
     |                   =====================                   |     
     |                           x T B                           |     
     |                   =====================                   |     
     |                         S. Grimme                         |     
     |          Mulliken Center for Theoretical Chemistry        |     
     |                    University of Bonn                     |     
     |                 Version 6.0.1 (SAW181210)                 |     
      -----------------------------------------------------------      

   This program is distributed in the hope that it will be useful,
   but WITHOUT ANY WARRANTY; without even the implied warranty of
   MERCHANTABILITY or FITNESS FOR A PARTICULAR PURPOSE.
   
   FOR NON-COMMERCIAL, ACADEMIA USE ONLY.
   
   Cite this work as:
   S. Grimme, C. Bannwarth, P. Shushkov, J. Comput. Theory Chem., 2017,
   13, 1989-2009.
   C. Bannwarth, S. Ehlert and S. Grimme., ChemRxiv, 2018, preprint.
   http://doi.org/10.26434/chemrxiv.7246238.v1
   
   for sTDA-xTB:
   S. Grimme and C. Bannwarth, J. Chem. Phys., 2016, 145, 054103.
   
   in the mass-spec context:
   V. Asgeirsson, C. Bauer and S. Grimme, Chem. Sci., 2017, 8, 4879.
   
   if GBSA is used:
   P. Shushkov, F. März and S. Grimme, unpublished.
   
   for ANC optimizer:
   S. Grimme, unpublished.
   Rational Function algorithm used in ANCopt:
   F. Eckert, P. Pulay, H.-J. Werner, J. Comput. Chem., 1997, 18, 1473.
   
   with help from (in alphabetical order)
   C. Bannwarth, F. Bohle, G. Brandenburg, E. Caldeweyher, M. Checinski,
   S. Dohm, S. Ehlert, S. Ehrlich, F. März, H. Neugebauer, J. Pisarek,
   P. Pracht, P. Shushkov, and S. Spicher.
   
 * started run on 2019/05/04 at 19:51:50.371     
========================================================================
 # omp threads = 2
========================================================================
number of atoms            : 284
number of electrons        : 770
charge                     : 0
spin                       : .0
first test random number   : .9411

########################################################################
# WARNING! Please study the warnings concerning your input carefully
#  - Process number higher than OMP_NUM_THREADS, I hope you know what you are doing.
########################################################################

           ------------------------------------------------- 
          |                 G F N 2 - x T B                 |
          | Geometry, Frequencies, Noncovalent interactions |
          |            JCTC 2018 parametrisation            |
           ------------------------------------------------- 
 
      method parameters     
 k(s)        :  1.8500
 k(p)        :  2.2300
 k(d)        :  2.2300
 k(f)        :  2.0000
 kEN (H0ij)  : -2.0000
 D4 a1       :  0.5200
 D4 a2       :  5.0000
 D4 s6       :  1.0000
 D4 s8       :  2.7000
 D4 s9       :  5.0000
 alphaj      :  2.0000

 Solvent             : h2o
 Using internal parameter file: .param_gbsa2_h2o
 Gsolv ref. state (COSMO-RS): gsolv [1 M gas/solution]
 temperature (mdtemp)       :    298.150000000000     
 dielectric constant        :    80.2000000000000     
 rho                        :    1.00000000000000     
 mass                       :    18.0000000000000     
 surface tension            :    15.5689454083859     
 probe radius               :   0.975313790000000     
 vdW radii scaling          :    1.00000000000000     
 Gshift (Eh)                :   1.857443126794793E-003
 c1                         :    1.55243817000000     
 soset                      :   0.130326360000000     
 HB correction              :  T

            Z     q(EN)     CN     RAES       Cart. coordinates
     1  N   5.0   -0.20    3.21    1.96    38.59198    60.16509    26.26908
     2  C   4.0    0.03    4.22    4.03    37.94759    58.18277    24.41715
     3  C   4.0    0.09    3.22    3.04    35.06198    57.84829    24.34345
     4  O   6.0   -0.27    1.12    1.80    33.82232    57.35129    26.25585
     5  C   4.0   -0.03    4.36    4.31    39.11733    55.73369    25.37902
     6  C   4.0   -0.01    3.57    3.15    38.53151    53.49436    23.70094
     7  C   4.0   -0.04    3.46    3.10    39.45181    53.50192    21.27076
     8  C   4.0   -0.03    3.44    3.09    37.23327    51.38543    24.65336
     9  C   4.0   -0.04    3.38    3.07    38.76584    51.54983    19.65315
    10  C   4.0   -0.04    3.35    3.06    36.58698    49.40311    23.03009
    11  C   4.0   -0.03    3.38    3.07    37.31642    49.53917    20.53376
    12  H   1.0    0.10    1.02    1.43    38.24049    59.72290    28.10022
    13  H   1.0    0.04    1.04    1.44    38.65245    58.74591    22.56711
    14  H   1.0    0.04    1.03    1.43    41.16768    55.98124    25.49807
    15  H   1.0    0.06    1.04    1.43    38.40112    55.37842    27.27630
    16  H   1.0    0.05    1.03    1.43    40.56108    55.07039    20.58290
    17  H   1.0    0.06    1.03    1.43    36.70793    51.36842    26.62435
    18  H   1.0    0.05    1.03    1.43    39.39890    51.54983    17.71618
    19  H   1.0    0.05    1.03    1.43    35.56464    47.78361    23.73307
    20  H   1.0    0.05    1.03    1.43    36.82698    48.03116    19.24497
    21  N   5.0   -0.22    3.23    1.96    44.95847    29.03186    22.62758
    22  C   4.0    0.02    4.28    4.17    44.95469    31.75118    23.03198
    23  C   4.0    0.14    3.42    3.08    42.54151    32.55620    24.47195
    24  O   6.0   -0.33    1.27    1.80    42.50183    34.22672    26.09145
    25  C   4.0   -0.04    4.27    4.13    45.16067    33.10044    20.46006
    26  C   4.0   -0.03    4.23    4.05    45.24949    35.97660    20.80777
    27  C   4.0    0.16    3.22    3.04    45.42523    37.31453    18.27554
    28  O   6.0   -0.27    1.21    1.80    46.80473    36.48305    16.59557
    29  N   5.0   -0.18    3.18    1.95    43.97581    39.34598    17.96373
    30  H   1.0    0.08    1.03    1.43    44.55785    28.36668    20.88903
    31  H   1.0    0.04    1.05    1.44    46.59119    32.22739    24.21306
    32  H   1.0    0.06    1.03    1.43    46.87276    32.45793    19.50953
    33  H   1.0    0.05    1.02    1.43    43.54118    32.55998    19.29977
    34  H   1.0    0.05    1.03    1.43    43.60165    36.63045    21.85279
    35  H   1.0    0.05    1.03    1.43    46.94646    36.46415    21.87925
    36  H   1.0    0.08    1.03    1.43    42.84009    40.02062    19.33379
    37  H   1.0    0.10    1.03    1.43    44.06652    40.30219    16.29700
    38  N   5.0   -0.15    3.47    2.06    40.38911    31.45638    23.66882
    39  C   4.0    0.04    4.35    4.29    38.05719    31.96849    24.97273
    40  C   4.0    0.08    3.22    3.04    38.14790    31.06520    27.72795
    41  O   6.0   -0.31    1.13    1.80    37.09721    32.36534    29.37768
    42  C   4.0   -0.05    4.35    4.30    35.82542    30.70238    23.56488
    43  C   4.0   -0.02    4.18    3.96    35.33976    32.00062    21.02509
    44  C   4.0   -0.08    4.08    3.76    33.69948    30.25829    19.38292
    45  C   4.0   -0.08    4.10    3.80    34.24372    34.62356    21.55043
    46  H   1.0    0.07    1.07    1.44    40.46281    30.05231    22.38191
    47  H   1.0    0.05    1.06    1.44    37.79452    34.02074    25.05777
    48  H   1.0    0.04    1.03    1.43    36.32809    28.71817    23.28709
    49  H   1.0    0.04    1.03    1.43    34.13979    30.79686    24.74596
    50  H   1.0    0.04    1.06    1.44    37.15012    32.22172    20.04054
    51  H   1.0    0.04    1.00    1.43    33.12312    31.20315    17.65004
    52  H   1.0    0.04    1.00    1.43    34.79552    28.60856    18.85002
    53  H   1.0    0.04    1.00    1.43    32.01196    29.65736    20.39203
    54  H   1.0    0.04    1.00    1.43    33.52374    35.43614    19.80244
    55  H   1.0    0.04    1.00    1.43    32.71872    34.48939    22.91860
    56  H   1.0    0.04    1.00    1.43    35.69314    35.88023    22.27042
    57  N   5.0   -0.20    3.22    1.96    43.03095    30.85545    31.21827
    58  C   4.0    0.03    4.29    4.18    44.59186    32.63557    32.62045
    59  C   4.0    0.15    3.39    3.08    43.14055    35.15268    33.09477
    60  O   6.0   -0.32    1.29    1.80    43.25772    36.21849    35.15457
    61  C   4.0   -0.05    4.28    4.16    47.09953    33.03430    31.23339
    62  C   4.0   -0.03    4.21    4.02    48.94012    34.64624    32.67525
    63  C   4.0    0.15    3.20    3.04    51.49314    35.08087    31.35622
    64  O   6.0   -0.28    1.19    1.80    52.82918    36.88745    31.89857
    65  N   5.0   -0.19    3.19    1.95    52.26226    33.26296    29.72917
    66  H   1.0    0.09    1.02    1.43    43.55251    30.31309    29.46083
    67  H   1.0    0.04    1.05    1.44    44.97170    31.82110    34.49128
    68  H   1.0    0.04    1.04    1.43    47.87243    31.14646    30.92914
    69  H   1.0    0.05    1.03    1.43    46.68757    33.86011    29.38146
    70  H   1.0    0.06    1.03    1.43    48.15211    36.50384    33.09288
    71  H   1.0    0.05    1.03    1.43    49.38421    33.75995    34.48939
    72  H   1.0    0.08    1.03    1.43    51.04717    32.01007    28.98084
    73  H   1.0    0.10    1.03    1.43    53.85530    33.58421    28.73706
    74  N   5.0   -0.14    3.45    2.05    41.77617    35.99550    31.20882
    75  C   4.0    0.04    4.42    4.41    40.18502    38.35955    31.52252
    76  C   4.0    0.16    3.46    3.10    38.48805    38.18002    33.82609
    77  O   6.0   -0.29    1.27    1.80    38.16113    39.97526    35.26985
    78  C   4.0   -0.04    4.29    4.18    38.62600    38.73182    29.12824
    79  C   4.0    0.06    3.76    3.29    37.04997    41.05808    29.26430
    80  N   5.0   -0.19    2.61    1.91    37.98160    43.39945    28.53486
    81  C   4.0   -0.00    3.56    3.15    34.58954    41.32075    30.07121
    82  C   4.0    0.07    3.60    3.17    36.14479    45.01705    28.97139
    83  N   5.0   -0.11    3.45    2.05    34.07554    43.87944    29.85389
    84  H   1.0    0.11    1.09    1.44    41.80074    35.20181    29.46272
    85  H   1.0    0.06    1.05    1.44    41.46059    39.96392    31.81354
    86  H   1.0    0.05    1.03    1.43    39.92235    38.86599    27.53142
    87  H   1.0    0.06    1.03    1.43    37.40146    37.08587    28.88635
    88  H   1.0    0.06    1.03    1.43    33.27996    39.99794    30.83088
    89  H   1.0    0.05    1.02    1.43    36.28085    47.00882    28.61801
    90  H   1.0    0.08    1.05    1.44    32.49384    44.73737    30.49073
    91  N   5.0   -0.14    3.51    2.08    37.30697    35.97093    34.10388
    92  C   4.0    0.04    4.39    4.36    35.47771    35.53441    36.15424
    93  C   4.0    0.15    3.41    3.08    36.69092    33.93759    38.26884
    94  O   6.0   -0.28    1.26    1.80    35.38134    32.75840    39.80141
    95  C   4.0   -0.02    4.32    4.23    33.08532    34.20971    35.15079
    96  C   4.0   -0.01    3.54    3.13    31.49417    35.80653    33.43681
    97  C   4.0   -0.04    3.49    3.11    30.30931    37.95326    34.37412
    98  C   4.0   -0.04    3.44    3.09    31.35055    35.31709    30.85356
    99  C   4.0   -0.03    3.43    3.09    28.90525    39.56141    32.86800
   100  C   4.0   -0.05    3.43    3.09    29.66303    36.71926    29.40225
   101  C   4.0    0.07    3.45    3.09    28.44793    38.84332    30.37734
   102  O   6.0   -0.25    2.16    1.85    26.94938    40.37966    28.99407
   103  H   1.0    0.10    1.08    1.44    37.49405    34.58954    32.79619
   104  H   1.0    0.07    1.06    1.44    35.02418    37.38634    36.95926
   105  H   1.0    0.06    1.03    1.43    33.68059    32.49762    34.16247
   106  H   1.0    0.06    1.03    1.43    31.99495    33.64468    36.81186
   107  H   1.0    0.06    1.03    1.43    30.57010    38.42380    36.34321
   108  H   1.0    0.06    1.03    1.43    32.37856    33.75806    30.04097
   109  H   1.0    0.07    1.03    1.43    28.09834    41.26217    33.63523
   110  H   1.0    0.05    1.03    1.43    29.46083    36.24683    27.42937
   111  H   1.0    0.12    1.03    1.43    26.59789    39.65401    27.34811
   112  N   5.0   -0.13    3.46    2.05    39.18725    34.20215    38.54852
   113  C   4.0    0.04    4.26    4.11    40.53084    32.75084    40.43447
   114  C   4.0    0.10    3.25    3.04    39.34976    33.15902    43.09709
   115  O   6.0   -0.27    1.11    1.80    39.30630    31.37323    44.58241
   116  C   4.0   -0.06    4.12    3.84    43.27661    33.50106    40.60643
   117  H   1.0    0.11    1.10    1.44    40.27573    35.11111    37.25784
   118  H   1.0    0.06    1.05    1.44    40.33053    30.72316    40.04707
   119  H   1.0    0.05    1.00    1.43    44.24604    32.22550    41.88767
   120  H   1.0    0.06    1.00    1.43    44.15912    33.39335    38.75639
   121  H   1.0    0.06    1.00    1.43    43.44102    35.42291    41.31697
   122  N   5.0   -0.19    3.24    1.97    23.58378    51.21346    24.38691
   123  C   4.0    0.04    4.22    4.04    25.08611    51.20968    26.65458
   124  C   4.0    0.09    3.28    3.05    26.39758    53.77782    26.87190
   125  O   6.0   -0.27    1.14    1.80    27.20261    54.81339    24.92360
   126  C   4.0   -0.04    4.31    4.21    27.24607    49.21791    26.32388
   127  C   4.0    0.05    3.79    3.33    29.21327    49.47114    28.30620
   128  N   5.0   -0.19    2.60    1.91    29.07154    48.37887    30.64758
   129  C   4.0   -0.00    3.63    3.19    31.37890    50.83552    28.14558
   130  C   4.0    0.08    3.64    3.19    31.12757    49.08941    31.85511
   131  N   5.0   -0.11    3.47    2.06    32.58077    50.60308    30.38868
   132  H   1.0    0.10    1.03    1.43    24.46250    51.82762    22.79765
   133  H   1.0    0.05    1.04    1.43    23.89747    50.80528    28.28731
   134  H   1.0    0.05    1.03    1.43    26.42782    47.33197    26.36357
   135  H   1.0    0.05    1.04    1.43    28.11534    49.55806    24.48896
   136  H   1.0    0.07    1.02    1.43    32.13479    51.95801    26.63947
   137  H   1.0    0.06    1.02    1.43    31.62834    48.55084    33.73917
   138  H   1.0    0.12    1.10    1.44    34.29664    51.34574    30.84411
   139  N   5.0   -0.22    3.23    1.96    50.11931    53.59641    34.56309
   140  C   4.0    0.03    4.34    4.28    50.45757    50.89599    34.22861
   141  C   4.0    0.15    3.47    3.10    49.00248    49.98325    31.94771
   142  O   6.0   -0.33    1.34    1.80    49.96057    48.43179    30.51907
   143  C   4.0   -0.05    4.26    4.12    49.61475    49.28594    36.48683
   144  C   4.0   -0.05    4.21    4.02    51.26638    49.93979    38.77718
   145  C   4.0   -0.05    4.14    3.89    50.24781    48.86642    41.25461
   146  C   4.0   -0.04    4.13    3.86    51.99203    49.77916    43.40134
   147  N   5.0   -0.12    4.00    2.87    50.91678    49.29161    45.94491
   148  H   1.0    0.08    1.02    1.43    49.12532    54.24080    36.06353
   149  H   1.0    0.04    1.05    1.44    52.46824    50.54639    33.85066
   150  H   1.0    0.04    1.02    1.43    47.62676    49.67712    36.88745
   151  H   1.0    0.05    1.03    1.43    49.79806    47.29606    35.99361
   152  H   1.0    0.04    1.03    1.43    53.15799    49.19902    38.44647
   153  H   1.0    0.04    1.04    1.43    51.39488    51.98258    38.95859
   154  H   1.0    0.04    1.02    1.43    48.32785    49.54672    41.58720
   155  H   1.0    0.04    1.02    1.43    50.20057    46.81040    41.16579
   156  H   1.0    0.04    1.02    1.43    53.80050    48.80217    43.26906
   157  H   1.0    0.04    1.02    1.43    52.32273    51.80495    43.18024
   158  H   1.0    0.05    1.02    1.43    52.11108    49.93223    47.33386
   159  H   1.0    0.05    1.02    1.43    49.19335    50.18923    46.18868
   160  H   1.0    0.06    1.02    1.43    50.59174    47.38866    46.19057
   161  N   5.0   -0.15    3.47    2.06    46.69702    50.91489    31.64346
   162  C   4.0    0.03    4.42    4.42    45.26272    49.96435    29.44382
   163  C   4.0    0.15    3.43    3.09    46.31340    50.83930    26.90403
   164  O   6.0   -0.32    1.29    1.80    46.41734    49.45413    24.99541
   165  C   4.0   -0.04    4.26    4.11    42.46781    50.86953    29.64980
   166  C   4.0   -0.03    4.22    4.03    41.20169    49.51082    31.84944
   167  C   4.0    0.24    3.13    3.03    38.58631    50.40844    32.50518
   168  O   6.0   -0.31    1.26    1.80    37.57153    52.09030    31.22205
   169  O   6.0   -0.30    1.22    1.80    37.52429    49.37854    34.36278
   170  H   1.0    0.08    1.06    1.44    45.82207    52.04872    32.90958
   171  H   1.0    0.05    1.05    1.44    45.32508    47.89321    29.46272
   172  H   1.0    0.05    1.02    1.43    42.44513    52.90855    29.95216
   173  H   1.0    0.05    1.02    1.43    41.47382    50.46702    27.88858
   174  H   1.0    0.05    1.03    1.43    41.05808    47.48314    31.46394
   175  H   1.0    0.05    1.03    1.43    42.32797    49.70735    33.57098
   176  N   5.0   -0.15    3.49    2.07    47.18079    53.19768    26.82655
   177  C   4.0    0.03    4.48    4.51    48.35242    54.19545    24.56455
   178  C   4.0    0.16    3.47    3.10    50.69757    52.58351    23.81433
   179  O   6.0   -0.29    1.23    1.80    51.15866    52.12620    21.60335
   180  C   4.0   -0.03    4.31    4.21    48.99870    57.02626    24.85934
   181  C   4.0   -0.05    4.17    3.93    46.56285    58.59662    25.04265
   182  C   4.0   -0.07    4.11    3.83    50.71269    57.98246    22.72395
   183  C   4.0   -0.08    4.00    3.62    47.09953    61.30082    26.02153
   184  H   1.0    0.07    1.06    1.44    47.05229    54.35797    28.35156
   185  H   1.0    0.06    1.05    1.44    47.01827    53.96679    22.98285
   186  H   1.0    0.04    1.06    1.44    50.03049    57.20956    26.64514
   187  H   1.0    0.04    1.02    1.43    45.66334    58.68733    23.19261
   188  H   1.0    0.04    1.03    1.43    45.26083    57.68955    26.35790
   189  H   1.0    0.04    1.00    1.43    51.15110    59.96478    22.98663
   190  H   1.0    0.05    1.00    1.43    52.48714    56.94878    22.69372
   191  H   1.0    0.05    1.00    1.43    49.79050    57.71979    20.90793
   192  H   1.0    0.04    1.00    1.43    45.32319    62.32505    26.19727
   193  H   1.0    0.04    1.00    1.43    47.98014    61.19689    27.87157
   194  H   1.0    0.04    1.00    1.43    48.33919    62.32883    24.75541
   195  N   5.0   -0.14    3.53    2.10    52.18667    51.92778    25.68893
   196  C   4.0    0.04    4.36    4.30    54.48269    50.51804    25.21461
   197  C   4.0    0.17    3.43    3.09    53.87042    47.80251    24.36046
   198  O   6.0   -0.27    1.23    1.80    55.16110    46.64789    22.84490
   199  C   4.0   -0.07    4.13    3.86    55.96612    50.36120    27.67504
   200  H   1.0    0.08    1.07    1.44    51.83140    52.44367    27.49551
   201  H   1.0    0.06    1.05    1.44    55.55416    51.40810    23.68394
   202  H   1.0    0.05    1.00    1.43    57.69333    49.29539    27.36512
   203  H   1.0    0.04    1.00    1.43    56.43856    52.24714    28.33077
   204  H   1.0    0.05    1.00    1.43    54.82851    49.41255    29.09611
   205  N   5.0   -0.13    3.52    2.09    51.75392    46.82363    25.25997
   206  C   4.0    0.04    4.43    4.44    50.91489    44.27628    24.63636
   207  C   4.0    0.16    3.47    3.10    49.87365    44.17234    21.99641
   208  O   6.0   -0.30    1.27    1.80    50.47080    42.39222    20.60746
   209  C   4.0   -0.04    4.38    4.34    48.82863    43.45425    26.45616
   210  C   4.0   -0.02    4.19    3.98    47.71369    40.80485    25.94783
   211  C   4.0   -0.06    4.13    3.86    49.73759    38.82442    26.19538
   212  C   4.0   -0.07    4.10    3.80    45.54051    40.26628    27.78464
   213  H   1.0    0.11    1.09    1.44    50.81284    47.68912    26.67915
   214  H   1.0    0.07    1.06    1.44    52.54950    43.00827    24.72517
   215  H   1.0    0.06    1.03    1.43    49.59208    43.48826    28.37424
   216  H   1.0    0.05    1.03    1.43    47.31685    44.85454    26.34089
   217  H   1.0    0.05    1.05    1.44    46.96158    40.78973    24.01653
   218  H   1.0    0.04    1.00    1.43    48.90233    36.94414    26.13491
   219  H   1.0    0.06    1.00    1.43    51.09441    38.97560    24.65714
   220  H   1.0    0.06    1.00    1.43    50.75048    39.03418    27.97172
   221  H   1.0    0.05    1.00    1.43    44.69391    38.44647    27.35378
   222  H   1.0    0.05    1.00    1.43    46.24537    40.22660    29.71594
   223  H   1.0    0.04    1.00    1.43    44.09676    41.72137    27.64480
   224  N   5.0   -0.14    3.43    2.04    48.32596    46.02805    21.23674
   225  C   4.0    0.04    4.31    4.22    47.02394    45.80318    18.76876
   226  C   4.0    0.09    3.20    3.04    48.37698    47.00693    16.53132
   227  O   6.0   -0.27    1.12    1.80    47.78739    46.34364    14.37515
   228  C   4.0   -0.03    4.29    4.18    44.43691    47.14110    18.98419
   229  C   4.0   -0.02    3.67    3.22    42.59820    45.64255    20.55833
   230  C   4.0   -0.01    3.61    3.17    42.42057    45.59531    23.11135
   231  C   4.0   -0.00    3.88    3.44    40.50817    44.14589    19.61347
   232  N   5.0   -0.12    3.51    2.09    40.42124    44.11565    23.85968
   233  C   4.0    0.03    3.91    3.48    39.22315    43.24449    21.75075
   234  C   4.0   -0.05    3.42    3.08    39.51606    43.63377    17.24375
   235  C   4.0   -0.05    3.40    3.08    36.99516    41.82719    21.57500
   236  C   4.0   -0.04    3.37    3.07    37.27673    42.29396    17.03210
   237  C   4.0   -0.04    3.38    3.07    36.07109    41.37744    19.18639
   238  H   1.0    0.11    1.09    1.44    47.84219    47.44346    22.42160
   239  H   1.0    0.07    1.06    1.44    46.78584    43.78684    18.36436
   240  H   1.0    0.05    1.03    1.43    44.73737    48.99303    19.84023
   241  H   1.0    0.05    1.03    1.43    43.64700    47.42456    17.10202
   242  H   1.0    0.06    1.03    1.43    43.56385    46.55151    24.47951
   243  H   1.0    0.09    1.12    1.45    39.78440    43.87755    25.67382
   244  H   1.0    0.06    1.03    1.43    40.41179    44.38966    15.56945
   245  H   1.0    0.05    1.02    1.43    36.04085    41.16768    23.25119
   246  H   1.0    0.05    1.03    1.43    36.45281    41.97648    15.19151
   247  H   1.0    0.05    1.03    1.43    34.34199    40.31541    18.96718
   248  O   6.0   -0.32    2.01    1.83    53.67200    45.10587    31.77574
   249  H   1.0    0.12    0.96    1.43    54.87953    46.02050    32.81320
   250  H   1.0    0.15    1.03    1.43    52.37753    46.30207    31.26930
   251  O   6.0   -0.29    1.93    1.82    25.11257    44.84698    31.24473
   252  H   1.0    0.15    1.01    1.43    25.82877    43.29362    30.64191
   253  H   1.0    0.14    1.04    1.43    26.44671    46.10553    31.12001
   254  O   6.0   -0.29    1.92    1.82    38.18947    39.73716    40.65745
   255  H   1.0    0.13    0.97    1.43    38.99072    41.13178    41.50594
   256  H   1.0    0.16    1.00    1.43    38.28963    40.07731    38.84332
   257  O   6.0   -0.27    1.92    1.82    53.98947    42.23349    16.47841
   258  H   1.0    0.14    0.97    1.43    55.32173    43.24449    17.18328
   259  H   1.0    0.17    1.00    1.43    52.73469    42.06908    17.80311
   260  O   6.0   -0.27    1.95    1.82    35.82731    44.48604    35.71393
   261  H   1.0    0.16    1.01    1.43    36.44148    46.15278    35.28118
   262  H   1.0    0.15    1.03    1.43    34.02830    44.65800    36.01629
   263  O   6.0   -0.31    1.96    1.82    45.87310    41.38689    35.69314
   264  H   1.0    0.13    0.97    1.43    45.93357    41.72326    37.47705
   265  H   1.0    0.15    0.98    1.43    44.97170    39.80708    35.53252
   266  O   6.0   -0.28    1.93    1.82    51.10197    41.68357    35.22260
   267  H   1.0    0.15    0.99    1.43    51.92778    42.52828    33.82609
   268  H   1.0    0.15    1.00    1.43    49.31618    41.62499    34.85222
   269  O   6.0   -0.28    1.92    1.82    56.48580    42.32608    28.32132
   270  H   1.0    0.13    0.97    1.43    58.18088    42.91001    28.58022
   271  H   1.0    0.15    1.01    1.43    55.43700    43.20480    29.54964
   272  O   6.0   -0.31    1.99    1.83    30.93670    44.30274    37.03863
   273  H   1.0    0.13    0.97    1.43    31.53386    42.98749    38.17624
   274  H   1.0    0.13    0.97    1.43    29.58177    45.13799    37.91735
   275  H   1.0    0.09    1.07    1.44    40.25294    60.51699    26.16923
   276  H   1.0    0.06    1.04    1.43    34.13080    58.03298    22.70948
   277  H   1.0    0.09    1.07    1.44    46.49971    28.40708    22.98367
   278  H   1.0    0.05    1.04    1.43    39.04048    29.45836    28.16660
   279  H   1.0    0.09    1.07    1.44    42.91660    29.39610    32.08418
   280  H   1.0    0.07    1.04    1.43    38.64605    34.84793    43.56978
   281  H   1.0    0.09    1.08    1.44    23.05627    49.63149    24.05274
   282  H   1.0    0.06    1.04    1.43    26.59605    54.59730    28.56309
   283  H   1.0    0.09    1.07    1.44    51.63915    54.34441    34.71523
   284  H   1.0    0.07    1.04    1.43    49.71512    48.30851    16.82520

  Z AO/shell   Hii/eV     exponent
  1     Wed Apr 25 08:07:45 CEST 2018   EN: 2.200 GM2: 0.406  GM3: 0.0800  RAES: 1.40
     1s    -10.707211    1.230000
  6     Wed Apr 25 08:07:45 CEST 2018   EN: 2.550 GM2: 0.538  GM3: 0.1500  RAES: 3.00
     2s    -13.970922    2.096432
     2p    -10.063292    1.800000
  7     Wed Apr 25 08:07:45 CEST 2018   EN: 3.040 GM2: 0.461  GM3:-0.0640  RAES: 1.90
     2s    -16.686243    2.339881
     2p    -12.523956    2.014332
  8     Wed Apr 25 08:07:45 CEST 2018   EN: 3.440 GM2: 0.452  GM3:-0.0517  RAES: 1.80
     2s    -20.229985    2.439742
     2p    -15.503117    2.137023
 no old-style atom pair restraining (fixing) potential

molecular fragmentation (1/2 indicates fragments):
111111111111111111112222222222222222222222222222222222222222222222222222
222222222222222222222222222222222222222222222222222222222222222222222222
222222222222222222222222222222222222222222222222222222222222222222222222
22222222222222222222222222222222222222222222222222222222221122222222
# atoms in fragment 1/2:    22   262
 fragment masses (1/2) :      149.19     1789.05
CMA distance (Bohr)    :  13.640
constraining FC (au)   :  0.0500
           ------------------------------------------------- 
          |        Self-Consistent Charge Iterations        |
           ------------------------------------------------- 

 Ncao       : 692
 Nao        : 692
 Nshell     : 420
 Nel        : 770
 T(el)      :   500.0
 intcut     :    35.0
 scfconv/Eh :  0.100E-06
   qconv/e  :  0.100E-04
 intneglect :  0.100E-08
 broydamp   :      0.400
 iter      E             dE          RMSdq      gap      omega  full diag
   1   -442.2923367 -0.442292E+03  0.466E+00    2.81       0.0  T
   2   -443.2306005 -0.938264E+00  0.227E+00    1.49       1.0  T
   3   -443.2873731 -0.567726E-01  0.122E+00    2.07       1.0  T
   4   -443.3692607 -0.818876E-01  0.288E-01    1.53       1.0  T
   5   -443.3737657 -0.450499E-02  0.137E-01    1.71       1.0  T
   6   -443.3754306 -0.166488E-02  0.549E-02    1.65       1.0  T
   7   -443.3757651 -0.334469E-03  0.253E-02    1.65       1.0  T
   8   -443.3757985 -0.334180E-04  0.129E-02    1.65       1.0  T
   9   -443.3758094 -0.109014E-04  0.507E-03    1.65       1.2  T
  10   -443.3758118 -0.242602E-05  0.257E-03    1.65       2.3  T
  11   -443.3758122 -0.358456E-06  0.130E-03    1.65       4.6  T
  12   -443.3758123 -0.147647E-06  0.594E-04    1.65      10.0  T
  13   -443.3758123 -0.250403E-07  0.281E-04    1.65      21.2  T
  14   -443.3758124 -0.469294E-08  0.153E-04    1.65      38.9  T
  15   -443.3758124 -0.180171E-08  0.617E-05    1.65      96.2  T
  16   -443.3758124 -0.302748E-09  0.289E-05    1.65     205.1  T
speedup  1.42
cpu  time for SCC    7.74 s
wall time for SCC    5.45 s

   *** convergence criteria satisfied after 16 iterations ***

          eigenvalues
 #    :         373        374        375        376        377        378        379        380
 occ. :        2.000      2.000      2.000      2.000      2.000      2.000      2.000      2.000
 eps  :       -10.655    -10.600    -10.479    -10.460    -10.399    -10.292    -10.272    -10.251
 #    :         381        382        383        384        385        386        387        388
 occ. :        2.000      2.000      2.000      2.000      2.000      0.000      0.000      0.000
 eps  :       -10.176    -10.131    -10.118     -9.882     -9.751     -8.100     -7.898     -7.799
 #    :         389        390        391        392        393        394        395        396
 occ. :        0.000      0.000      0.000      0.000      0.000      0.000      0.000      0.000
 eps  :        -7.790     -7.616     -6.802     -6.561     -6.419     -6.203     -6.171     -6.156


   #   Z            q   n(s)   n(p)   n(d)      C6AA      α(0)
   1   7 N     -0.382  1.324  4.059  0.000    29.887     8.119
   2   6 C      0.040  1.060  2.900  0.000    19.924     6.358
   3   6 C      0.204  1.090  2.706  0.000    23.656     7.965
   4   8 O     -0.372  1.766  4.606  0.000    21.135     6.164
   5   6 C     -0.064  1.055  3.010  0.000    21.720     6.633
   6   6 C      0.002  1.086  2.912  0.000    27.978     8.676
   7   6 C     -0.046  1.080  2.966  0.000    29.137     8.852
   8   6 C     -0.040  1.085  2.956  0.000    29.006     8.832
   9   6 C     -0.035  1.084  2.952  0.000    28.881     8.813
  10   6 C     -0.030  1.080  2.950  0.000    28.739     8.791
  11   6 C     -0.032  1.080  2.952  0.000    28.805     8.801
  12   1 H      0.162  0.838  0.000  0.000     1.325     1.803
  13   1 H      0.063  0.937  0.000  0.000     2.165     2.301
  14   1 H      0.050  0.950  0.000  0.000     2.317     2.381
  15   1 H      0.053  0.947  0.000  0.000     2.284     2.364
  16   1 H      0.043  0.957  0.000  0.000     2.410     2.427
  17   1 H      0.023  0.977  0.000  0.000     2.690     2.565
  18   1 H      0.041  0.959  0.000  0.000     2.439     2.442
  19   1 H      0.025  0.975  0.000  0.000     2.658     2.550
  20   1 H      0.038  0.962  0.000  0.000     2.478     2.462
  21   7 N     -0.395  1.308  4.087  0.000    30.227     8.165
  22   6 C      0.026  1.064  2.910  0.000    20.153     6.395
  23   6 C      0.259  1.057  2.685  0.000    22.646     7.793
  24   8 O     -0.486  1.742  4.743  0.000    23.469     6.495
  25   6 C     -0.062  1.057  3.005  0.000    21.682     6.629
  26   6 C     -0.093  1.056  3.037  0.000    22.272     6.718
  27   6 C      0.291  1.037  2.672  0.000    22.072     7.692
  28   8 O     -0.516  1.759  4.757  0.000    24.143     6.588
  29   7 N     -0.269  1.258  4.011  0.000    26.969     7.713
  30   1 H      0.167  0.833  0.000  0.000     1.290     1.779
  31   1 H      0.046  0.954  0.000  0.000     2.371     2.408
  32   1 H      0.062  0.938  0.000  0.000     2.176     2.307
  33   1 H      0.049  0.951  0.000  0.000     2.329     2.386
  34   1 H      0.055  0.945  0.000  0.000     2.257     2.349
  35   1 H      0.070  0.930  0.000  0.000     2.090     2.261
  36   1 H      0.211  0.789  0.000  0.000     1.053     1.607
  37   1 H      0.215  0.785  0.000  0.000     1.034     1.593
  38   7 N     -0.160  1.242  3.917  0.000    24.457     7.345
  39   6 C      0.022  1.062  2.917  0.000    20.215     6.402
  40   6 C      0.195  1.094  2.711  0.000    23.844     7.997
  41   8 O     -0.369  1.757  4.612  0.000    21.070     6.154
  42   6 C     -0.077  1.067  3.010  0.000    21.952     6.669
  43   6 C     -0.014  1.060  2.955  0.000    20.799     6.487
  44   6 C     -0.119  1.043  3.077  0.000    22.843     6.815
  45   6 C     -0.118  1.041  3.077  0.000    22.817     6.811
  46   1 H      0.219  0.781  0.000  0.000     1.016     1.579
  47   1 H      0.096  0.904  0.000  0.000     1.818     2.108
  48   1 H      0.066  0.934  0.000  0.000     2.133     2.284
  49   1 H      0.067  0.933  0.000  0.000     2.118     2.276
  50   1 H      0.042  0.958  0.000  0.000     2.425     2.436
  51   1 H      0.045  0.955  0.000  0.000     2.382     2.413
  52   1 H      0.045  0.955  0.000  0.000     2.384     2.415
  53   1 H      0.047  0.953  0.000  0.000     2.356     2.401
  54   1 H      0.045  0.955  0.000  0.000     2.388     2.417
  55   1 H      0.046  0.954  0.000  0.000     2.371     2.408
  56   1 H      0.041  0.959  0.000  0.000     2.434     2.440
  57   7 N     -0.392  1.309  4.083  0.000    30.161     8.156
  58   6 C      0.026  1.065  2.909  0.000    20.152     6.395
  59   6 C      0.266  1.048  2.685  0.000    22.506     7.768
  60   8 O     -0.515  1.743  4.772  0.000    24.124     6.585
  61   6 C     -0.071  1.053  3.017  0.000    21.845     6.654
  62   6 C     -0.096  1.054  3.042  0.000    22.326     6.727
  63   6 C      0.287  1.043  2.669  0.000    22.127     7.702
  64   8 O     -0.484  1.757  4.727  0.000    23.433     6.490
  65   7 N     -0.295  1.273  4.022  0.000    27.602     7.803
  66   1 H      0.154  0.846  0.000  0.000     1.374     1.836
  67   1 H      0.048  0.952  0.000  0.000     2.347     2.396
  68   1 H      0.057  0.943  0.000  0.000     2.236     2.339
  69   1 H      0.049  0.951  0.000  0.000     2.333     2.389
  70   1 H      0.067  0.933  0.000  0.000     2.124     2.279
  71   1 H      0.077  0.923  0.000  0.000     2.009     2.217
  72   1 H      0.215  0.785  0.000  0.000     1.034     1.592
  73   1 H      0.220  0.780  0.000  0.000     1.009     1.574
  74   7 N     -0.176  1.264  3.913  0.000    24.822     7.399
  75   6 C      0.022  1.072  2.905  0.000    20.207     6.401
  76   6 C      0.284  1.035  2.682  0.000    22.195     7.715
  77   8 O     -0.477  1.754  4.723  0.000    23.278     6.469
  78   6 C     -0.080  1.050  3.030  0.000    22.021     6.680
  79   6 C      0.059  1.065  2.875  0.000    26.378     8.398
  80   7 N     -0.297  1.471  3.826  0.000    28.544     7.921
  81   6 C     -0.024  1.070  2.954  0.000    28.586     8.770
  82   6 C      0.104  1.052  2.845  0.000    25.607     8.295
  83   7 N     -0.079  1.235  3.843  0.000    22.770     7.087
  84   1 H      0.238  0.762  0.000  0.000     0.929     1.510
  85   1 H      0.079  0.921  0.000  0.000     1.988     2.205
  86   1 H      0.084  0.916  0.000  0.000     1.941     2.179
  87   1 H      0.072  0.928  0.000  0.000     2.069     2.249
  88   1 H      0.056  0.944  0.000  0.000     2.248     2.345
  89   1 H      0.021  0.979  0.000  0.000     2.714     2.576
  90   1 H      0.183  0.817  0.000  0.000     1.195     1.713
  91   7 N     -0.184  1.247  3.937  0.000    24.989     7.424
  92   6 C      0.019  1.070  2.911  0.000    20.264     6.411
  93   6 C      0.271  1.047  2.683  0.000    22.424     7.755
  94   8 O     -0.501  1.758  4.742  0.000    23.796     6.540
  95   6 C     -0.076  1.052  3.024  0.000    21.948     6.669
  96   6 C      0.001  1.078  2.921  0.000    28.004     8.680
  97   6 C     -0.040  1.082  2.958  0.000    28.988     8.830
  98   6 C     -0.045  1.086  2.958  0.000    29.113     8.848
  99   6 C     -0.062  1.076  2.986  0.000    29.548     8.914
 100   6 C     -0.078  1.077  3.001  0.000    29.944     8.973
 101   6 C      0.142  1.043  2.815  0.000    24.902     8.178
 102   8 O     -0.435  1.716  4.719  0.000    21.532     6.264
 103   1 H      0.220  0.780  0.000  0.000     1.011     1.575
 104   1 H      0.093  0.907  0.000  0.000     1.855     2.130
 105   1 H      0.062  0.938  0.000  0.000     2.180     2.309
 106   1 H      0.075  0.925  0.000  0.000     2.031     2.229
 107   1 H      0.035  0.965  0.000  0.000     2.511     2.478
 108   1 H      0.055  0.945  0.000  0.000     2.256     2.349
 109   1 H      0.060  0.940  0.000  0.000     2.200     2.320
 110   1 H      0.047  0.953  0.000  0.000     2.357     2.401
 111   1 H      0.356  0.644  0.000  0.000     0.574     1.190
 112   7 N     -0.168  1.247  3.921  0.000    24.646     7.373
 113   6 C      0.036  1.056  2.908  0.000    19.978     6.365
 114   6 C      0.212  1.090  2.698  0.000    23.518     7.942
 115   8 O     -0.375  1.756  4.620  0.000    21.197     6.173
 116   6 C     -0.131  1.040  3.090  0.000    23.055     6.845
 117   1 H      0.218  0.782  0.000  0.000     1.018     1.581
 118   1 H      0.075  0.925  0.000  0.000     2.028     2.227
 119   1 H      0.076  0.924  0.000  0.000     2.023     2.224
 120   1 H      0.083  0.917  0.000  0.000     1.949     2.183
 121   1 H      0.074  0.926  0.000  0.000     2.047     2.237
 122   7 N     -0.382  1.317  4.066  0.000    29.887     8.119
 123   6 C      0.041  1.059  2.900  0.000    19.913     6.357
 124   6 C      0.203  1.089  2.708  0.000    23.684     7.971
 125   8 O     -0.377  1.763  4.614  0.000    21.228     6.177
 126   6 C     -0.073  1.058  3.015  0.000    21.889     6.660
 127   6 C      0.045  1.062  2.893  0.000    26.558     8.411
 128   7 N     -0.308  1.473  3.835  0.000    28.832     7.961
 129   6 C     -0.014  1.058  2.957  0.000    28.316     8.727
 130   6 C      0.089  1.059  2.852  0.000    25.793     8.311
 131   7 N     -0.110  1.259  3.851  0.000    23.394     7.184
 132   1 H      0.167  0.833  0.000  0.000     1.291     1.780
 133   1 H      0.068  0.932  0.000  0.000     2.103     2.268
 134   1 H      0.076  0.924  0.000  0.000     2.022     2.224
 135   1 H      0.049  0.951  0.000  0.000     2.329     2.386
 136   1 H      0.021  0.979  0.000  0.000     2.713     2.576
 137   1 H      0.041  0.959  0.000  0.000     2.429     2.437
 138   1 H      0.206  0.794  0.000  0.000     1.076     1.625
 139   7 N     -0.402  1.317  4.085  0.000    30.442     8.194
 140   6 C      0.023  1.058  2.919  0.000    20.195     6.400
 141   6 C      0.269  1.044  2.687  0.000    22.454     7.761
 142   8 O     -0.505  1.744  4.761  0.000    23.889     6.553
 143   6 C     -0.076  1.056  3.020  0.000    21.945     6.668
 144   6 C     -0.075  1.052  3.023  0.000    21.932     6.667
 145   6 C     -0.092  1.056  3.036  0.000    22.252     6.716
 146   6 C     -0.053  1.061  2.992  0.000    21.613     6.635
 147   7 N     -0.146  1.228  3.918  0.000    24.143     7.298
 148   1 H      0.172  0.828  0.000  0.000     1.263     1.760
 149   1 H      0.056  0.944  0.000  0.000     2.244     2.342
 150   1 H      0.044  0.956  0.000  0.000     2.403     2.424
 151   1 H      0.056  0.944  0.000  0.000     2.250     2.346
 152   1 H      0.061  0.939  0.000  0.000     2.191     2.315
 153   1 H      0.061  0.939  0.000  0.000     2.192     2.315
 154   1 H      0.071  0.929  0.000  0.000     2.077     2.254
 155   1 H      0.075  0.925  0.000  0.000     2.034     2.230
 156   1 H      0.120  0.880  0.000  0.000     1.617     1.988
 157   1 H      0.118  0.882  0.000  0.000     1.627     1.995
 158   1 H      0.305  0.695  0.000  0.000     0.699     1.310
 159   1 H      0.295  0.705  0.000  0.000     0.728     1.337
 160   1 H      0.297  0.703  0.000  0.000     0.721     1.330
 161   7 N     -0.170  1.247  3.923  0.000    24.677     7.378
 162   6 C      0.017  1.068  2.915  0.000    20.288     6.412
 163   6 C      0.268  1.045  2.687  0.000    22.478     7.764
 164   8 O     -0.498  1.755  4.743  0.000    23.734     6.532
 165   6 C     -0.052  1.053  2.999  0.000    21.507     6.603
 166   6 C     -0.088  1.058  3.030  0.000    22.181     6.705
 167   6 C      0.373  1.019  2.608  0.000    20.680     7.442
 168   8 O     -0.619  1.761  4.858  0.000    26.591     6.914
 169   8 O     -0.652  1.775  4.876  0.000    27.420     7.021
 170   1 H      0.222  0.778  0.000  0.000     1.001     1.568
 171   1 H      0.080  0.920  0.000  0.000     1.979     2.200
 172   1 H      0.052  0.948  0.000  0.000     2.291     2.367
 173   1 H      0.046  0.954  0.000  0.000     2.369     2.407
 174   1 H      0.041  0.959  0.000  0.000     2.433     2.439
 175   1 H      0.043  0.957  0.000  0.000     2.406     2.426
 176   7 N     -0.172  1.244  3.928  0.000    24.717     7.384
 177   6 C      0.011  1.071  2.918  0.000    20.391     6.430
 178   6 C      0.282  1.036  2.682  0.000    22.222     7.720
 179   8 O     -0.493  1.754  4.739  0.000    23.630     6.517
 180   6 C     -0.028  1.071  2.957  0.000    21.035     6.523
 181   6 C     -0.064  1.054  3.010  0.000    21.726     6.636
 182   6 C     -0.115  1.038  3.078  0.000    22.765     6.804
 183   6 C     -0.117  1.041  3.076  0.000    22.814     6.812
 184   1 H      0.216  0.784  0.000  0.000     1.027     1.587
 185   1 H      0.070  0.930  0.000  0.000     2.089     2.260
 186   1 H      0.057  0.943  0.000  0.000     2.229     2.335
 187   1 H      0.043  0.957  0.000  0.000     2.407     2.426
 188   1 H      0.034  0.966  0.000  0.000     2.537     2.491
 189   1 H      0.067  0.933  0.000  0.000     2.116     2.275
 190   1 H      0.036  0.964  0.000  0.000     2.497     2.471
 191   1 H      0.045  0.955  0.000  0.000     2.382     2.414
 192   1 H      0.043  0.957  0.000  0.000     2.405     2.425
 193   1 H      0.051  0.949  0.000  0.000     2.304     2.374
 194   1 H      0.050  0.950  0.000  0.000     2.323     2.383
 195   7 N     -0.175  1.239  3.936  0.000    24.782     7.394
 196   6 C      0.022  1.060  2.918  0.000    20.205     6.400
 197   6 C      0.282  1.037  2.681  0.000    22.222     7.719
 198   8 O     -0.508  1.753  4.755  0.000    23.952     6.562
 199   6 C     -0.139  1.044  3.095  0.000    23.213     6.868
 200   1 H      0.212  0.788  0.000  0.000     1.048     1.604
 201   1 H      0.074  0.926  0.000  0.000     2.039     2.233
 202   1 H      0.073  0.927  0.000  0.000     2.048     2.238
 203   1 H      0.084  0.916  0.000  0.000     1.938     2.177
 204   1 H      0.073  0.927  0.000  0.000     2.056     2.242
 205   7 N     -0.181  1.247  3.934  0.000    24.919     7.414
 206   6 C      0.032  1.055  2.913  0.000    20.042     6.375
 207   6 C      0.281  1.043  2.676  0.000    22.242     7.723
 208   8 O     -0.521  1.752  4.769  0.000    24.253     6.603
 209   6 C     -0.076  1.061  3.015  0.000    21.936     6.666
 210   6 C     -0.002  1.052  2.950  0.000    20.577     6.452
 211   6 C     -0.109  1.036  3.074  0.000    22.643     6.784
 212   6 C     -0.120  1.043  3.077  0.000    22.845     6.815
 213   1 H      0.214  0.786  0.000  0.000     1.037     1.595
 214   1 H      0.081  0.919  0.000  0.000     1.970     2.195
 215   1 H      0.068  0.932  0.000  0.000     2.111     2.272
 216   1 H      0.048  0.952  0.000  0.000     2.340     2.392
 217   1 H      0.018  0.982  0.000  0.000     2.765     2.601
 218   1 H      0.036  0.964  0.000  0.000     2.509     2.477
 219   1 H      0.032  0.968  0.000  0.000     2.563     2.503
 220   1 H      0.051  0.949  0.000  0.000     2.314     2.379
 221   1 H      0.055  0.945  0.000  0.000     2.256     2.349
 222   1 H      0.043  0.957  0.000  0.000     2.403     2.424
 223   1 H      0.040  0.960  0.000  0.000     2.445     2.445
 224   7 N     -0.185  1.256  3.929  0.000    25.008     7.427
 225   6 C      0.034  1.064  2.902  0.000    20.016     6.372
 226   6 C      0.205  1.084  2.712  0.000    23.655     7.965
 227   8 O     -0.374  1.757  4.617  0.000    21.174     6.169
 228   6 C     -0.060  1.053  3.007  0.000    21.646     6.622
 229   6 C     -0.040  1.066  2.974  0.000    28.938     8.822
 230   6 C     -0.005  1.073  2.932  0.000    28.113     8.697
 231   6 C     -0.027  1.073  2.954  0.000    28.524     8.751
 232   7 N     -0.127  1.241  3.887  0.000    23.758     7.239
 233   6 C      0.044  1.063  2.894  0.000    26.904     8.500
 234   6 C     -0.044  1.077  2.967  0.000    29.081     8.843
 235   6 C     -0.058  1.072  2.987  0.000    29.453     8.899
 236   6 C     -0.049  1.076  2.973  0.000    29.221     8.864
 237   6 C     -0.041  1.076  2.965  0.000    29.008     8.833
 238   1 H      0.230  0.770  0.000  0.000     0.966     1.540
 239   1 H      0.091  0.909  0.000  0.000     1.870     2.139
 240   1 H      0.055  0.945  0.000  0.000     2.253     2.347
 241   1 H      0.062  0.938  0.000  0.000     2.173     2.305
 242   1 H      0.045  0.955  0.000  0.000     2.389     2.417
 243   1 H      0.198  0.802  0.000  0.000     1.115     1.654
 244   1 H      0.021  0.979  0.000  0.000     2.721     2.580
 245   1 H      0.030  0.970  0.000  0.000     2.583     2.513
 246   1 H      0.030  0.970  0.000  0.000     2.591     2.517
 247   1 H      0.035  0.965  0.000  0.000     2.521     2.483
 248   8 O     -0.640  1.771  4.868  0.000    26.154     6.902
 249   1 H      0.327  0.673  0.000  0.000     0.646     1.263
 250   1 H      0.324  0.676  0.000  0.000     0.653     1.269
 251   8 O     -0.664  1.762  4.902  0.000    26.772     6.983
 252   1 H      0.308  0.692  0.000  0.000     0.697     1.311
 253   1 H      0.303  0.697  0.000  0.000     0.713     1.326
 254   8 O     -0.655  1.767  4.888  0.000    26.548     6.954
 255   1 H      0.327  0.673  0.000  0.000     0.644     1.261
 256   1 H      0.309  0.691  0.000  0.000     0.696     1.311
 257   8 O     -0.647  1.764  4.883  0.000    26.344     6.927
 258   1 H      0.320  0.680  0.000  0.000     0.663     1.279
 259   1 H      0.312  0.688  0.000  0.000     0.685     1.300
 260   8 O     -0.647  1.763  4.883  0.000    26.333     6.926
 261   1 H      0.289  0.711  0.000  0.000     0.756     1.365
 262   1 H      0.308  0.692  0.000  0.000     0.696     1.311
 263   8 O     -0.630  1.759  4.871  0.000    25.908     6.870
 264   1 H      0.340  0.660  0.000  0.000     0.613     1.229
 265   1 H      0.304  0.696  0.000  0.000     0.709     1.323
 266   8 O     -0.643  1.755  4.887  0.000    26.231     6.912
 267   1 H      0.301  0.699  0.000  0.000     0.719     1.332
 268   1 H      0.301  0.699  0.000  0.000     0.719     1.331
 269   8 O     -0.663  1.779  4.884  0.000    26.750     6.980
 270   1 H      0.316  0.684  0.000  0.000     0.674     1.289
 271   1 H      0.318  0.682  0.000  0.000     0.669     1.285
 272   8 O     -0.631  1.770  4.861  0.000    25.942     6.874
 273   1 H      0.322  0.678  0.000  0.000     0.657     1.274
 274   1 H      0.339  0.661  0.000  0.000     0.615     1.232
 275   1 H      0.188  0.812  0.000  0.000     1.167     1.692
 276   1 H      0.067  0.933  0.000  0.000     2.115     2.274
 277   1 H      0.187  0.813  0.000  0.000     1.172     1.696
 278   1 H      0.086  0.914  0.000  0.000     1.914     2.163
 279   1 H      0.189  0.811  0.000  0.000     1.164     1.690
 280   1 H      0.077  0.923  0.000  0.000     2.010     2.217
 281   1 H      0.193  0.807  0.000  0.000     1.143     1.674
 282   1 H      0.060  0.940  0.000  0.000     2.200     2.319
 283   1 H      0.192  0.808  0.000  0.000     1.145     1.676
 284   1 H      0.072  0.928  0.000  0.000     2.067     2.248

 Mol. C6AA /au·bohr⁶  :     742584.126368
 Mol. C8AA /au·bohr⁸  :   16533305.233581
 Mol. α(0) /au        :       1300.590330

 
molecular dipole:
                 x           y           z       tot (Debye)
 q only:       10.056       2.540      16.225
   full:       10.991       3.384      17.019      52.208
molecular quadrupole (traceless):
                xx          xy          yy          xz          yz          zz
 q only:      122.150    1056.885    -604.875    1895.514    1430.062     482.724
  q+dip:      115.225    1184.099    -571.635    1994.919    1551.598     456.410
   full:      118.862    1183.178    -570.199    1997.892    1550.579     451.337
speedup  1.41
cpu  time for grad    9.33 s
wall time for grad    6.61 s

SCC energy    :    -443.3869591
rep           :       5.4460991
ES            :       1.4099868
AES           :      -0.0506172
AXC           :       0.1561914
disp          :      -0.3617107
XB            :       0.0000000
fix           :       0.0000000
Gborn         :       0.0000000
Gsasa         :       0.0000000
Ghb           :       0.0000000
Gshift        :       0.0000000
Gsolv         :      -0.3274044     -205.45
Etot ala COSMO:    -443.3869591
grad norm     :       0.5402871
total E       :    -437.9060928
atomizationE  :      78.9859300    49564.42
(atE without considering molecular charge,
 total energy contains solvation terms)
H-L gap (eV)  :          1.6511

------------------------------------------------------------------------
 * finished run on 2019/05/04 at 19:51:57.495     
------------------------------------------------------------------------
 total:
 * wall-time:     0 d,  0 h,  0 min,  7.123 sec
 *  cpu-time:     0 d,  0 h,  0 min,  9.917 sec
 * ratio c/w:     1.392 speedup
 SCF:
 * wall-time:     0 d,  0 h,  0 min,  6.826 sec
 *  cpu-time:     0 d,  0 h,  0 min,  9.720 sec
 * ratio c/w:     1.424 speedup

