      -----------------------------------------------------------      
     |                   =====================                   |     
     |                           x T B                           |     
     |                   =====================                   |     
     |                         S. Grimme                         |     
     |          Mulliken Center for Theoretical Chemistry        |     
     |                    University of Bonn                     |     
     |                 Version 6.0.1 (SAW181210)                 |     
      -----------------------------------------------------------      

   This program is distributed in the hope that it will be useful,
   but WITHOUT ANY WARRANTY; without even the implied warranty of
   MERCHANTABILITY or FITNESS FOR A PARTICULAR PURPOSE.
   
   FOR NON-COMMERCIAL, ACADEMIA USE ONLY.
   
   Cite this work as:
   S. Grimme, C. Bannwarth, P. Shushkov, J. Comput. Theory Chem., 2017,
   13, 1989-2009.
   C. Bannwarth, S. Ehlert and S. Grimme., ChemRxiv, 2018, preprint.
   http://doi.org/10.26434/chemrxiv.7246238.v1
   
   for sTDA-xTB:
   S. Grimme and C. Bannwarth, J. Chem. Phys., 2016, 145, 054103.
   
   in the mass-spec context:
   V. Asgeirsson, C. Bauer and S. Grimme, Chem. Sci., 2017, 8, 4879.
   
   if GBSA is used:
   P. Shushkov, F. März and S. Grimme, unpublished.
   
   for ANC optimizer:
   S. Grimme, unpublished.
   Rational Function algorithm used in ANCopt:
   F. Eckert, P. Pulay, H.-J. Werner, J. Comput. Chem., 1997, 18, 1473.
   
   with help from (in alphabetical order)
   C. Bannwarth, F. Bohle, G. Brandenburg, E. Caldeweyher, M. Checinski,
   S. Dohm, S. Ehlert, S. Ehrlich, F. März, H. Neugebauer, J. Pisarek,
   P. Pracht, P. Shushkov, and S. Spicher.
   
 * started run on 2019/05/10 at 11:23:16.766     
========================================================================
 # omp threads = 2
========================================================================
number of atoms            : 462
number of electrons        : 1246
charge                     : 0
spin                       : .0
first test random number   : .8696

########################################################################
# WARNING! Please study the warnings concerning your input carefully
#  - Process number higher than OMP_NUM_THREADS, I hope you know what you are doing.
########################################################################

           ------------------------------------------------- 
          |                 G F N 2 - x T B                 |
          | Geometry, Frequencies, Noncovalent interactions |
          |            JCTC 2018 parametrisation            |
           ------------------------------------------------- 
 
      method parameters     
 k(s)        :  1.8500
 k(p)        :  2.2300
 k(d)        :  2.2300
 k(f)        :  2.0000
 kEN (H0ij)  : -2.0000
 D4 a1       :  0.5200
 D4 a2       :  5.0000
 D4 s6       :  1.0000
 D4 s8       :  2.7000
 D4 s9       :  5.0000
 alphaj      :  2.0000

 Solvent             : h2o
 Using internal parameter file: .param_gbsa2_h2o
 Gsolv ref. state (COSMO-RS): gsolv [1 M gas/solution]
 temperature (mdtemp)       :    298.150000000000     
 dielectric constant        :    80.2000000000000     
 rho                        :    1.00000000000000     
 mass                       :    18.0000000000000     
 surface tension            :    15.5689454083859     
 probe radius               :   0.975313790000000     
 vdW radii scaling          :    1.00000000000000     
 Gshift (Eh)                :   1.857443126794793E-003
 c1                         :    1.55243817000000     
 soset                      :   0.130326360000000     
 HB correction              :  T

            Z     q(EN)     CN     RAES       Cart. coordinates
     1  N   5.0   -0.21    3.24    1.96   109.51751   103.65409   405.54083
     2  C   4.0    0.03    4.25    4.10   107.39063   105.37832   405.35294
     3  C   4.0    0.14    3.50    3.11   105.14215   103.92891   404.33391
     4  O   6.0   -0.33    1.31    1.80   102.99823   104.41460   405.06351
     5  C   4.0   -0.08    4.11    3.82   107.77677   107.64343   403.64453
     6  H   1.0    0.08    1.02    1.43   111.27800   104.15410   404.95265
     7  H   1.0    0.04    1.05    1.44   106.87515   106.03113   407.25692
     8  H   1.0    0.04    1.00    1.43   106.06043   108.77300   403.61600
     9  H   1.0    0.04    1.00    1.43   109.31630   108.82555   404.32116
    10  H   1.0    0.04    1.00    1.43   108.19639   107.02913   401.72648
    11  N   5.0   -0.15    3.51    2.09   105.63066   102.16433   402.60384
    12  C   4.0    0.04    4.52    4.57   103.52114   100.83058   401.53217
    13  C   4.0    0.08    3.30    3.05   102.21160    99.17121   403.43105
    14  O   6.0   -0.30    1.22    1.80    99.90330    99.03115   403.41729
    15  C   4.0   -0.04    4.14    3.89   104.19232    99.17232   399.31549
    16  S   6.0   -0.07    2.39    3.10   104.78329   101.23041   396.66906
    17  H   1.0    0.07    1.06    1.44   107.39414   102.00300   401.85068
    18  H   1.0    0.05    1.09    1.44   102.12231   102.25137   400.93112
    19  H   1.0    0.04    1.06    1.44   105.84518    98.01394   399.71695
    20  H   1.0    0.05    1.08    1.44   102.60423    97.97700   398.78045
    21  H   1.0    0.04    0.98    1.43   107.02388   102.05008   397.48887
    22  N   5.0   -0.18    3.24    1.96   101.07891    99.87375   408.96005
    23  C   4.0    0.04    4.37    4.32    99.85446   101.53763   410.70580
    24  C   4.0    0.15    3.38    3.07    97.78243   103.20548   409.56514
    25  O   6.0   -0.29    1.24    1.80    95.88825   103.46978   410.85589
    26  C   4.0    0.05    4.23    4.05   101.83740   103.16820   412.11780
    27  O   6.0   -0.25    2.11    1.84   103.97433   101.76636   412.88367
    28  C   4.0   -0.05    4.11    3.82   100.56706   104.35032   414.39163
    29  H   1.0    0.09    1.03    1.43   102.83360   100.36211   408.37533
    30  H   1.0    0.06    1.06    1.44    98.84472   100.36435   412.09038
    31  H   1.0    0.04    1.04    1.43   102.43640   104.67948   410.81517
    32  H   1.0    0.12    1.02    1.43   105.10944   101.49953   411.46879
    33  H   1.0    0.05    1.00    1.43   101.87704   105.57602   415.38821
    34  H   1.0    0.06    1.01    1.43    98.93560   105.44107   413.79898
    35  H   1.0    0.06    1.00    1.43    99.95355   102.89564   415.70508
    36  N   5.0   -0.14    3.45    2.05    98.06369   104.27684   407.25919
    37  C   4.0    0.04    4.38    4.35    96.16066   105.90468   406.10094
    38  C   4.0    0.15    3.37    3.07    94.89766   104.78187   403.69499
    39  O   6.0   -0.29    1.24    1.80    93.30134   105.86244   402.40358
    40  C   4.0   -0.03    4.34    4.27    97.24371   108.51432   405.41050
    41  C   4.0   -0.01    3.58    3.15    98.33339   109.73109   407.69235
    42  C   4.0   -0.03    3.50    3.11    96.85216   110.92413   409.49078
    43  C   4.0   -0.04    3.49    3.11   100.84811   109.44529   408.26206
    44  C   4.0   -0.02    3.45    3.09    97.81885   111.86325   411.72574
    45  C   4.0   -0.05    3.46    3.10   101.82083   110.35753   410.52375
    46  C   4.0    0.06    3.42    3.08   100.37793   111.67899   412.26853
    47  O   6.0   -0.24    2.09    1.84   101.41087   112.87800   414.33648
    48  H   1.0    0.11    1.10    1.44    99.77061   104.15611   406.38975
    49  H   1.0    0.07    1.06    1.44    94.66838   106.16746   407.51614
    50  H   1.0    0.05    1.03    1.43    98.71630   108.25599   403.99025
    51  H   1.0    0.05    1.04    1.43    95.69659   109.61512   404.61919
    52  H   1.0    0.07    1.03    1.43    94.83928   111.14060   409.19478
    53  H   1.0    0.06    1.03    1.43   102.08908   108.45282   406.98279
    54  H   1.0    0.08    1.04    1.43    96.57187   112.78765   413.04989
    55  H   1.0    0.05    1.03    1.43   103.82129   110.11761   410.89628
    56  H   1.0    0.11    1.03    1.43   103.16491   112.38196   414.49467
    57  N   5.0   -0.13    3.51    2.08    95.77386   102.52555   402.97178
    58  C   4.0    0.05    4.57    4.63    94.89740   101.34535   400.66772
    59  C   4.0    0.16    3.48    3.11    92.81597    99.45486   401.30389
    60  O   6.0   -0.28    1.25    1.80    93.21917    97.28834   402.03208
    61  C   4.0   -0.02    4.18    3.96    97.08073   100.02119   399.34767
    62  S   6.0   -0.05    2.39    3.10    97.14369   100.98513   396.15010
    63  H   1.0    0.11    1.09    1.44    97.03676   101.53971   404.01978
    64  H   1.0    0.06    1.11    1.45    94.13322   102.87414   399.50066
    65  H   1.0    0.06    1.13    1.45    98.84860   100.66171   400.13877
    66  H   1.0    0.07    1.07    1.44    96.93701    97.98005   399.52575
    67  H   1.0    0.05    0.98    1.43    95.44294    99.32560   395.29664
    68  N   5.0   -0.13    3.36    2.01    90.48039   100.40850   401.06123
    69  C   4.0    0.02    4.18    3.97    88.43669    98.61821   401.35153
    70  C   4.0    0.09    3.13    3.03    88.44889    96.64020   399.19535
    71  O   6.0   -0.28    1.11    1.80    88.80030    97.21663   396.97184
    72  H   1.0    0.09    1.06    1.44    90.18549   102.03792   400.12535
    73  H   1.0    0.06    1.03    1.43    88.67948    97.67702   403.17057
    74  H   1.0    0.05    1.02    1.43    86.63834    99.62067   401.30255
    75  N   5.0   -0.17    3.46    2.05   112.38469   129.68136   391.71517
    76  C   4.0    0.03    4.43    4.42   110.14840   129.43545   390.10447
    77  C   4.0    0.07    3.17    3.03   110.44869   130.86669   387.57319
    78  O   6.0   -0.30    1.16    1.80   109.13610   130.31398   385.73801
    79  C   4.0   -0.04    4.31    4.22   107.91736   130.30958   391.68768
    80  C   4.0   -0.04    4.32    4.24   109.13565   130.86491   394.23114
    81  C   4.0   -0.00    4.29    4.18   111.86919   131.50239   393.64179
    82  H   1.0    0.05    1.09    1.44   109.99957   127.45660   389.54419
    83  H   1.0    0.05    1.03    1.43   107.10375   132.01143   390.86064
    84  H   1.0    0.05    1.05    1.44   106.48318   128.84905   391.81866
    85  H   1.0    0.04    1.02    1.43   108.23648   132.39586   395.26476
    86  H   1.0    0.04    1.03    1.43   109.11662   129.16916   395.40068
    87  H   1.0    0.04    1.02    1.43   112.07946   133.42342   392.89777
    88  H   1.0    0.04    1.02    1.43   113.11710   131.30004   395.27017
    89  N   5.0   -0.20    3.24    1.96   109.91356   126.12059   382.49171
    90  C   4.0    0.04    4.28    4.17   107.78229   124.42531   382.23827
    91  C   4.0    0.08    3.21    3.04   106.46947   124.82905   379.70437
    92  O   6.0   -0.29    1.12    1.80   105.82871   122.94290   378.50195
    93  C   4.0   -0.04    4.27    4.15   105.91860   124.55279   384.41641
    94  C   4.0   -0.02    3.69    3.23   107.21292   124.06177   386.87047
    95  C   4.0   -0.02    3.65    3.20   109.57569   123.11667   387.28565
    96  C   4.0   -0.00    3.93    3.50   106.18955   124.58614   389.33011
    97  N   5.0   -0.13    3.51    2.08   110.06322   122.97592   389.83809
    98  C   4.0    0.02    3.91    3.48   107.99823   123.75244   391.12234
    99  C   4.0   -0.06    3.43    3.09   103.89903   125.60234   390.17289
   100  C   4.0   -0.06    3.41    3.08   107.35771   123.48211   393.63651
   101  C   4.0   -0.05    3.37    3.07   103.29481   125.43792   392.67687
   102  C   4.0   -0.05    3.40    3.08   104.95890   124.24435   394.34724
   103  H   1.0    0.12    1.06    1.44   109.92821   127.40802   383.90552
   104  H   1.0    0.05    1.06    1.44   108.54902   122.49790   382.12931
   105  H   1.0    0.05    1.03    1.43   105.05169   126.42886   384.46512
   106  H   1.0    0.04    1.03    1.43   104.43537   123.15666   384.08220
   107  H   1.0    0.04    1.02    1.43   111.03592   122.56689   385.98344
   108  H   1.0    0.07    1.05    1.44   111.66723   122.23730   390.54465
   109  H   1.0    0.05    1.03    1.43   102.62251   126.40652   388.80065
   110  H   1.0    0.04    1.03    1.43   108.70343   122.70499   394.94888
   111  H   1.0    0.05    1.03    1.43   101.52059   126.13967   393.37307
   112  H   1.0    0.05    1.03    1.43   104.39621   123.97726   396.28960
   113  N   5.0   -0.22    3.11    1.94   100.29386   106.76672   381.26401
   114  C   4.0    0.00    4.12    3.84    97.79582   107.53924   382.04953
   115  C   4.0    0.15    3.28    3.05    97.26713   106.91659   384.88973
   116  O   6.0   -0.30    1.21    1.80    96.52534   108.56699   386.34741
   117  H   1.0    0.08    1.02    1.43   100.51084   105.66351   379.71368
   118  H   1.0    0.05    1.02    1.43    97.56924   109.58567   381.84993
   119  H   1.0    0.04    1.02    1.43    96.39037   106.55468   380.91022
   120  N   5.0   -0.15    3.43    2.04    97.69418   104.47492   385.52208
   121  C   4.0    0.03    4.43    4.43    97.88505   103.55603   388.10697
   122  C   4.0    0.15    3.48    3.10    99.62444   105.23122   389.74708
   123  O   6.0   -0.30    1.24    1.80    98.87972   106.15693   391.76667
   124  C   4.0   -0.05    4.45    4.47    98.95723   100.92858   388.17306
   125  C   4.0   -0.03    4.23    4.06    97.11186    98.94839   387.32703
   126  C   4.0   -0.08    4.18    3.96    98.19947    96.40832   388.04719
   127  C   4.0   -0.07    4.18    3.96    94.58985    99.11816   388.61113
   128  H   1.0    0.07    1.07    1.44    98.32444   103.28587   384.15444
   129  H   1.0    0.06    1.06    1.44    96.03191   103.66634   389.01427
   130  H   1.0    0.04    1.03    1.43   100.66544   100.86637   387.01960
   131  H   1.0    0.04    1.04    1.44    99.48227   100.55441   390.13854
   132  H   1.0    0.04    1.05    1.44    96.84609    99.07431   385.27617
   133  H   1.0    0.04    1.00    1.43    97.01754    94.86528   387.36963
   134  H   1.0    0.04    1.00    1.43   100.08506    96.13207   387.27552
   135  H   1.0    0.04    1.01    1.43    98.29960    96.25968   390.09006
   136  H   1.0    0.04    1.00    1.43    93.37211    97.59813   387.94395
   137  H   1.0    0.04    1.00    1.43    94.78401    98.91692   390.64989
   138  H   1.0    0.05    1.00    1.43    93.60722   100.88121   388.23018
   139  N   5.0   -0.15    3.49    2.07   102.00419   105.48510   388.84490
   140  C   4.0    0.03    4.60    4.67   103.81361   106.80374   390.43470
   141  C   4.0    0.16    3.55    3.14   102.92067   109.45374   391.10113
   142  O   6.0   -0.32    1.29    1.80   103.09999   110.26573   393.26838
   143  C   4.0   -0.03    4.31    4.21   106.40520   106.94672   389.24360
   144  C   4.0   -0.08    4.16    3.92   108.09302   108.65348   390.85510
   145  C   4.0   -0.08    4.16    3.92   107.37982   104.26890   389.13412
   146  H   1.0    0.07    1.05    1.44   102.53172   104.76440   387.15466
   147  H   1.0    0.05    1.06    1.44   103.94166   105.78895   392.24573
   148  H   1.0    0.04    1.05    1.44   106.23328   107.75734   387.34942
   149  H   1.0    0.04    1.00    1.43   110.05672   108.46342   390.27969
   150  H   1.0    0.04    1.00    1.43   107.56014   110.62633   390.64037
   151  H   1.0    0.04    1.00    1.43   107.92713   108.15844   392.83950
   152  H   1.0    0.04    1.00    1.43   109.26073   104.21768   388.30299
   153  H   1.0    0.04    1.00    1.43   107.46930   103.48040   391.02768
   154  H   1.0    0.04    1.01    1.43   106.14853   103.09763   387.98774
   155  N   5.0   -0.14    3.53    2.10   102.09756   110.78133   389.10230
   156  C   4.0    0.03    4.43    4.44   101.49845   113.46218   389.30392
   157  C   4.0    0.16    3.52    3.12    99.38707   113.70192   391.21171
   158  O   6.0   -0.32    1.29    1.80    99.34782   115.39901   392.78608
   159  C   4.0   -0.05    4.30    4.20   100.86118   114.81297   386.82793
   160  C   4.0   -0.02    4.20    3.99   100.09278   117.61830   387.18040
   161  C   4.0   -0.07    4.16    3.93   102.02266   119.26371   388.50645
   162  C   4.0   -0.08    4.18    3.95    99.89413   118.87057   384.62269
   163  H   1.0    0.08    1.06    1.44   102.09240   109.96253   387.36559
   164  H   1.0    0.05    1.06    1.44   103.15182   114.40872   390.14016
   165  H   1.0    0.04    1.03    1.43   102.51636   114.68873   385.60520
   166  H   1.0    0.05    1.03    1.43    99.31957   113.80924   385.89812
   167  H   1.0    0.04    1.06    1.44    98.30540   117.62082   388.19718
   168  H   1.0    0.04    1.01    1.43   101.43109   121.22782   388.52562
   169  H   1.0    0.05    1.00    1.43   102.33884   118.70878   390.46369
   170  H   1.0    0.04    1.00    1.43   103.82895   119.15606   387.53025
   171  H   1.0    0.04    1.00    1.43    99.44877   120.86778   384.78536
   172  H   1.0    0.04    1.01    1.43   101.68402   118.70264   383.63417
   173  H   1.0    0.04    1.00    1.43    98.47063   117.98180   383.42545
   174  N   5.0   -0.13    3.44    2.04    97.69910   111.83475   391.03382
   175  C   4.0    0.02    4.26    4.12    95.61837   111.61607   392.77527
   176  C   4.0    0.17    3.31    3.06    96.34288   112.04972   395.57852
   177  O   6.0   -0.30    1.19    1.80    95.22316   113.62948   396.89682
   178  H   1.0    0.11    1.09    1.44    97.72234   110.59478   389.57730
   179  H   1.0    0.05    1.02    1.43    94.13472   112.99215   392.32237
   180  H   1.0    0.06    1.03    1.43    94.83372   109.71592   392.62094
   181  N   5.0   -0.13    3.46    2.06    98.20539   110.41396   396.25619
   182  C   4.0    0.04    4.31    4.23    99.50050   110.25638   398.68699
   183  C   4.0    0.16    3.59    3.16   100.76659   112.75359   399.12287
   184  O   6.0   -0.32    1.40    1.80   100.08093   114.05270   400.90426
   185  C   4.0   -0.07    4.13    3.85   101.46405   108.17616   398.78181
   186  H   1.0    0.11    1.08    1.44    98.82050   109.20517   394.90283
   187  H   1.0    0.05    1.05    1.44    98.08752   109.99909   400.18262
   188  H   1.0    0.04    1.00    1.43   102.33546   108.17263   400.64313
   189  H   1.0    0.05    1.00    1.43   100.56588   106.35090   398.47112
   190  H   1.0    0.06    1.01    1.43   102.89693   108.45804   397.34058
   191  N   5.0   -0.15    3.51    2.09   102.55884   113.52164   397.55367
   192  C   4.0    0.04    4.49    4.52   103.60745   115.95725   398.15773
   193  C   4.0    0.17    3.51    3.12   101.51965   117.93193   398.91925
   194  O   6.0   -0.32    1.28    1.80   101.86577   119.41078   400.69357
   195  C   4.0   -0.05    4.42    4.41   105.12750   117.02820   396.00848
   196  C   4.0   -0.02    4.23    4.06   107.05439   115.18494   394.98340
   197  C   4.0   -0.08    4.12    3.84   108.26285   116.45312   392.67507
   198  C   4.0   -0.08    4.13    3.87   108.99203   114.58979   396.98495
   199  H   1.0    0.11    1.10    1.44   102.87625   112.62112   395.89666
   200  H   1.0    0.04    1.05    1.44   104.78491   115.77518   399.85954
   201  H   1.0    0.05    1.04    1.43   103.83520   117.56027   394.48595
   202  H   1.0    0.04    1.03    1.43   106.07942   118.74822   396.62503
   203  H   1.0    0.05    1.06    1.44   106.15402   113.43643   394.36081
   204  H   1.0    0.04    1.00    1.43   109.70733   115.26100   391.82579
   205  H   1.0    0.04    1.00    1.43   106.86024   116.87336   391.23504
   206  H   1.0    0.04    1.00    1.43   109.16656   118.22205   393.20229
   207  H   1.0    0.04    1.00    1.43   110.52006   113.46021   396.19361
   208  H   1.0    0.03    1.00    1.43   109.81485   116.32575   397.72662
   209  H   1.0    0.04    1.00    1.43   108.15281   113.53793   398.53635
   210  N   5.0   -0.13    3.49    2.07    99.51538   118.15075   397.36933
   211  C   4.0    0.03    4.39    4.37    97.78443   120.30432   397.56059
   212  C   4.0    0.16    3.40    3.08    96.45030   120.15684   400.15560
   213  O   6.0   -0.31    1.24    1.80    96.29795   122.01090   401.55861
   214  C   4.0   -0.04    4.20    4.00    95.94791   120.44654   395.30451
   215  C   4.0   -0.05    4.14    3.88    97.23148   121.38229   392.88499
   216  C   4.0   -0.05    4.12    3.84    95.60735   121.35341   390.43531
   217  C   4.0   -0.04    4.10    3.79    94.45551   123.94414   389.77883
   218  N   5.0   -0.12    4.01    2.87    93.23583   123.89265   387.23735
   219  H   1.0    0.12    1.10    1.44    99.25609   116.91804   395.92390
   220  H   1.0    0.05    1.05    1.44    98.93317   122.03189   397.63293
   221  H   1.0    0.06    1.03    1.43    95.17617   118.55499   395.00399
   222  H   1.0    0.05    1.02    1.43    94.38871   121.67814   395.85846
   223  H   1.0    0.04    1.03    1.43    97.97885   123.27158   393.19071
   224  H   1.0    0.05    1.04    1.43    98.82627   120.11840   392.57567
   225  H   1.0    0.04    1.04    1.43    96.83828   120.82077   388.88518
   226  H   1.0    0.04    1.02    1.43    94.13411   119.92978   390.63858
   227  H   1.0    0.04    1.02    1.43    93.04730   124.47064   391.18516
   228  H   1.0    0.04    1.02    1.43    95.96063   125.35013   389.75705
   229  H   1.0    0.05    1.02    1.43    92.48641   125.64006   386.81501
   230  H   1.0    0.05    1.02    1.43    94.52096   123.40788   385.85457
   231  H   1.0    0.05    1.02    1.43    91.79658   122.58017   387.21853
   232  N   5.0   -0.13    3.46    2.06    95.53797   117.85431   400.66328
   233  C   4.0    0.04    4.30    4.19    94.41775   117.04327   403.05313
   234  C   4.0    0.16    3.39    3.08    95.92447   117.89093   405.41298
   235  O   6.0   -0.31    1.27    1.80    95.00976   119.25216   407.02796
   236  C   4.0   -0.06    4.15    3.89    94.31898   114.13449   403.00579
   237  H   1.0    0.11    1.10    1.44    95.76255   116.44431   399.37569
   238  H   1.0    0.05    1.04    1.44    92.52309   117.86303   403.25875
   239  H   1.0    0.05    1.00    1.43    93.68124   113.43270   404.82694
   240  H   1.0    0.06    1.00    1.43    93.03338   113.50140   401.53739
   241  H   1.0    0.06    1.01    1.43    96.19789   113.41761   402.60365
   242  N   5.0   -0.14    3.55    2.11    98.22330   116.86428   405.54885
   243  C   4.0    0.04    4.31    4.21   100.21697   117.24122   407.36575
   244  C   4.0    0.16    3.44    3.09   100.60122   120.07783   407.73210
   245  O   6.0   -0.30    1.23    1.80   100.66692   121.02005   409.84929
   246  C   4.0   -0.07    4.13    3.86   102.53799   115.88536   406.29196
   247  H   1.0    0.10    1.12    1.45    98.77473   115.84159   404.01667
   248  H   1.0    0.06    1.05    1.44    99.68284   116.45090   409.21050
   249  H   1.0    0.04    1.00    1.43   104.15156   116.15936   407.53311
   250  H   1.0    0.05    1.00    1.43   102.12433   113.87923   406.15194
   251  H   1.0    0.06    1.00    1.43   102.97155   116.64068   404.43235
   252  N   5.0   -0.14    3.44    2.04   100.93438   121.39067   405.57981
   253  C   4.0    0.04    4.35    4.29   101.16590   124.15047   405.68091
   254  C   4.0    0.16    3.32    3.06    98.79322   125.45802   407.04082
   255  O   6.0   -0.27    1.20    1.80    99.08816   127.19006   408.55972
   256  C   4.0   -0.05    4.18    3.95   101.96578   125.31988   403.14649
   257  C   4.0   -0.04    4.14    3.88   102.38693   128.15519   403.51877
   258  C   4.0   -0.00    4.11    3.82   103.94948   129.62688   401.49540
   259  N   5.0   -0.14    3.30    1.98   102.76227   131.03675   399.35465
   260  C   4.0    0.09    3.29    3.05   100.76085   130.43029   397.90021
   261  N   5.0   -0.18    3.20    1.96    98.97870   128.70890   398.57258
   262  N   5.0   -0.19    3.23    1.96   100.58606   131.50623   395.60643
   263  H   1.0    0.12    1.10    1.44   100.88249   120.55048   403.85134
   264  H   1.0    0.06    1.06    1.44   102.66604   124.54784   407.07157
   265  H   1.0    0.04    1.03    1.43   103.71687   124.39023   402.58839
   266  H   1.0    0.06    1.02    1.43   100.52679   124.86276   401.74330
   267  H   1.0    0.06    1.02    1.43   100.59574   129.10092   403.90875
   268  H   1.0    0.05    1.04    1.43   103.46625   128.34726   405.26682
   269  H   1.0    0.06    1.04    1.43   105.01473   131.06931   402.49885
   270  H   1.0    0.05    1.02    1.43   105.29680   128.31237   400.64324
   271  H   1.0    0.08    1.07    1.44   104.02470   132.26018   398.60951
   272  H   1.0    0.09    1.04    1.43    98.90839   128.08132   400.36598
   273  H   1.0    0.09    1.03    1.43    97.33384   128.66401   397.61338
   274  H   1.0    0.08    1.03    1.43   101.85169   132.82444   395.07111
   275  H   1.0    0.08    1.03    1.43    98.94177   131.43194   394.64595
   276  N   5.0   -0.13    3.42    2.03    96.50567   124.48995   406.42284
   277  C   4.0    0.04    4.37    4.33    94.07899   125.49134   407.37077
   278  C   4.0    0.16    3.35    3.07    93.95140   125.35583   410.32143
   279  O   6.0   -0.27    1.19    1.80    93.55476   127.12640   411.78416
   280  C   4.0   -0.03    4.25    4.10    91.86210   124.06509   406.04158
   281  C   4.0   -0.03    4.15    3.90    89.30285   125.29737   406.47236
   282  C   4.0    0.25    3.13    3.03    89.42895   128.16248   405.75111
   283  O   6.0   -0.28    1.18    1.80    90.70316   128.75130   403.85582
   284  O   6.0   -0.26    1.16    1.80    88.27594   129.65186   407.17035
   285  H   1.0    0.12    1.10    1.44    96.36666   123.21822   404.99074
   286  H   1.0    0.07    1.05    1.44    93.93635   127.49576   406.85163
   287  H   1.0    0.07    1.03    1.43    92.28358   124.13492   404.02381
   288  H   1.0    0.06    1.03    1.43    91.83616   122.10094   406.66414
   289  H   1.0    0.05    1.02    1.43    87.86880   124.36064   405.32344
   290  H   1.0    0.06    1.02    1.43    88.73140   125.19050   408.45486
   291  N   5.0   -0.14    3.54    2.10    94.33355   122.96052   411.04298
   292  C   4.0    0.04    4.40    4.38    93.76378   121.94122   413.46013
   293  C   4.0    0.15    3.43    3.09    95.72908   122.44241   415.53197
   294  O   6.0   -0.29    1.28    1.80    95.06215   122.22176   417.74877
   295  C   4.0   -0.03    4.31    4.23    93.18928   119.14359   413.10735
   296  C   4.0   -0.02    4.21    4.01    92.27390   117.95720   415.58364
   297  C   4.0    0.24    3.12    3.03    93.06792   115.12999   415.55735
   298  O   6.0   -0.29    1.18    1.80    92.26781   113.92561   413.65729
   299  O   6.0   -0.29    1.16    1.80    94.46046   114.38728   417.34603
   300  H   1.0    0.11    1.13    1.45    94.71856   121.69703   409.65179
   301  H   1.0    0.06    1.06    1.44    92.05437   122.88115   414.19817
   302  H   1.0    0.06    1.03    1.43    91.78203   118.90822   411.62423
   303  H   1.0    0.06    1.03    1.43    94.91424   118.18750   412.47653
   304  H   1.0    0.08    1.05    1.44    93.10908   118.87084   417.22115
   305  H   1.0    0.06    1.02    1.43    90.22001   118.06065   415.72216
   306  N   5.0   -0.12    3.46    2.05    98.07351   123.14631   414.91153
   307  C   4.0    0.04    4.49    4.52    99.83973   123.76605   416.91590
   308  C   4.0    0.15    3.41    3.08   100.72737   126.49714   416.67257
   309  O   6.0   -0.26    1.24    1.80   100.32540   127.75754   414.78476
   310  C   4.0   -0.03    4.31    4.21   102.16411   122.03047   417.01100
   311  C   4.0   -0.02    4.27    4.13   101.33345   119.31615   417.36473
   312  C   4.0    0.16    3.24    3.04   100.10703   118.96636   419.94673
   313  O   6.0   -0.28    1.19    1.80   100.34324   120.44116   421.72565
   314  N   5.0   -0.18    3.18    1.95    98.90584   116.68580   420.05825
   315  H   1.0    0.12    1.06    1.44    98.62455   123.34306   413.09453
   316  H   1.0    0.08    1.09    1.44    98.77255   123.53972   418.67616
   317  H   1.0    0.05    1.03    1.43   103.23489   122.22931   415.25932
   318  H   1.0    0.06    1.03    1.43   103.36428   122.54050   418.60291
   319  H   1.0    0.05    1.03    1.43    99.99927   118.75630   415.89976
   320  H   1.0    0.05    1.03    1.43   102.96896   118.06456   417.27462
   321  H   1.0    0.11    1.04    1.43    98.30693   115.86048   418.44627
   322  H   1.0    0.10    1.03    1.43    97.69584   116.41508   421.50807
   323  N   5.0   -0.14    3.44    2.04   102.02438   127.28010   418.78042
   324  C   4.0    0.03    4.50    4.54   103.51259   129.58118   418.61406
   325  C   4.0    0.15    3.50    3.11   106.18194   128.80041   417.78523
   326  O   6.0   -0.31    1.30    1.80   107.64350   127.77510   419.28538
   327  C   4.0   -0.02    4.26    4.12   103.85327   131.18565   421.01512
   328  C   4.0   -0.07    4.10    3.81   105.10829   133.69125   420.23576
   329  C   4.0   -0.07    4.08    3.76   101.40588   131.44714   422.52454
   330  H   1.0    0.09    1.06    1.44   102.52977   125.98348   420.08065
   331  H   1.0    0.06    1.07    1.44   102.60180   130.70782   417.13640
   332  H   1.0    0.05    1.07    1.44   105.19890   130.16833   422.21940
   333  H   1.0    0.04    1.00    1.43   105.51808   134.83382   421.89366
   334  H   1.0    0.05    1.00    1.43   106.87245   133.31866   419.25004
   335  H   1.0    0.04    1.00    1.43   103.87699   134.76380   418.99009
   336  H   1.0    0.04    1.00    1.43   101.77443   132.51764   424.23683
   337  H   1.0    0.05    1.00    1.43    99.98032   132.41898   421.41088
   338  H   1.0    0.05    1.00    1.43   100.72226   129.57854   423.01687
   339  N   5.0   -0.15    3.44    2.04   106.80122   129.37954   415.40129
   340  C   4.0    0.05    4.43    4.42   109.28937   128.94280   414.41129
   341  C   4.0    0.09    3.25    3.04   111.52313   129.02654   416.27511
   342  O   6.0   -0.29    1.12    1.80   112.94595   127.21579   416.49935
   343  C   4.0    0.05    4.24    4.08   109.60529   130.77831   412.19587
   344  O   6.0   -0.25    2.20    1.86   109.80467   128.91435   410.32307
   345  C   4.0   -0.07    4.04    3.68   111.74620   132.75840   412.29198
   346  H   1.0    0.09    1.07    1.44   105.45739   130.01723   414.20748
   347  H   1.0    0.07    1.08    1.44   109.39901   127.02383   413.62753
   348  H   1.0    0.04    1.05    1.44   107.83509   131.84346   411.91661
   349  H   1.0    0.12    1.02    1.43   110.24365   129.61109   408.69038
   350  H   1.0    0.05    1.00    1.43   111.74098   133.83064   410.54502
   351  H   1.0    0.04    1.00    1.43   111.43414   134.09299   413.81330
   352  H   1.0    0.06    1.00    1.43   113.57763   131.85598   412.51168
   353  N   5.0   -0.20    3.21    1.96   111.51361   125.08113   422.24357
   354  C   4.0    0.04    4.27    4.14   112.13852   122.51743   421.55634
   355  C   4.0    0.08    3.20    3.04   115.02196   122.28507   421.28954
   356  O   6.0   -0.29    1.11    1.80   116.17394   120.50364   422.22870
   357  C   4.0   -0.03    4.31    4.22   110.66403   121.62910   419.27860
   358  C   4.0   -0.03    4.28    4.15   110.65189   118.77428   419.32482
   359  C   4.0    0.15    3.24    3.04   108.59608   117.85430   421.09077
   360  O   6.0   -0.30    1.25    1.80   106.74343   119.18354   421.41386
   361  N   5.0   -0.19    3.14    1.94   108.79949   115.49119   422.13584
   362  H   1.0    0.12    1.05    1.44   110.34053   126.08523   421.10724
   363  H   1.0    0.05    1.06    1.44   111.66004   121.30149   423.17779
   364  H   1.0    0.07    1.05    1.44   108.72343   122.31042   419.43512
   365  H   1.0    0.06    1.03    1.43   111.47985   122.37172   417.53897
   366  H   1.0    0.05    1.08    1.44   110.14010   118.05369   417.46649
   367  H   1.0    0.05    1.03    1.43   112.50414   118.04207   419.84477
   368  H   1.0    0.09    1.02    1.43   110.46793   114.58504   422.17919
   369  H   1.0    0.10    1.03    1.43   107.46595   114.92226   423.37485
   370  O   6.0   -0.25    1.94    1.82    97.70019   131.03532   412.14507
   371  H   1.0    0.14    0.97    1.43    96.55289   132.23575   411.39915
   372  H   1.0    0.18    0.99    1.43    96.86341   129.43139   412.03315
   373  N   5.0   -0.21    3.23    1.96   102.40692   120.75107   431.27624
   374  C   4.0    0.03    4.35    4.29   104.21799   119.13906   430.06444
   375  C   4.0    0.07    3.29    3.05   104.19151   116.52726   431.25687
   376  O   6.0   -0.29    1.14    1.80   104.26074   114.59003   429.95938
   377  C   4.0   -0.02    4.31    4.21   106.87839   120.15982   430.25448
   378  C   4.0   -0.06    4.17    3.93   108.68243   118.26033   429.05940
   379  C   4.0   -0.07    4.13    3.86   107.07030   122.70418   428.94423
   380  H   1.0    0.08    1.03    1.43   102.95297   122.47169   431.90738
   381  H   1.0    0.06    1.05    1.44   103.71432   118.89430   428.06098
   382  H   1.0    0.04    1.05    1.44   107.38678   120.40885   432.24705
   383  H   1.0    0.04    1.00    1.43   110.56276   119.06983   428.92298
   384  H   1.0    0.06    1.00    1.43   108.82768   116.52665   430.14905
   385  H   1.0    0.06    1.00    1.43   108.06009   117.78683   427.15954
   386  H   1.0    0.04    1.00    1.43   108.99482   123.40832   429.08923
   387  H   1.0    0.05    1.00    1.43   106.59601   122.52148   426.95023
   388  H   1.0    0.04    1.00    1.43   105.82999   124.09607   429.80210
   389  N   5.0   -0.20    3.20    1.95    99.23213   112.52679   429.53988
   390  C   4.0    0.05    4.17    3.94    99.67787   111.32429   427.14233
   391  C   4.0    0.11    3.21    3.04   101.64944   109.17401   427.35824
   392  O   6.0   -0.27    1.11    1.80   101.25201   107.15127   426.27395
   393  C   4.0    0.04    4.10    3.80   100.39666   113.21813   425.03572
   394  O   6.0   -0.23    2.06    1.83   102.91890   112.74393   424.15216
   395  H   1.0    0.10    1.04    1.43   100.13927   114.16138   429.92898
   396  H   1.0    0.06    1.06    1.44    97.91493   110.36523   426.61777
   397  H   1.0    0.05    1.01    1.43    99.08097   112.99605   423.46400
   398  H   1.0    0.05    1.01    1.43   100.28705   115.14530   425.79424
   399  H   1.0    0.13    1.02    1.43   103.14122   113.67778   422.60543
   400  N   5.0   -0.21    3.19    1.95   118.07411   120.71700   409.17559
   401  C   4.0    0.03    4.27    4.14   116.00997   122.31865   410.08448
   402  C   4.0    0.08    3.25    3.04   116.55302   124.98960   409.31739
   403  O   6.0   -0.30    1.13    1.80   114.93468   126.27849   408.33310
   404  C   4.0   -0.03    4.29    4.17   115.49657   122.22235   412.93625
   405  C   4.0   -0.02    3.71    3.25   113.92050   119.98658   413.47211
   406  C   4.0   -0.01    3.60    3.17   114.78973   117.66334   414.19281
   407  C   4.0    0.00    3.89    3.45   111.27608   119.72418   413.01475
   408  N   5.0   -0.13    3.49    2.07   112.82889   115.95659   414.28150
   409  C   4.0    0.03    3.94    3.52   110.64278   117.15432   413.56813
   410  C   4.0   -0.05    3.38    3.07   109.39304   121.36835   412.21741
   411  C   4.0   -0.05    3.38    3.07   108.21341   116.17586   413.38317
   412  C   4.0   -0.04    3.40    3.08   106.99620   120.34986   411.96736
   413  C   4.0   -0.04    3.38    3.07   106.39921   117.82886   412.54314
   414  H   1.0    0.08    1.02    1.43   118.96936   119.50907   410.35991
   415  H   1.0    0.05    1.06    1.44   114.28054   121.77079   409.07356
   416  H   1.0    0.05    1.03    1.43   117.29467   122.11995   413.93976
   417  H   1.0    0.06    1.03    1.43   114.51641   123.95515   413.48402
   418  H   1.0    0.05    1.02    1.43   116.68960   117.09672   414.61405
   419  H   1.0    0.07    1.05    1.44   112.99661   114.11748   414.72481
   420  H   1.0    0.06    1.02    1.43   109.79195   123.30828   411.73482
   421  H   1.0    0.05    1.03    1.43   107.81693   114.23321   413.84030
   422  H   1.0    0.06    1.03    1.43   105.47864   121.53872   411.28797
   423  H   1.0    0.06    1.03    1.43   104.46218   117.23539   412.31641
   424  N   5.0   -0.20    3.22    1.96   114.19286   126.24698   402.28569
   425  C   4.0    0.03    4.33    4.25   111.54775   126.84310   401.87494
   426  C   4.0    0.08    3.28    3.05   110.98939   129.56096   402.52670
   427  O   6.0   -0.31    1.15    1.80   109.24265   130.70866   401.54683
   428  C   4.0   -0.04    4.50    4.54   109.87813   125.37068   403.61493
   429  C   4.0   -0.03    4.27    4.14   109.80425   122.69629   402.78732
   430  C   4.0   -0.08    4.14    3.89   108.28207   121.09612   404.55890
   431  C   4.0   -0.08    4.20    3.99   108.60967   122.62318   400.17802
   432  H   1.0    0.09    1.02    1.43   114.65137   124.85434   403.51792
   433  H   1.0    0.04    1.06    1.44   111.11441   126.55389   399.87735
   434  H   1.0    0.06    1.03    1.43   110.62760   125.54403   405.53920
   435  H   1.0    0.04    1.04    1.43   107.98653   126.18953   403.60671
   436  H   1.0    0.04    1.06    1.44   111.73003   121.93600   402.69607
   437  H   1.0    0.04    1.00    1.43   108.30451   119.13664   403.94670
   438  H   1.0    0.04    1.00    1.43   109.07266   121.15945   406.45980
   439  H   1.0    0.04    1.00    1.43   106.33109   121.72537   404.66190
   440  H   1.0    0.04    1.00    1.43   108.05470   120.69187   399.73389
   441  H   1.0    0.04    1.01    1.43   106.92703   123.79336   400.11893
   442  H   1.0    0.03    1.00    1.43   109.90146   123.22719   398.69916
   443  H   1.0    0.09    1.07    1.44   109.76289   103.23063   407.16964
   444  H   1.0    0.05    1.05    1.44   103.22619    98.19400   404.69071
   445  H   1.0    0.10    1.08    1.44   101.24591    98.33475   409.66443
   446  H   1.0    0.06    1.04    1.43    88.16357    94.81368   399.58710
   447  H   1.0    0.08    1.10    1.44   113.03319   128.14000   392.02537
   448  H   1.0    0.06    1.04    1.43   111.71998   132.25627   387.41849
   449  H   1.0    0.09    1.07    1.44   111.33299   125.21573   382.73461
   450  H   1.0    0.06    1.04    1.43   106.15571   126.58177   379.07146
   451  H   1.0    0.09    1.07    1.44   101.23291   108.14320   380.92338
   452  H   1.0    0.05    1.04    1.43   111.82485   130.57227   417.31949
   453  H   1.0    0.10    1.07    1.44   110.74925   125.09138   423.76285
   454  H   1.0    0.06    1.04    1.44   115.99171   123.59853   420.33798
   455  H   1.0    0.10    1.08    1.44   101.13369   121.08486   430.19920
   456  H   1.0    0.06    1.05    1.44   104.11647   116.34746   433.13653
   457  H   1.0    0.09    1.08    1.44    97.58062   112.90568   429.68664
   458  H   1.0    0.07    1.04    1.43   103.22470   109.43443   428.36909
   459  H   1.0    0.09    1.07    1.44   117.50349   119.70675   407.93207
   460  H   1.0    0.06    1.05    1.44   118.26650   125.72855   409.61572
   461  H   1.0    0.09    1.07    1.44   114.90100   125.76500   400.81641
   462  H   1.0    0.06    1.05    1.44   112.06171   130.46912   403.79020

  Z AO/shell   Hii/eV     exponent
  1     Wed Apr 25 08:07:45 CEST 2018   EN: 2.200 GM2: 0.406  GM3: 0.0800  RAES: 1.40
     1s    -10.707211    1.230000
  6     Wed Apr 25 08:07:45 CEST 2018   EN: 2.550 GM2: 0.538  GM3: 0.1500  RAES: 3.00
     2s    -13.970922    2.096432
     2p    -10.063292    1.800000
  7     Wed Apr 25 08:07:45 CEST 2018   EN: 3.040 GM2: 0.461  GM3:-0.0640  RAES: 1.90
     2s    -16.686243    2.339881
     2p    -12.523956    2.014332
  8     Wed Apr 25 08:07:45 CEST 2018   EN: 3.440 GM2: 0.452  GM3:-0.0517  RAES: 1.80
     2s    -20.229985    2.439742
     2p    -15.503117    2.137023
 16     Tue Apr 24 11:44:34 CEST 2018   EN: 2.580 GM2: 0.340  GM3:-0.0502  RAES: 3.10
     3s    -20.029654    1.981333
     3p    -11.377694    2.025643
     3d     -0.420282    1.702555
 no old-style atom pair restraining (fixing) potential

molecular fragmentation (1/2 indicates fragments):
111111111111111111111222222222222222222222222222222222222222222222222222
222222222222222222222222222222222222222222222222222222222222222222222222
222222222222222222222222222222222222222222222222222222222222222222222222
222222222222222222222222222222222222222222222222222222222222222222222222
222222222222222222222222222222222222222222222222222222222222222222222222
222222222222222222222222222222222222222222222222222222222222222222222222
222222222211222222222222222222
# atoms in fragment 1/2:    23   439
 fragment masses (1/2) :      176.23     2994.58
CMA distance (Bohr)    :  15.745
constraining FC (au)   :  0.0500
           ------------------------------------------------- 
          |        Self-Consistent Charge Iterations        |
           ------------------------------------------------- 

 Ncao       : 1137
 Nao        : 1135
 Nshell     : 685
 Nel        : 1246
 T(el)      :   500.0
 intcut     :    35.0
 scfconv/Eh :  0.100E-06
   qconv/e  :  0.100E-04
 intneglect :  0.100E-08
 broydamp   :      0.400
 iter      E             dE          RMSdq      gap      omega  full diag
   1   -711.2362094 -0.711236E+03  0.465E+00    2.46       0.0  T
   2   -712.8987736 -0.166256E+01  0.221E+00    1.42       1.0  T
   3   -713.0061055 -0.107332E+00  0.126E+00    1.54       1.0  T
   4   -713.1364299 -0.130324E+00  0.278E-01    0.99       1.0  T
   5   -713.1432955 -0.686552E-02  0.148E-01    1.07       1.0  T
   6   -713.1461708 -0.287535E-02  0.724E-02    1.04       1.0  T
   7   -713.1469472 -0.776396E-03  0.327E-02    0.99       1.0  T
   8   -713.1470309 -0.837111E-04  0.158E-02    0.98       1.0  T
   9   -713.1470537 -0.227839E-04  0.685E-03    0.97       1.0  T
  10   -713.1470585 -0.479151E-05  0.324E-03    0.97       1.4  T
  11   -713.1470594 -0.868498E-06  0.141E-03    0.97       3.3  T
  12   -713.1470596 -0.223994E-06  0.603E-04    0.97       7.7  T
  13   -713.1470596 -0.432667E-07  0.256E-04    0.97      18.2  T
  14   -713.1470596 -0.337513E-08  0.123E-04    0.97      37.8  T
  15   -713.1470596 -0.174498E-08  0.467E-05    0.97      99.6  T
  16   -713.1470596 -0.256932E-09  0.226E-05    0.97     205.5  T
speedup  1.92
cpu  time for SCC   18.58 s
wall time for SCC    9.69 s

   *** convergence criteria satisfied after 16 iterations ***

          eigenvalues
 #    :         611        612        613        614        615        616        617        618
 occ. :        2.000      2.000      2.000      2.000      2.000      2.000      2.000      2.000
 eps  :       -10.209    -10.176    -10.172    -10.121    -10.041     -9.822     -9.815     -9.706
 #    :         619        620        621        622        623        624        625        626
 occ. :        2.000      2.000      2.000      2.000      2.000      0.000      0.000      0.000
 eps  :        -9.695     -9.693     -9.667     -9.666     -9.333     -8.367     -8.193     -7.837
 #    :         627        628        629        630        631        632        633        634
 occ. :        0.000      0.000      0.000      0.000      0.000      0.000      0.000      0.000
 eps  :        -7.750     -7.685     -7.619     -7.557     -7.500     -7.319     -7.301     -6.710


   #   Z            q   n(s)   n(p)   n(d)      C6AA      α(0)
   1   7 N     -0.396  1.305  4.091  0.000    30.266     8.171
   2   6 C      0.036  1.050  2.914  0.000    19.984     6.367
   3   6 C      0.266  1.048  2.686  0.000    22.513     7.772
   4   8 O     -0.505  1.747  4.757  0.000    23.887     6.553
   5   6 C     -0.126  1.041  3.085  0.000    22.965     6.831
   6   1 H      0.181  0.819  0.000  0.000     1.209     1.722
   7   1 H      0.029  0.971  0.000  0.000     2.603     2.523
   8   1 H      0.046  0.954  0.000  0.000     2.371     2.408
   9   1 H      0.070  0.930  0.000  0.000     2.085     2.258
  10   1 H      0.071  0.929  0.000  0.000     2.070     2.250
  11   7 N     -0.164  1.238  3.926  0.000    24.549     7.359
  12   6 C      0.033  1.047  2.920  0.000    19.970     6.353
  13   6 C      0.197  1.082  2.720  0.000    23.795     7.990
  14   8 O     -0.362  1.759  4.603  0.000    20.940     6.135
  15   6 C     -0.019  1.061  2.958  0.000    20.912     6.509
  16  16 S     -0.258  1.937  4.282  0.039   152.130    20.759
  17   1 H      0.237  0.763  0.000  0.000     0.934     1.514
  18   1 H      0.084  0.916  0.000  0.000     1.941     2.179
  19   1 H      0.091  0.909  0.000  0.000     1.872     2.140
  20   1 H      0.072  0.928  0.000  0.000     2.066     2.248
  21   1 H      0.203  0.797  0.000  0.000     1.082     1.626
  22   7 N     -0.383  1.309  4.074  0.000    29.898     8.121
  23   6 C      0.022  1.064  2.915  0.000    20.227     6.406
  24   6 C      0.268  1.053  2.679  0.000    22.476     7.763
  25   8 O     -0.515  1.760  4.755  0.000    24.116     6.584
  26   6 C      0.120  1.044  2.836  0.000    18.721     6.178
  27   8 O     -0.470  1.723  4.747  0.000    22.252     6.368
  28   6 C     -0.115  1.037  3.079  0.000    22.762     6.802
  29   1 H      0.155  0.845  0.000  0.000     1.365     1.831
  30   1 H      0.048  0.952  0.000  0.000     2.347     2.396
  31   1 H      0.015  0.985  0.000  0.000     2.804     2.619
  32   1 H      0.332  0.668  0.000  0.000     0.631     1.248
  33   1 H      0.053  0.947  0.000  0.000     2.289     2.366
  34   1 H      0.028  0.972  0.000  0.000     2.615     2.529
  35   1 H      0.054  0.946  0.000  0.000     2.269     2.355
  36   7 N     -0.194  1.251  3.943  0.000    25.207     7.457
  37   6 C      0.024  1.064  2.912  0.000    20.181     6.398
  38   6 C      0.267  1.049  2.684  0.000    22.497     7.767
  39   8 O     -0.484  1.744  4.739  0.000    23.426     6.489
  40   6 C     -0.071  1.051  3.020  0.000    21.843     6.652
  41   6 C      0.006  1.070  2.924  0.000    27.876     8.661
  42   6 C     -0.031  1.079  2.952  0.000    28.774     8.797
  43   6 C     -0.050  1.082  2.968  0.000    29.249     8.870
  44   6 C     -0.047  1.075  2.973  0.000    29.174     8.858
  45   6 C     -0.077  1.079  2.999  0.000    29.931     8.972
  46   6 C      0.141  1.044  2.816  0.000    24.929     8.182
  47   8 O     -0.448  1.741  4.708  0.000    21.810     6.304
  48   1 H      0.239  0.761  0.000  0.000     0.928     1.509
  49   1 H      0.065  0.935  0.000  0.000     2.143     2.289
  50   1 H      0.071  0.929  0.000  0.000     2.075     2.253
  51   1 H      0.067  0.933  0.000  0.000     2.115     2.274
  52   1 H      0.012  0.988  0.000  0.000     2.866     2.647
  53   1 H      0.075  0.925  0.000  0.000     2.029     2.227
  54   1 H      0.007  0.993  0.000  0.000     2.938     2.680
  55   1 H      0.057  0.943  0.000  0.000     2.236     2.338
  56   1 H      0.341  0.659  0.000  0.000     0.609     1.225
  57   7 N     -0.175  1.245  3.931  0.000    24.796     7.396
  58   6 C      0.022  1.062  2.917  0.000    20.164     6.385
  59   6 C      0.269  1.043  2.689  0.000    22.465     7.763
  60   8 O     -0.476  1.752  4.724  0.000    23.259     6.466
  61   6 C     -0.015  1.058  2.957  0.000    20.841     6.499
  62  16 S     -0.262  1.917  4.306  0.038   152.306    20.771
  63   1 H      0.217  0.783  0.000  0.000     1.022     1.583
  64   1 H      0.082  0.918  0.000  0.000     1.961     2.190
  65   1 H      0.087  0.913  0.000  0.000     1.905     2.158
  66   1 H      0.070  0.930  0.000  0.000     2.090     2.261
  67   1 H      0.170  0.830  0.000  0.000     1.265     1.759
  68   7 N     -0.166  1.253  3.913  0.000    24.585     7.364
  69   6 C     -0.029  1.052  2.977  0.000    21.135     6.555
  70   6 C      0.205  1.089  2.706  0.000    23.642     7.963
  71   8 O     -0.358  1.753  4.605  0.000    20.856     6.123
  72   1 H      0.222  0.778  0.000  0.000     1.001     1.567
  73   1 H      0.100  0.900  0.000  0.000     1.784     2.088
  74   1 H      0.120  0.880  0.000  0.000     1.616     1.988
  75   7 N     -0.288  1.254  4.034  0.000    27.417     7.777
  76   6 C      0.020  1.066  2.914  0.000    20.212     6.396
  77   6 C      0.192  1.095  2.713  0.000    23.902     8.006
  78   8 O     -0.381  1.756  4.625  0.000    21.308     6.189
  79   6 C     -0.073  1.053  3.020  0.000    21.874     6.656
  80   6 C     -0.070  1.054  3.015  0.000    21.787     6.638
  81   6 C      0.012  1.041  2.947  0.000    20.396     6.435
  82   1 H      0.068  0.932  0.000  0.000     2.112     2.272
  83   1 H      0.045  0.955  0.000  0.000     2.388     2.417
  84   1 H      0.077  0.923  0.000  0.000     2.013     2.219
  85   1 H      0.042  0.958  0.000  0.000     2.429     2.437
  86   1 H      0.045  0.955  0.000  0.000     2.377     2.411
  87   1 H      0.030  0.970  0.000  0.000     2.580     2.512
  88   1 H      0.031  0.969  0.000  0.000     2.569     2.507
  89   7 N     -0.398  1.313  4.085  0.000    30.306     8.176
  90   6 C      0.044  1.053  2.903  0.000    19.851     6.346
  91   6 C      0.199  1.093  2.707  0.000    23.757     7.982
  92   8 O     -0.390  1.761  4.629  0.000    21.484     6.214
  93   6 C     -0.067  1.049  3.018  0.000    21.778     6.643
  94   6 C     -0.023  1.066  2.958  0.000    28.536     8.761
  95   6 C     -0.012  1.066  2.947  0.000    28.281     8.722
  96   6 C     -0.025  1.076  2.950  0.000    28.427     8.729
  97   7 N     -0.119  1.224  3.895  0.000    23.584     7.213
  98   6 C      0.046  1.056  2.898  0.000    26.870     8.497
  99   6 C     -0.043  1.078  2.965  0.000    29.058     8.840
 100   6 C     -0.058  1.070  2.989  0.000    29.449     8.898
 101   6 C     -0.053  1.076  2.977  0.000    29.310     8.878
 102   6 C     -0.044  1.080  2.965  0.000    29.105     8.848
 103   1 H      0.177  0.823  0.000  0.000     1.230     1.737
 104   1 H      0.047  0.953  0.000  0.000     2.353     2.399
 105   1 H      0.067  0.933  0.000  0.000     2.124     2.279
 106   1 H      0.064  0.936  0.000  0.000     2.152     2.294
 107   1 H      0.025  0.975  0.000  0.000     2.663     2.552
 108   1 H      0.180  0.820  0.000  0.000     1.212     1.724
 109   1 H      0.053  0.947  0.000  0.000     2.287     2.365
 110   1 H      0.028  0.972  0.000  0.000     2.617     2.530
 111   1 H      0.053  0.947  0.000  0.000     2.280     2.361
 112   1 H      0.027  0.973  0.000  0.000     2.622     2.532
 113   7 N     -0.388  1.299  4.088  0.000    30.034     8.139
 114   6 C     -0.017  1.051  2.966  0.000    20.981     6.539
 115   6 C      0.260  1.057  2.683  0.000    22.620     7.787
 116   8 O     -0.491  1.749  4.743  0.000    23.597     6.513
 117   1 H      0.167  0.833  0.000  0.000     1.291     1.780
 118   1 H      0.054  0.946  0.000  0.000     2.272     2.357
 119   1 H      0.052  0.948  0.000  0.000     2.296     2.370
 120   7 N     -0.178  1.254  3.923  0.000    24.852     7.404
 121   6 C      0.013  1.062  2.925  0.000    20.361     6.426
 122   6 C      0.266  1.051  2.683  0.000    22.517     7.771
 123   8 O     -0.479  1.758  4.721  0.000    23.335     6.477
 124   6 C     -0.082  1.056  3.026  0.000    22.039     6.680
 125   6 C     -0.009  1.046  2.962  0.000    20.698     6.470
 126   6 C     -0.119  1.042  3.077  0.000    22.804     6.804
 127   6 C     -0.116  1.038  3.078  0.000    22.751     6.797
 128   1 H      0.218  0.782  0.000  0.000     1.017     1.580
 129   1 H      0.079  0.921  0.000  0.000     1.988     2.205
 130   1 H      0.063  0.937  0.000  0.000     2.163     2.300
 131   1 H      0.068  0.932  0.000  0.000     2.104     2.268
 132   1 H      0.043  0.957  0.000  0.000     2.415     2.430
 133   1 H      0.038  0.962  0.000  0.000     2.472     2.459
 134   1 H      0.045  0.955  0.000  0.000     2.379     2.412
 135   1 H      0.043  0.957  0.000  0.000     2.408     2.427
 136   1 H      0.042  0.958  0.000  0.000     2.420     2.433
 137   1 H      0.037  0.963  0.000  0.000     2.496     2.470
 138   1 H      0.036  0.964  0.000  0.000     2.504     2.474
 139   7 N     -0.181  1.245  3.936  0.000    24.919     7.414
 140   6 C      0.011  1.064  2.925  0.000    20.376     6.423
 141   6 C      0.279  1.043  2.678  0.000    22.282     7.730
 142   8 O     -0.477  1.735  4.742  0.000    23.284     6.470
 143   6 C     -0.022  1.059  2.964  0.000    20.934     6.507
 144   6 C     -0.122  1.040  3.082  0.000    22.897     6.822
 145   6 C     -0.129  1.042  3.088  0.000    23.021     6.838
 146   1 H      0.215  0.785  0.000  0.000     1.035     1.593
 147   1 H      0.084  0.916  0.000  0.000     1.936     2.176
 148   1 H      0.054  0.946  0.000  0.000     2.273     2.358
 149   1 H      0.061  0.939  0.000  0.000     2.189     2.314
 150   1 H      0.045  0.955  0.000  0.000     2.389     2.417
 151   1 H      0.054  0.946  0.000  0.000     2.276     2.359
 152   1 H      0.059  0.941  0.000  0.000     2.209     2.324
 153   1 H      0.059  0.941  0.000  0.000     2.213     2.326
 154   1 H      0.050  0.950  0.000  0.000     2.324     2.384
 155   7 N     -0.184  1.246  3.938  0.000    24.983     7.423
 156   6 C      0.014  1.061  2.926  0.000    20.349     6.422
 157   6 C      0.277  1.036  2.687  0.000    22.318     7.737
 158   8 O     -0.473  1.731  4.742  0.000    23.190     6.456
 159   6 C     -0.081  1.060  3.021  0.000    22.036     6.683
 160   6 C     -0.020  1.054  2.966  0.000    20.894     6.502
 161   6 C     -0.124  1.042  3.083  0.000    22.904     6.818
 162   6 C     -0.124  1.043  3.081  0.000    22.895     6.816
 163   1 H      0.203  0.797  0.000  0.000     1.091     1.636
 164   1 H      0.085  0.915  0.000  0.000     1.924     2.169
 165   1 H      0.066  0.934  0.000  0.000     2.128     2.281
 166   1 H      0.053  0.947  0.000  0.000     2.280     2.361
 167   1 H      0.052  0.948  0.000  0.000     2.297     2.370
 168   1 H      0.068  0.932  0.000  0.000     2.106     2.269
 169   1 H      0.034  0.966  0.000  0.000     2.537     2.491
 170   1 H      0.044  0.956  0.000  0.000     2.390     2.418
 171   1 H      0.060  0.940  0.000  0.000     2.197     2.318
 172   1 H      0.044  0.956  0.000  0.000     2.402     2.424
 173   1 H      0.039  0.961  0.000  0.000     2.464     2.455
 174   7 N     -0.162  1.237  3.925  0.000    24.501     7.351
 175   6 C     -0.032  1.051  2.980  0.000    21.201     6.567
 176   6 C      0.274  1.046  2.680  0.000    22.367     7.744
 177   8 O     -0.486  1.753  4.732  0.000    23.470     6.495
 178   1 H      0.222  0.778  0.000  0.000     0.999     1.566
 179   1 H      0.086  0.914  0.000  0.000     1.914     2.164
 180   1 H      0.083  0.917  0.000  0.000     1.945     2.181
 181   7 N     -0.185  1.253  3.932  0.000    25.005     7.427
 182   6 C      0.026  1.053  2.921  0.000    20.140     6.391
 183   6 C      0.275  1.035  2.690  0.000    22.359     7.746
 184   8 O     -0.511  1.746  4.765  0.000    24.025     6.572
 185   6 C     -0.130  1.040  3.090  0.000    23.047     6.844
 186   1 H      0.231  0.769  0.000  0.000     0.960     1.535
 187   1 H      0.052  0.948  0.000  0.000     2.298     2.371
 188   1 H      0.054  0.946  0.000  0.000     2.270     2.356
 189   1 H      0.062  0.938  0.000  0.000     2.178     2.308
 190   1 H      0.096  0.904  0.000  0.000     1.820     2.110
 191   7 N     -0.174  1.249  3.925  0.000    24.758     7.390
 192   6 C      0.026  1.060  2.914  0.000    20.126     6.384
 193   6 C      0.274  1.056  2.670  0.000    22.363     7.743
 194   8 O     -0.508  1.745  4.762  0.000    23.952     6.562
 195   6 C     -0.079  1.054  3.025  0.000    21.986     6.672
 196   6 C     -0.018  1.053  2.965  0.000    20.855     6.495
 197   6 C     -0.120  1.043  3.076  0.000    22.836     6.812
 198   6 C     -0.120  1.039  3.081  0.000    22.854     6.815
 199   1 H      0.247  0.753  0.000  0.000     0.895     1.482
 200   1 H      0.064  0.936  0.000  0.000     2.157     2.297
 201   1 H      0.061  0.939  0.000  0.000     2.193     2.316
 202   1 H      0.068  0.932  0.000  0.000     2.106     2.269
 203   1 H      0.047  0.953  0.000  0.000     2.362     2.403
 204   1 H      0.045  0.955  0.000  0.000     2.383     2.414
 205   1 H      0.044  0.956  0.000  0.000     2.394     2.420
 206   1 H      0.047  0.953  0.000  0.000     2.353     2.399
 207   1 H      0.050  0.950  0.000  0.000     2.323     2.384
 208   1 H      0.043  0.957  0.000  0.000     2.410     2.428
 209   1 H      0.033  0.967  0.000  0.000     2.545     2.495
 210   7 N     -0.190  1.251  3.939  0.000    25.117     7.443
 211   6 C      0.011  1.073  2.915  0.000    20.392     6.431
 212   6 C      0.273  1.046  2.681  0.000    22.386     7.747
 213   8 O     -0.508  1.754  4.754  0.000    23.969     6.564
 214   6 C     -0.081  1.057  3.024  0.000    22.043     6.685
 215   6 C     -0.087  1.055  3.032  0.000    22.170     6.704
 216   6 C     -0.100  1.058  3.041  0.000    22.406     6.740
 217   6 C     -0.058  1.063  2.994  0.000    21.715     6.653
 218   7 N     -0.145  1.229  3.916  0.000    24.122     7.295
 219   1 H      0.234  0.766  0.000  0.000     0.948     1.525
 220   1 H      0.091  0.909  0.000  0.000     1.871     2.139
 221   1 H      0.062  0.938  0.000  0.000     2.177     2.307
 222   1 H      0.059  0.941  0.000  0.000     2.209     2.324
 223   1 H      0.077  0.923  0.000  0.000     2.013     2.219
 224   1 H      0.081  0.919  0.000  0.000     1.968     2.194
 225   1 H      0.093  0.907  0.000  0.000     1.846     2.125
 226   1 H      0.070  0.930  0.000  0.000     2.088     2.260
 227   1 H      0.113  0.887  0.000  0.000     1.668     2.020
 228   1 H      0.130  0.870  0.000  0.000     1.534     1.937
 229   1 H      0.303  0.697  0.000  0.000     0.703     1.314
 230   1 H      0.296  0.704  0.000  0.000     0.726     1.335
 231   1 H      0.293  0.707  0.000  0.000     0.735     1.343
 232   7 N     -0.184  1.254  3.930  0.000    24.998     7.426
 233   6 C      0.024  1.064  2.912  0.000    20.183     6.399
 234   6 C      0.280  1.042  2.678  0.000    22.260     7.725
 235   8 O     -0.519  1.753  4.766  0.000    24.203     6.596
 236   6 C     -0.132  1.046  3.086  0.000    23.094     6.852
 237   1 H      0.243  0.757  0.000  0.000     0.910     1.494
 238   1 H      0.053  0.947  0.000  0.000     2.286     2.365
 239   1 H      0.036  0.964  0.000  0.000     2.506     2.476
 240   1 H      0.085  0.915  0.000  0.000     1.926     2.170
 241   1 H      0.082  0.918  0.000  0.000     1.954     2.186
 242   7 N     -0.196  1.256  3.940  0.000    25.253     7.463
 243   6 C      0.037  1.055  2.907  0.000    19.959     6.363
 244   6 C      0.281  1.041  2.678  0.000    22.245     7.724
 245   8 O     -0.521  1.761  4.761  0.000    24.263     6.604
 246   6 C     -0.135  1.046  3.089  0.000    23.145     6.858
 247   1 H      0.245  0.755  0.000  0.000     0.901     1.487
 248   1 H      0.028  0.972  0.000  0.000     2.609     2.526
 249   1 H      0.072  0.928  0.000  0.000     2.067     2.248
 250   1 H      0.071  0.929  0.000  0.000     2.072     2.251
 251   1 H      0.091  0.909  0.000  0.000     1.871     2.139
 252   7 N     -0.192  1.258  3.935  0.000    25.176     7.452
 253   6 C      0.023  1.075  2.902  0.000    20.198     6.402
 254   6 C      0.269  1.057  2.675  0.000    22.463     7.760
 255   8 O     -0.483  1.763  4.720  0.000    23.414     6.488
 256   6 C     -0.079  1.057  3.023  0.000    22.019     6.681
 257   6 C     -0.074  1.049  3.025  0.000    21.909     6.665
 258   6 C     -0.028  1.064  2.965  0.000    21.185     6.572
 259   7 N     -0.146  1.236  3.910  0.000    24.152     7.299
 260   6 C      0.225  1.030  2.745  0.000    23.259     7.896
 261   7 N     -0.240  1.237  4.003  0.000    26.278     7.613
 262   7 N     -0.243  1.240  4.003  0.000    26.348     7.623
 263   1 H      0.244  0.756  0.000  0.000     0.906     1.491
 264   1 H      0.064  0.936  0.000  0.000     2.150     2.293
 265   1 H      0.091  0.909  0.000  0.000     1.867     2.137
 266   1 H      0.075  0.925  0.000  0.000     2.028     2.227
 267   1 H      0.047  0.953  0.000  0.000     2.356     2.401
 268   1 H      0.060  0.940  0.000  0.000     2.198     2.319
 269   1 H      0.103  0.897  0.000  0.000     1.754     2.071
 270   1 H      0.100  0.900  0.000  0.000     1.785     2.089
 271   1 H      0.244  0.756  0.000  0.000     0.906     1.491
 272   1 H      0.210  0.790  0.000  0.000     1.054     1.608
 273   1 H      0.249  0.751  0.000  0.000     0.886     1.475
 274   1 H      0.251  0.749  0.000  0.000     0.881     1.470
 275   1 H      0.264  0.736  0.000  0.000     0.832     1.429
 276   7 N     -0.207  1.268  3.939  0.000    25.503     7.500
 277   6 C      0.038  1.069  2.893  0.000    19.958     6.363
 278   6 C      0.279  1.049  2.672  0.000    22.274     7.728
 279   8 O     -0.510  1.759  4.751  0.000    24.003     6.569
 280   6 C     -0.058  1.057  3.000  0.000    21.614     6.619
 281   6 C     -0.090  1.064  3.026  0.000    22.227     6.713
 282   6 C      0.370  1.026  2.603  0.000    20.726     7.450
 283   8 O     -0.620  1.754  4.867  0.000    26.624     6.918
 284   8 O     -0.658  1.780  4.878  0.000    27.584     7.042
 285   1 H      0.230  0.770  0.000  0.000     0.964     1.538
 286   1 H      0.050  0.950  0.000  0.000     2.325     2.384
 287   1 H      0.076  0.924  0.000  0.000     2.022     2.224
 288   1 H      0.038  0.962  0.000  0.000     2.479     2.462
 289   1 H      0.034  0.966  0.000  0.000     2.535     2.490
 290   1 H     -0.010  1.010  0.000  0.000     3.245     2.817
 291   7 N     -0.200  1.253  3.947  0.000    25.346     7.477
 292   6 C      0.043  1.051  2.906  0.000    19.860     6.346
 293   6 C      0.277  1.045  2.678  0.000    22.314     7.736
 294   8 O     -0.510  1.748  4.762  0.000    24.015     6.570
 295   6 C     -0.029  1.048  2.981  0.000    21.074     6.534
 296   6 C     -0.095  1.063  3.032  0.000    22.310     6.725
 297   6 C      0.366  1.029  2.605  0.000    20.800     7.464
 298   8 O     -0.640  1.778  4.862  0.000    27.125     6.983
 299   8 O     -0.640  1.773  4.867  0.000    27.117     6.982
 300   1 H      0.230  0.770  0.000  0.000     0.965     1.538
 301   1 H      0.046  0.954  0.000  0.000     2.366     2.406
 302   1 H      0.043  0.957  0.000  0.000     2.409     2.427
 303   1 H      0.017  0.983  0.000  0.000     2.783     2.609
 304   1 H      0.036  0.964  0.000  0.000     2.502     2.474
 305   1 H      0.017  0.983  0.000  0.000     2.783     2.609
 306   7 N     -0.157  1.234  3.923  0.000    24.401     7.336
 307   6 C      0.025  1.055  2.920  0.000    20.150     6.390
 308   6 C      0.267  1.045  2.688  0.000    22.485     7.765
 309   8 O     -0.441  1.751  4.690  0.000    22.525     6.363
 310   6 C     -0.056  1.048  3.008  0.000    21.569     6.611
 311   6 C     -0.080  1.051  3.029  0.000    22.018     6.679
 312   6 C      0.295  1.043  2.662  0.000    21.989     7.678
 313   8 O     -0.472  1.746  4.726  0.000    23.177     6.455
 314   7 N     -0.285  1.284  4.001  0.000    27.365     7.769
 315   1 H      0.202  0.798  0.000  0.000     1.095     1.639
 316   1 H      0.081  0.919  0.000  0.000     1.967     2.193
 317   1 H      0.058  0.942  0.000  0.000     2.227     2.334
 318   1 H      0.072  0.928  0.000  0.000     2.060     2.245
 319   1 H      0.039  0.961  0.000  0.000     2.460     2.453
 320   1 H      0.085  0.915  0.000  0.000     1.929     2.172
 321   1 H      0.203  0.797  0.000  0.000     1.090     1.635
 322   1 H      0.200  0.800  0.000  0.000     1.107     1.648
 323   7 N     -0.191  1.260  3.931  0.000    25.144     7.447
 324   6 C      0.015  1.066  2.920  0.000    20.329     6.419
 325   6 C      0.265  1.050  2.685  0.000    22.524     7.772
 326   8 O     -0.475  1.743  4.732  0.000    23.235     6.463
 327   6 C     -0.019  1.063  2.956  0.000    20.879     6.499
 328   6 C     -0.124  1.044  3.081  0.000    22.943     6.830
 329   6 C     -0.121  1.040  3.080  0.000    22.869     6.820
 330   1 H      0.198  0.802  0.000  0.000     1.116     1.655
 331   1 H      0.074  0.926  0.000  0.000     2.043     2.235
 332   1 H      0.057  0.943  0.000  0.000     2.238     2.339
 333   1 H      0.070  0.930  0.000  0.000     2.091     2.261
 334   1 H      0.043  0.957  0.000  0.000     2.415     2.430
 335   1 H      0.053  0.947  0.000  0.000     2.281     2.362
 336   1 H      0.065  0.935  0.000  0.000     2.145     2.290
 337   1 H      0.044  0.956  0.000  0.000     2.391     2.418
 338   1 H      0.039  0.961  0.000  0.000     2.466     2.456
 339   7 N     -0.173  1.252  3.921  0.000    24.741     7.387
 340   6 C      0.026  1.062  2.912  0.000    20.122     6.385
 341   6 C      0.209  1.080  2.712  0.000    23.575     7.951
 342   8 O     -0.344  1.748  4.596  0.000    20.593     6.084
 343   6 C      0.112  1.053  2.835  0.000    18.828     6.194
 344   8 O     -0.461  1.723  4.738  0.000    22.055     6.340
 345   6 C     -0.143  1.045  3.098  0.000    23.325     6.888
 346   1 H      0.217  0.783  0.000  0.000     1.021     1.583
 347   1 H      0.095  0.905  0.000  0.000     1.831     2.116
 348   1 H      0.037  0.963  0.000  0.000     2.492     2.469
 349   1 H      0.321  0.679  0.000  0.000     0.660     1.276
 350   1 H      0.080  0.920  0.000  0.000     1.981     2.201
 351   1 H      0.064  0.936  0.000  0.000     2.149     2.292
 352   1 H      0.061  0.939  0.000  0.000     2.188     2.313
 353   7 N     -0.391  1.301  4.090  0.000    30.131     8.152
 354   6 C      0.048  1.053  2.899  0.000    19.776     6.333
 355   6 C      0.201  1.097  2.702  0.000    23.720     7.976
 356   8 O     -0.378  1.753  4.625  0.000    21.248     6.180
 357   6 C     -0.055  1.047  3.008  0.000    21.558     6.609
 358   6 C     -0.103  1.055  3.048  0.000    22.457     6.745
 359   6 C      0.286  1.044  2.669  0.000    22.151     7.706
 360   8 O     -0.497  1.758  4.739  0.000    23.720     6.530
 361   7 N     -0.301  1.274  4.027  0.000    27.755     7.824
 362   1 H      0.176  0.824  0.000  0.000     1.238     1.743
 363   1 H      0.036  0.964  0.000  0.000     2.501     2.473
 364   1 H      0.057  0.943  0.000  0.000     2.232     2.336
 365   1 H      0.055  0.945  0.000  0.000     2.259     2.350
 366   1 H      0.082  0.918  0.000  0.000     1.962     2.190
 367   1 H      0.065  0.935  0.000  0.000     2.146     2.291
 368   1 H      0.231  0.769  0.000  0.000     0.962     1.536
 369   1 H      0.205  0.795  0.000  0.000     1.082     1.630
 370   8 O     -0.610  1.748  4.862  0.000    25.418     6.805
 371   1 H      0.320  0.680  0.000  0.000     0.665     1.281
 372   1 H      0.281  0.719  0.000  0.000     0.782     1.389
 373   7 N     -0.390  1.302  4.088  0.000    30.096     8.148
 374   6 C      0.048  1.049  2.904  0.000    19.779     6.333
 375   6 C      0.192  1.094  2.714  0.000    23.901     8.007
 376   8 O     -0.374  1.763  4.611  0.000    21.174     6.169
 377   6 C     -0.013  1.058  2.956  0.000    20.775     6.482
 378   6 C     -0.112  1.038  3.074  0.000    22.686     6.790
 379   6 C     -0.109  1.037  3.072  0.000    22.642     6.784
 380   1 H      0.172  0.828  0.000  0.000     1.263     1.760
 381   1 H      0.032  0.968  0.000  0.000     2.557     2.501
 382   1 H      0.050  0.950  0.000  0.000     2.321     2.382
 383   1 H      0.051  0.949  0.000  0.000     2.308     2.376
 384   1 H      0.038  0.962  0.000  0.000     2.472     2.459
 385   1 H      0.036  0.964  0.000  0.000     2.497     2.471
 386   1 H      0.051  0.949  0.000  0.000     2.312     2.378
 387   1 H      0.037  0.963  0.000  0.000     2.496     2.470
 388   1 H      0.045  0.955  0.000  0.000     2.383     2.414
 389   7 N     -0.379  1.304  4.075  0.000    29.808     8.109
 390   6 C      0.038  1.057  2.904  0.000    19.954     6.364
 391   6 C      0.216  1.094  2.690  0.000    23.428     7.927
 392   8 O     -0.370  1.757  4.613  0.000    21.097     6.158
 393   6 C      0.075  1.048  2.877  0.000    19.556     6.339
 394   8 O     -0.470  1.719  4.751  0.000    22.254     6.368
 395   1 H      0.160  0.840  0.000  0.000     1.333     1.809
 396   1 H      0.057  0.943  0.000  0.000     2.238     2.339
 397   1 H      0.029  0.971  0.000  0.000     2.596     2.520
 398   1 H      0.038  0.962  0.000  0.000     2.482     2.464
 399   1 H      0.316  0.684  0.000  0.000     0.675     1.290
 400   7 N     -0.392  1.312  4.080  0.000    30.147     8.155
 401   6 C      0.042  1.056  2.902  0.000    19.875     6.349
 402   6 C      0.199  1.083  2.718  0.000    23.766     7.985
 403   8 O     -0.363  1.743  4.620  0.000    20.953     6.137
 404   6 C     -0.065  1.047  3.018  0.000    21.742     6.637
 405   6 C     -0.026  1.064  2.962  0.000    28.591     8.769
 406   6 C     -0.013  1.071  2.942  0.000    28.326     8.730
 407   6 C     -0.017  1.073  2.944  0.000    28.275     8.711
 408   7 N     -0.118  1.228  3.890  0.000    23.572     7.211
 409   6 C      0.041  1.066  2.893  0.000    26.998     8.519
 410   6 C     -0.038  1.078  2.960  0.000    28.940     8.821
 411   6 C     -0.061  1.069  2.992  0.000    29.520     8.909
 412   6 C     -0.042  1.077  2.965  0.000    29.047     8.839
 413   6 C     -0.040  1.076  2.964  0.000    28.984     8.829
 414   1 H      0.166  0.834  0.000  0.000     1.300     1.786
 415   1 H      0.048  0.952  0.000  0.000     2.347     2.396
 416   1 H      0.058  0.942  0.000  0.000     2.219     2.329
 417   1 H      0.054  0.946  0.000  0.000     2.277     2.360
 418   1 H      0.056  0.944  0.000  0.000     2.241     2.341
 419   1 H      0.202  0.798  0.000  0.000     1.097     1.640
 420   1 H      0.036  0.964  0.000  0.000     2.499     2.472
 421   1 H      0.031  0.969  0.000  0.000     2.577     2.510
 422   1 H      0.004  0.996  0.000  0.000     2.984     2.702
 423   1 H      0.008  0.992  0.000  0.000     2.925     2.675
 424   7 N     -0.390  1.311  4.078  0.000    30.084     8.146
 425   6 C      0.039  1.049  2.911  0.000    19.920     6.355
 426   6 C      0.193  1.091  2.717  0.000    23.889     8.006
 427   8 O     -0.375  1.741  4.634  0.000    21.180     6.170
 428   6 C     -0.067  1.049  3.018  0.000    21.746     6.633
 429   6 C     -0.006  1.045  2.961  0.000    20.642     6.461
 430   6 C     -0.111  1.036  3.075  0.000    22.658     6.785
 431   6 C     -0.118  1.043  3.075  0.000    22.787     6.803
 432   1 H      0.150  0.850  0.000  0.000     1.401     1.854
 433   1 H      0.068  0.932  0.000  0.000     2.103     2.268
 434   1 H      0.049  0.951  0.000  0.000     2.328     2.386
 435   1 H      0.045  0.955  0.000  0.000     2.379     2.412
 436   1 H      0.038  0.962  0.000  0.000     2.478     2.462
 437   1 H      0.042  0.958  0.000  0.000     2.426     2.436
 438   1 H      0.022  0.978  0.000  0.000     2.702     2.571
 439   1 H      0.033  0.967  0.000  0.000     2.543     2.494
 440   1 H      0.045  0.955  0.000  0.000     2.389     2.417
 441   1 H      0.047  0.953  0.000  0.000     2.358     2.401
 442   1 H      0.050  0.950  0.000  0.000     2.325     2.384
 443   1 H      0.173  0.827  0.000  0.000     1.252     1.753
 444   1 H      0.086  0.914  0.000  0.000     1.913     2.163
 445   1 H      0.197  0.803  0.000  0.000     1.123     1.660
 446   1 H      0.089  0.911  0.000  0.000     1.888     2.148
 447   1 H      0.170  0.830  0.000  0.000     1.271     1.766
 448   1 H      0.063  0.937  0.000  0.000     2.169     2.303
 449   1 H      0.170  0.830  0.000  0.000     1.275     1.768
 450   1 H      0.071  0.929  0.000  0.000     2.071     2.250
 451   1 H      0.186  0.814  0.000  0.000     1.177     1.699
 452   1 H      0.081  0.919  0.000  0.000     1.972     2.196
 453   1 H      0.172  0.828  0.000  0.000     1.259     1.757
 454   1 H      0.080  0.920  0.000  0.000     1.980     2.201
 455   1 H      0.175  0.825  0.000  0.000     1.241     1.745
 456   1 H      0.079  0.921  0.000  0.000     1.992     2.207
 457   1 H      0.190  0.810  0.000  0.000     1.160     1.687
 458   1 H      0.095  0.905  0.000  0.000     1.831     2.116
 459   1 H      0.186  0.814  0.000  0.000     1.178     1.700
 460   1 H      0.068  0.932  0.000  0.000     2.102     2.267
 461   1 H      0.185  0.815  0.000  0.000     1.187     1.707
 462   1 H      0.062  0.938  0.000  0.000     2.177     2.307

 Mol. C6AA /au·bohr⁶  :    1994044.939705
 Mol. C8AA /au·bohr⁸  :   44968969.636303
 Mol. α(0) /au        :       2124.724816

 
molecular dipole:
                 x           y           z       tot (Debye)
 q only:       25.145      -1.830     -54.656
   full:       23.216      -4.277     -54.271     150.431
molecular quadrupole (traceless):
                xx          xy          yy          xz          yz          zz
 q only:    27153.269    4171.118   19191.407    7320.156  -10764.884  -46344.675
  q+dip:    26928.094    3440.930   18649.325    6191.217  -12157.466  -45577.419
   full:    26928.134    3443.714   18648.508    6187.266  -12157.693  -45576.642
speedup  1.93
cpu  time for grad   21.12 s
wall time for grad   10.96 s

SCC energy    :    -713.1674217
rep           :       8.7623826
ES            :       2.2353883
AES           :      -0.0710731
AXC           :       0.2535852
disp          :      -0.6135505
XB            :       0.0000000
fix           :       0.0000000
Gborn         :       0.0000000
Gsasa         :       0.0000000
Ghb           :       0.0000000
Gshift        :       0.0000000
Gsolv         :      -0.6643070     -416.86
Etot ala COSMO:    -713.1674217
grad norm     :       0.7228350
total E       :    -704.3436990
atomizationE  :     128.5094438    80640.89
(atE without considering molecular charge,
 total energy contains solvation terms)
H-L gap (eV)  :          0.9662

------------------------------------------------------------------------
 * finished run on 2019/05/10 at 11:23:28.487     
------------------------------------------------------------------------
 total:
 * wall-time:     0 d,  0 h,  0 min, 11.719 sec
 *  cpu-time:     0 d,  0 h,  0 min, 22.506 sec
 * ratio c/w:     1.920 speedup
 SCF:
 * wall-time:     0 d,  0 h,  0 min, 11.437 sec
 *  cpu-time:     0 d,  0 h,  0 min, 22.077 sec
 * ratio c/w:     1.930 speedup

