      -----------------------------------------------------------      
     |                   =====================                   |     
     |                           x T B                           |     
     |                   =====================                   |     
     |                         S. Grimme                         |     
     |          Mulliken Center for Theoretical Chemistry        |     
     |                    University of Bonn                     |     
     |                 Version 6.0.1 (SAW181210)                 |     
      -----------------------------------------------------------      

   This program is distributed in the hope that it will be useful,
   but WITHOUT ANY WARRANTY; without even the implied warranty of
   MERCHANTABILITY or FITNESS FOR A PARTICULAR PURPOSE.
   
   FOR NON-COMMERCIAL, ACADEMIA USE ONLY.
   
   Cite this work as:
   S. Grimme, C. Bannwarth, P. Shushkov, J. Comput. Theory Chem., 2017,
   13, 1989-2009.
   C. Bannwarth, S. Ehlert and S. Grimme., ChemRxiv, 2018, preprint.
   http://doi.org/10.26434/chemrxiv.7246238.v1
   
   for sTDA-xTB:
   S. Grimme and C. Bannwarth, J. Chem. Phys., 2016, 145, 054103.
   
   in the mass-spec context:
   V. Asgeirsson, C. Bauer and S. Grimme, Chem. Sci., 2017, 8, 4879.
   
   if GBSA is used:
   P. Shushkov, F. März and S. Grimme, unpublished.
   
   for ANC optimizer:
   S. Grimme, unpublished.
   Rational Function algorithm used in ANCopt:
   F. Eckert, P. Pulay, H.-J. Werner, J. Comput. Chem., 1997, 18, 1473.
   
   with help from (in alphabetical order)
   C. Bannwarth, F. Bohle, G. Brandenburg, E. Caldeweyher, M. Checinski,
   S. Dohm, S. Ehlert, S. Ehrlich, F. März, H. Neugebauer, J. Pisarek,
   P. Pracht, P. Shushkov, and S. Spicher.
   
 * started run on 2019/05/05 at 17:07:55.039     
========================================================================
 # omp threads = 2
========================================================================
number of atoms            : 74
number of electrons        : 198
charge                     : -1
spin                       : .0
first test random number   : .7396

########################################################################
# WARNING! Please study the warnings concerning your input carefully
#  - Process number higher than OMP_NUM_THREADS, I hope you know what you are doing.
########################################################################

           ------------------------------------------------- 
          |                 G F N 2 - x T B                 |
          | Geometry, Frequencies, Noncovalent interactions |
          |            JCTC 2018 parametrisation            |
           ------------------------------------------------- 
 
      method parameters     
 k(s)        :  1.8500
 k(p)        :  2.2300
 k(d)        :  2.2300
 k(f)        :  2.0000
 kEN (H0ij)  : -2.0000
 D4 a1       :  0.5200
 D4 a2       :  5.0000
 D4 s6       :  1.0000
 D4 s8       :  2.7000
 D4 s9       :  5.0000
 alphaj      :  2.0000

 Solvent             : h2o
 Using internal parameter file: .param_gbsa2_h2o
 Gsolv ref. state (COSMO-RS): gsolv [1 M gas/solution]
 temperature (mdtemp)       :    298.150000000000     
 dielectric constant        :    80.2000000000000     
 rho                        :    1.00000000000000     
 mass                       :    18.0000000000000     
 surface tension            :    15.5689454083859     
 probe radius               :   0.975313790000000     
 vdW radii scaling          :    1.00000000000000     
 Gshift (Eh)                :   1.857443126794793E-003
 c1                         :    1.55243817000000     
 soset                      :   0.130326360000000     
 HB correction              :  T

            Z     q(EN)     CN     RAES       Cart. coordinates
     1  N   5.0   -0.22    3.26    1.97    62.15895    56.37720    10.46733
     2  C   4.0    0.03    4.24    4.07    62.33176    57.92311     8.23066
     3  C   4.0    0.07    3.22    3.04    59.74876    58.42684     7.02513
     4  O   6.0   -0.31    1.12    1.80    59.54072    59.80048     5.15524
     5  C   4.0   -0.04    4.31    4.22    63.87200    56.51880     6.21987
     6  C   4.0   -0.04    4.20    4.00    66.58277    56.17917     7.06362
     7  C   4.0    0.23    3.14    3.03    67.00605    54.15381     9.12434
     8  O   6.0   -0.32    1.26    1.80    65.22984    52.53752     9.41718
     9  O   6.0   -0.31    1.15    1.80    69.06022    54.25263    10.28606
    10  H   1.0    0.12    1.12    1.45    62.96001    54.62533    10.38549
    11  H   1.0    0.05    1.05    1.44    63.18836    59.75389     8.68966
    12  H   1.0    0.05    1.03    1.43    63.00934    54.68317     5.85720
    13  H   1.0    0.04    1.03    1.43    63.81466    57.62109     4.47955
    14  H   1.0    0.04    1.03    1.43    67.74737    55.57194     5.46601
    15  H   1.0    0.04    1.03    1.43    67.37782    57.95189     7.75861
    16  N   5.0   -0.20    3.22    1.96    53.58494    67.26408     8.15873
    17  C   4.0    0.03    4.38    4.35    54.30790    69.07373     6.18203
    18  C   4.0    0.14    3.45    3.10    54.45073    71.71131     7.42285
    19  O   6.0   -0.31    1.24    1.80    52.64446    72.57763     8.60206
    20  C   4.0   -0.02    4.34    4.27    52.32572    69.17791     4.12219
    21  C   4.0   -0.06    4.15    3.91    51.57791    66.56685     3.02657
    22  C   4.0   -0.08    4.11    3.82    53.04860    71.14729     2.12223
    23  C   4.0   -0.08    4.01    3.63    53.74596    64.90069     2.15222
    24  H   1.0    0.08    1.02    1.43    51.70008    67.06810     8.49804
    25  H   1.0    0.04    1.05    1.44    56.16877    68.52337     5.47772
    26  H   1.0    0.04    1.06    1.44    50.59893    69.88363     5.04406
    27  H   1.0    0.03    1.03    1.43    50.54228    65.54593     4.48945
    28  H   1.0    0.03    1.03    1.43    50.29118    66.90123     1.44971
    29  H   1.0    0.03    1.00    1.43    51.59877    71.23602     0.67124
    30  H   1.0    0.05    1.00    1.43    53.24428    73.01060     2.96406
    31  H   1.0    0.04    1.00    1.43    54.83746    70.65561     1.23830
    32  H   1.0    0.03    1.00    1.43    52.99403    63.13108     1.43556
    33  H   1.0    0.03    1.00    1.43    54.83612    65.79063     0.65565
    34  H   1.0    0.04    1.00    1.43    55.01672    64.44606     3.70214
    35  N   5.0   -0.14    3.46    2.05    56.56478    73.04087     7.08136
    36  C   4.0    0.04    4.29    4.18    56.83453    75.56511     8.11543
    37  C   4.0    0.08    3.24    3.04    55.85586    77.43141     6.13113
    38  O   6.0   -0.30    1.13    1.80    56.81546    77.49716     3.99641
    39  C   4.0    0.03    4.16    3.92    59.68547    76.07842     8.51116
    40  O   6.0   -0.27    2.04    1.83    60.08904    78.60998     9.32250
    41  H   1.0    0.09    1.09    1.44    58.10381    72.23671     6.26534
    42  H   1.0    0.04    1.05    1.44    55.78579    75.72394     9.88582
    43  H   1.0    0.04    1.01    1.43    60.45510    74.73239     9.87718
    44  H   1.0    0.06    1.02    1.43    60.64833    75.90402     6.69863
    45  H   1.0    0.10    1.02    1.43    59.15230    78.84735    10.88340
    46  O   6.0   -0.32    1.95    1.82    61.95042    64.55403    10.30334
    47  H   1.0    0.11    0.97    1.43    61.76366    65.67395    11.74067
    48  H   1.0    0.12    0.97    1.43    60.35517    64.70826     9.42114
    49  O   6.0   -0.33    1.96    1.82    61.43755    70.86564     5.64160
    50  H   1.0    0.12    0.97    1.43    62.93837    71.25643     6.58493
    51  H   1.0    0.12    0.97    1.43    61.95846    70.63719     3.91533
    52  O   6.0   -0.32    1.92    1.82    66.14840    63.80793     6.85938
    53  H   1.0    0.12    0.97    1.43    65.37454    63.48626     5.25123
    54  H   1.0    0.14    1.00    1.43    64.77417    64.06343     8.04661
    55  N   5.0   -0.15    3.44    2.04    70.85048    64.26305    13.36306
    56  C   4.0    0.02    4.35    4.28    68.57193    65.46262    14.34974
    57  C   4.0    0.06    3.22    3.04    69.04137    66.70712    16.90504
    58  O   6.0   -0.31    1.13    1.80    70.49769    65.77959    18.45526
    59  C   4.0   -0.04    4.35    4.29    66.80480    63.20180    14.88712
    60  C   4.0   -0.04    4.25    4.09    67.77873    61.09740    13.13829
    61  C   4.0   -0.01    4.26    4.11    70.63133    61.55011    13.04822
    62  H   1.0    0.03    1.04    1.43    67.80212    66.78402    12.96863
    63  H   1.0    0.04    1.03    1.43    66.98495    62.59942    16.84841
    64  H   1.0    0.04    1.02    1.43    64.84095    63.63997    14.48615
    65  H   1.0    0.04    1.02    1.43    67.32205    59.21409    13.80664
    66  H   1.0    0.05    1.03    1.43    66.98209    61.34702    11.25753
    67  H   1.0    0.04    1.02    1.43    71.60298    60.54784    14.57653
    68  H   1.0    0.04    1.02    1.43    71.42457    60.91309    11.25827
    69  H   1.0    0.09    1.07    1.44    62.92332    57.16810    11.76455
    70  H   1.0    0.05    1.04    1.44    58.19521    57.63604     7.75464
    71  H   1.0    0.08    1.07    1.44    54.14425    65.71327     7.74075
    72  H   1.0    0.04    1.04    1.43    54.43617    78.60405     6.55595
    73  H   1.0    0.08    1.12    1.45    71.26036    64.96521    11.86923
    74  H   1.0    0.04    1.04    1.44    68.15427    68.31527    17.35000

  Z AO/shell   Hii/eV     exponent
  1     Wed Apr 25 08:07:45 CEST 2018   EN: 2.200 GM2: 0.406  GM3: 0.0800  RAES: 1.40
     1s    -10.707211    1.230000
  6     Wed Apr 25 08:07:45 CEST 2018   EN: 2.550 GM2: 0.538  GM3: 0.1500  RAES: 3.00
     2s    -13.970922    2.096432
     2p    -10.063292    1.800000
  7     Wed Apr 25 08:07:45 CEST 2018   EN: 3.040 GM2: 0.461  GM3:-0.0640  RAES: 1.90
     2s    -16.686243    2.339881
     2p    -12.523956    2.014332
  8     Wed Apr 25 08:07:45 CEST 2018   EN: 3.440 GM2: 0.452  GM3:-0.0517  RAES: 1.80
     2s    -20.229985    2.439742
     2p    -15.503117    2.137023
 no old-style atom pair restraining (fixing) potential

molecular fragmentation (1/2 indicates fragments):
111111111111111222222222222222222222222222222222222222222222222222221122
22
# atoms in fragment 1/2:    17    57
 fragment masses (1/2) :      130.12      355.43
CMA distance (Bohr)    :  13.370
constraining FC (au)   :  0.0500
           ------------------------------------------------- 
          |        Self-Consistent Charge Iterations        |
           ------------------------------------------------- 

 Ncao       : 173
 Nao        : 173
 Nshell     : 107
 Nel        : 198
 T(el)      :   500.0
 intcut     :    35.0
 scfconv/Eh :  0.100E-06
   qconv/e  :  0.100E-04
 intneglect :  0.100E-08
 broydamp   :      0.400
 iter      E             dE          RMSdq      gap      omega  full diag
   1   -115.0415667 -0.115042E+03  0.498E+00    3.39       0.0  T
   2   -115.3622675 -0.320701E+00  0.230E+00    1.49       1.0  T
   3   -115.3862604 -0.239929E-01  0.132E+00    1.76       1.0  T
   4   -115.4107113 -0.244509E-01  0.282E-01    1.26       1.0  T
   5   -115.4115911 -0.879831E-03  0.129E-01    1.43       1.0  T
   6   -115.4118044 -0.213289E-03  0.457E-02    1.41       1.0  T
   7   -115.4118349 -0.305069E-04  0.216E-02    1.41       1.0  T
   8   -115.4118399 -0.497651E-05  0.648E-03    1.40       1.8  T
   9   -115.4118404 -0.578779E-06  0.278E-03    1.41       4.2  T
  10   -115.4118406 -0.136947E-06  0.105E-03    1.41      11.1  T
  11   -115.4118406 -0.990495E-08  0.402E-04    1.41      28.9  T
  12   -115.4118406 -0.165974E-08  0.109E-04    1.41     106.6  T
  13   -115.4118406 -0.111243E-09  0.525E-05    1.41     221.2  T
  14   -115.4118406 -0.339924E-10  0.182E-05    1.41     637.4  T
speedup  1.30
cpu  time for SCC    0.41 s
wall time for SCC    0.32 s

   *** convergence criteria satisfied after 14 iterations ***

          eigenvalues
 #    :          87         88         89         90         91         92         93         94
 occ. :        2.000      2.000      2.000      2.000      2.000      2.000      2.000      2.000
 eps  :       -11.714    -11.675    -11.535    -11.304    -11.142    -11.009    -10.891    -10.609
 #    :          95         96         97         98         99        100        101        102
 occ. :        2.000      2.000      2.000      2.000      2.000      0.000      0.000      0.000
 eps  :       -10.248     -9.921     -9.733     -9.527     -9.515     -8.106     -7.652     -7.585
 #    :         103        104        105        106        107        108        109        110
 occ. :        0.000      0.000      0.000      0.000      0.000      0.000      0.000      0.000
 eps  :        -5.869     -4.781     -0.720      0.441      0.806      0.935      1.006      1.350


   #   Z            q   n(s)   n(p)   n(d)      C6AA      α(0)
   1   7 N     -0.419  1.312  4.107  0.000    30.895     8.255
   2   6 C      0.049  1.054  2.896  0.000    19.765     6.333
   3   6 C      0.194  1.099  2.707  0.000    23.855     7.999
   4   8 O     -0.388  1.751  4.637  0.000    21.437     6.208
   5   6 C     -0.043  1.049  2.994  0.000    21.336     6.574
   6   6 C     -0.084  1.062  3.022  0.000    22.096     6.692
   7   6 C      0.369  1.029  2.602  0.000    20.744     7.453
   8   8 O     -0.650  1.786  4.864  0.000    27.386     7.016
   9   8 O     -0.638  1.779  4.859  0.000    27.067     6.975
  10   1 H      0.182  0.818  0.000  0.000     1.202     1.717
  11   1 H      0.062  0.938  0.000  0.000     2.173     2.305
  12   1 H      0.036  0.964  0.000  0.000     2.497     2.471
  13   1 H      0.039  0.961  0.000  0.000     2.466     2.456
  14   1 H      0.023  0.977  0.000  0.000     2.682     2.561
  15   1 H      0.031  0.969  0.000  0.000     2.567     2.506
  16   7 N     -0.386  1.321  4.065  0.000    29.997     8.134
  17   6 C      0.029  1.064  2.907  0.000    20.094     6.385
  18   6 C      0.272  1.051  2.677  0.000    22.403     7.751
  19   8 O     -0.502  1.751  4.751  0.000    23.838     6.546
  20   6 C     -0.020  1.065  2.955  0.000    20.902     6.502
  21   6 C     -0.058  1.051  3.006  0.000    21.613     6.619
  22   6 C     -0.113  1.040  3.073  0.000    22.719     6.797
  23   6 C     -0.106  1.033  3.073  0.000    22.582     6.777
  24   1 H      0.155  0.845  0.000  0.000     1.365     1.830
  25   1 H      0.044  0.956  0.000  0.000     2.397     2.421
  26   1 H      0.033  0.967  0.000  0.000     2.548     2.496
  27   1 H      0.032  0.968  0.000  0.000     2.556     2.500
  28   1 H      0.041  0.959  0.000  0.000     2.437     2.442
  29   1 H      0.048  0.952  0.000  0.000     2.345     2.395
  30   1 H      0.025  0.975  0.000  0.000     2.660     2.550
  31   1 H      0.045  0.955  0.000  0.000     2.384     2.414
  32   1 H      0.038  0.962  0.000  0.000     2.479     2.462
  33   1 H      0.041  0.959  0.000  0.000     2.437     2.441
  34   1 H      0.032  0.968  0.000  0.000     2.561     2.502
  35   7 N     -0.179  1.251  3.928  0.000    24.871     7.407
  36   6 C      0.020  1.063  2.918  0.000    20.249     6.408
  37   6 C      0.205  1.087  2.708  0.000    23.645     7.964
  38   8 O     -0.357  1.761  4.596  0.000    20.837     6.120
  39   6 C      0.065  1.048  2.887  0.000    19.698     6.357
  40   8 O     -0.483  1.734  4.749  0.000    22.531     6.408
  41   1 H      0.231  0.769  0.000  0.000     0.962     1.536
  42   1 H      0.082  0.918  0.000  0.000     1.962     2.190
  43   1 H      0.061  0.939  0.000  0.000     2.189     2.314
  44   1 H      0.085  0.915  0.000  0.000     1.930     2.173
  45   1 H      0.342  0.658  0.000  0.000     0.608     1.225
  46   8 O     -0.629  1.769  4.860  0.000    25.881     6.866
  47   1 H      0.331  0.669  0.000  0.000     0.634     1.251
  48   1 H      0.315  0.685  0.000  0.000     0.678     1.294
  49   8 O     -0.639  1.758  4.881  0.000    26.150     6.902
  50   1 H      0.328  0.672  0.000  0.000     0.644     1.260
  51   1 H      0.334  0.666  0.000  0.000     0.626     1.243
  52   8 O     -0.645  1.766  4.879  0.000    26.279     6.919
  53   1 H      0.314  0.686  0.000  0.000     0.679     1.295
  54   1 H      0.314  0.686  0.000  0.000     0.680     1.295
  55   7 N     -0.279  1.289  3.990  0.000    27.195     7.745
  56   6 C      0.030  1.062  2.907  0.000    20.062     6.377
  57   6 C      0.198  1.087  2.715  0.000    23.775     7.986
  58   8 O     -0.372  1.760  4.612  0.000    21.128     6.163
  59   6 C     -0.056  1.058  2.997  0.000    21.549     6.605
  60   6 C     -0.051  1.048  3.002  0.000    21.462     6.592
  61   6 C      0.020  1.042  2.938  0.000    20.295     6.424
  62   1 H      0.051  0.949  0.000  0.000     2.311     2.377
  63   1 H      0.044  0.956  0.000  0.000     2.394     2.420
  64   1 H      0.056  0.944  0.000  0.000     2.249     2.345
  65   1 H      0.018  0.982  0.000  0.000     2.769     2.602
  66   1 H      0.039  0.961  0.000  0.000     2.456     2.451
  67   1 H      0.028  0.972  0.000  0.000     2.618     2.531
  68   1 H      0.022  0.978  0.000  0.000     2.704     2.572
  69   1 H      0.160  0.840  0.000  0.000     1.337     1.811
  70   1 H      0.073  0.927  0.000  0.000     2.050     2.239
  71   1 H      0.177  0.823  0.000  0.000     1.232     1.739
  72   1 H      0.080  0.920  0.000  0.000     1.974     2.197
  73   1 H      0.178  0.822  0.000  0.000     1.225     1.734
  74   1 H      0.073  0.927  0.000  0.000     2.052     2.240

 Mol. C6AA /au·bohr⁶  :      45539.352751
 Mol. C8AA /au·bohr⁸  :     969940.554623
 Mol. α(0) /au        :        315.063055

 
molecular dipole:
                 x           y           z       tot (Debye)
 q only:      -66.736     -54.418     -10.157
   full:      -67.089     -54.674     -10.645     221.641
molecular quadrupole (traceless):
                xx          xy          yy          xz          yz          zz
 q only:    -2940.745   -5419.107    -683.127   -1045.233    -814.727    3623.872
  q+dip:    -2964.245   -5480.380    -691.553   -1101.883    -860.354    3655.799
   full:    -2964.786   -5479.582    -690.718   -1102.463    -858.979    3655.504
speedup  1.35
cpu  time for grad    0.52 s
wall time for grad    0.38 s

SCC energy    :    -115.4133531
rep           :       1.2822047
ES            :       0.5169836
AES           :       0.0025987
AXC           :       0.0347360
disp          :      -0.0625435
XB            :       0.0000000
fix           :       0.0000000
Gborn         :       0.0000000
Gsasa         :       0.0000000
Ghb           :       0.0000000
Gshift        :       0.0000000
Gsolv         :      -0.1488411      -93.40
Etot ala COSMO:    -115.4133531
grad norm     :       0.3942467
total E       :    -114.1296531
atomizationE  :      19.3815163    12162.09
(atE without considering molecular charge,
 total energy contains solvation terms)
H-L gap (eV)  :          1.4086

------------------------------------------------------------------------
 * finished run on 2019/05/05 at 17:07:55.520     
------------------------------------------------------------------------
 total:
 * wall-time:     0 d,  0 h,  0 min,  0.479 sec
 *  cpu-time:     0 d,  0 h,  0 min,  0.639 sec
 * ratio c/w:     1.335 speedup
 SCF:
 * wall-time:     0 d,  0 h,  0 min,  0.412 sec
 *  cpu-time:     0 d,  0 h,  0 min,  0.563 sec
 * ratio c/w:     1.367 speedup

