      -----------------------------------------------------------      
     |                   =====================                   |     
     |                           x T B                           |     
     |                   =====================                   |     
     |                         S. Grimme                         |     
     |          Mulliken Center for Theoretical Chemistry        |     
     |                    University of Bonn                     |     
     |                 Version 6.0.1 (SAW181210)                 |     
      -----------------------------------------------------------      

   This program is distributed in the hope that it will be useful,
   but WITHOUT ANY WARRANTY; without even the implied warranty of
   MERCHANTABILITY or FITNESS FOR A PARTICULAR PURPOSE.
   
   FOR NON-COMMERCIAL, ACADEMIA USE ONLY.
   
   Cite this work as:
   S. Grimme, C. Bannwarth, P. Shushkov, J. Comput. Theory Chem., 2017,
   13, 1989-2009.
   C. Bannwarth, S. Ehlert and S. Grimme., ChemRxiv, 2018, preprint.
   http://doi.org/10.26434/chemrxiv.7246238.v1
   
   for sTDA-xTB:
   S. Grimme and C. Bannwarth, J. Chem. Phys., 2016, 145, 054103.
   
   in the mass-spec context:
   V. Asgeirsson, C. Bauer and S. Grimme, Chem. Sci., 2017, 8, 4879.
   
   if GBSA is used:
   P. Shushkov, F. März and S. Grimme, unpublished.
   
   for ANC optimizer:
   S. Grimme, unpublished.
   Rational Function algorithm used in ANCopt:
   F. Eckert, P. Pulay, H.-J. Werner, J. Comput. Chem., 1997, 18, 1473.
   
   with help from (in alphabetical order)
   C. Bannwarth, F. Bohle, G. Brandenburg, E. Caldeweyher, M. Checinski,
   S. Dohm, S. Ehlert, S. Ehrlich, F. März, H. Neugebauer, J. Pisarek,
   P. Pracht, P. Shushkov, and S. Spicher.
   
 * started run on 2019/05/06 at 07:35:30.888     
========================================================================
 # omp threads = 2
========================================================================
number of atoms            : 423
number of electrons        : 1096
charge                     : 1
spin                       : .0
first test random number   : .7567

########################################################################
# WARNING! Please study the warnings concerning your input carefully
#  - Process number higher than OMP_NUM_THREADS, I hope you know what you are doing.
########################################################################

           ------------------------------------------------- 
          |                 G F N 2 - x T B                 |
          | Geometry, Frequencies, Noncovalent interactions |
          |            JCTC 2018 parametrisation            |
           ------------------------------------------------- 
 
      method parameters     
 k(s)        :  1.8500
 k(p)        :  2.2300
 k(d)        :  2.2300
 k(f)        :  2.0000
 kEN (H0ij)  : -2.0000
 D4 a1       :  0.5200
 D4 a2       :  5.0000
 D4 s6       :  1.0000
 D4 s8       :  2.7000
 D4 s9       :  5.0000
 alphaj      :  2.0000

 Solvent             : h2o
 Using internal parameter file: .param_gbsa2_h2o
 Gsolv ref. state (COSMO-RS): gsolv [1 M gas/solution]
 temperature (mdtemp)       :    298.150000000000     
 dielectric constant        :    80.2000000000000     
 rho                        :    1.00000000000000     
 mass                       :    18.0000000000000     
 surface tension            :    15.5689454083859     
 probe radius               :   0.975313790000000     
 vdW radii scaling          :    1.00000000000000     
 Gshift (Eh)                :   1.857443126794793E-003
 c1                         :    1.55243817000000     
 soset                      :   0.130326360000000     
 HB correction              :  T

            Z     q(EN)     CN     RAES       Cart. coordinates
     1  N   5.0   -0.21    3.24    1.96    97.35817    23.60093    -1.15437
     2  C   4.0    0.03    4.40    4.38    97.78555    26.26229    -0.57927
     3  C   4.0    0.14    3.48    3.11    97.63902    26.64655     2.25182
     4  O   6.0   -0.32    1.34    1.80    99.34658    27.78913     3.34392
     5  C   4.0   -0.02    4.36    4.31    96.26801    28.12674    -2.18985
     6  C   4.0   -0.05    4.22    4.05    93.53481    28.31690    -1.43104
     7  C   4.0   -0.07    4.18    3.96    96.46874    27.51535    -4.99951
     8  C   4.0   -0.07    4.10    3.81    92.28402    30.10737    -3.28472
     9  H   1.0    0.08    1.02    1.43    96.25454    23.07247    -2.62142
    10  H   1.0    0.05    1.06    1.44    99.78626    26.66283    -1.02529
    11  H   1.0    0.05    1.06    1.44    97.18481    29.96144    -1.86484
    12  H   1.0    0.04    1.03    1.43    92.64313    26.46472    -1.45009
    13  H   1.0    0.04    1.03    1.43    93.38070    29.08719     0.48324
    14  H   1.0    0.05    1.01    1.43    96.02656    29.14508    -6.14906
    15  H   1.0    0.05    1.00    1.43    98.38549    26.93660    -5.46854
    16  H   1.0    0.04    1.00    1.43    95.21680    25.96527    -5.51496
    17  H   1.0    0.04    0.99    1.43    90.41108    30.66418    -2.59558
    18  H   1.0    0.04    1.00    1.43    93.39396    31.82272    -3.48344
    19  H   1.0    0.04    1.00    1.43    92.01116    29.26364    -5.13067
    20  N   5.0   -0.15    3.44    2.04    95.61868    25.67065     3.40279
    21  C   4.0    0.03    4.54    4.59    95.51466    25.68242     6.14579
    22  C   4.0    0.16    3.71    3.25    98.08438    25.24309     7.32827
    23  O   6.0   -0.33    1.32    1.80    98.92121    26.62474     8.99021
    24  C   4.0   -0.03    4.38    4.35    93.92080    23.63398     7.43226
    25  C   4.0   -0.05    4.16    3.92    91.05460    24.06708     7.01635
    26  C   4.0   -0.07    4.19    3.99    94.59029    23.48540    10.25920
    27  C   4.0   -0.07    4.03    3.67    90.16735    26.71787     7.57017
    28  H   1.0    0.07    1.06    1.44    94.41940    24.55305     2.41901
    29  H   1.0    0.05    1.06    1.44    94.88517    27.55561     6.79263
    30  H   1.0    0.04    1.06    1.44    94.40307    21.81208     6.57608
    31  H   1.0    0.04    1.02    1.43    90.58275    23.59350     5.06253
    32  H   1.0    0.04    1.03    1.43    90.07250    22.73109     8.23540
    33  H   1.0    0.04    1.00    1.43    93.16142    22.37273    11.23996
    34  H   1.0    0.05    1.01    1.43    96.39276    22.56699    10.56779
    35  H   1.0    0.05    1.00    1.43    94.64429    25.35027    11.11431
    36  H   1.0    0.05    1.00    1.43    88.14615    26.73653     7.90818
    37  H   1.0    0.04    1.00    1.43    91.06692    27.46568     9.27131
    38  H   1.0    0.04    1.00    1.43    90.56876    27.99519     6.00947
    39  N   5.0   -0.15    3.54    2.11    99.21061    23.07419     6.68025
    40  C   4.0    0.04    4.50    4.54   101.76154    22.70285     7.56330
    41  C   4.0    0.16    3.45    3.09   103.78349    24.77123     6.84431
    42  O   6.0   -0.30    1.37    1.80   105.35276    25.44874     8.41942
    43  C   4.0   -0.03    4.06    3.73   102.50791    19.96110     7.04320
    44  S   6.0   -0.06    2.34    3.10   100.87171    18.11095     9.56837
    45  H   1.0    0.08    1.07    1.44    98.62453    22.08853     5.15160
    46  H   1.0    0.05    1.11    1.45   101.71693    22.91997     9.62900
    47  H   1.0    0.05    1.05    1.44   101.80287    19.34909     5.20917
    48  H   1.0    0.07    1.05    1.44   104.53957    19.64844     7.24352
    49  H   1.0    0.06    0.98    1.43   102.82658    16.63698    10.11871
    50  N   5.0   -0.14    3.52    2.09   103.89533    25.82748     4.57285
    51  C   4.0    0.05    4.54    4.59   105.99234    27.48305     4.26351
    52  C   4.0    0.17    3.52    3.12   105.85893    29.77767     6.00703
    53  O   6.0   -0.31    1.28    1.80   107.73975    30.97338     6.67612
    54  C   4.0    0.03    4.18    3.95   106.07653    28.47796     1.57643
    55  O   6.0   -0.25    2.06    1.83   108.37956    29.88180     1.32748
    56  H   1.0    0.09    1.07    1.44   102.55100    25.54871     3.22460
    57  H   1.0    0.07    1.06    1.44   107.76206    26.52510     4.75494
    58  H   1.0    0.05    1.01    1.43   106.04072    26.90375     0.23607
    59  H   1.0    0.05    1.01    1.43   104.40730    29.65352     1.21193
    60  H   1.0    0.12    1.01    1.43   108.59594    30.41904    -0.41146
    61  N   5.0   -0.14    3.50    2.08   103.50414    30.48479     6.54868
    62  C   4.0    0.03    4.35    4.30   102.96759    32.43311     8.44454
    63  C   4.0    0.15    3.41    3.08   104.06288    31.84592    11.14632
    64  O   6.0   -0.33    1.26    1.80   105.30522    33.48138    12.29663
    65  C   4.0   -0.05    4.39    4.37   100.08558    32.60075     8.63899
    66  C   4.0   -0.03    4.19    3.97    99.05347    33.89867    11.03309
    67  C   4.0   -0.08    4.09    3.79    99.48131    36.74395    10.77682
    68  C   4.0   -0.08    4.08    3.76    96.25444    33.13174    11.34521
    69  H   1.0    0.11    1.10    1.44   102.01555    29.47655     5.89228
    70  H   1.0    0.05    1.04    1.44   103.83019    34.21520     7.84421
    71  H   1.0    0.04    1.03    1.43    99.36870    33.58452     6.98151
    72  H   1.0    0.06    1.05    1.44    99.37261    30.65965     8.59366
    73  H   1.0    0.04    1.07    1.44   100.09535    33.20894    12.67061
    74  H   1.0    0.03    1.00    1.43    98.71409    37.75560    12.39307
    75  H   1.0    0.04    1.00    1.43   101.48589    37.14388    10.63811
    76  H   1.0    0.04    1.00    1.43    98.55919    37.44596     9.08113
    77  H   1.0    0.04    1.00    1.43    95.42774    33.99897    13.00636
    78  H   1.0    0.04    1.00    1.43    95.18428    33.74589     9.70171
    79  H   1.0    0.04    1.00    1.43    96.10477    31.08934    11.47486
    80  N   5.0   -0.15    3.49    2.07   103.35482    29.58901    12.13130
    81  C   4.0    0.04    4.50    4.54   103.96227    28.88710    14.68612
    82  C   4.0    0.15    3.47    3.10   106.65943    28.01194    15.04457
    83  O   6.0   -0.32    1.30    1.80   107.68990    28.72026    16.98373
    84  C   4.0   -0.03    4.25    4.09   101.93873    27.22538    15.91874
    85  C   4.0   -0.07    4.21    4.02   100.46976    25.83276    13.90629
    86  C   4.0   -0.07    4.12    3.85   102.98068    25.43642    17.93504
    87  H   1.0    0.10    1.09    1.44   102.44105    28.34981    10.99775
    88  H   1.0    0.05    1.08    1.44   103.99182    30.69827    15.74385
    89  H   1.0    0.03    1.05    1.44   100.59902    28.49350    16.88668
    90  H   1.0    0.04    1.00    1.43    99.24107    24.41605    14.78787
    91  H   1.0    0.06    1.03    1.43    99.27658    27.08355    12.82195
    92  H   1.0    0.05    1.01    1.43   101.76077    24.82193    12.66567
    93  H   1.0    0.03    1.00    1.43   101.43938    24.34981    18.75157
    94  H   1.0    0.05    1.00    1.43   104.33744    24.11550    17.12578
    95  H   1.0    0.05    1.00    1.43   103.91923    26.47976    19.43091
    96  N   5.0   -0.14    3.39    2.02   107.89409    26.81034    13.20885
    97  C   4.0    0.04    4.35    4.29   110.61484    26.52677    13.47147
    98  C   4.0    0.15    3.40    3.08   112.15318    28.98484    12.90046
    99  O   6.0   -0.29    1.27    1.80   114.35978    29.05020    13.56971
   100  C   4.0   -0.03    4.21    4.01   111.93339    24.43247    11.89460
   101  C   4.0   -0.03    4.06    3.72   111.20285    21.65099    12.21914
   102  C   4.0    0.25    3.03    3.02   110.30583    20.33586     9.59240
   103  O   6.0   -0.27    1.15    1.80   110.32232    21.58183     7.56325
   104  O   6.0   -0.27    1.15    1.80   109.56438    18.09449     9.78191
   105  H   1.0    0.11    1.08    1.44   107.06109    26.24139    11.57807
   106  H   1.0    0.06    1.06    1.44   110.97519    26.15190    15.48131
   107  H   1.0    0.07    1.04    1.43   111.60993    24.88892     9.88087
   108  H   1.0    0.07    1.04    1.43   113.95178    24.65638    12.25542
   109  H   1.0    0.06    1.02    1.43   112.75409    20.51229    12.93677
   110  H   1.0    0.05    1.02    1.43   109.59874    21.40634    13.48939
   111  N   5.0   -0.13    3.44    2.04   111.14726    31.01975    11.71762
   112  C   4.0    0.04    4.47    4.49   112.88016    32.94800    10.74442
   113  C   4.0    0.14    3.35    3.07   112.46530    35.65134    11.73610
   114  O   6.0   -0.32    1.19    1.80   114.20311    37.17359    11.85068
   115  C   4.0   -0.03    4.33    4.25   112.75400    32.92508     7.86195
   116  C   4.0    0.16    3.23    3.04   114.20772    30.65132     6.83192
   117  O   6.0   -0.27    1.19    1.80   116.43056    30.28798     7.37869
   118  N   5.0   -0.17    3.17    1.95   112.87211    29.15359     5.25008
   119  H   1.0    0.10    1.06    1.44   109.46747    30.84363    10.82051
   120  H   1.0    0.08    1.08    1.44   114.77876    32.38263    11.34399
   121  H   1.0    0.07    1.06    1.44   110.80975    32.93240     7.22026
   122  H   1.0    0.05    1.04    1.43   113.72497    34.60609     7.16438
   123  H   1.0    0.11    1.03    1.43   113.64665    27.50412     4.70059
   124  H   1.0    0.11    1.05    1.44   111.01876    29.52964     4.95081
   125  N   5.0   -0.14    3.54    2.11   110.03759    36.09326    12.30369
   126  C   4.0    0.03    4.57    4.62   109.03325    38.23789    13.64139
   127  C   4.0    0.14    3.46    3.10   108.43478    37.65372    16.40681
   128  O   6.0   -0.33    1.34    1.80   109.88294    38.44030    18.05559
   129  C   4.0   -0.02    4.41    4.40   106.82468    39.22134    12.13883
   130  C   4.0   -0.04    4.29    4.18   108.09108    40.60158     9.97553
   131  C   4.0   -0.08    4.17    3.95   105.19468    40.94231    13.68762
   132  C   4.0   -0.07    4.01    3.64   106.40362    40.95448     7.67306
   133  H   1.0    0.11    1.12    1.45   108.78042    34.66235    12.07310
   134  H   1.0    0.05    1.08    1.44   110.54954    39.65114    13.72183
   135  H   1.0    0.05    1.07    1.44   105.72533    37.62874    11.42517
   136  H   1.0    0.04    1.03    1.43   108.72181    42.45303    10.62451
   137  H   1.0    0.05    1.05    1.44   109.74344    39.52971     9.35228
   138  H   1.0    0.04    1.00    1.43   103.83446    41.90043    12.47338
   139  H   1.0    0.04    1.01    1.43   104.12416    39.93590    15.11894
   140  H   1.0    0.04    1.00    1.43   106.33986    42.37911    14.61803
   141  H   1.0    0.06    1.01    1.43   107.46437    41.78792     6.12594
   142  H   1.0    0.04    1.00    1.43   105.66078    39.13702     7.04935
   143  H   1.0    0.04    1.00    1.43   104.80554    42.17680     8.09254
   144  N   5.0   -0.15    3.49    2.07   106.33865    36.38706    17.00198
   145  C   4.0    0.03    4.56    4.62   105.43768    36.33813    19.61181
   146  C   4.0    0.15    3.58    3.15   107.18993    35.20343    21.53777
   147  O   6.0   -0.33    1.29    1.80   107.21532    35.90103    23.74264
   148  C   4.0   -0.03    4.38    4.35   103.02656    34.80120    19.71738
   149  C   4.0   -0.06    4.18    3.96   100.94936    36.34486    18.36054
   150  C   4.0   -0.07    4.17    3.93   102.41628    33.98259    22.42289
   151  C   4.0   -0.08    4.00    3.61    98.59137    34.82531    17.61859
   152  H   1.0    0.09    1.08    1.44   105.37056    35.46811    15.62704
   153  H   1.0    0.04    1.06    1.44   105.06372    38.29119    20.19952
   154  H   1.0    0.04    1.06    1.44   103.35729    33.06435    18.61966
   155  H   1.0    0.03    1.02    1.43   100.39360    37.92643    19.56082
   156  H   1.0    0.04    1.04    1.43   101.74144    37.12011    16.62598
   157  H   1.0    0.03    1.00    1.43   100.53929    33.14375    22.47894
   158  H   1.0    0.05    1.01    1.43   103.74727    32.56833    23.07729
   159  H   1.0    0.05    1.00    1.43   102.45345    35.57604    23.71487
   160  H   1.0    0.03    1.00    1.43    97.33944    36.00515    16.50543
   161  H   1.0    0.03    1.00    1.43    99.13196    33.18979    16.50568
   162  H   1.0    0.03    1.00    1.43    97.56661    34.18193    19.27241
   163  N   5.0   -0.14    3.50    2.08   108.66875    33.34999    20.73115
   164  C   4.0    0.04    4.52    4.57   110.38907    32.24835    22.50385
   165  C   4.0    0.14    3.66    3.21   112.93142    33.51680    22.69232
   166  O   6.0   -0.30    1.30    1.80   114.20653    32.92837    24.53801
   167  C   4.0   -0.03    4.46    4.47   111.12012    29.54908    21.88176
   168  C   4.0   -0.04    4.08    3.77   108.97302    27.82233    22.51525
   169  S   6.0   -0.03    2.43    3.10   109.92484    24.51858    21.95559
   170  C   4.0   -0.06    3.84    3.38   111.26288    23.59621    25.10321
   171  H   1.0    0.10    1.06    1.44   108.40454    32.44706    19.04162
   172  H   1.0    0.06    1.07    1.44   109.54797    32.30821    24.40498
   173  H   1.0    0.06    1.04    1.43   111.55565    29.35034    19.87438
   174  H   1.0    0.06    1.06    1.44   112.77784    29.01837    22.98428
   175  H   1.0    0.04    1.06    1.44   108.40647    27.98004    24.48905
   176  H   1.0    0.06    1.08    1.44   107.38374    28.12737    21.25465
   177  H   1.0    0.05    1.03    1.43   112.77071    22.26209    24.71386
   178  H   1.0    0.05    1.03    1.43   111.98051    25.26763    26.04693
   179  H   1.0    0.05    1.03    1.43   109.77229    22.68681    26.19564
   180  N   5.0   -0.10    3.78    2.38   113.68166    35.22864    20.96718
   181  C   4.0    0.04    4.75    4.80   115.66370    36.80916    21.88038
   182  C   4.0    0.15    3.52    3.12   114.43782    38.54808    23.80269
   183  O   6.0   -0.30    1.35    1.80   115.62652    39.36402    25.63700
   184  C   4.0   -0.05    4.39    4.36   116.71551    38.11609    19.58408
   185  C   4.0   -0.04    4.30    4.20   116.47855    36.08505    17.60824
   186  C   4.0    0.01    4.43    4.43   113.88071    35.01048    18.25639
   187  H   1.0    0.06    1.06    1.44   117.11664    35.70218    22.86279
   188  H   1.0    0.05    1.03    1.43   115.47956    39.68857    19.05990
   189  H   1.0    0.04    1.02    1.43   118.65756    38.75221    19.86267
   190  H   1.0    0.06    1.02    1.43   116.51748    36.78706    15.67346
   191  H   1.0    0.05    1.02    1.43   117.93260    34.63398    17.82015
   192  H   1.0    0.08    1.09    1.44   112.45878    36.13653    17.32144
   193  H   1.0    0.06    1.01    1.43   113.66971    33.02857    17.63542
   194  N   5.0   -0.14    3.48    2.07   112.06502    39.37303    23.38381
   195  C   4.0    0.03    4.54    4.59   111.18478    41.51507    25.02211
   196  C   4.0    0.16    3.64    3.19   111.44857    40.71806    27.71428
   197  O   6.0   -0.31    1.37    1.80   112.86596    41.78909    29.18905
   198  C   4.0   -0.05    4.37    4.32   108.51217    42.44451    24.49317
   199  C   4.0   -0.02    4.22    4.04   108.36527    43.14212    21.68882
   200  C   4.0   -0.08    4.08    3.77   105.58197    43.56058    20.99708
   201  C   4.0   -0.08    4.11    3.82   110.16058    45.31495    21.08887
   202  H   1.0    0.10    1.07    1.44   110.96840    38.69157    21.96893
   203  H   1.0    0.05    1.07    1.44   112.58430    43.02605    24.79563
   204  H   1.0    0.05    1.03    1.43   107.15819    40.95761    24.92838
   205  H   1.0    0.04    1.03    1.43   108.12892    44.07306    25.68850
   206  H   1.0    0.06    1.08    1.44   108.97659    41.49558    20.59338
   207  H   1.0    0.04    1.00    1.43   105.37677    43.98953    18.99729
   208  H   1.0    0.04    1.00    1.43   104.48211    41.88744    21.43453
   209  H   1.0    0.04    1.00    1.43   104.80263    45.13067    22.07462
   210  H   1.0    0.04    1.00    1.43   110.43356    45.44605    19.06595
   211  H   1.0    0.04    1.00    1.43   109.31891    47.08885    21.73590
   212  H   1.0    0.04    1.02    1.43   111.91807    45.08553    22.07527
   213  N   5.0   -0.15    3.62    2.18   109.97983    38.79182    28.29162
   214  C   4.0    0.04    4.60    4.67   109.92390    37.99271    30.83913
   215  C   4.0    0.16    3.47    3.10   112.47355    37.24647    32.00576
   216  O   6.0   -0.29    1.31    1.80   112.60134    36.75579    34.25866
   217  C   4.0   -0.02    4.41    4.40   107.88761    36.01276    31.04181
   218  C   4.0   -0.05    4.24    4.08   105.35546    37.24666    30.43102
   219  C   4.0   -0.06    4.20    4.00   107.89846    34.91713    33.67361
   220  C   4.0   -0.08    4.02    3.66   103.37997    35.22678    29.84060
   221  H   1.0    0.10    1.09    1.44   109.08769    37.76264    26.94362
   222  H   1.0    0.06    1.07    1.44   109.35107    39.61972    32.02012
   223  H   1.0    0.05    1.06    1.44   108.27510    34.49450    29.68276
   224  H   1.0    0.04    1.03    1.43   104.72902    38.36830    32.04655
   225  H   1.0    0.05    1.04    1.43   105.51374    38.47175    28.78608
   226  H   1.0    0.04    1.00    1.43   106.23485    33.74245    34.00712
   227  H   1.0    0.06    1.01    1.43   109.53755    33.72457    34.02164
   228  H   1.0    0.06    1.00    1.43   107.90804    36.41066    35.08596
   229  H   1.0    0.04    1.00    1.43   101.54792    36.06073    29.41189
   230  H   1.0    0.04    1.00    1.43   103.98629    34.11464    28.21907
   231  H   1.0    0.04    1.00    1.43   103.13784    33.93194    31.41712
   232  N   5.0   -0.13    3.49    2.07   114.55764    37.30495    30.58838
   233  C   4.0    0.03    4.29    4.19   116.95190    36.79649    31.74939
   234  C   4.0    0.16    3.30    3.05   118.76183    39.04842    31.70685
   235  O   6.0   -0.27    1.20    1.80   120.97137    38.74118    32.38550
   236  H   1.0    0.12    1.10    1.44   114.56114    37.54771    28.69296
   237  H   1.0    0.08    1.06    1.44   116.59035    36.38170    33.74161
   238  H   1.0    0.06    1.02    1.43   117.87744    35.16773    30.85802
   239  N   5.0   -0.14    3.47    2.06   117.77903    41.21265    30.80652
   240  C   4.0    0.05    4.34    4.28   118.96448    43.67034    31.09709
   241  C   4.0    0.09    3.21    3.04   117.53263    45.31282    32.95466
   242  O   6.0   -0.26    1.14    1.80   118.76433    46.93110    34.04285
   243  C   4.0   -0.04    4.25    4.09   119.41609    45.12160    28.62826
   244  C   4.0   -0.04    4.20    4.01   121.17783    43.54148    26.96560
   245  C   4.0   -0.05    4.13    3.86   122.19496    45.00441    24.70255
   246  C   4.0   -0.04    4.09    3.77   123.21326    43.24725    22.61848
   247  N   5.0   -0.12    3.98    2.81   126.02684    42.75874    22.72567
   248  H   1.0    0.13    1.14    1.45   116.04700    41.13437    29.99932
   249  H   1.0    0.07    1.07    1.44   120.80377    43.30420    31.99168
   250  H   1.0    0.05    1.02    1.43   117.60644    45.43745    27.69865
   251  H   1.0    0.06    1.03    1.43   120.26430    46.92423    29.14018
   252  H   1.0    0.05    1.03    1.43   122.72112    42.85306    28.14239
   253  H   1.0    0.06    1.03    1.43   120.10220    41.88747    26.35533
   254  H   1.0    0.04    1.03    1.43   120.66720    46.15480    23.96642
   255  H   1.0    0.05    1.03    1.43   123.66896    46.28706    25.34966
   256  H   1.0    0.04    1.02    1.43   122.28239    41.41258    22.80099
   257  H   1.0    0.04    1.02    1.43   122.87031    43.99508    20.72517
   258  H   1.0    0.06    1.02    1.43   126.50327    41.34512    21.47763
   259  H   1.0    0.06    1.01    1.43   127.06206    44.34785    22.27527
   260  H   1.0    0.06    1.02    1.43   126.51842    42.16691    24.51858
   261  N   5.0   -0.22    3.16    1.95    96.43746    22.61394    23.16429
   262  C   4.0    0.02    4.27    4.13    95.46687    21.99924    20.66870
   263  C   4.0    0.07    3.24    3.04    92.56839    22.30444    20.54991
   264  O   6.0   -0.30    1.11    1.80    91.50323    22.92982    18.56333
   265  C   4.0   -0.02    4.29    4.18    96.13480    19.24690    19.80572
   266  C   4.0   -0.05    4.19    3.97    95.99631    19.12825    16.91067
   267  C   4.0   -0.07    4.19    3.98    94.31436    17.28979    20.87245
   268  C   4.0   -0.07    4.02    3.65    95.45531    16.51280    15.72231
   269  H   1.0    0.08    1.02    1.43    97.03580    21.10610    24.19811
   270  H   1.0    0.04    1.05    1.44    96.26569    23.33980    19.30333
   271  H   1.0    0.04    1.05    1.44    98.04862    18.84375    20.47051
   272  H   1.0    0.05    1.04    1.43    94.47610    20.38999    16.29489
   273  H   1.0    0.04    1.02    1.43    97.76114    19.85438    16.11720
   274  H   1.0    0.04    1.01    1.43    95.07985    15.41629    20.54713
   275  H   1.0    0.05    1.01    1.43    94.08626    17.60355    22.85027
   276  H   1.0    0.05    1.01    1.43    92.48519    17.43488    19.94607
   277  H   1.0    0.04    1.00    1.43    95.70669    16.66336    13.68863
   278  H   1.0    0.04    1.00    1.43    96.76825    15.10464    16.43581
   279  H   1.0    0.05    1.00    1.43    93.52828    15.90091    16.06044
   280  N   5.0   -0.20    3.23    1.96    89.62514    26.69229    24.47431
   281  C   4.0    0.03    4.33    4.26    89.54344    29.40740    24.46642
   282  C   4.0    0.15    3.55    3.14    90.04296    30.53689    21.85235
   283  O   6.0   -0.30    1.28    1.80    88.70656    32.20724    20.92679
   284  C   4.0   -0.04    4.39    4.36    91.58752    30.41696    26.19989
   285  C   4.0   -0.01    3.63    3.19    92.38453    33.06582    25.51986
   286  C   4.0   -0.03    3.48    3.10    91.12437    35.12924    26.54920
   287  C   4.0   -0.04    3.48    3.11    94.51130    33.49386    24.03666
   288  C   4.0   -0.04    3.37    3.07    92.05966    37.55820    26.32145
   289  C   4.0   -0.05    3.38    3.07    95.43921    35.92817    23.78847
   290  C   4.0   -0.05    3.38    3.07    94.27808    37.94093    25.00062
   291  H   1.0    0.08    1.03    1.43    90.68262    25.80563    25.80252
   292  H   1.0    0.05    1.05    1.44    87.65707    30.05215    25.04967
   293  H   1.0    0.04    1.03    1.43    90.94345    30.36019    28.15677
   294  H   1.0    0.04    1.04    1.43    93.23685    29.19014    26.01426
   295  H   1.0    0.05    1.03    1.43    89.42644    34.79316    27.63386
   296  H   1.0    0.04    1.03    1.43    95.52629    31.91572    23.23080
   297  H   1.0    0.05    1.03    1.43    91.10719    39.11093    27.22937
   298  H   1.0    0.04    1.03    1.43    97.15764    36.25380    22.74230
   299  H   1.0    0.05    1.03    1.43    95.12506    39.79184    24.89820
   300  N   5.0   -0.14    3.50    2.08    92.09263    29.71192    20.67476
   301  C   4.0    0.04    4.30    4.19    92.72677    30.82011    18.25620
   302  C   4.0    0.10    3.28    3.05    90.52885    30.68005    16.39964
   303  O   6.0   -0.31    1.14    1.80    90.29497    32.31893    14.78388
   304  C   4.0   -0.08    4.13    3.85    94.96257    29.43675    17.10983
   305  H   1.0    0.08    1.06    1.44    93.26981    28.40586    21.43842
   306  H   1.0    0.05    1.05    1.44    93.17480    32.83164    18.52008
   307  H   1.0    0.04    1.01    1.43    95.52577    30.33725    15.36209
   308  H   1.0    0.03    1.00    1.43    96.54090    29.45141    18.43164
   309  H   1.0    0.05    1.00    1.43    94.44111    27.48003    16.72990
   310  N   5.0   -0.20    3.21    1.96    86.40069    36.94708    18.28375
   311  C   4.0    0.03    4.36    4.31    87.09125    39.38706    17.22375
   312  C   4.0    0.15    3.53    3.13    87.14008    39.39451    14.34603
   313  O   6.0   -0.29    1.28    1.80    86.85419    41.35805    13.16141
   314  C   4.0   -0.02    4.32    4.23    89.52732    40.74483    18.15622
   315  C   4.0   -0.04    4.22    4.03    91.67610    40.82400    16.21237
   316  C   4.0   -0.07    4.15    3.89    90.25929    39.69711    20.73012
   317  C   4.0   -0.08    4.04    3.69    93.94755    42.20782    17.23337
   318  H   1.0    0.11    1.03    1.43    87.71761    35.70755    18.91336
   319  H   1.0    0.05    1.06    1.44    85.49828    40.62663    17.71574
   320  H   1.0    0.05    1.06    1.44    88.98133    42.72338    18.42586
   321  H   1.0    0.04    1.02    1.43    92.21723    38.89683    15.65821
   322  H   1.0    0.06    1.05    1.44    91.01433    41.79782    14.52569
   323  H   1.0    0.04    1.00    1.43    91.66972    40.90136    21.59961
   324  H   1.0    0.05    1.00    1.43    88.62586    39.61956    21.96122
   325  H   1.0    0.05    1.00    1.43    91.05894    37.80609    20.57051
   326  H   1.0    0.04    1.00    1.43    95.30871    42.54298    15.72181
   327  H   1.0    0.04    1.00    1.43    93.39549    44.03813    17.98691
   328  H   1.0    0.04    1.00    1.43    94.89615    41.14331    18.70975
   329  N   5.0   -0.15    3.47    2.06    87.59003    37.23023    13.15545
   330  C   4.0    0.05    4.41    4.40    87.47263    37.28631    10.44035
   331  C   4.0    0.09    3.37    3.07    84.73407    37.69631     9.60656
   332  O   6.0   -0.26    1.16    1.80    84.36626    39.03291     7.72878
   333  C   4.0   -0.04    4.30    4.20    88.58889    34.91122     9.21335
   334  C   4.0   -0.01    3.61    3.17    87.94163    34.84479     6.42486
   335  C   4.0   -0.04    3.45    3.09    89.81105    35.04434     4.59066
   336  C   4.0   -0.02    3.59    3.16    85.42939    34.52656     5.69996
   337  C   4.0   -0.04    3.38    3.07    89.15222    34.96048     2.08030
   338  C   4.0   -0.03    3.37    3.07    84.75229    34.57433     3.20292
   339  C   4.0   -0.03    3.40    3.08    86.62379    34.76267     1.40611
   340  H   1.0    0.10    1.07    1.44    88.04228    35.57619    14.00730
   341  H   1.0    0.07    1.06    1.44    88.49452    38.95944     9.76005
   342  H   1.0    0.04    1.03    1.43    90.62747    34.89320     9.49460
   343  H   1.0    0.05    1.03    1.43    87.78733    33.25328    10.15496
   344  H   1.0    0.05    1.03    1.43    91.76200    35.25221     5.15560
   345  H   1.0    0.06    1.05    1.44    84.02917    34.14190     7.13845
   346  H   1.0    0.05    1.03    1.43    90.57767    35.05834     0.62277
   347  H   1.0    0.06    1.03    1.43    82.79812    34.40713     2.63983
   348  H   1.0    0.05    1.03    1.43    86.12378    34.75586    -0.57881
   349  N   5.0   -0.19    3.28    1.98   118.98376    45.41768    12.12667
   350  C   4.0    0.03    4.36    4.30   117.10873    43.72533    11.11718
   351  C   4.0    0.15    3.38    3.07   117.64557    43.15137     8.32569
   352  O   6.0   -0.28    1.21    1.80   119.69512    43.44543     7.33967
   353  C   4.0   -0.05    4.33    4.25   114.41781    44.73411    11.62130
   354  C   4.0   -0.05    4.29    4.17   114.26948    46.34467    13.96730
   355  C   4.0   -0.05    4.22    4.04   114.95012    44.80406    16.27685
   356  C   4.0   -0.04    4.15    3.91   115.68952    46.64281    18.34196
   357  N   5.0   -0.12    4.00    2.85   116.58238    45.41004    20.72946
   358  H   1.0    0.09    1.03    1.43   119.11527    47.13661    11.30375
   359  H   1.0    0.05    1.06    1.44   117.37021    41.91067    12.08934
   360  H   1.0    0.05    1.03    1.43   113.78849    45.86178    10.00629
   361  H   1.0    0.04    1.03    1.43   113.13075    43.13701    11.82536
   362  H   1.0    0.04    1.04    1.43   115.53428    47.95531    13.76571
   363  H   1.0    0.04    1.03    1.43   112.35690    47.09483    14.12711
   364  H   1.0    0.04    1.03    1.43   113.34975    43.63430    16.83771
   365  H   1.0    0.04    1.04    1.43   116.52723    43.54819    15.85652
   366  H   1.0    0.04    1.03    1.43   117.21285    47.85385    17.65616
   367  H   1.0    0.04    1.02    1.43   114.07980    47.85242    18.80101
   368  H   1.0    0.05    1.02    1.43   116.81375    46.74070    22.13193
   369  H   1.0    0.05    1.02    1.43   115.27443    44.08465    21.32687
   370  H   1.0    0.05    1.02    1.43   118.24109    44.43007    20.40268
   371  N   5.0   -0.14    3.49    2.07   115.46481    42.47222     7.13574
   372  C   4.0    0.03    4.25    4.10   115.33696    41.46506     4.60157
   373  C   4.0    0.07    3.11    3.02   112.88462    41.79381     2.91699
   374  O   6.0   -0.31    1.11    1.80   110.70979    41.26867     3.38908
   375  C   4.0   -0.03    4.34    4.28   116.07143    38.67133     4.89087
   376  C   4.0    0.00    3.55    3.14   118.89458    38.26760     4.98708
   377  C   4.0   -0.02    3.44    3.09   120.05659    36.77182     6.81924
   378  C   4.0   -0.03    3.48    3.10   120.34683    39.14871     2.98628
   379  C   4.0   -0.02    3.41    3.08   122.58430    36.11219     6.62080
   380  C   4.0   -0.03    3.43    3.09   122.87901    38.51611     2.79674
   381  C   4.0    0.08    3.42    3.08   124.04847    36.97708     4.59281
   382  O   6.0   -0.22    2.09    1.84   126.58044    36.43735     4.40384
   383  H   1.0    0.08    1.09    1.44   114.01355    41.93014     8.25397
   384  H   1.0    0.05    1.07    1.44   116.84589    42.40960     3.56371
   385  H   1.0    0.05    1.04    1.43   115.22814    37.97079     6.64091
   386  H   1.0    0.05    1.03    1.43   115.32044    37.54779     3.33022
   387  H   1.0    0.07    1.03    1.43   118.96743    36.06098     8.38603
   388  H   1.0    0.06    1.03    1.43   119.53243    40.29329     1.49961
   389  H   1.0    0.07    1.03    1.43   123.45358    34.92541     8.02568
   390  H   1.0    0.06    1.02    1.43   123.98453    39.27385     1.24249
   391  H   1.0    0.13    1.04    1.43   127.28577    37.34669     2.98959
   392  N   5.0   -0.20    3.15    1.95   109.93360    35.66456    -0.20975
   393  C   4.0    0.03    4.22    4.04   107.15876    35.69343    -0.17513
   394  C   4.0    0.09    3.32    3.06   105.99027    36.16769    -2.71880
   395  O   6.0   -0.28    1.12    1.80   104.25014    34.87821    -3.56329
   396  C   4.0   -0.03    4.33    4.26   106.00187    37.94218     1.32034
   397  C   4.0   -0.01    3.54    3.13   103.12046    37.71564     1.48532
   398  C   4.0   -0.03    3.47    3.10   101.90855    35.55448     2.39265
   399  C   4.0   -0.03    3.46    3.10   101.57106    39.73836     0.87980
   400  C   4.0   -0.04    3.40    3.08    99.29951    35.37570     2.50207
   401  C   4.0   -0.03    3.40    3.08    98.95168    39.53253     0.99481
   402  C   4.0   -0.04    3.35    3.06    97.76614    37.33547     1.73283
   403  H   1.0    0.09    1.03    1.43   110.73107    37.04713     0.85558
   404  H   1.0    0.06    1.05    1.44   106.46778    33.91479     0.61210
   405  H   1.0    0.05    1.02    1.43   106.78331    37.92319     3.24050
   406  H   1.0    0.05    1.03    1.43   106.50318    39.72850     0.44481
   407  H   1.0    0.06    1.03    1.43   103.01145    33.92911     2.96361
   408  H   1.0    0.05    1.03    1.43   102.39964    41.51346     0.28555
   409  H   1.0    0.05    1.03    1.43    98.46910    33.58814     3.06971
   410  H   1.0    0.05    1.03    1.43    97.83673    41.17424     0.49197
   411  H   1.0    0.05    1.03    1.43    95.73918    37.19519     1.77789
   412  H   1.0    0.10    1.07    1.44    98.84515    22.84671    -1.48992
   413  H   1.0    0.07    1.04    1.43   115.68346    45.03705    33.22955
   414  H   1.0    0.09    1.07    1.44    97.77003    23.65991    23.01338
   415  H   1.0    0.06    1.04    1.43    91.52178    21.99576    22.09276
   416  H   1.0    0.10    1.08    1.44    88.05476    26.07770    24.69515
   417  H   1.0    0.07    1.04    1.44    89.29069    29.25649    16.50687
   418  H   1.0    0.10    1.07    1.44    85.41409    37.18007    19.64937
   419  H   1.0    0.06    1.04    1.43    83.32200    36.89433    10.57297
   420  H   1.0    0.09    1.11    1.44   118.65531    45.71455    13.76878
   421  H   1.0    0.06    1.05    1.44   113.02118    42.53443     1.18382
   422  H   1.0    0.10    1.07    1.44   110.49340    34.17533     0.39140
   423  H   1.0    0.06    1.05    1.44   106.62474    37.58064    -3.80142

  Z AO/shell   Hii/eV     exponent
  1     Wed Apr 25 08:07:45 CEST 2018   EN: 2.200 GM2: 0.406  GM3: 0.0800  RAES: 1.40
     1s    -10.707211    1.230000
  6     Wed Apr 25 08:07:45 CEST 2018   EN: 2.550 GM2: 0.538  GM3: 0.1500  RAES: 3.00
     2s    -13.970922    2.096432
     2p    -10.063292    1.800000
  7     Wed Apr 25 08:07:45 CEST 2018   EN: 3.040 GM2: 0.461  GM3:-0.0640  RAES: 1.90
     2s    -16.686243    2.339881
     2p    -12.523956    2.014332
  8     Wed Apr 25 08:07:45 CEST 2018   EN: 3.440 GM2: 0.452  GM3:-0.0517  RAES: 1.80
     2s    -20.229985    2.439742
     2p    -15.503117    2.137023
 16     Tue Apr 24 11:44:34 CEST 2018   EN: 2.580 GM2: 0.340  GM3:-0.0502  RAES: 3.10
     3s    -20.029654    1.981333
     3p    -11.377694    2.025643
     3d     -0.420282    1.702555
 no old-style atom pair restraining (fixing) potential

molecular fragmentation (1/2 indicates fragments):
111111111111111111111111111111111111111111111111111111111111111111111111
111111111111111111111111111111111111111111111111111111111111111111111111
111111111111111111111111111111111111111111111111111111111111111111111111
111111111111111111111111111111111111111111112222222222222222222222222222
222222222222222222222222222222222222222222222222222222222222222222222222
222222222222222222222222222222222222222222222222222112222222222
# atoms in fragment 1/2:   262   161
 fragment masses (1/2) :     1740.23     1041.36
CMA distance (Bohr)    :   8.848
constraining FC (au)   :  0.0500
           ------------------------------------------------- 
          |        Self-Consistent Charge Iterations        |
           ------------------------------------------------- 

 Ncao       : 1020
 Nao        : 1018
 Nshell     : 620
 Nel        : 1096
 T(el)      :   500.0
 intcut     :    35.0
 scfconv/Eh :  0.100E-06
   qconv/e  :  0.100E-04
 intneglect :  0.100E-08
 broydamp   :      0.400
 iter      E             dE          RMSdq      gap      omega  full diag
   1   -619.3001131 -0.619300E+03  0.435E+00    3.07       0.0  T
   2   -620.5702617 -0.127015E+01  0.212E+00    1.82       1.0  T
   3   -620.6435033 -0.732417E-01  0.118E+00    2.00       1.0  T
   4   -620.7475516 -0.104048E+00  0.249E-01    1.43       1.0  T
   5   -620.7530687 -0.551709E-02  0.124E-01    1.64       1.0  T
   6   -620.7542802 -0.121153E-02  0.576E-02    1.64       1.0  T
   7   -620.7546550 -0.374782E-03  0.256E-02    1.60       1.0  T
   8   -620.7546966 -0.415960E-04  0.122E-02    1.59       1.0  T
   9   -620.7547104 -0.137994E-04  0.524E-03    1.58       1.0  T
  10   -620.7547125 -0.212002E-05  0.230E-03    1.58       2.1  T
  11   -620.7547129 -0.437488E-06  0.979E-04    1.58       5.0  T
  12   -620.7547130 -0.751403E-07  0.442E-04    1.58      11.0  T
  13   -620.7547130 -0.260688E-07  0.210E-04    1.58      23.2  T
  14   -620.7547130 -0.268574E-08  0.932E-05    1.58      52.1  T
  15   -620.7547130 -0.900855E-09  0.396E-05    1.58     122.9  T
speedup  1.97
cpu  time for SCC   20.59 s
wall time for SCC   10.43 s

   *** convergence criteria satisfied after 15 iterations ***

          eigenvalues
 #    :         536        537        538        539        540        541        542        543
 occ. :        2.000      2.000      2.000      2.000      2.000      2.000      2.000      2.000
 eps  :       -10.606    -10.586    -10.583    -10.554    -10.504    -10.251    -10.152    -10.138
 #    :         544        545        546        547        548        549        550        551
 occ. :        2.000      2.000      2.000      2.000      2.000      0.000      0.000      0.000
 eps  :       -10.115    -10.043     -9.838     -9.694     -9.617     -8.039     -7.711     -7.709
 #    :         552        553        554        555        556        557        558        559
 occ. :        0.000      0.000      0.000      0.000      0.000      0.000      0.000      0.000
 eps  :        -7.704     -7.652     -7.606     -7.176     -7.066     -6.790     -6.736     -6.721


   #   Z            q   n(s)   n(p)   n(d)      C6AA      α(0)
   1   7 N     -0.399  1.303  4.096  0.000    30.349     8.182
   2   6 C      0.029  1.061  2.910  0.000    20.096     6.384
   3   6 C      0.264  1.048  2.688  0.000    22.554     7.777
   4   8 O     -0.509  1.746  4.763  0.000    23.981     6.566
   5   6 C     -0.016  1.060  2.956  0.000    20.826     6.490
   6   6 C     -0.062  1.046  3.017  0.000    21.688     6.629
   7   6 C     -0.112  1.038  3.074  0.000    22.698     6.792
   8   6 C     -0.110  1.037  3.073  0.000    22.654     6.785
   9   1 H      0.172  0.828  0.000  0.000     1.262     1.759
  10   1 H      0.021  0.979  0.000  0.000     2.715     2.577
  11   1 H      0.036  0.964  0.000  0.000     2.498     2.472
  12   1 H      0.044  0.956  0.000  0.000     2.392     2.419
  13   1 H      0.035  0.965  0.000  0.000     2.515     2.480
  14   1 H      0.056  0.944  0.000  0.000     2.249     2.345
  15   1 H      0.033  0.967  0.000  0.000     2.540     2.492
  16   1 H      0.045  0.955  0.000  0.000     2.388     2.416
  17   1 H      0.038  0.962  0.000  0.000     2.470     2.458
  18   1 H      0.039  0.961  0.000  0.000     2.468     2.457
  19   1 H      0.047  0.953  0.000  0.000     2.363     2.404
  20   7 N     -0.163  1.248  3.915  0.000    24.527     7.355
  21   6 C      0.010  1.060  2.930  0.000    20.402     6.430
  22   6 C      0.288  1.041  2.671  0.000    22.123     7.705
  23   8 O     -0.473  1.732  4.741  0.000    23.186     6.456
  24   6 C     -0.031  1.072  2.959  0.000    21.087     6.529
  25   6 C     -0.067  1.052  3.015  0.000    21.775     6.644
  26   6 C     -0.119  1.040  3.078  0.000    22.829     6.813
  27   6 C     -0.116  1.035  3.081  0.000    22.773     6.805
  28   1 H      0.224  0.776  0.000  0.000     0.990     1.559
  29   1 H      0.093  0.907  0.000  0.000     1.846     2.125
  30   1 H      0.048  0.952  0.000  0.000     2.345     2.395
  31   1 H      0.042  0.958  0.000  0.000     2.418     2.432
  32   1 H      0.055  0.945  0.000  0.000     2.262     2.352
  33   1 H      0.062  0.938  0.000  0.000     2.181     2.309
  34   1 H      0.043  0.957  0.000  0.000     2.408     2.427
  35   1 H      0.055  0.945  0.000  0.000     2.263     2.352
  36   1 H      0.047  0.953  0.000  0.000     2.358     2.401
  37   1 H      0.047  0.953  0.000  0.000     2.355     2.400
  38   1 H      0.041  0.959  0.000  0.000     2.440     2.443
  39   7 N     -0.183  1.253  3.930  0.000    24.968     7.421
  40   6 C      0.029  1.060  2.911  0.000    20.047     6.367
  41   6 C      0.269  1.053  2.679  0.000    22.469     7.765
  42   8 O     -0.492  1.745  4.746  0.000    23.599     6.513
  43   6 C     -0.016  1.073  2.943  0.000    20.871     6.506
  44  16 S     -0.255  1.922  4.313  0.020   151.991    20.750
  45   1 H      0.202  0.798  0.000  0.000     1.096     1.640
  46   1 H      0.091  0.909  0.000  0.000     1.865     2.136
  47   1 H      0.071  0.929  0.000  0.000     2.073     2.252
  48   1 H      0.047  0.953  0.000  0.000     2.352     2.398
  49   1 H      0.174  0.826  0.000  0.000     1.239     1.741
  50   7 N     -0.173  1.242  3.931  0.000    24.736     7.387
  51   6 C      0.037  1.048  2.915  0.000    19.921     6.349
  52   6 C      0.282  1.040  2.678  0.000    22.225     7.720
  53   8 O     -0.486  1.735  4.751  0.000    23.484     6.497
  54   6 C      0.073  1.039  2.888  0.000    19.557     6.331
  55   8 O     -0.473  1.725  4.748  0.000    22.310     6.376
  56   1 H      0.216  0.784  0.000  0.000     1.028     1.588
  57   1 H      0.073  0.927  0.000  0.000     2.049     2.239
  58   1 H      0.047  0.953  0.000  0.000     2.360     2.403
  59   1 H      0.052  0.948  0.000  0.000     2.293     2.368
  60   1 H      0.342  0.658  0.000  0.000     0.606     1.223
  61   7 N     -0.181  1.253  3.927  0.000    24.917     7.414
  62   6 C      0.023  1.069  2.907  0.000    20.196     6.401
  63   6 C      0.261  1.062  2.677  0.000    22.602     7.785
  64   8 O     -0.481  1.734  4.747  0.000    23.365     6.481
  65   6 C     -0.093  1.065  3.028  0.000    22.256     6.715
  66   6 C     -0.017  1.061  2.956  0.000    20.838     6.493
  67   6 C     -0.121  1.041  3.080  0.000    22.879     6.820
  68   6 C     -0.118  1.044  3.074  0.000    22.822     6.812
  69   1 H      0.219  0.781  0.000  0.000     1.014     1.577
  70   1 H      0.081  0.919  0.000  0.000     1.964     2.192
  71   1 H      0.070  0.930  0.000  0.000     2.090     2.261
  72   1 H      0.068  0.932  0.000  0.000     2.103     2.268
  73   1 H      0.035  0.965  0.000  0.000     2.523     2.484
  74   1 H      0.057  0.943  0.000  0.000     2.232     2.336
  75   1 H      0.045  0.955  0.000  0.000     2.379     2.412
  76   1 H      0.044  0.956  0.000  0.000     2.390     2.417
  77   1 H      0.059  0.941  0.000  0.000     2.215     2.327
  78   1 H      0.043  0.957  0.000  0.000     2.411     2.428
  79   1 H      0.039  0.961  0.000  0.000     2.467     2.456
  80   7 N     -0.174  1.247  3.928  0.000    24.776     7.393
  81   6 C      0.023  1.060  2.916  0.000    20.185     6.397
  82   6 C      0.276  1.040  2.684  0.000    22.326     7.738
  83   8 O     -0.489  1.731  4.758  0.000    23.539     6.505
  84   6 C     -0.022  1.061  2.961  0.000    20.928     6.507
  85   6 C     -0.125  1.041  3.084  0.000    22.940     6.829
  86   6 C     -0.108  1.038  3.071  0.000    22.628     6.783
  87   1 H      0.219  0.781  0.000  0.000     1.016     1.579
  88   1 H      0.081  0.919  0.000  0.000     1.971     2.196
  89   1 H      0.066  0.934  0.000  0.000     2.136     2.285
  90   1 H      0.057  0.943  0.000  0.000     2.239     2.340
  91   1 H      0.084  0.916  0.000  0.000     1.934     2.175
  92   1 H      0.026  0.974  0.000  0.000     2.645     2.543
  93   1 H      0.059  0.941  0.000  0.000     2.214     2.327
  94   1 H      0.022  0.978  0.000  0.000     2.701     2.570
  95   1 H      0.050  0.950  0.000  0.000     2.322     2.383
  96   7 N     -0.189  1.249  3.940  0.000    25.099     7.441
  97   6 C      0.032  1.065  2.903  0.000    20.042     6.375
  98   6 C      0.272  1.056  2.672  0.000    22.404     7.751
  99   8 O     -0.479  1.745  4.734  0.000    23.319     6.474
 100   6 C     -0.050  1.050  3.000  0.000    21.474     6.598
 101   6 C     -0.096  1.070  3.026  0.000    22.352     6.735
 102   6 C      0.362  1.040  2.598  0.000    20.864     7.474
 103   8 O     -0.637  1.777  4.860  0.000    27.053     6.973
 104   8 O     -0.644  1.775  4.869  0.000    27.217     6.995
 105   1 H      0.209  0.791  0.000  0.000     1.063     1.615
 106   1 H      0.075  0.925  0.000  0.000     2.030     2.228
 107   1 H      0.032  0.968  0.000  0.000     2.552     2.499
 108   1 H      0.043  0.957  0.000  0.000     2.408     2.426
 109   1 H      0.023  0.977  0.000  0.000     2.693     2.566
 110   1 H      0.026  0.974  0.000  0.000     2.643     2.542
 111   7 N     -0.193  1.259  3.934  0.000    25.191     7.454
 112   6 C      0.024  1.062  2.914  0.000    20.174     6.394
 113   6 C      0.264  1.042  2.694  0.000    22.540     7.774
 114   8 O     -0.453  1.728  4.725  0.000    22.771     6.398
 115   6 C     -0.114  1.064  3.050  0.000    22.672     6.778
 116   6 C      0.287  1.041  2.672  0.000    22.133     7.703
 117   8 O     -0.500  1.757  4.743  0.000    23.779     6.538
 118   7 N     -0.291  1.271  4.019  0.000    27.495     7.788
 119   1 H      0.189  0.811  0.000  0.000     1.163     1.689
 120   1 H      0.095  0.905  0.000  0.000     1.831     2.116
 121   1 H      0.100  0.900  0.000  0.000     1.786     2.090
 122   1 H      0.084  0.916  0.000  0.000     1.939     2.178
 123   1 H      0.205  0.795  0.000  0.000     1.081     1.629
 124   1 H      0.229  0.771  0.000  0.000     0.971     1.543
 125   7 N     -0.175  1.246  3.929  0.000    24.789     7.395
 126   6 C      0.011  1.067  2.923  0.000    20.379     6.424
 127   6 C      0.257  1.050  2.693  0.000    22.680     7.799
 128   8 O     -0.462  1.729  4.733  0.000    22.952     6.423
 129   6 C     -0.032  1.057  2.975  0.000    21.098     6.532
 130   6 C     -0.067  1.052  3.015  0.000    21.752     6.636
 131   6 C     -0.126  1.037  3.088  0.000    22.958     6.831
 132   6 C     -0.114  1.038  3.076  0.000    22.747     6.801
 133   1 H      0.206  0.794  0.000  0.000     1.075     1.624
 134   1 H      0.100  0.900  0.000  0.000     1.788     2.091
 135   1 H      0.056  0.944  0.000  0.000     2.242     2.341
 136   1 H      0.058  0.942  0.000  0.000     2.219     2.330
 137   1 H      0.029  0.971  0.000  0.000     2.597     2.520
 138   1 H      0.061  0.939  0.000  0.000     2.186     2.312
 139   1 H      0.045  0.955  0.000  0.000     2.380     2.413
 140   1 H      0.057  0.943  0.000  0.000     2.233     2.337
 141   1 H      0.054  0.946  0.000  0.000     2.266     2.354
 142   1 H      0.022  0.978  0.000  0.000     2.707     2.573
 143   1 H      0.044  0.956  0.000  0.000     2.394     2.420
 144   7 N     -0.180  1.249  3.931  0.000    24.889     7.410
 145   6 C      0.013  1.060  2.926  0.000    20.343     6.420
 146   6 C      0.283  1.033  2.684  0.000    22.208     7.719
 147   8 O     -0.482  1.732  4.751  0.000    23.399     6.486
 148   6 C     -0.025  1.067  2.959  0.000    20.984     6.514
 149   6 C     -0.073  1.056  3.017  0.000    21.896     6.662
 150   6 C     -0.113  1.037  3.077  0.000    22.730     6.798
 151   6 C     -0.120  1.039  3.080  0.000    22.862     6.819
 152   1 H      0.216  0.784  0.000  0.000     1.030     1.590
 153   1 H      0.095  0.905  0.000  0.000     1.833     2.117
 154   1 H      0.031  0.969  0.000  0.000     2.567     2.505
 155   1 H      0.056  0.944  0.000  0.000     2.252     2.347
 156   1 H      0.049  0.951  0.000  0.000     2.337     2.391
 157   1 H      0.060  0.940  0.000  0.000     2.199     2.319
 158   1 H      0.030  0.970  0.000  0.000     2.593     2.518
 159   1 H      0.062  0.938  0.000  0.000     2.180     2.309
 160   1 H      0.051  0.949  0.000  0.000     2.303     2.373
 161   1 H      0.040  0.960  0.000  0.000     2.449     2.447
 162   1 H      0.049  0.951  0.000  0.000     2.332     2.388
 163   7 N     -0.173  1.239  3.934  0.000    24.753     7.389
 164   6 C      0.030  1.048  2.921  0.000    20.046     6.371
 165   6 C      0.268  1.046  2.686  0.000    22.487     7.771
 166   8 O     -0.498  1.755  4.743  0.000    23.737     6.532
 167   6 C     -0.052  1.045  3.007  0.000    21.455     6.586
 168   6 C     -0.009  1.068  2.941  0.000    20.741     6.484
 169  16 S     -0.258  1.936  4.275  0.047   152.137    20.760
 170   6 C     -0.066  1.066  3.000  0.000    21.859     6.672
 171   1 H      0.199  0.801  0.000  0.000     1.109     1.650
 172   1 H      0.076  0.924  0.000  0.000     2.024     2.225
 173   1 H      0.045  0.955  0.000  0.000     2.378     2.412
 174   1 H      0.055  0.945  0.000  0.000     2.254     2.348
 175   1 H      0.058  0.942  0.000  0.000     2.225     2.333
 176   1 H      0.070  0.930  0.000  0.000     2.091     2.261
 177   1 H      0.061  0.939  0.000  0.000     2.186     2.312
 178   1 H      0.066  0.934  0.000  0.000     2.125     2.280
 179   1 H      0.067  0.933  0.000  0.000     2.119     2.277
 180   7 N     -0.113  1.240  3.873  0.000    23.460     7.194
 181   6 C      0.018  1.058  2.924  0.000    20.207     6.389
 182   6 C      0.255  1.052  2.693  0.000    22.715     7.806
 183   8 O     -0.478  1.741  4.738  0.000    23.307     6.473
 184   6 C     -0.090  1.058  3.032  0.000    22.166     6.696
 185   6 C     -0.072  1.050  3.023  0.000    21.845     6.648
 186   6 C     -0.003  1.048  2.955  0.000    20.621     6.464
 187   1 H      0.078  0.922  0.000  0.000     1.999     2.211
 188   1 H      0.092  0.908  0.000  0.000     1.858     2.132
 189   1 H      0.103  0.897  0.000  0.000     1.757     2.073
 190   1 H      0.081  0.919  0.000  0.000     1.964     2.192
 191   1 H      0.047  0.953  0.000  0.000     2.352     2.398
 192   1 H      0.083  0.917  0.000  0.000     1.944     2.180
 193   1 H      0.009  0.991  0.000  0.000     2.903     2.664
 194   7 N     -0.190  1.259  3.930  0.000    25.111     7.442
 195   6 C      0.004  1.073  2.922  0.000    20.498     6.444
 196   6 C      0.278  1.029  2.693  0.000    22.299     7.735
 197   8 O     -0.482  1.733  4.748  0.000    23.380     6.483
 198   6 C     -0.083  1.059  3.024  0.000    22.076     6.688
 199   6 C     -0.031  1.060  2.971  0.000    21.094     6.532
 200   6 C     -0.117  1.041  3.075  0.000    22.790     6.807
 201   6 C     -0.148  1.045  3.102  0.000    23.409     6.899
 202   1 H      0.219  0.781  0.000  0.000     1.013     1.577
 203   1 H      0.096  0.904  0.000  0.000     1.821     2.110
 204   1 H      0.052  0.948  0.000  0.000     2.301     2.372
 205   1 H      0.071  0.929  0.000  0.000     2.075     2.253
 206   1 H      0.060  0.940  0.000  0.000     2.196     2.317
 207   1 H      0.049  0.951  0.000  0.000     2.335     2.390
 208   1 H      0.028  0.972  0.000  0.000     2.611     2.527
 209   1 H      0.043  0.957  0.000  0.000     2.412     2.429
 210   1 H      0.074  0.926  0.000  0.000     2.043     2.235
 211   1 H      0.059  0.941  0.000  0.000     2.206     2.323
 212   1 H      0.060  0.940  0.000  0.000     2.204     2.322
 213   7 N     -0.181  1.241  3.940  0.000    24.919     7.414
 214   6 C      0.024  1.054  2.923  0.000    20.153     6.387
 215   6 C      0.275  1.042  2.683  0.000    22.347     7.742
 216   8 O     -0.501  1.752  4.749  0.000    23.813     6.543
 217   6 C     -0.015  1.057  2.958  0.000    20.796     6.484
 218   6 C     -0.069  1.054  3.016  0.000    21.820     6.649
 219   6 C     -0.110  1.036  3.073  0.000    22.645     6.784
 220   6 C     -0.111  1.038  3.073  0.000    22.682     6.791
 221   1 H      0.222  0.778  0.000  0.000     1.000     1.566
 222   1 H      0.074  0.926  0.000  0.000     2.039     2.233
 223   1 H      0.035  0.965  0.000  0.000     2.514     2.479
 224   1 H      0.046  0.954  0.000  0.000     2.372     2.409
 225   1 H      0.052  0.948  0.000  0.000     2.291     2.367
 226   1 H      0.043  0.957  0.000  0.000     2.413     2.429
 227   1 H      0.037  0.963  0.000  0.000     2.485     2.465
 228   1 H      0.046  0.954  0.000  0.000     2.376     2.411
 229   1 H      0.046  0.954  0.000  0.000     2.368     2.406
 230   1 H      0.041  0.959  0.000  0.000     2.438     2.442
 231   1 H      0.034  0.966  0.000  0.000     2.527     2.486
 232   7 N     -0.170  1.234  3.936  0.000    24.681     7.378
 233   6 C     -0.032  1.050  2.982  0.000    21.206     6.566
 234   6 C      0.271  1.043  2.686  0.000    22.426     7.754
 235   8 O     -0.510  1.755  4.756  0.000    24.012     6.570
 236   1 H      0.211  0.789  0.000  0.000     1.052     1.607
 237   1 H      0.092  0.908  0.000  0.000     1.855     2.130
 238   1 H      0.075  0.925  0.000  0.000     2.033     2.230
 239   7 N     -0.180  1.243  3.937  0.000    24.908     7.412
 240   6 C      0.021  1.061  2.919  0.000    20.232     6.405
 241   6 C      0.202  1.084  2.714  0.000    23.701     7.973
 242   8 O     -0.373  1.755  4.617  0.000    21.143     6.165
 243   6 C     -0.081  1.059  3.022  0.000    22.042     6.684
 244   6 C     -0.090  1.055  3.035  0.000    22.205     6.708
 245   6 C     -0.105  1.056  3.049  0.000    22.511     6.755
 246   6 C     -0.065  1.068  2.997  0.000    21.849     6.674
 247   7 N     -0.149  1.230  3.919  0.000    24.222     7.310
 248   1 H      0.240  0.760  0.000  0.000     0.923     1.505
 249   1 H      0.096  0.904  0.000  0.000     1.823     2.112
 250   1 H      0.077  0.923  0.000  0.000     2.010     2.217
 251   1 H      0.080  0.920  0.000  0.000     1.975     2.197
 252   1 H      0.056  0.944  0.000  0.000     2.241     2.341
 253   1 H      0.072  0.928  0.000  0.000     2.059     2.244
 254   1 H      0.099  0.901  0.000  0.000     1.794     2.095
 255   1 H      0.098  0.902  0.000  0.000     1.799     2.098
 256   1 H      0.118  0.882  0.000  0.000     1.632     1.998
 257   1 H      0.136  0.864  0.000  0.000     1.489     1.908
 258   1 H      0.297  0.703  0.000  0.000     0.721     1.330
 259   1 H      0.301  0.699  0.000  0.000     0.710     1.320
 260   1 H      0.288  0.712  0.000  0.000     0.750     1.357
 261   7 N     -0.383  1.317  4.066  0.000    29.896     8.121
 262   6 C      0.028  1.066  2.905  0.000    20.120     6.390
 263   6 C      0.198  1.096  2.705  0.000    23.772     7.985
 264   8 O     -0.381  1.763  4.618  0.000    21.298     6.187
 265   6 C     -0.021  1.072  2.949  0.000    20.909     6.504
 266   6 C     -0.066  1.055  3.011  0.000    21.759     6.641
 267   6 C     -0.118  1.035  3.083  0.000    22.809     6.809
 268   6 C     -0.110  1.040  3.071  0.000    22.679     6.792
 269   1 H      0.160  0.840  0.000  0.000     1.334     1.809
 270   1 H      0.055  0.945  0.000  0.000     2.254     2.348
 271   1 H      0.039  0.961  0.000  0.000     2.459     2.452
 272   1 H      0.049  0.951  0.000  0.000     2.339     2.392
 273   1 H      0.030  0.970  0.000  0.000     2.586     2.515
 274   1 H      0.050  0.950  0.000  0.000     2.315     2.380
 275   1 H      0.048  0.952  0.000  0.000     2.341     2.393
 276   1 H      0.040  0.960  0.000  0.000     2.450     2.448
 277   1 H      0.040  0.960  0.000  0.000     2.444     2.445
 278   1 H      0.033  0.967  0.000  0.000     2.538     2.491
 279   1 H      0.042  0.958  0.000  0.000     2.422     2.434
 280   7 N     -0.391  1.307  4.085  0.000    30.129     8.152
 281   6 C      0.042  1.050  2.908  0.000    19.885     6.351
 282   6 C      0.272  1.049  2.679  0.000    22.399     7.751
 283   8 O     -0.508  1.756  4.753  0.000    23.968     6.564
 284   6 C     -0.079  1.057  3.022  0.000    21.985     6.672
 285   6 C      0.004  1.086  2.910  0.000    27.941     8.671
 286   6 C     -0.037  1.079  2.958  0.000    28.920     8.819
 287   6 C     -0.049  1.083  2.966  0.000    29.218     8.864
 288   6 C     -0.031  1.080  2.951  0.000    28.777     8.797
 289   6 C     -0.039  1.082  2.958  0.000    28.980     8.828
 290   6 C     -0.035  1.080  2.955  0.000    28.882     8.813
 291   1 H      0.170  0.830  0.000  0.000     1.275     1.768
 292   1 H      0.024  0.976  0.000  0.000     2.675     2.558
 293   1 H      0.051  0.949  0.000  0.000     2.302     2.373
 294   1 H      0.062  0.938  0.000  0.000     2.178     2.308
 295   1 H      0.021  0.979  0.000  0.000     2.721     2.579
 296   1 H      0.040  0.960  0.000  0.000     2.453     2.449
 297   1 H      0.032  0.968  0.000  0.000     2.561     2.502
 298   1 H      0.059  0.941  0.000  0.000     2.206     2.323
 299   1 H      0.043  0.957  0.000  0.000     2.407     2.426
 300   7 N     -0.160  1.238  3.922  0.000    24.463     7.346
 301   6 C      0.034  1.053  2.913  0.000    20.004     6.367
 302   6 C      0.210  1.083  2.707  0.000    23.548     7.947
 303   8 O     -0.361  1.741  4.620  0.000    20.920     6.132
 304   6 C     -0.134  1.043  3.091  0.000    23.122     6.855
 305   1 H      0.214  0.786  0.000  0.000     1.040     1.597
 306   1 H      0.085  0.915  0.000  0.000     1.926     2.170
 307   1 H      0.086  0.914  0.000  0.000     1.914     2.164
 308   1 H      0.076  0.924  0.000  0.000     2.018     2.221
 309   1 H      0.066  0.934  0.000  0.000     2.135     2.285
 310   7 N     -0.393  1.311  4.082  0.000    30.166     8.157
 311   6 C      0.027  1.063  2.911  0.000    20.142     6.393
 312   6 C      0.276  1.046  2.678  0.000    22.335     7.741
 313   8 O     -0.525  1.754  4.771  0.000    24.338     6.614
 314   6 C     -0.021  1.067  2.954  0.000    20.913     6.504
 315   6 C     -0.058  1.047  3.011  0.000    21.615     6.619
 316   6 C     -0.102  1.035  3.067  0.000    22.506     6.764
 317   6 C     -0.111  1.037  3.074  0.000    22.677     6.790
 318   1 H      0.168  0.832  0.000  0.000     1.285     1.776
 319   1 H      0.033  0.967  0.000  0.000     2.539     2.492
 320   1 H      0.028  0.972  0.000  0.000     2.612     2.528
 321   1 H      0.030  0.970  0.000  0.000     2.583     2.514
 322   1 H      0.030  0.970  0.000  0.000     2.582     2.513
 323   1 H      0.053  0.947  0.000  0.000     2.286     2.364
 324   1 H      0.030  0.970  0.000  0.000     2.582     2.513
 325   1 H      0.038  0.962  0.000  0.000     2.473     2.459
 326   1 H      0.046  0.954  0.000  0.000     2.365     2.405
 327   1 H      0.035  0.965  0.000  0.000     2.511     2.478
 328   1 H      0.051  0.949  0.000  0.000     2.302     2.373
 329   7 N     -0.170  1.240  3.930  0.000    24.679     7.378
 330   6 C      0.034  1.056  2.910  0.000    19.993     6.364
 331   6 C      0.211  1.085  2.704  0.000    23.537     7.945
 332   8 O     -0.380  1.763  4.617  0.000    21.293     6.187
 333   6 C     -0.080  1.060  3.021  0.000    22.024     6.680
 334   6 C      0.011  1.082  2.907  0.000    27.761     8.643
 335   6 C     -0.039  1.079  2.960  0.000    28.961     8.825
 336   6 C     -0.032  1.081  2.951  0.000    28.796     8.800
 337   6 C     -0.033  1.078  2.955  0.000    28.826     8.804
 338   6 C     -0.028  1.075  2.953  0.000    28.709     8.786
 339   6 C     -0.035  1.079  2.956  0.000    28.867     8.811
 340   1 H      0.227  0.773  0.000  0.000     0.979     1.550
 341   1 H      0.090  0.910  0.000  0.000     1.881     2.145
 342   1 H      0.082  0.918  0.000  0.000     1.958     2.188
 343   1 H      0.075  0.925  0.000  0.000     2.031     2.229
 344   1 H      0.046  0.954  0.000  0.000     2.369     2.407
 345   1 H      0.026  0.974  0.000  0.000     2.645     2.543
 346   1 H      0.041  0.959  0.000  0.000     2.441     2.443
 347   1 H      0.032  0.968  0.000  0.000     2.563     2.504
 348   1 H      0.031  0.969  0.000  0.000     2.567     2.506
 349   7 N     -0.383  1.314  4.069  0.000    29.892     8.120
 350   6 C      0.014  1.062  2.924  0.000    20.346     6.424
 351   6 C      0.276  1.048  2.676  0.000    22.331     7.738
 352   8 O     -0.464  1.755  4.709  0.000    23.005     6.431
 353   6 C     -0.088  1.056  3.032  0.000    22.171     6.703
 354   6 C     -0.075  1.046  3.029  0.000    21.927     6.665
 355   6 C     -0.106  1.052  3.054  0.000    22.517     6.755
 356   6 C     -0.068  1.067  3.001  0.000    21.888     6.676
 357   7 N     -0.124  1.224  3.901  0.000    23.686     7.228
 358   1 H      0.149  0.851  0.000  0.000     1.411     1.861
 359   1 H      0.071  0.929  0.000  0.000     2.074     2.252
 360   1 H      0.038  0.962  0.000  0.000     2.478     2.462
 361   1 H      0.041  0.959  0.000  0.000     2.432     2.439
 362   1 H      0.065  0.935  0.000  0.000     2.147     2.291
 363   1 H      0.063  0.937  0.000  0.000     2.167     2.302
 364   1 H      0.081  0.919  0.000  0.000     1.972     2.196
 365   1 H      0.084  0.916  0.000  0.000     1.943     2.180
 366   1 H      0.129  0.871  0.000  0.000     1.539     1.940
 367   1 H      0.129  0.871  0.000  0.000     1.543     1.943
 368   1 H      0.297  0.703  0.000  0.000     0.723     1.332
 369   1 H      0.260  0.740  0.000  0.000     0.846     1.441
 370   1 H      0.289  0.711  0.000  0.000     0.746     1.353
 371   7 N     -0.192  1.255  3.937  0.000    25.166     7.451
 372   6 C      0.021  1.060  2.919  0.000    20.244     6.410
 373   6 C      0.190  1.097  2.713  0.000    23.926     8.010
 374   8 O     -0.340  1.743  4.597  0.000    20.521     6.074
 375   6 C     -0.061  1.055  3.006  0.000    21.663     6.624
 376   6 C      0.005  1.078  2.917  0.000    27.915     8.666
 377   6 C     -0.036  1.083  2.954  0.000    28.901     8.816
 378   6 C     -0.039  1.082  2.957  0.000    28.976     8.827
 379   6 C     -0.057  1.076  2.981  0.000    29.406     8.892
 380   6 C     -0.073  1.082  2.991  0.000    29.812     8.954
 381   6 C      0.141  1.049  2.810  0.000    24.918     8.180
 382   8 O     -0.444  1.725  4.719  0.000    21.727     6.292
 383   1 H      0.202  0.798  0.000  0.000     1.097     1.641
 384   1 H      0.083  0.917  0.000  0.000     1.949     2.183
 385   1 H      0.053  0.947  0.000  0.000     2.277     2.360
 386   1 H      0.043  0.957  0.000  0.000     2.408     2.427
 387   1 H      0.043  0.957  0.000  0.000     2.404     2.425
 388   1 H      0.044  0.956  0.000  0.000     2.395     2.420
 389   1 H      0.047  0.953  0.000  0.000     2.359     2.402
 390   1 H      0.039  0.961  0.000  0.000     2.463     2.454
 391   1 H      0.348  0.652  0.000  0.000     0.593     1.210
 392   7 N     -0.383  1.322  4.061  0.000    29.901     8.121
 393   6 C      0.037  1.054  2.909  0.000    19.974     6.367
 394   6 C      0.204  1.088  2.708  0.000    23.663     7.969
 395   8 O     -0.401  1.762  4.639  0.000    21.701     6.246
 396   6 C     -0.077  1.064  3.014  0.000    21.947     6.665
 397   6 C      0.008  1.089  2.903  0.000    27.843     8.655
 398   6 C     -0.039  1.077  2.961  0.000    28.966     8.826
 399   6 C     -0.041  1.083  2.957  0.000    29.009     8.833
 400   6 C     -0.032  1.078  2.954  0.000    28.786     8.799
 401   6 C     -0.031  1.082  2.949  0.000    28.784     8.799
 402   6 C     -0.034  1.077  2.957  0.000    28.846     8.807
 403   1 H      0.161  0.839  0.000  0.000     1.328     1.805
 404   1 H      0.051  0.949  0.000  0.000     2.312     2.378
 405   1 H      0.082  0.918  0.000  0.000     1.961     2.190
 406   1 H      0.066  0.934  0.000  0.000     2.124     2.279
 407   1 H      0.020  0.980  0.000  0.000     2.726     2.582
 408   1 H      0.040  0.960  0.000  0.000     2.455     2.450
 409   1 H      0.032  0.968  0.000  0.000     2.558     2.501
 410   1 H      0.037  0.963  0.000  0.000     2.483     2.464
 411   1 H      0.042  0.958  0.000  0.000     2.420     2.433
 412   1 H      0.171  0.829  0.000  0.000     1.269     1.764
 413   1 H      0.071  0.929  0.000  0.000     2.077     2.253
 414   1 H      0.185  0.815  0.000  0.000     1.187     1.707
 415   1 H      0.079  0.921  0.000  0.000     1.989     2.205
 416   1 H      0.176  0.824  0.000  0.000     1.239     1.744
 417   1 H      0.068  0.932  0.000  0.000     2.105     2.269
 418   1 H      0.173  0.827  0.000  0.000     1.252     1.752
 419   1 H      0.067  0.933  0.000  0.000     2.113     2.273
 420   1 H      0.212  0.788  0.000  0.000     1.048     1.604
 421   1 H      0.085  0.915  0.000  0.000     1.929     2.172
 422   1 H      0.180  0.820  0.000  0.000     1.214     1.726
 423   1 H      0.074  0.926  0.000  0.000     2.041     2.234

 Mol. C6AA /au·bohr⁶  :    1630325.864248
 Mol. C8AA /au·bohr⁸  :   36943790.161203
 Mol. α(0) /au        :       1925.302672

 
molecular dipole:
                 x           y           z       tot (Debye)
 q only:      118.732      59.496      23.031
   full:      117.219      55.289      21.560     333.955
molecular quadrupole (traceless):
                xx          xy          yy          xz          yz          zz
 q only:    12489.914   10794.416   -4329.534    4125.943    1819.709   -8160.380
  q+dip:    12296.057   10012.253   -4431.127    3812.895    1655.621   -7864.930
   full:    12289.745   10010.524   -4427.100    3813.475    1658.083   -7862.645
speedup  1.98
cpu  time for grad   28.15 s
wall time for grad   14.21 s

SCC energy    :    -620.7741295
rep           :       7.9173352
ES            :       1.6234746
AES           :      -0.0766914
AXC           :       0.2429993
disp          :      -0.5607020
XB            :       0.0000000
fix           :       0.0000000
Gborn         :       0.0000000
Gsasa         :       0.0000000
Ghb           :       0.0000000
Gshift        :       0.0000000
Gsolv         :      -0.4637465     -291.01
Etot ala COSMO:    -620.7741295
grad norm     :       0.5831150
total E       :    -612.7987764
atomizationE  :     116.9246795    73371.34
(atE without considering molecular charge,
 total energy contains solvation terms)
H-L gap (eV)  :          1.5776

------------------------------------------------------------------------
 * finished run on 2019/05/06 at 07:35:46.281     
------------------------------------------------------------------------
 total:
 * wall-time:     0 d,  0 h,  0 min, 15.392 sec
 *  cpu-time:     0 d,  0 h,  0 min, 30.331 sec
 * ratio c/w:     1.971 speedup
 SCF:
 * wall-time:     0 d,  0 h,  0 min, 15.157 sec
 *  cpu-time:     0 d,  0 h,  0 min, 30.030 sec
 * ratio c/w:     1.981 speedup

