      -----------------------------------------------------------      
     |                   =====================                   |     
     |                           x T B                           |     
     |                   =====================                   |     
     |                         S. Grimme                         |     
     |          Mulliken Center for Theoretical Chemistry        |     
     |                    University of Bonn                     |     
     |                 Version 6.0.1 (SAW181210)                 |     
      -----------------------------------------------------------      

   This program is distributed in the hope that it will be useful,
   but WITHOUT ANY WARRANTY; without even the implied warranty of
   MERCHANTABILITY or FITNESS FOR A PARTICULAR PURPOSE.
   
   FOR NON-COMMERCIAL, ACADEMIA USE ONLY.
   
   Cite this work as:
   S. Grimme, C. Bannwarth, P. Shushkov, J. Comput. Theory Chem., 2017,
   13, 1989-2009.
   C. Bannwarth, S. Ehlert and S. Grimme., ChemRxiv, 2018, preprint.
   http://doi.org/10.26434/chemrxiv.7246238.v1
   
   for sTDA-xTB:
   S. Grimme and C. Bannwarth, J. Chem. Phys., 2016, 145, 054103.
   
   in the mass-spec context:
   V. Asgeirsson, C. Bauer and S. Grimme, Chem. Sci., 2017, 8, 4879.
   
   if GBSA is used:
   P. Shushkov, F. März and S. Grimme, unpublished.
   
   for ANC optimizer:
   S. Grimme, unpublished.
   Rational Function algorithm used in ANCopt:
   F. Eckert, P. Pulay, H.-J. Werner, J. Comput. Chem., 1997, 18, 1473.
   
   with help from (in alphabetical order)
   C. Bannwarth, F. Bohle, G. Brandenburg, E. Caldeweyher, M. Checinski,
   S. Dohm, S. Ehlert, S. Ehrlich, F. März, H. Neugebauer, J. Pisarek,
   P. Pracht, P. Shushkov, and S. Spicher.
   
 * started run on 2019/05/04 at 17:39:54.609     
========================================================================
 # omp threads = 2
========================================================================
number of atoms            : 365
number of electrons        : 1006
charge                     : -1
spin                       : .0
first test random number   : .9856

########################################################################
# WARNING! Please study the warnings concerning your input carefully
#  - Process number higher than OMP_NUM_THREADS, I hope you know what you are doing.
########################################################################

           ------------------------------------------------- 
          |                 G F N 2 - x T B                 |
          | Geometry, Frequencies, Noncovalent interactions |
          |            JCTC 2018 parametrisation            |
           ------------------------------------------------- 
 
      method parameters     
 k(s)        :  1.8500
 k(p)        :  2.2300
 k(d)        :  2.2300
 k(f)        :  2.0000
 kEN (H0ij)  : -2.0000
 D4 a1       :  0.5200
 D4 a2       :  5.0000
 D4 s6       :  1.0000
 D4 s8       :  2.7000
 D4 s9       :  5.0000
 alphaj      :  2.0000

 Solvent             : h2o
 Using internal parameter file: .param_gbsa2_h2o
 Gsolv ref. state (COSMO-RS): gsolv [1 M gas/solution]
 temperature (mdtemp)       :    298.150000000000     
 dielectric constant        :    80.2000000000000     
 rho                        :    1.00000000000000     
 mass                       :    18.0000000000000     
 surface tension            :    15.5689454083859     
 probe radius               :   0.975313790000000     
 vdW radii scaling          :    1.00000000000000     
 Gshift (Eh)                :   1.857443126794793E-003
 c1                         :    1.55243817000000     
 soset                      :   0.130326360000000     
 HB correction              :  T

            Z     q(EN)     CN     RAES       Cart. coordinates
     1  N   5.0   -0.20    3.31    1.98    -0.79746   109.13356   159.40972
     2  C   4.0    0.03    4.42    4.41    -1.99555   107.54241   161.25409
     3  C   4.0    0.15    3.45    3.10    -4.64495   108.53263   161.66228
     4  O   6.0   -0.28    1.27    1.80    -6.46853   107.14368   161.36748
     5  C   4.0   -0.04    4.15    3.90    -0.47621   107.58966   163.68806
     6  S   6.0   -0.03    2.40    3.10     2.65695   106.17425   163.37248
     7  H   1.0    0.09    1.05    1.44     0.91274   109.83843   159.95207
     8  H   1.0    0.05    1.06    1.44    -2.07114   105.57899   160.63426
     9  H   1.0    0.05    1.07    1.44    -0.23055   109.54741   164.28144
    10  H   1.0    0.04    1.07    1.44    -1.50233   106.54086   165.13370
    11  N   5.0   -0.14    3.54    2.10    -4.85660   110.95337   162.27833
    12  C   4.0    0.04    4.31    4.23    -7.29812   112.10232   162.86225
    13  C   4.0    0.10    3.27    3.05    -9.36359   111.23305   161.06512
    14  O   6.0   -0.28    1.12    1.80   -11.36859   110.38267   161.88715
    15  C   4.0   -0.05    4.27    4.15    -7.12616   115.00494   162.81879
    16  C   4.0   -0.04    4.17    3.93    -5.48965   116.19925   164.88993
    17  C   4.0    0.23    3.15    3.03    -2.66073   115.83642   164.44395
    18  O   6.0   -0.31    1.51    1.80    -1.94642   114.44558   162.66572
    19  O   6.0   -0.31    1.17    1.80    -1.14517   116.94380   165.88203
    20  H   1.0    0.13    1.33    1.51    -3.37316   112.17980   162.39171
    21  H   1.0    0.06    1.06    1.44    -7.79701   111.51840   164.77276
    22  H   1.0    0.05    1.03    1.43    -6.33247   115.57753   161.00654
    23  H   1.0    0.04    1.03    1.43    -9.02722   115.76839   163.02666
    24  H   1.0    0.04    1.03    1.43    -5.86760   118.22315   164.95607
    25  H   1.0    0.04    1.03    1.43    -5.96209   115.33375   166.69840
    26  N   5.0   -0.21    3.23    1.96    -3.91929    99.89091   172.51875
    27  C   4.0    0.03    4.41    4.40    -2.65695   102.29842   172.21451
    28  C   4.0    0.14    3.49    3.11     0.02268   102.29653   173.21606
    29  O   6.0   -0.31    1.34    1.80     1.80847   102.56110   171.77609
    30  C   4.0    0.05    4.30    4.19    -4.16118   104.31854   173.59778
    31  O   6.0   -0.25    2.10    1.84    -6.69530   104.35634   172.62458
    32  C   4.0   -0.07    4.10    3.80    -2.92908   106.89424   173.28598
    33  H   1.0    0.08    1.04    1.43    -5.61249   100.00997   173.43338
    34  H   1.0    0.05    1.06    1.44    -2.54546   102.70661   170.19817
    35  H   1.0    0.04    1.05    1.44    -4.21598   103.90469   175.61412
    36  H   1.0    0.11    1.01    1.43    -7.66662   102.94660   173.32944
    37  H   1.0    0.04    1.00    1.43    -4.02323   108.32476   174.28564
    38  H   1.0    0.04    1.00    1.43    -1.01856   106.85833   174.05321
    39  H   1.0    0.05    1.00    1.43    -2.83837   107.39502   171.29043
    40  N   5.0   -0.15    3.52    2.09     0.24755   102.04520   175.70105
    41  C   4.0    0.03    4.46    4.47     2.64940   102.07544   177.00874
    42  C   4.0    0.17    3.60    3.17     4.61282   100.75452   175.44405
    43  O   6.0   -0.31    1.32    1.80     6.47420   101.88457   174.62957
    44  C   4.0   -0.04    4.40    4.39     2.36405   100.69783   179.50885
    45  C   4.0   -0.03    4.25    4.10     4.81691   100.08556   180.82032
    46  C   4.0    0.25    3.15    3.03     4.42007    99.78131   183.61711
    47  O   6.0   -0.28    1.24    1.80     2.24877   100.13847   184.44670
    48  O   6.0   -0.27    1.18    1.80     6.23799    99.21061   184.98905
    49  H   1.0    0.07    1.07    1.44    -1.25100   101.81088   176.89158
    50  H   1.0    0.05    1.06    1.44     3.22765   104.01996   177.36590
    51  H   1.0    0.06    1.05    1.44     1.25856   101.87891   180.78252
    52  H   1.0    0.05    1.04    1.43     1.38328    98.91959   179.16681
    53  H   1.0    0.06    1.03    1.43     5.57469    98.32244   180.07199
    54  H   1.0    0.05    1.03    1.43     6.16051   101.61623   180.51229
    55  N   5.0   -0.14    3.60    2.16     4.15740    98.34512   174.99807
    56  C   4.0    0.04    4.56    4.61     5.91484    96.85790   173.55432
    57  C   4.0    0.16    3.49    3.11     6.53845    98.01820   170.98996
    58  O   6.0   -0.31    1.31    1.80     8.72109    98.10701   170.23596
    59  C   4.0   -0.04    4.15    3.90     4.85471    94.23118   173.18582
    60  S   6.0   -0.06    2.42    3.10     4.47109    92.57767   176.06010
    61  H   1.0    0.08    1.09    1.44     2.60215    97.38514   175.60845
    62  H   1.0    0.07    1.08    1.44     7.67229    96.76153   174.62391
    63  H   1.0    0.04    1.08    1.44     3.01033    94.37480   172.28065
    64  H   1.0    0.04    1.08    1.44     6.14161    93.15026   171.99530
    65  H   1.0    0.05    1.00    1.43     3.06365    90.80291   176.16806
    66  N   5.0   -0.13    3.50    2.08     4.63172    98.87613   169.61613
    67  C   4.0    0.04    4.55    4.61     5.14194   100.06666   167.20484
    68  C   4.0    0.17    3.57    3.15     7.03167   102.21717   167.51287
    69  O   6.0   -0.30    1.32    1.80     9.15194   102.11701   166.55856
    70  C   4.0   -0.04    4.23    4.05     2.71743   101.05687   166.02754
    71  S   6.0   -0.02    2.40    3.10     3.24655   102.42126   162.99642
    72  H   1.0    0.09    1.07    1.44     2.77223    98.77598   170.11124
    73  H   1.0    0.05    1.07    1.44     5.94886    98.66259   165.93117
    74  H   1.0    0.04    1.07    1.44     1.38706    99.49974   165.81022
    75  H   1.0    0.05    1.09    1.44     1.91240   102.50440   167.25397
    76  N   5.0   -0.14    3.53    2.10     6.25310   104.16169   168.87914
    77  C   4.0    0.04    4.59    4.65     7.84992   106.35567   169.24953
    78  C   4.0    0.17    3.57    3.15    10.49365   105.62434   170.06967
    79  O   6.0   -0.32    1.33    1.80    12.33424   106.45960   168.93583
    80  C   4.0   -0.03    4.35    4.30     6.73876   108.15091   171.16571
    81  C   4.0   -0.07    4.19    3.98     8.56802   110.25984   171.66648
    82  C   4.0   -0.07    4.16    3.91     4.27267   109.18837   170.16793
    83  H   1.0    0.10    1.09    1.44     4.53723   104.27319   169.74841
    84  H   1.0    0.05    1.07    1.44     7.95386   107.29108   167.41649
    85  H   1.0    0.05    1.06    1.44     6.37594   107.16447   172.93827
    86  H   1.0    0.05    1.01    1.43     7.74788   111.54485   173.05165
    87  H   1.0    0.05    1.02    1.43    10.32357   109.46616   172.39781
    88  H   1.0    0.04    1.00    1.43     8.93084   111.26517   169.90526
    89  H   1.0    0.04    1.01    1.43     3.47710   110.48283   171.55877
    90  H   1.0    0.04    1.00    1.43     4.63172   110.18803   168.40293
    91  H   1.0    0.05    1.00    1.43     2.97254   107.62556   169.83912
    92  N   5.0   -0.13    3.50    2.07    10.69396   104.05398   172.01608
    93  C   4.0    0.04    4.56    4.62    13.17328   103.21683   172.86835
    94  C   4.0    0.16    3.56    3.14    14.71530   102.12646   170.68950
    95  O   6.0   -0.31    1.31    1.80    16.68061   103.13179   169.97707
    96  C   4.0   -0.02    4.35    4.29    12.97297   101.24207   174.94327
    97  C   4.0   -0.07    4.19    3.97    15.54867   100.20839   175.51208
    98  C   4.0   -0.06    4.14    3.88    11.78433   102.38535   177.28275
    99  H   1.0    0.11    1.10    1.44     9.21052   103.34344   173.01953
   100  H   1.0    0.05    1.06    1.44    14.12192   104.88924   173.60723
   101  H   1.0    0.06    1.06    1.44    11.76921    99.69060   174.32344
   102  H   1.0    0.07    1.02    1.43    15.38993    98.79487   177.00118
   103  H   1.0    0.05    1.02    1.43    16.31778    99.34856   173.80565
   104  H   1.0    0.05    1.00    1.43    16.76754   101.74851   176.13191
   105  H   1.0    0.06    1.00    1.43    11.65772   100.93971   178.74540
   106  H   1.0    0.04    1.00    1.43    12.95785   103.94627   177.93660
   107  H   1.0    0.06    1.01    1.43     9.90027   103.07321   176.81032
   108  N   5.0   -0.14    3.50    2.08    13.80067   100.06477   169.62558
   109  C   4.0    0.04    4.38    4.35    15.03655    98.88936   167.47696
   110  C   4.0    0.17    3.52    3.12    15.97007   100.81310   165.55133
   111  O   6.0   -0.32    1.37    1.80    18.19806   100.87168   164.91449
   112  C   4.0   -0.07    4.15    3.90    13.24698    97.06577   166.22974
   113  H   1.0    0.11    1.10    1.44    12.20196    99.15581   170.20573
   114  H   1.0    0.04    1.06    1.44    16.67494    97.85757   168.17994
   115  H   1.0    0.04    1.00    1.43    14.19184    96.19461   164.61970
   116  H   1.0    0.05    1.00    1.43    12.70463    95.62013   167.59224
   117  H   1.0    0.06    1.00    1.43    11.57835    98.09189   165.59291
   118  N   5.0   -0.13    3.52    2.09    14.24664   102.35512   164.59324
   119  C   4.0    0.04    4.44    4.45    14.91183   104.20705   162.67706
   120  C   4.0    0.16    3.52    3.12    17.27776   105.60356   163.44051
   121  O   6.0   -0.32    1.34    1.80    19.12214   105.70938   162.03833
   122  C   4.0    0.03    4.18    3.97    12.75943   106.08166   162.31990
   123  O   6.0   -0.25    2.04    1.83    10.59569   104.82310   161.36937
   124  H   1.0    0.11    1.10    1.44    12.38715   102.37023   165.09969
   125  H   1.0    0.05    1.06    1.44    15.23119   103.23573   160.88938
   126  H   1.0    0.06    1.02    1.43    12.30023   106.93959   164.13593
   127  H   1.0    0.05    1.02    1.43    13.34147   107.53486   160.98008
   128  H   1.0    0.13    1.02    1.43     9.82469   103.79509   162.70351
   129  N   5.0   -0.14    3.58    2.14    17.19273   106.65235   165.70629
   130  C   4.0    0.03    4.49    4.52    19.27520   108.10744   166.75698
   131  C   4.0    0.16    3.49    3.11    21.71295   106.64668   166.87792
   132  O   6.0   -0.30    1.28    1.80    23.75008   107.68225   166.54155
   133  C   4.0   -0.03    4.37    4.33    18.55522   108.96160   169.37803
   134  C   4.0   -0.03    4.33    4.25    16.12314   110.41480   169.29866
   135  C   4.0    0.15    3.25    3.04    16.09858   112.48405   171.22996
   136  O   6.0   -0.28    1.22    1.80    16.64849   112.03051   173.44094
   137  N   5.0   -0.19    3.18    1.95    15.48441   114.78951   170.42116
   138  H   1.0    0.11    1.10    1.44    15.67906   106.53141   166.89304
   139  H   1.0    0.05    1.06    1.44    19.60402   109.72883   165.53054
   140  H   1.0    0.07    1.04    1.43    18.30389   107.31943   170.59501
   141  H   1.0    0.06    1.04    1.43    20.03110   110.18236   170.13770
   142  H   1.0    0.04    1.05    1.44    15.89448   111.26139   167.43539
   143  H   1.0    0.07    1.07    1.44    14.55278   109.14112   169.69172
   144  H   1.0    0.07    1.02    1.43    15.05923   115.07675   168.56355
   145  H   1.0    0.09    1.03    1.43    15.43906   116.26539   171.66082
   146  N   5.0   -0.13    3.60    2.16    21.49941   104.22217   167.38059
   147  C   4.0    0.04    4.53    4.58    23.68394   102.59700   167.22563
   148  C   4.0    0.16    3.51    3.12    24.46250   102.21906   164.49686
   149  O   6.0   -0.27    1.27    1.80    26.67348   101.89591   163.93751
   150  C   4.0   -0.05    4.40    4.38    23.12458   100.07422   168.47096
   151  C   4.0   -0.02    4.23    4.07    22.41782   100.37090   171.24886
   152  C   4.0   -0.08    4.11    3.83    22.47640    97.82355   172.52631
   153  C   4.0   -0.07    4.15    3.90    24.21873   102.23795   172.52820
   154  H   1.0    0.12    1.10    1.44    19.86669   103.33588   167.89270
   155  H   1.0    0.06    1.08    1.44    25.25619   103.45494   168.24419
   156  H   1.0    0.05    1.03    1.43    21.54854    99.17471   167.49586
   157  H   1.0    0.04    1.03    1.43    24.79887    98.87802   168.35568
   158  H   1.0    0.05    1.06    1.44    20.50920   101.12490   171.42649
   159  H   1.0    0.04    1.00    1.43    21.96995    98.05599   174.50863
   160  H   1.0    0.04    1.00    1.43    21.12525    96.57633   171.59656
   161  H   1.0    0.04    1.00    1.43    24.37558    97.04121   172.37513
   162  H   1.0    0.04    1.00    1.43    23.68960   102.43071   174.50863
   163  H   1.0    0.04    1.00    1.43    26.14436   101.51986   172.38269
   164  H   1.0    0.05    1.01    1.43    24.07511   104.06154   171.58334
   165  N   5.0   -0.13    3.59    2.15    22.65970   102.30031   162.77910
   166  C   4.0    0.05    4.50    4.53    23.37780   102.40614   160.15238
   167  C   4.0    0.17    3.44    3.09    25.04643   104.70971   159.58547
   168  O   6.0   -0.27    1.23    1.80    26.55254   104.67948   157.80534
   169  C   4.0   -0.04    4.35    4.29    21.06666   102.27386   158.47998
   170  C   4.0   -0.05    4.28    4.16    20.38636    99.57155   157.97164
   171  C   4.0   -0.01    4.28    4.15    18.32467    99.38069   156.04790
   172  N   5.0   -0.14    3.43    2.04    15.89448    99.22195   157.30457
   173  C   4.0    0.09    3.36    3.07    15.06301    97.14892   158.44407
   174  N   5.0   -0.19    3.27    1.97    16.48219    95.07778   158.46297
   175  N   5.0   -0.19    3.23    1.96    12.81801    97.14892   159.56279
   176  H   1.0    0.12    1.13    1.45    20.76431   102.29465   163.13437
   177  H   1.0    0.06    1.08    1.44    24.49841   100.74696   159.66861
   178  H   1.0    0.07    1.07    1.44    19.47930   103.19038   159.41917
   179  H   1.0    0.05    1.04    1.43    21.45595   103.20738   156.68474
   180  H   1.0    0.04    1.04    1.43    22.03798    98.57188   157.25543
   181  H   1.0    0.05    1.04    1.43    19.73252    98.69094   159.71397
   182  H   1.0    0.04    1.03    1.43    18.33979   101.05121   154.84414
   183  H   1.0    0.04    1.03    1.43    18.59301    97.68749   154.90651
   184  H   1.0    0.08    1.06    1.44    14.76632   100.78475   157.31213
   185  H   1.0    0.08    1.04    1.43    18.20751    95.08345   157.60314
   186  H   1.0    0.08    1.02    1.43    15.84724    93.48285   159.33791
   187  H   1.0    0.08    1.02    1.43    11.73331    98.74196   159.54578
   188  H   1.0    0.08    1.02    1.43    12.17739    95.55588   160.43962
   189  N   5.0   -0.12    3.47    2.06    24.85368   106.67314   161.13882
   190  C   4.0    0.04    4.31    4.22    26.69427   108.72538   161.00465
   191  C   4.0    0.27    3.19    3.03    29.29831   107.94493   162.08557
   192  O   6.0   -0.25    1.18    1.80    30.98017   107.07943   160.69285
   193  C   4.0   -0.06    4.12    3.84    25.68327   111.04786   162.34258
   194  O   6.0   -0.26    1.20    1.80    29.73106   108.17736   164.35891
   195  H   1.0    0.11    1.08    1.44    23.48173   106.89424   162.47486
   196  H   1.0    0.06    1.06    1.44    26.99474   109.20348   159.02422
   197  H   1.0    0.05    1.00    1.43    27.08355   112.55397   162.21974
   198  H   1.0    0.05    1.00    1.43    23.93338   111.63934   161.42984
   199  H   1.0    0.08    1.02    1.43    25.32422   110.58109   164.31545
   200  N   5.0   -0.21    3.20    1.96    14.03499    87.68139   173.88691
   201  C   4.0    0.02    4.30    4.20    14.99875    89.82434   172.40348
   202  C   4.0    0.15    3.41    3.08    17.65760    89.36514   171.40381
   203  O   6.0   -0.32    1.29    1.80    18.21318    89.92261   169.24575
   204  C   4.0   -0.04    4.30    4.19    14.96096    92.29233   173.92093
   205  C   4.0   -0.04    4.18    3.96    12.39660    93.13892   174.89036
   206  C   4.0    0.24    3.12    3.03    12.60447    94.86424   177.20149
   207  O   6.0   -0.30    1.21    1.80    14.63026    94.87747   178.41470
   208  O   6.0   -0.30    1.17    1.80    10.74687    96.20217   177.82510
   209  H   1.0    0.08    1.03    1.43    13.22052    88.20863   175.55176
   210  H   1.0    0.04    1.06    1.44    13.71941    90.03977   170.80477
   211  H   1.0    0.06    1.04    1.43    16.18361    92.05611   175.56121
   212  H   1.0    0.04    1.03    1.43    15.68284    93.79844   172.71528
   213  H   1.0    0.05    1.03    1.43    11.42339    94.17827   173.40125
   214  H   1.0    0.04    1.03    1.43    11.29867    91.48163   175.42704
   215  N   5.0   -0.14    3.53    2.10    19.31111    88.36359   172.97229
   216  C   4.0    0.04    4.46    4.47    21.86980    87.82690   172.15592
   217  C   4.0    0.08    3.22    3.04    22.03798    85.64616   170.29076
   218  O   6.0   -0.29    1.12    1.80    23.33623    85.80490   168.39159
   219  C   4.0   -0.04    4.13    3.87    23.48551    87.22597   174.44816
   220  S   6.0   -0.07    2.41    3.10    23.68205    89.81867   176.54954
   221  H   1.0    0.08    1.07    1.44    18.94639    87.90249   174.80721
   222  H   1.0    0.06    1.07    1.44    22.57089    89.51065   171.19783
   223  H   1.0    0.04    1.08    1.44    22.65781    85.63482   175.46105
   224  H   1.0    0.05    1.08    1.44    25.39225    86.75165   173.82833
   225  H   1.0    0.05    1.00    1.43    24.28151    89.48361   178.71072
   226  N   5.0   -0.19    3.21    1.96    19.46796    87.79478   163.71074
   227  C   4.0    0.03    4.35    4.30    21.25753    89.54466   162.58068
   228  C   4.0    0.08    3.27    3.05    23.58945    88.16894   161.59236
   229  O   6.0   -0.29    1.12    1.80    24.08456    88.17083   159.33035
   230  C   4.0   -0.02    4.32    4.24    22.09657    91.57045   164.42505
   231  C   4.0   -0.07    4.17    3.95    24.17904    93.11625   163.24020
   232  C   4.0   -0.07    4.15    3.90    19.88370    93.22207   165.14693
   233  H   1.0    0.11    1.04    1.43    18.91427    88.23508   165.50409
   234  H   1.0    0.04    1.06    1.44    20.26164    90.42906   161.01032
   235  H   1.0    0.06    1.06    1.44    22.81844    90.70118   166.14660
   236  H   1.0    0.04    1.00    1.43    24.77620    94.56945   164.57245
   237  H   1.0    0.05    1.02    1.43    25.76263    91.87659   162.79422
   238  H   1.0    0.05    1.00    1.43    23.46662    93.99308   161.51866
   239  H   1.0    0.04    1.00    1.43    20.52620    94.66393   166.47163
   240  H   1.0    0.04    1.00    1.43    19.12970    94.11402   163.44996
   241  H   1.0    0.06    1.02    1.43    18.43428    92.05422   166.02943
   242  N   5.0   -0.22    3.25    1.97    -2.18892   114.37053   176.23962
   243  C   4.0    0.02    4.28    4.16     0.05633   113.79243   174.76564
   244  C   4.0    0.14    3.43    3.09     2.02348   115.87300   174.97162
   245  O   6.0   -0.32    1.24    1.80     4.29230   115.42416   174.66737
   246  C   4.0   -0.07    4.15    3.90    -0.66243   113.39709   172.06711
   247  H   1.0    0.08    1.03    1.43    -3.69796   114.89800   175.16248
   248  H   1.0    0.04    1.06    1.44     0.89899   112.05323   175.47806
   249  H   1.0    0.05    1.01    1.43     1.03134   112.96538   170.97862
   250  H   1.0    0.04    1.00    1.43    -1.99055   111.82730   171.94994
   251  H   1.0    0.05    1.00    1.43    -1.54109   115.11551   171.34901
   252  N   5.0   -0.15    3.49    2.07     1.11788   118.16720   175.42326
   253  C   4.0    0.03    4.28    4.15     2.74241   120.28562   176.04120
   254  C   4.0    0.08    3.30    3.05     4.41498   119.61473   178.29186
   255  O   6.0   -0.33    1.38    1.80     6.72362   119.85659   178.17659
   256  C   4.0   -0.08    4.14    3.89     1.14884   122.53176   176.66670
   257  H   1.0    0.07    1.07    1.44    -0.75508   118.62202   175.37413
   258  H   1.0    0.05    1.06    1.44     3.93200   120.74986   174.42548
   259  H   1.0    0.04    1.00    1.43     2.37773   124.11845   177.12968
   260  H   1.0    0.04    1.00    1.43    -0.01889   123.00097   175.03587
   261  H   1.0    0.04    1.00    1.43    -0.04806   122.07639   178.28053
   262  N   5.0   -0.19    3.28    1.98     7.05681   115.25060   179.96427
   263  C   4.0    0.04    4.31    4.23     9.33678   113.82626   179.34066
   264  C   4.0    0.15    3.37    3.07    11.29943   115.17760   177.67581
   265  O   6.0   -0.29    1.26    1.80    13.44650   114.33116   177.47928
   266  C   4.0   -0.03    4.32    4.24     8.61487   111.24049   178.24651
   267  C   4.0   -0.02    3.57    3.15     7.06374   109.74706   180.09844
   268  C   4.0   -0.04    3.48    3.11     8.22776   108.47924   182.08832
   269  C   4.0   -0.05    3.46    3.10     4.44190   109.67350   179.92648
   270  C   4.0   -0.03    3.42    3.09     6.84819   107.14596   183.84955
   271  C   4.0   -0.05    3.42    3.09     3.03041   108.35016   181.67825
   272  C   4.0    0.07    3.45    3.09     4.24901   107.08986   183.65302
   273  O   6.0   -0.22    2.09    1.84     2.88443   105.76086   185.44070
   274  H   1.0    0.10    1.04    1.43     5.64778   115.11353   178.65658
   275  H   1.0    0.05    1.07    1.44    10.35009   113.50355   181.10378
   276  H   1.0    0.05    1.04    1.43     7.50664   111.50839   176.53253
   277  H   1.0    0.05    1.03    1.43    10.32554   110.17482   177.81943
   278  H   1.0    0.05    1.03    1.43    10.26014   108.54197   182.25651
   279  H   1.0    0.05    1.03    1.43     3.50134   110.66010   178.40903
   280  H   1.0    0.07    1.03    1.43     7.79065   106.15610   185.36511
   281  H   1.0    0.05    1.03    1.43     0.99614   108.29070   181.52330
   282  H   1.0    0.12    1.02    1.43     1.07296   105.88241   185.07409
   283  N   5.0   -0.13    3.50    2.07    10.60587   117.28219   176.50985
   284  C   4.0    0.04    4.34    4.27    12.34983   118.58146   174.81099
   285  C   4.0    0.08    3.20    3.04    14.22881   120.35364   176.15080
   286  O   6.0   -0.32    1.27    1.80    13.45758   122.00316   177.59267
   287  C   4.0   -0.05    4.28    4.16    10.83869   120.00454   172.81922
   288  C   4.0   -0.05    4.20    4.01     8.96730   118.31747   171.43216
   289  C   4.0   -0.05    4.16    3.92     7.82377   119.66695   169.14370
   290  C   4.0   -0.04    4.11    3.82     6.18674   117.88389   167.55633
   291  N   5.0   -0.11    3.98    2.82     4.43738   119.26981   165.80455
   292  H   1.0    0.12    1.15    1.45     8.88237   118.12442   176.69505
   293  H   1.0    0.05    1.08    1.44    13.53707   117.15249   173.92282
   294  H   1.0    0.05    1.03    1.43     9.78023   121.51659   173.73384
   295  H   1.0    0.04    1.03    1.43    12.13652   120.79530   171.43027
   296  H   1.0    0.04    1.03    1.43     9.93585   116.62478   170.76886
   297  H   1.0    0.06    1.03    1.43     7.43808   117.79898   172.70961
   298  H   1.0    0.04    1.03    1.43     6.64159   121.22321   169.79188
   299  H   1.0    0.04    1.03    1.43     9.34015   120.38532   167.94939
   300  H   1.0    0.04    1.02    1.43     7.41187   116.68409   166.41494
   301  H   1.0    0.05    1.02    1.43     5.04056   116.72463   168.81489
   302  H   1.0    0.08    1.01    1.43     3.36722   117.98642   164.76898
   303  H   1.0    0.06    1.01    1.43     3.22605   120.42302   166.83823
   304  H   1.0    0.05    1.01    1.43     5.47453   120.38358   164.56112
   305  N   5.0   -0.21    3.20    1.96    18.03249   119.15876   180.65402
   306  C   4.0    0.03    4.21    4.03    17.61364   118.78820   183.34499
   307  C   4.0    0.07    3.22    3.04    19.72076   119.80618   184.98149
   308  O   6.0   -0.30    1.12    1.80    19.32825   120.52003   187.16224
   309  C   4.0    0.04    4.18    3.96    17.34981   115.97594   183.89112
   310  O   6.0   -0.25    2.04    1.83    15.12212   114.97781   182.81965
   311  H   1.0    0.09    1.03    1.43    17.80006   117.55822   179.60711
   312  H   1.0    0.05    1.06    1.44    15.88448   119.79519   183.83443
   313  H   1.0    0.05    1.02    1.43    18.97199   114.98792   183.09366
   314  H   1.0    0.05    1.02    1.43    17.29034   115.69721   185.93203
   315  H   1.0    0.14    1.03    1.43    15.23776   115.01184   180.97150
   316  N   5.0   -0.20    3.22    1.96    20.18568   127.09649   184.80197
   317  C   4.0    0.03    4.25    4.09    18.05858   127.72317   186.38178
   318  C   4.0    0.09    3.21    3.04    18.88572   127.62465   189.13700
   319  O   6.0   -0.29    1.12    1.80    18.94347   129.55421   190.41446
   320  C   4.0   -0.05    4.30    4.19    15.87401   125.93603   185.85266
   321  C   4.0   -0.05    4.20    3.99    14.48583   126.53763   183.43570
   322  C   4.0   -0.04    4.17    3.95    12.64329   124.42645   182.72138
   323  C   4.0   -0.03    4.15    3.89    10.76806   125.28582   180.69371
   324  N   5.0   -0.10    4.13    3.23     9.25559   123.16228   179.65814
   325  H   1.0    0.08    1.03    1.43    19.79229   125.85034   183.38468
   326  H   1.0    0.05    1.06    1.44    17.37414   129.61918   185.95659
   327  H   1.0    0.06    1.04    1.43    16.60473   124.01655   185.70148
   328  H   1.0    0.04    1.03    1.43    14.52408   126.05565   187.40412
   329  H   1.0    0.04    1.03    1.43    13.41276   128.27909   183.67947
   330  H   1.0    0.04    1.03    1.43    15.84504   126.75722   181.90313
   331  H   1.0    0.06    1.03    1.43    13.70146   122.82040   181.98439
   332  H   1.0    0.04    1.03    1.43    11.57580   123.86032   184.39001
   333  H   1.0    0.03    1.02    1.43     9.46764   126.65382   181.51574
   334  H   1.0    0.05    1.03    1.43    11.80681   126.14739   179.13846
   335  H   1.0    0.06    1.03    1.43     7.82035   123.85672   178.50918
   336  H   1.0    0.11    1.10    1.44    10.40473   121.97316   178.59611
   337  H   1.0    0.07    1.03    1.43     8.45317   122.12948   181.12645
   338  N   5.0   -0.21    3.23    1.96     5.04681   129.42787   173.64692
   339  C   4.0    0.03    4.21    4.02     6.32221   127.94070   171.70995
   340  C   4.0    0.08    3.24    3.04     7.47008   129.72064   169.80699
   341  O   6.0   -0.29    1.16    1.80     7.28505   129.31924   167.54121
   342  C   4.0    0.04    4.18    3.97     4.46482   126.16134   170.39848
   343  O   6.0   -0.25    2.06    1.83     2.06533   127.32029   170.15848
   344  H   1.0    0.09    1.02    1.43     3.87646   130.80113   172.96851
   345  H   1.0    0.03    1.05    1.44     7.80374   126.79947   172.57355
   346  H   1.0    0.05    1.02    1.43     5.18153   125.70231   168.52198
   347  H   1.0    0.03    1.01    1.43     4.27417   124.44309   171.51909
   348  H   1.0    0.11    1.01    1.43     0.88653   126.16838   169.31378
   349  H   1.0    0.09    1.07    1.44     4.09299   128.40339   174.61295
   350  H   1.0    0.05    1.05    1.44     8.40036   131.25787   170.39226
   351  H   1.0    0.09    1.07    1.44    -0.53649   108.24913   157.98066
   352  H   1.0    0.06    1.04    1.44    -9.10121   111.34883   159.19729
   353  H   1.0    0.09    1.07    1.44    -4.21912    99.20982   170.98944
   354  H   1.0    0.09    1.07    1.44    12.85824    86.84933   172.98387
   355  H   1.0    0.05    1.05    1.44    21.07586    84.05174   170.61202
   356  H   1.0    0.09    1.07    1.44    18.05440    87.73971   162.76660
   357  H   1.0    0.06    1.04    1.44    24.72780    87.25622   162.79326
   358  H   1.0    0.09    1.07    1.44    -2.65288   112.99748   177.12959
   359  H   1.0    0.05    1.05    1.44     3.63670   118.96867   179.88809
   360  H   1.0    0.09    1.07    1.44     6.42077   114.68738   181.43764
   361  H   1.0    0.05    1.04    1.43    16.08478   120.16508   175.84934
   362  H   1.0    0.11    1.08    1.44    16.93396   120.31449   180.06233
   363  H   1.0    0.06    1.05    1.44    21.47999   119.91156   184.29953
   364  H   1.0    0.09    1.07    1.44    20.78124   128.50892   184.06513
   365  H   1.0    0.06    1.05    1.44    19.38643   125.97684   189.91487

  Z AO/shell   Hii/eV     exponent
  1     Wed Apr 25 08:07:45 CEST 2018   EN: 2.200 GM2: 0.406  GM3: 0.0800  RAES: 1.40
     1s    -10.707211    1.230000
  6     Wed Apr 25 08:07:45 CEST 2018   EN: 2.550 GM2: 0.538  GM3: 0.1500  RAES: 3.00
     2s    -13.970922    2.096432
     2p    -10.063292    1.800000
  7     Wed Apr 25 08:07:45 CEST 2018   EN: 3.040 GM2: 0.461  GM3:-0.0640  RAES: 1.90
     2s    -16.686243    2.339881
     2p    -12.523956    2.014332
  8     Wed Apr 25 08:07:45 CEST 2018   EN: 3.440 GM2: 0.452  GM3:-0.0517  RAES: 1.80
     2s    -20.229985    2.439742
     2p    -15.503117    2.137023
 16     Tue Apr 24 11:44:34 CEST 2018   EN: 2.580 GM2: 0.340  GM3:-0.0502  RAES: 3.10
     3s    -20.029654    1.981333
     3p    -11.377694    2.025643
     3d     -0.420282    1.702555
 no old-style atom pair restraining (fixing) potential

molecular fragmentation (1/2 indicates fragments):
111111111111111111111111111111111111111111111111111111111111111111111111
111111111111111111111111111111111111111111111111111111111111111111111111
111111111111111111111111111111111111111111111111111111122222222222222222
222222222222222222222222222222222222222222222222222222222222222222222222
222222222222222222222222222222222222222222222222222222222222221112222222
22222
# atoms in fragment 1/2:   202   163
 fragment masses (1/2) :     1509.73     1082.34
CMA distance (Bohr)    :  10.371
constraining FC (au)   :  0.0500
           ------------------------------------------------- 
          |        Self-Consistent Charge Iterations        |
           ------------------------------------------------- 

 Ncao       : 917
 Nao        : 913
 Nshell     : 545
 Nel        : 1006
 T(el)      :   500.0
 intcut     :    35.0
 scfconv/Eh :  0.100E-06
   qconv/e  :  0.100E-04
 intneglect :  0.100E-08
 broydamp   :      0.400
 iter      E             dE          RMSdq      gap      omega  full diag
   1   -577.7860302 -0.577786E+03  0.495E+00    3.10       0.0  T
   2   -579.2796227 -0.149359E+01  0.232E+00    1.77       1.0  T
   3   -579.3720307 -0.924080E-01  0.129E+00    1.63       1.0  T
   4   -579.4750371 -0.103006E+00  0.299E-01    0.56       1.0  T
   5   -579.4800445 -0.500738E-02  0.152E-01    0.75       1.0  T
   6   -579.4813812 -0.133669E-02  0.654E-02    0.73       1.0  T
   7   -579.4816555 -0.274277E-03  0.322E-02    0.75       1.0  T
   8   -579.4817101 -0.545927E-04  0.153E-02    0.76       1.0  T
   9   -579.4817281 -0.179859E-04  0.785E-03    0.77       1.0  T
  10   -579.4817316 -0.358727E-05  0.418E-03    0.77       1.3  T
  11   -579.4817327 -0.103691E-05  0.239E-03    0.77       2.2  T
  12   -579.4817330 -0.275974E-06  0.139E-03    0.77       3.8  T
  13   -579.4817331 -0.997466E-07  0.792E-04    0.77       6.6  T
  14   -579.4817331 -0.349119E-07  0.325E-04    0.77      16.1  T
  15   -579.4817331 -0.525961E-08  0.161E-04    0.77      32.4  T
  16   -579.4817331 -0.136231E-08  0.675E-05    0.77      77.5  T
  17   -579.4817331 -0.220211E-09  0.274E-05    0.77     191.1  T
speedup  1.10
cpu  time for SCC    7.76 s
wall time for SCC    7.06 s

   *** convergence criteria satisfied after 17 iterations ***

          eigenvalues
 #    :         491        492        493        494        495        496        497        498
 occ. :        2.000      2.000      2.000      2.000      2.000      2.000      2.000      2.000
 eps  :       -10.172    -10.140    -10.124    -10.096    -10.086    -10.041    -10.024     -9.998
 #    :         499        500        501        502        503        504        505        506
 occ. :        2.000      2.000      2.000      2.000      2.000      0.000      0.000      0.000
 eps  :        -9.900     -9.806     -9.752     -9.420     -9.197     -8.429     -8.287     -8.201
 #    :         507        508        509        510        511        512        513        514
 occ. :        0.000      0.000      0.000      0.000      0.000      0.000      0.000      0.000
 eps  :        -7.794     -7.760     -7.552     -7.498     -7.471     -7.467     -7.196     -7.025


   #   Z            q   n(s)   n(p)   n(d)      C6AA      α(0)
   1   7 N     -0.393  1.323  4.070  0.000    30.189     8.160
   2   6 C      0.046  1.047  2.907  0.000    19.788     6.332
   3   6 C      0.274  1.041  2.685  0.000    22.371     7.746
   4   8 O     -0.540  1.759  4.781  0.000    24.687     6.662
   5   6 C     -0.029  1.082  2.947  0.000    21.088     6.538
   6  16 S     -0.109  1.916  4.092  0.101   145.593    20.308
   7   1 H      0.182  0.818  0.000  0.000     1.205     1.719
   8   1 H      0.025  0.975  0.000  0.000     2.660     2.551
   9   1 H      0.096  0.904  0.000  0.000     1.824     2.112
  10   1 H      0.035  0.965  0.000  0.000     2.514     2.480
  11   7 N     -0.234  1.287  3.947  0.000    26.135     7.593
  12   6 C      0.039  1.057  2.904  0.000    19.920     6.356
  13   6 C      0.213  1.082  2.705  0.000    23.485     7.937
  14   8 O     -0.394  1.760  4.634  0.000    21.559     6.225
  15   6 C     -0.063  1.053  3.011  0.000    21.713     6.634
  16   6 C     -0.103  1.064  3.039  0.000    22.471     6.749
  17   6 C      0.358  1.026  2.616  0.000    20.922     7.486
  18   8 O     -0.587  1.763  4.824  0.000    25.750     6.806
  19   8 O     -0.593  1.744  4.849  0.000    25.957     6.831
  20   1 H      0.279  0.721  0.000  0.000     0.773     1.375
  21   1 H      0.057  0.943  0.000  0.000     2.229     2.335
  22   1 H      0.059  0.941  0.000  0.000     2.212     2.326
  23   1 H      0.047  0.953  0.000  0.000     2.362     2.403
  24   1 H      0.059  0.941  0.000  0.000     2.213     2.326
  25   1 H      0.043  0.957  0.000  0.000     2.415     2.430
  26   7 N     -0.401  1.324  4.076  0.000    30.388     8.187
  27   6 C      0.021  1.056  2.923  0.000    20.229     6.405
  28   6 C      0.268  1.043  2.689  0.000    22.470     7.763
  29   8 O     -0.488  1.734  4.753  0.000    23.516     6.502
  30   6 C      0.109  1.049  2.842  0.000    18.881     6.202
  31   8 O     -0.481  1.735  4.746  0.000    22.494     6.402
  32   6 C     -0.121  1.040  3.081  0.000    22.881     6.821
  33   1 H      0.171  0.829  0.000  0.000     1.270     1.765
  34   1 H      0.048  0.952  0.000  0.000     2.350     2.397
  35   1 H      0.026  0.974  0.000  0.000     2.641     2.541
  36   1 H      0.331  0.669  0.000  0.000     0.636     1.253
  37   1 H      0.072  0.928  0.000  0.000     2.063     2.246
  38   1 H      0.046  0.954  0.000  0.000     2.376     2.410
  39   1 H      0.061  0.939  0.000  0.000     2.193     2.316
  40   7 N     -0.177  1.248  3.929  0.000    24.842     7.402
  41   6 C      0.027  1.054  2.919  0.000    20.121     6.386
  42   6 C      0.300  1.029  2.671  0.000    21.913     7.667
  43   8 O     -0.494  1.735  4.759  0.000    23.662     6.522
  44   6 C     -0.060  1.051  3.009  0.000    21.636     6.620
  45   6 C     -0.070  1.048  3.022  0.000    21.834     6.652
  46   6 C      0.378  1.016  2.607  0.000    20.605     7.429
  47   8 O     -0.634  1.755  4.879  0.000    26.969     6.963
  48   8 O     -0.673  1.780  4.893  0.000    27.975     7.091
  49   1 H      0.219  0.781  0.000  0.000     1.013     1.577
  50   1 H      0.064  0.936  0.000  0.000     2.150     2.293
  51   1 H      0.070  0.930  0.000  0.000     2.090     2.261
  52   1 H      0.043  0.957  0.000  0.000     2.409     2.427
  53   1 H      0.009  0.991  0.000  0.000     2.912     2.669
  54   1 H      0.009  0.991  0.000  0.000     2.910     2.667
  55   7 N     -0.178  1.239  3.939  0.000    24.843     7.403
  56   6 C      0.043  1.045  2.911  0.000    19.811     6.331
  57   6 C      0.280  1.037  2.683  0.000    22.260     7.727
  58   8 O     -0.474  1.734  4.740  0.000    23.206     6.459
  59   6 C      0.015  1.050  2.935  0.000    20.317     6.416
  60  16 S     -0.427  1.920  4.450  0.057   160.005    21.290
  61   1 H      0.212  0.788  0.000  0.000     1.049     1.604
  62   1 H      0.068  0.932  0.000  0.000     2.104     2.268
  63   1 H      0.076  0.924  0.000  0.000     2.016     2.220
  64   1 H      0.065  0.935  0.000  0.000     2.145     2.290
  65   1 H      0.291  0.709  0.000  0.000     0.736     1.342
  66   7 N     -0.165  1.240  3.925  0.000    24.570     7.362
  67   6 C      0.022  1.057  2.921  0.000    20.178     6.389
  68   6 C      0.281  1.036  2.683  0.000    22.240     7.723
  69   8 O     -0.489  1.730  4.759  0.000    23.539     6.505
  70   6 C     -0.038  1.066  2.971  0.000    21.243     6.561
  71  16 S     -0.078  1.924  4.062  0.092   144.282    20.217
  72   1 H      0.210  0.790  0.000  0.000     1.055     1.609
  73   1 H      0.089  0.911  0.000  0.000     1.889     2.149
  74   1 H      0.075  0.925  0.000  0.000     2.030     2.228
  75   1 H      0.074  0.926  0.000  0.000     2.047     2.238
  76   7 N     -0.169  1.247  3.923  0.000    24.666     7.376
  77   6 C      0.014  1.061  2.924  0.000    20.321     6.416
  78   6 C      0.288  1.035  2.678  0.000    22.122     7.703
  79   8 O     -0.489  1.728  4.761  0.000    23.534     6.504
  80   6 C     -0.019  1.049  2.970  0.000    20.880     6.498
  81   6 C     -0.125  1.042  3.083  0.000    22.941     6.827
  82   6 C     -0.131  1.047  3.084  0.000    23.061     6.845
  83   1 H      0.226  0.774  0.000  0.000     0.984     1.554
  84   1 H      0.094  0.906  0.000  0.000     1.840     2.121
  85   1 H      0.028  0.972  0.000  0.000     2.611     2.527
  86   1 H      0.079  0.921  0.000  0.000     1.992     2.207
  87   1 H      0.020  0.980  0.000  0.000     2.726     2.582
  88   1 H      0.075  0.925  0.000  0.000     2.033     2.230
  89   1 H      0.074  0.926  0.000  0.000     2.044     2.236
  90   1 H      0.074  0.926  0.000  0.000     2.041     2.234
  91   1 H      0.035  0.965  0.000  0.000     2.521     2.483
  92   7 N     -0.193  1.253  3.940  0.000    25.184     7.453
  93   6 C      0.032  1.059  2.908  0.000    20.022     6.369
  94   6 C      0.288  1.036  2.676  0.000    22.122     7.702
  95   8 O     -0.493  1.737  4.757  0.000    23.638     6.519
  96   6 C      0.007  1.047  2.947  0.000    20.426     6.427
  97   6 C     -0.101  1.036  3.065  0.000    22.465     6.756
  98   6 C     -0.100  1.038  3.063  0.000    22.467     6.757
  99   1 H      0.220  0.780  0.000  0.000     1.009     1.573
 100   1 H      0.054  0.946  0.000  0.000     2.271     2.357
 101   1 H      0.021  0.979  0.000  0.000     2.719     2.579
 102   1 H      0.047  0.953  0.000  0.000     2.362     2.403
 103   1 H      0.025  0.975  0.000  0.000     2.665     2.553
 104   1 H      0.036  0.964  0.000  0.000     2.499     2.472
 105   1 H      0.029  0.971  0.000  0.000     2.596     2.520
 106   1 H      0.037  0.963  0.000  0.000     2.491     2.468
 107   1 H      0.045  0.955  0.000  0.000     2.385     2.415
 108   7 N     -0.183  1.249  3.934  0.000    24.956     7.419
 109   6 C      0.031  1.050  2.918  0.000    20.046     6.374
 110   6 C      0.280  1.037  2.683  0.000    22.261     7.727
 111   8 O     -0.485  1.742  4.743  0.000    23.453     6.493
 112   6 C     -0.142  1.047  3.095  0.000    23.280     6.878
 113   1 H      0.220  0.780  0.000  0.000     1.008     1.572
 114   1 H      0.052  0.948  0.000  0.000     2.290     2.367
 115   1 H      0.085  0.915  0.000  0.000     1.927     2.171
 116   1 H      0.062  0.938  0.000  0.000     2.172     2.305
 117   1 H      0.087  0.913  0.000  0.000     1.911     2.162
 118   7 N     -0.179  1.243  3.935  0.000    24.872     7.407
 119   6 C     -0.000  1.064  2.936  0.000    20.581     6.458
 120   6 C      0.274  1.032  2.694  0.000    22.367     7.745
 121   8 O     -0.491  1.751  4.739  0.000    23.577     6.510
 122   6 C      0.051  1.043  2.906  0.000    19.914     6.390
 123   8 O     -0.442  1.705  4.736  0.000    21.673     6.284
 124   1 H      0.239  0.761  0.000  0.000     0.926     1.508
 125   1 H      0.092  0.908  0.000  0.000     1.859     2.132
 126   1 H      0.058  0.942  0.000  0.000     2.222     2.331
 127   1 H      0.088  0.912  0.000  0.000     1.897     2.154
 128   1 H      0.317  0.683  0.000  0.000     0.673     1.289
 129   7 N     -0.181  1.246  3.934  0.000    24.909     7.413
 130   6 C      0.022  1.057  2.921  0.000    20.192     6.396
 131   6 C      0.285  1.029  2.687  0.000    22.181     7.713
 132   8 O     -0.519  1.762  4.757  0.000    24.209     6.597
 133   6 C     -0.058  1.042  3.015  0.000    21.593     6.613
 134   6 C     -0.115  1.057  3.058  0.000    22.690     6.780
 135   6 C      0.287  1.033  2.680  0.000    22.132     7.703
 136   8 O     -0.518  1.767  4.751  0.000    24.189     6.594
 137   7 N     -0.285  1.269  4.016  0.000    27.354     7.768
 138   1 H      0.237  0.763  0.000  0.000     0.936     1.516
 139   1 H      0.073  0.927  0.000  0.000     2.055     2.242
 140   1 H      0.058  0.942  0.000  0.000     2.223     2.332
 141   1 H      0.050  0.950  0.000  0.000     2.320     2.382
 142   1 H      0.066  0.934  0.000  0.000     2.126     2.280
 143   1 H      0.104  0.896  0.000  0.000     1.748     2.068
 144   1 H      0.240  0.760  0.000  0.000     0.923     1.505
 145   1 H      0.229  0.771  0.000  0.000     0.968     1.542
 146   7 N     -0.182  1.245  3.937  0.000    24.948     7.418
 147   6 C      0.033  1.051  2.915  0.000    20.009     6.367
 148   6 C      0.289  1.032  2.680  0.000    22.111     7.701
 149   8 O     -0.543  1.764  4.778  0.000    24.754     6.671
 150   6 C     -0.070  1.055  3.014  0.000    21.816     6.647
 151   6 C     -0.010  1.053  2.958  0.000    20.723     6.475
 152   6 C     -0.108  1.041  3.066  0.000    22.607     6.778
 153   6 C     -0.115  1.044  3.072  0.000    22.758     6.802
 154   1 H      0.233  0.767  0.000  0.000     0.954     1.530
 155   1 H      0.058  0.942  0.000  0.000     2.225     2.333
 156   1 H      0.056  0.944  0.000  0.000     2.241     2.341
 157   1 H      0.045  0.955  0.000  0.000     2.383     2.414
 158   1 H      0.031  0.969  0.000  0.000     2.579     2.511
 159   1 H      0.041  0.959  0.000  0.000     2.438     2.442
 160   1 H      0.030  0.970  0.000  0.000     2.582     2.513
 161   1 H      0.048  0.952  0.000  0.000     2.340     2.392
 162   1 H      0.044  0.956  0.000  0.000     2.397     2.421
 163   1 H      0.040  0.960  0.000  0.000     2.451     2.448
 164   1 H      0.033  0.967  0.000  0.000     2.549     2.497
 165   7 N     -0.194  1.251  3.943  0.000    25.205     7.456
 166   6 C      0.033  1.055  2.913  0.000    20.012     6.367
 167   6 C      0.284  1.040  2.676  0.000    22.186     7.713
 168   8 O     -0.532  1.757  4.774  0.000    24.499     6.636
 169   6 C     -0.093  1.055  3.038  0.000    22.254     6.714
 170   6 C     -0.086  1.050  3.036  0.000    22.124     6.695
 171   6 C     -0.033  1.054  2.978  0.000    21.221     6.570
 172   7 N     -0.140  1.210  3.930  0.000    24.038     7.282
 173   6 C      0.225  1.018  2.757  0.000    23.268     7.898
 174   7 N     -0.237  1.224  4.013  0.000    26.199     7.602
 175   7 N     -0.247  1.232  4.016  0.000    26.445     7.638
 176   1 H      0.250  0.750  0.000  0.000     0.881     1.471
 177   1 H      0.058  0.942  0.000  0.000     2.217     2.328
 178   1 H      0.098  0.902  0.000  0.000     1.807     2.102
 179   1 H      0.061  0.939  0.000  0.000     2.191     2.315
 180   1 H      0.058  0.942  0.000  0.000     2.224     2.332
 181   1 H      0.066  0.934  0.000  0.000     2.132     2.284
 182   1 H      0.103  0.897  0.000  0.000     1.761     2.075
 183   1 H      0.096  0.904  0.000  0.000     1.818     2.109
 184   1 H      0.233  0.767  0.000  0.000     0.952     1.529
 185   1 H      0.241  0.759  0.000  0.000     0.919     1.502
 186   1 H      0.242  0.758  0.000  0.000     0.917     1.500
 187   1 H      0.248  0.752  0.000  0.000     0.889     1.477
 188   1 H      0.251  0.749  0.000  0.000     0.881     1.470
 189   7 N     -0.185  1.255  3.930  0.000    25.017     7.428
 190   6 C      0.028  1.065  2.906  0.000    20.105     6.385
 191   6 C      0.374  1.024  2.602  0.000    20.662     7.439
 192   8 O     -0.659  1.770  4.889  0.000    27.619     7.046
 193   6 C     -0.116  1.043  3.073  0.000    22.772     6.804
 194   8 O     -0.637  1.761  4.875  0.000    27.033     6.971
 195   1 H      0.202  0.798  0.000  0.000     1.095     1.639
 196   1 H      0.022  0.978  0.000  0.000     2.707     2.573
 197   1 H      0.038  0.962  0.000  0.000     2.481     2.463
 198   1 H      0.052  0.948  0.000  0.000     2.296     2.370
 199   1 H      0.068  0.932  0.000  0.000     2.105     2.269
 200   7 N     -0.397  1.324  4.072  0.000    30.280     8.172
 201   6 C      0.030  1.061  2.909  0.000    20.083     6.383
 202   6 C      0.273  1.042  2.685  0.000    22.386     7.748
 203   8 O     -0.480  1.730  4.750  0.000    23.334     6.477
 204   6 C     -0.047  1.046  3.001  0.000    21.415     6.588
 205   6 C     -0.075  1.058  3.017  0.000    21.934     6.668
 206   6 C      0.371  1.025  2.604  0.000    20.706     7.447
 207   8 O     -0.647  1.776  4.871  0.000    27.292     7.004
 208   8 O     -0.661  1.781  4.880  0.000    27.659     7.051
 209   1 H      0.149  0.851  0.000  0.000     1.407     1.858
 210   1 H      0.037  0.963  0.000  0.000     2.496     2.471
 211   1 H      0.044  0.956  0.000  0.000     2.398     2.422
 212   1 H      0.020  0.980  0.000  0.000     2.739     2.588
 213   1 H      0.013  0.987  0.000  0.000     2.847     2.639
 214   1 H      0.023  0.977  0.000  0.000     2.681     2.561
 215   7 N     -0.158  1.236  3.922  0.000    24.416     7.339
 216   6 C      0.034  1.052  2.914  0.000    19.972     6.357
 217   6 C      0.200  1.083  2.717  0.000    23.736     7.979
 218   8 O     -0.328  1.751  4.577  0.000    20.291     6.039
 219   6 C      0.011  1.051  2.937  0.000    20.380     6.426
 220  16 S     -0.396  1.903  4.447  0.046   158.511    21.190
 221   1 H      0.214  0.786  0.000  0.000     1.036     1.594
 222   1 H      0.093  0.907  0.000  0.000     1.849     2.126
 223   1 H      0.076  0.924  0.000  0.000     2.017     2.221
 224   1 H      0.078  0.922  0.000  0.000     2.002     2.213
 225   1 H      0.264  0.736  0.000  0.000     0.827     1.422
 226   7 N     -0.394  1.321  4.073  0.000    30.202     8.162
 227   6 C      0.035  1.057  2.908  0.000    19.993     6.367
 228   6 C      0.208  1.090  2.702  0.000    23.583     7.953
 229   8 O     -0.380  1.753  4.627  0.000    21.281     6.185
 230   6 C     -0.016  1.054  2.962  0.000    20.811     6.488
 231   6 C     -0.112  1.041  3.070  0.000    22.682     6.789
 232   6 C     -0.121  1.043  3.079  0.000    22.874     6.818
 233   1 H      0.164  0.836  0.000  0.000     1.312     1.794
 234   1 H      0.051  0.949  0.000  0.000     2.301     2.372
 235   1 H      0.038  0.962  0.000  0.000     2.479     2.462
 236   1 H      0.035  0.965  0.000  0.000     2.519     2.482
 237   1 H      0.031  0.969  0.000  0.000     2.579     2.511
 238   1 H      0.049  0.951  0.000  0.000     2.331     2.388
 239   1 H      0.026  0.974  0.000  0.000     2.643     2.542
 240   1 H      0.046  0.954  0.000  0.000     2.371     2.408
 241   1 H      0.074  0.926  0.000  0.000     2.046     2.237
 242   7 N     -0.395  1.319  4.076  0.000    30.221     8.165
 243   6 C      0.033  1.047  2.919  0.000    20.026     6.373
 244   6 C      0.258  1.048  2.695  0.000    22.661     7.796
 245   8 O     -0.490  1.747  4.744  0.000    23.570     6.509
 246   6 C     -0.125  1.042  3.083  0.000    22.939     6.827
 247   1 H      0.164  0.836  0.000  0.000     1.308     1.792
 248   1 H      0.026  0.974  0.000  0.000     2.648     2.545
 249   1 H      0.060  0.940  0.000  0.000     2.198     2.319
 250   1 H      0.038  0.962  0.000  0.000     2.472     2.459
 251   1 H      0.061  0.939  0.000  0.000     2.191     2.315
 252   7 N     -0.157  1.238  3.919  0.000    24.405     7.337
 253   6 C      0.017  1.053  2.930  0.000    20.293     6.415
 254   6 C      0.186  1.096  2.718  0.000    24.017     8.026
 255   8 O     -0.347  1.730  4.617  0.000    20.645     6.092
 256   6 C     -0.147  1.046  3.101  0.000    23.376     6.892
 257   1 H      0.225  0.775  0.000  0.000     0.989     1.558
 258   1 H      0.107  0.893  0.000  0.000     1.723     2.053
 259   1 H      0.089  0.911  0.000  0.000     1.884     2.146
 260   1 H      0.089  0.911  0.000  0.000     1.893     2.151
 261   1 H      0.075  0.925  0.000  0.000     2.036     2.231
 262   7 N     -0.368  1.304  4.064  0.000    29.496     8.066
 263   6 C      0.024  1.060  2.916  0.000    20.185     6.399
 264   6 C      0.269  1.045  2.686  0.000    22.461     7.761
 265   8 O     -0.517  1.765  4.751  0.000    24.159     6.590
 266   6 C     -0.070  1.053  3.017  0.000    21.837     6.652
 267   6 C      0.001  1.081  2.919  0.000    28.006     8.681
 268   6 C     -0.041  1.083  2.958  0.000    29.015     8.834
 269   6 C     -0.048  1.080  2.968  0.000    29.182     8.859
 270   6 C     -0.050  1.071  2.979  0.000    29.232     8.866
 271   6 C     -0.079  1.078  3.001  0.000    29.976     8.978
 272   6 C      0.144  1.050  2.806  0.000    24.863     8.172
 273   8 O     -0.459  1.752  4.707  0.000    22.019     6.335
 274   1 H      0.161  0.839  0.000  0.000     1.329     1.806
 275   1 H      0.053  0.947  0.000  0.000     2.282     2.362
 276   1 H      0.065  0.935  0.000  0.000     2.137     2.286
 277   1 H      0.031  0.969  0.000  0.000     2.568     2.506
 278   1 H      0.030  0.970  0.000  0.000     2.593     2.518
 279   1 H      0.057  0.943  0.000  0.000     2.230     2.335
 280   1 H      0.013  0.987  0.000  0.000     2.835     2.633
 281   1 H      0.047  0.953  0.000  0.000     2.358     2.401
 282   1 H      0.338  0.662  0.000  0.000     0.618     1.235
 283   7 N     -0.165  1.245  3.921  0.000    24.579     7.363
 284   6 C      0.008  1.058  2.933  0.000    20.445     6.439
 285   6 C      0.186  1.099  2.715  0.000    24.008     8.024
 286   8 O     -0.317  1.726  4.591  0.000    20.098     6.011
 287   6 C     -0.096  1.060  3.037  0.000    22.329     6.726
 288   6 C     -0.094  1.054  3.040  0.000    22.291     6.722
 289   6 C     -0.101  1.058  3.043  0.000    22.428     6.743
 290   6 C     -0.051  1.061  2.991  0.000    21.594     6.634
 291   7 N     -0.137  1.233  3.904  0.000    23.950     7.268
 292   1 H      0.266  0.734  0.000  0.000     0.826     1.423
 293   1 H      0.078  0.922  0.000  0.000     2.003     2.213
 294   1 H      0.098  0.902  0.000  0.000     1.806     2.102
 295   1 H      0.088  0.912  0.000  0.000     1.895     2.153
 296   1 H      0.057  0.943  0.000  0.000     2.239     2.340
 297   1 H      0.087  0.913  0.000  0.000     1.908     2.160
 298   1 H      0.085  0.915  0.000  0.000     1.930     2.173
 299   1 H      0.087  0.913  0.000  0.000     1.910     2.162
 300   1 H      0.112  0.888  0.000  0.000     1.677     2.025
 301   1 H      0.110  0.890  0.000  0.000     1.693     2.035
 302   1 H      0.287  0.713  0.000  0.000     0.753     1.359
 303   1 H      0.288  0.712  0.000  0.000     0.750     1.357
 304   1 H      0.298  0.702  0.000  0.000     0.720     1.329
 305   7 N     -0.387  1.320  4.068  0.000    30.025     8.138
 306   6 C      0.026  1.054  2.920  0.000    20.149     6.394
 307   6 C      0.191  1.091  2.719  0.000    23.920     8.010
 308   8 O     -0.372  1.760  4.612  0.000    21.128     6.163
 309   6 C      0.083  1.034  2.883  0.000    19.388     6.303
 310   8 O     -0.467  1.720  4.747  0.000    22.203     6.361
 311   1 H      0.155  0.845  0.000  0.000     1.368     1.832
 312   1 H      0.080  0.920  0.000  0.000     1.983     2.202
 313   1 H      0.030  0.970  0.000  0.000     2.586     2.515
 314   1 H      0.050  0.950  0.000  0.000     2.318     2.381
 315   1 H      0.321  0.679  0.000  0.000     0.662     1.278
 316   7 N     -0.391  1.324  4.066  0.000    30.111     8.150
 317   6 C      0.040  1.049  2.911  0.000    19.920     6.357
 318   6 C      0.205  1.091  2.704  0.000    23.648     7.964
 319   8 O     -0.387  1.760  4.627  0.000    21.432     6.207
 320   6 C     -0.076  1.052  3.024  0.000    21.936     6.667
 321   6 C     -0.074  1.050  3.024  0.000    21.906     6.663
 322   6 C     -0.089  1.056  3.033  0.000    22.195     6.707
 323   6 C     -0.056  1.060  2.995  0.000    21.669     6.645
 324   7 N     -0.159  1.244  3.915  0.000    24.421     7.340
 325   1 H      0.171  0.829  0.000  0.000     1.269     1.765
 326   1 H      0.047  0.953  0.000  0.000     2.363     2.404
 327   1 H      0.053  0.947  0.000  0.000     2.280     2.361
 328   1 H      0.045  0.955  0.000  0.000     2.378     2.411
 329   1 H      0.062  0.938  0.000  0.000     2.170     2.304
 330   1 H      0.058  0.942  0.000  0.000     2.222     2.331
 331   1 H      0.064  0.936  0.000  0.000     2.154     2.295
 332   1 H      0.067  0.933  0.000  0.000     2.120     2.277
 333   1 H      0.118  0.882  0.000  0.000     1.630     1.996
 334   1 H      0.129  0.871  0.000  0.000     1.543     1.943
 335   1 H      0.283  0.717  0.000  0.000     0.768     1.373
 336   1 H      0.303  0.697  0.000  0.000     0.704     1.315
 337   1 H      0.285  0.715  0.000  0.000     0.761     1.367
 338   7 N     -0.371  1.312  4.059  0.000    29.579     8.077
 339   6 C      0.021  1.055  2.924  0.000    20.243     6.409
 340   6 C      0.203  1.084  2.712  0.000    23.678     7.970
 341   8 O     -0.376  1.758  4.618  0.000    21.201     6.173
 342   6 C      0.063  1.039  2.898  0.000    19.729     6.361
 343   8 O     -0.494  1.734  4.760  0.000    22.760     6.440
 344   1 H      0.154  0.846  0.000  0.000     1.375     1.837
 345   1 H      0.101  0.899  0.000  0.000     1.772     2.082
 346   1 H      0.051  0.949  0.000  0.000     2.303     2.373
 347   1 H      0.045  0.955  0.000  0.000     2.378     2.412
 348   1 H      0.332  0.668  0.000  0.000     0.632     1.249
 349   1 H      0.198  0.802  0.000  0.000     1.116     1.654
 350   1 H      0.073  0.927  0.000  0.000     2.051     2.239
 351   1 H      0.187  0.813  0.000  0.000     1.174     1.697
 352   1 H      0.065  0.935  0.000  0.000     2.146     2.291
 353   1 H      0.195  0.805  0.000  0.000     1.134     1.668
 354   1 H      0.191  0.809  0.000  0.000     1.154     1.683
 355   1 H      0.092  0.908  0.000  0.000     1.859     2.132
 356   1 H      0.192  0.808  0.000  0.000     1.149     1.679
 357   1 H      0.065  0.935  0.000  0.000     2.143     2.289
 358   1 H      0.168  0.832  0.000  0.000     1.285     1.775
 359   1 H      0.092  0.908  0.000  0.000     1.859     2.132
 360   1 H      0.173  0.827  0.000  0.000     1.256     1.755
 361   1 H      0.086  0.914  0.000  0.000     1.915     2.164
 362   1 H      0.197  0.803  0.000  0.000     1.121     1.659
 363   1 H      0.082  0.918  0.000  0.000     1.958     2.188
 364   1 H      0.186  0.814  0.000  0.000     1.182     1.703
 365   1 H      0.067  0.933  0.000  0.000     2.115     2.274

 Mol. C6AA /au·bohr⁶  :    1270732.934093
 Mol. C8AA /au·bohr⁸  :   29107163.179890
 Mol. α(0) /au        :       1689.283321

 
molecular dipole:
                 x           y           z       tot (Debye)
 q only:      -39.092     -77.653    -178.499
   full:      -43.213     -81.106    -176.660     506.158
molecular quadrupole (traceless):
                xx          xy          yy          xz          yz          zz
 q only:    17056.482   -5925.133   11928.217   -9930.433  -20739.633  -28984.699
  q+dip:    17068.465   -6624.424   10894.044  -10943.640  -21405.783  -27962.510
   full:    17064.958   -6622.411   10899.049  -10940.245  -21404.427  -27964.007
speedup  1.10
cpu  time for grad    9.33 s
wall time for grad    8.47 s

SCC energy    :    -579.4946359
rep           :       6.8128384
ES            :       2.3274796
AES           :      -0.1128841
AXC           :       0.1861133
disp          :      -0.4743123
XB            :       0.0000000
fix           :       0.0000000
Gborn         :       0.0000000
Gsasa         :       0.0000000
Ghb           :       0.0000000
Gshift        :       0.0000000
Gsolv         :      -0.7566366     -474.80
Etot ala COSMO:    -579.4946359
grad norm     :       0.7278667
total E       :    -572.6379483
atomizationE  :     100.0341650    62772.39
(atE without considering molecular charge,
 total energy contains solvation terms)
H-L gap (eV)  :          0.7674

------------------------------------------------------------------------
 * finished run on 2019/05/04 at 17:40:03.905     
------------------------------------------------------------------------
 total:
 * wall-time:     0 d,  0 h,  0 min,  9.295 sec
 *  cpu-time:     0 d,  0 h,  0 min, 10.063 sec
 * ratio c/w:     1.083 speedup
 SCF:
 * wall-time:     0 d,  0 h,  0 min,  8.822 sec
 *  cpu-time:     0 d,  0 h,  0 min,  9.774 sec
 * ratio c/w:     1.108 speedup

