      -----------------------------------------------------------      
     |                   =====================                   |     
     |                           x T B                           |     
     |                   =====================                   |     
     |                         S. Grimme                         |     
     |          Mulliken Center for Theoretical Chemistry        |     
     |                    University of Bonn                     |     
     |                 Version 6.0.1 (SAW181210)                 |     
      -----------------------------------------------------------      

   This program is distributed in the hope that it will be useful,
   but WITHOUT ANY WARRANTY; without even the implied warranty of
   MERCHANTABILITY or FITNESS FOR A PARTICULAR PURPOSE.
   
   FOR NON-COMMERCIAL, ACADEMIA USE ONLY.
   
   Cite this work as:
   S. Grimme, C. Bannwarth, P. Shushkov, J. Comput. Theory Chem., 2017,
   13, 1989-2009.
   C. Bannwarth, S. Ehlert and S. Grimme., ChemRxiv, 2018, preprint.
   http://doi.org/10.26434/chemrxiv.7246238.v1
   
   for sTDA-xTB:
   S. Grimme and C. Bannwarth, J. Chem. Phys., 2016, 145, 054103.
   
   in the mass-spec context:
   V. Asgeirsson, C. Bauer and S. Grimme, Chem. Sci., 2017, 8, 4879.
   
   if GBSA is used:
   P. Shushkov, F. März and S. Grimme, unpublished.
   
   for ANC optimizer:
   S. Grimme, unpublished.
   Rational Function algorithm used in ANCopt:
   F. Eckert, P. Pulay, H.-J. Werner, J. Comput. Chem., 1997, 18, 1473.
   
   with help from (in alphabetical order)
   C. Bannwarth, F. Bohle, G. Brandenburg, E. Caldeweyher, M. Checinski,
   S. Dohm, S. Ehlert, S. Ehrlich, F. März, H. Neugebauer, J. Pisarek,
   P. Pracht, P. Shushkov, and S. Spicher.
   
 * started run on 2019/05/04 at 18:20:41.920     
========================================================================
 # omp threads = 2
========================================================================
number of atoms            : 487
number of electrons        : 1398
charge                     : -7
spin                       : .0
first test random number   : .3054

########################################################################
# WARNING! Please study the warnings concerning your input carefully
#  - Process number higher than OMP_NUM_THREADS, I hope you know what you are doing.
########################################################################

           ------------------------------------------------- 
          |                 G F N 2 - x T B                 |
          | Geometry, Frequencies, Noncovalent interactions |
          |            JCTC 2018 parametrisation            |
           ------------------------------------------------- 
 
      method parameters     
 k(s)        :  1.8500
 k(p)        :  2.2300
 k(d)        :  2.2300
 k(f)        :  2.0000
 kEN (H0ij)  : -2.0000
 D4 a1       :  0.5200
 D4 a2       :  5.0000
 D4 s6       :  1.0000
 D4 s8       :  2.7000
 D4 s9       :  5.0000
 alphaj      :  2.0000

 Solvent             : h2o
 Using internal parameter file: .param_gbsa2_h2o
 Gsolv ref. state (COSMO-RS): gsolv [1 M gas/solution]
 temperature (mdtemp)       :    298.150000000000     
 dielectric constant        :    80.2000000000000     
 rho                        :    1.00000000000000     
 mass                       :    18.0000000000000     
 surface tension            :    15.5689454083859     
 probe radius               :   0.975313790000000     
 vdW radii scaling          :    1.00000000000000     
 Gshift (Eh)                :   1.857443126794793E-003
 c1                         :    1.55243817000000     
 soset                      :   0.130326360000000     
 HB correction              :  T

            Z     q(EN)     CN     RAES       Cart. coordinates
     1  N   5.0   -0.24    3.25    1.97   -12.47408   168.58245    13.84980
     2  C   4.0    0.02    4.30    4.19   -13.52666   166.10691    13.34713
     3  C   4.0    0.14    3.48    3.11   -16.23842   166.05211    14.16539
     4  O   6.0   -0.32    1.31    1.80   -17.87681   165.16583    12.78211
     5  C   4.0   -0.09    4.14    3.88   -12.03944   164.09813    14.70396
     6  H   1.0    0.05    1.03    1.43   -11.44040   168.67316    15.47497
     7  H   1.0    0.03    1.06    1.44   -13.40572   165.69684    11.33269
     8  H   1.0    0.04    1.00    1.43   -12.86903   162.25754    14.29389
     9  H   1.0    0.02    1.00    1.43   -10.08736   164.15104    14.04822
    10  H   1.0    0.03    1.00    1.43   -12.10936   164.46474    16.72974
    11  N   5.0   -0.16    3.50    2.08   -16.69006   167.02154    16.43306
    12  C   4.0    0.03    4.33    4.25   -19.21851   167.21996    17.46674
    13  C   4.0    0.08    3.31    3.06   -20.95139   168.17238    15.39938
    14  O   6.0   -0.32    1.12    1.80   -23.23985   167.85302    15.50331
    15  C   4.0   -0.07    4.29    4.19   -19.26954   169.08134    19.69094
    16  C   4.0   -0.07    4.18    3.95   -18.02043   168.20262    22.14003
    17  C   4.0   -0.02    4.24    4.08   -19.36780   165.93306    23.19261
    18  N   5.0   -0.16    3.38    2.01   -20.07834   166.24864    25.84956
    19  C   4.0    0.08    3.33    3.06   -19.38670   164.71607    27.73740
    20  N   5.0   -0.19    3.25    1.97   -17.91460   162.71674    27.29331
    21  N   5.0   -0.22    3.22    1.96   -20.17660   165.18095    30.09389
    22  H   1.0    0.06    1.07    1.44   -15.32001   167.69428    17.61225
    23  H   1.0    0.05    1.05    1.44   -19.85157   165.38693    18.16216
    24  H   1.0    0.01    1.03    1.43   -18.30200   170.80288    19.10513
    25  H   1.0    0.03    1.03    1.43   -21.23863   169.49519    20.13314
    26  H   1.0    0.02    1.03    1.43   -16.06078   167.68672    21.76775
    27  H   1.0    0.01    1.03    1.43   -18.09791   169.71629    23.53465
    28  H   1.0    0.04    1.04    1.43   -21.08745   165.60991    22.10790
    29  H   1.0    0.04    1.05    1.44   -18.13003   164.29277    23.05466
    30  H   1.0    0.05    1.06    1.44   -21.18950   167.75853    26.29554
    31  H   1.0    0.08    1.04    1.43   -17.30611   162.34636    25.50185
    32  H   1.0    0.08    1.02    1.43   -17.39682   161.55834    28.74462
    33  H   1.0    0.05    1.02    1.43   -21.30477   166.70217    30.44915
    34  H   1.0    0.06    1.02    1.43   -19.65126   164.01309    31.53386
    35  N   5.0   -0.20    3.23    1.96   -21.83578   166.54155     9.46942
    36  C   4.0    0.03    4.33    4.25   -23.02442   164.88615     7.64772
    37  C   4.0    0.14    3.46    3.10   -23.66315   162.33124     8.74754
    38  O   6.0   -0.29    1.74    1.81   -22.52553   161.50354    10.59380
    39  C   4.0    0.02    4.17    3.95   -21.33312   164.60647     5.33659
    40  O   6.0   -0.28    2.12    1.84   -22.68805   163.43673     3.36938
    41  H   1.0    0.12    1.06    1.44   -20.24085   165.84424    10.29523
    42  H   1.0    0.02    1.07    1.44   -24.83100   165.69873     7.08647
    43  H   1.0    0.01    1.02    1.43   -20.71140   166.46974     4.71865
    44  H   1.0    0.04    1.03    1.43   -19.70228   163.44618     5.82414
    45  H   1.0    0.08    1.01    1.43   -22.75986   164.55734     1.89728
    46  N   5.0   -0.14    3.55    2.11   -25.51319   161.10103     7.59859
    47  C   4.0    0.03    4.58    4.64   -26.22562   158.56879     8.32802
    48  C   4.0    0.15    3.62    3.18   -24.10156   156.82647     7.68741
    49  O   6.0   -0.30    1.40    1.80   -22.97907   157.03434     5.67296
    50  C   4.0    0.05    4.32    4.24   -28.38368   157.60692     6.73876
    51  O   6.0   -0.28    2.14    1.85   -27.95472   158.35903     4.16685
    52  C   4.0   -0.09    4.07    3.75   -30.89513   158.60848     7.71197
    53  H   1.0    0.07    1.07    1.44   -26.55821   161.81723     6.14539
    54  H   1.0    0.03    1.06    1.44   -26.72450   158.59147    10.32735
    55  H   1.0    0.03    1.05    1.44   -28.49896   155.55279     6.82947
    56  H   1.0    0.14    1.05    1.44   -26.14436   158.61226     3.87394
    57  H   1.0    0.02    1.00    1.43   -32.43715   157.89794     6.54601
    58  H   1.0    0.02    1.00    1.43   -31.19182   157.99810     9.65650
    59  H   1.0    0.02    1.00    1.43   -30.90458   160.66639     7.64961
    60  N   5.0   -0.15    3.49    2.07   -23.59890   155.07091     9.39194
    61  C   4.0    0.03    4.45    4.46   -21.94728   152.96576     8.84959
    62  C   4.0    0.16    3.63    3.18   -21.98129   152.41207     6.05468
    63  O   6.0   -0.30    1.44    1.80   -20.06511   152.69175     4.79046
    64  C   4.0   -0.05    4.39    4.37   -22.85435   150.59415    10.22342
    65  C   4.0   -0.03    4.19    3.97   -21.07044   148.31514     9.98531
    66  C   4.0   -0.08    4.08    3.76   -19.54733   147.95798    12.45140
    67  C   4.0   -0.08    4.09    3.78   -22.49908   145.90952     9.29745
    68  H   1.0    0.08    1.06    1.44   -24.31699   155.05957    11.18151
    69  H   1.0    0.04    1.05    1.44   -20.04054   153.43819     9.47131
    70  H   1.0    0.05    1.04    1.43   -23.04710   151.03068    12.22653
    71  H   1.0    0.05    1.04    1.44   -24.67982   150.04235     9.44485
    72  H   1.0    0.04    1.06    1.44   -19.74575   148.68175     8.45085
    73  H   1.0    0.04    1.00    1.43   -18.29822   146.33471    12.23787
    74  H   1.0    0.04    1.00    1.43   -18.43806   149.65685    12.80667
    75  H   1.0    0.04    1.00    1.43   -20.85691   147.63673    14.00854
    76  H   1.0    0.05    1.00    1.43   -21.15926   144.35239     9.15005
    77  H   1.0    0.04    1.00    1.43   -23.88425   145.50890    10.76766
    78  H   1.0    0.04    1.00    1.43   -23.45150   146.18920     7.49276
    79  N   5.0   -0.15    3.52    2.09   -24.18849   151.64862     5.11549
    80  C   4.0    0.03    4.43    4.43   -24.53242   150.83415     2.50011
    81  C   4.0    0.17    3.57    3.15   -22.57467   152.00011     0.80313
    82  O   6.0   -0.28    1.22    1.80   -21.28020   150.68108    -0.60660
    83  C   4.0   -0.05    4.28    4.16   -27.16859   151.54279     1.53824
    84  C   4.0   -0.04    4.20    4.00   -27.55976   151.18563    -1.31525
    85  C   4.0    0.23    3.12    3.03   -27.48228   148.42663    -2.11649
    86  O   6.0   -0.34    1.17    1.80   -29.43248   147.10383    -1.82925
    87  O   6.0   -0.31    1.17    1.80   -25.46595   147.59705    -3.04246
    88  H   1.0    0.07    1.06    1.44   -25.81555   151.57114     6.14539
    89  H   1.0    0.05    1.06    1.44   -24.33400   148.78568     2.43586
    90  H   1.0    0.04    1.03    1.43   -28.55565   150.36549     2.50578
    91  H   1.0    0.04    1.03    1.43   -27.50874   153.52890     1.96531
    92  H   1.0    0.02    1.03    1.43   -29.40036   151.94908    -1.84059
    93  H   1.0    0.04    1.04    1.43   -26.06877   152.18341    -2.32625
    94  N   5.0   -0.12    3.61    2.17   -22.38002   154.49454     0.98455
    95  C   4.0    0.04    4.52    4.57   -20.61502   155.97231    -0.49889
    96  C   4.0    0.16    3.54    3.13   -17.94484   155.27122     0.13984
    97  O   6.0   -0.30    1.25    1.80   -16.58046   154.21487    -1.41729
    98  C   4.0    0.05    4.33    4.25   -20.86257   158.76344     0.12850
    99  O   6.0   -0.27    2.12    1.84   -23.49118   159.41917     0.35905
   100  C   4.0   -0.10    4.08    3.76   -19.56433   160.35459    -1.89162
   101  H   1.0    0.11    1.10    1.44   -23.44961   155.56791     2.17507
   102  H   1.0    0.04    1.06    1.44   -21.02509   155.62082    -2.48688
   103  H   1.0    0.05    1.07    1.44   -19.94228   159.17918     1.92374
   104  H   1.0    0.13    1.06    1.44   -23.67827   160.91394     1.43808
   105  H   1.0    0.02    1.00    1.43   -19.74386   162.35580    -1.43619
   106  H   1.0    0.02    1.00    1.43   -17.56500   159.86893    -1.99366
   107  H   1.0    0.02    1.00    1.43   -20.43172   160.00688    -3.72843
   108  N   5.0   -0.13    3.66    2.22   -17.24186   155.88916     2.46798
   109  C   4.0    0.03    4.46    4.48   -14.71152   155.50933     3.42229
   110  C   4.0    0.16    3.53    3.13   -13.86870   152.89395     2.68341
   111  O   6.0   -0.31    1.25    1.80   -12.05078   152.60482     1.27368
   112  C   4.0   -0.06    4.38    4.35   -14.65294   155.85137     6.28523
   113  C   4.0   -0.02    4.25    4.10   -16.46518   157.84314     7.36237
   114  C   4.0   -0.08    4.10    3.81   -16.09858   158.30423    10.17239
   115  C   4.0   -0.08    4.16    3.93   -16.20818   160.30923     5.96209
   116  H   1.0    0.09    1.11    1.45   -18.42294   156.67907     3.77000
   117  H   1.0    0.03    1.06    1.44   -13.42461   156.91339     2.63995
   118  H   1.0    0.04    1.04    1.43   -15.13859   154.05046     7.15828
   119  H   1.0    0.03    1.03    1.43   -12.74431   156.40506     6.82758
   120  H   1.0    0.06    1.07    1.44   -18.36814   157.09670     7.11104
   121  H   1.0    0.05    1.00    1.43   -17.44406   159.73287    10.79789
   122  H   1.0    0.04    1.00    1.43   -16.42172   156.54301    11.18907
   123  H   1.0    0.03    1.00    1.43   -14.17294   158.95997    10.49932
   124  H   1.0    0.04    1.01    1.43   -17.51776   161.67928     6.77089
   125  H   1.0    0.02    1.00    1.43   -14.27310   160.98953     6.15295
   126  H   1.0    0.03    1.02    1.43   -16.65227   160.00121     3.97409
   127  N   5.0   -0.14    3.50    2.08   -15.28032   151.00800     3.54324
   128  C   4.0    0.04    4.31    4.22   -14.71152   148.37183     3.01222
   129  C   4.0    0.09    3.28    3.05   -14.19373   147.96743     0.22299
   130  O   6.0   -0.32    1.12    1.80   -12.36637   146.69565    -0.46676
   131  C   4.0   -0.04    4.24    4.08   -16.90927   146.68809     3.86071
   132  C   4.0   -0.04    4.14    3.88   -16.59935   143.81570     3.36182
   133  C   4.0    0.22    3.09    3.02   -16.22519   142.19243     5.76933
   134  O   6.0   -0.31    1.15    1.80   -17.98830   140.65608     6.35515
   135  O   6.0   -0.32    1.17    1.80   -14.18428   142.43431     7.02033
   136  H   1.0    0.10    1.10    1.44   -16.85447   151.24611     4.62983
   137  H   1.0    0.05    1.06    1.44   -13.03155   147.84082     4.07803
   138  H   1.0    0.04    1.03    1.43   -17.15682   146.92808     5.89217
   139  H   1.0    0.06    1.03    1.43   -18.60813   147.29847     2.86671
   140  H   1.0    0.04    1.03    1.43   -18.29066   143.12973     2.40751
   141  H   1.0    0.05    1.03    1.43   -14.94962   143.53224     2.16185
   142  N   5.0   -0.23    3.27    1.97    -3.03490   152.58214    17.18517
   143  C   4.0    0.02    4.50    4.54    -5.11927   154.26589    17.68217
   144  C   4.0    0.14    3.62    3.18    -7.57591   153.06969    16.96407
   145  O   6.0   -0.33    1.33    1.80    -9.46375   153.38339    18.25475
   146  C   4.0   -0.03    4.36    4.31    -4.77345   156.67907    16.21007
   147  C   4.0   -0.09    4.23    4.06    -6.80679   156.94174    14.19373
   148  C   4.0   -0.09    4.12    3.84    -4.66762   158.89005    18.02232
   149  H   1.0    0.05    1.04    1.43    -1.71776   153.35315    16.00787
   150  H   1.0    0.04    1.08    1.44    -5.14005   154.66840    19.70228
   151  H   1.0    0.02    1.07    1.44    -2.98577   156.65450    15.18773
   152  H   1.0    0.02    1.00    1.43    -6.50633   158.70107    13.16383
   153  H   1.0    0.03    1.02    1.43    -6.68207   155.34114    12.90305
   154  H   1.0    0.05    1.02    1.43    -8.65494   156.96820    15.10458
   155  H   1.0    0.01    1.00    1.43    -4.41629   160.62860    16.94517
   156  H   1.0    0.05    1.00    1.43    -6.43074   158.97131    19.08623
   157  H   1.0    0.03    1.00    1.43    -3.08214   158.62738    19.30922
   158  N   5.0   -0.15    3.72    2.30    -7.51733   151.66563    14.90994
   159  C   4.0    0.03    4.65    4.72    -9.68485   150.30124    14.12192
   160  C   4.0    0.16    3.58    3.16   -10.43696   148.33593    16.06645
   161  O   6.0   -0.34    1.46    1.80   -12.66494   148.06570    16.66549
   162  C   4.0   -0.03    4.40    4.38    -9.17273   149.06536    11.68607
   163  C   4.0   -0.07    4.13    3.86   -11.66339   148.47010    10.34814
   164  C   4.0   -0.09    4.26    4.11    -7.53623   150.78879    10.13460
   165  H   1.0    0.06    1.13    1.45    -5.98098   151.45209    13.76665
   166  H   1.0    0.05    1.07    1.44   -11.23442   151.64295    13.91972
   167  H   1.0    0.04    1.07    1.44    -8.18251   147.27957    11.95441
   168  H   1.0    0.04    1.00    1.43   -11.25521   147.55547     8.54723
   169  H   1.0    0.05    1.00    1.43   -12.78022   147.21343    11.53867
   170  H   1.0    0.04    1.00    1.43   -12.68951   150.22754    10.02689
   171  H   1.0    0.03    1.00    1.43    -7.14505   149.89117     8.32235
   172  H   1.0    0.03    1.00    1.43    -8.53022   152.56891     9.83602
   173  H   1.0    0.02    1.04    1.43    -5.77311   151.12894    11.14560
   174  N   5.0   -0.14    3.57    2.13    -8.64172   146.97722    17.11903
   175  C   4.0    0.05    4.63    4.70    -9.43351   145.34827    19.11269
   176  C   4.0    0.16    3.61    3.17   -10.48987   146.77690    21.28398
   177  O   6.0   -0.29    1.37    1.80   -12.40794   146.02857    22.35357
   178  C   4.0   -0.04    4.40    4.38    -7.36048   143.60783    19.90826
   179  C   4.0    0.14    3.28    3.05    -7.04301   141.55937    18.06578
   180  O   6.0   -0.32    1.22    1.80    -6.79356   142.09794    15.77543
   181  N   5.0   -0.19    3.16    1.95    -7.19230   139.15942    18.95962
   182  H   1.0    0.08    1.06    1.44    -6.77089   146.97533    16.65604
   183  H   1.0    0.06    1.10    1.44   -10.94529   144.15396    18.38325
   184  H   1.0    0.04    1.04    1.43    -5.59170   144.65663    20.03487
   185  H   1.0    0.05    1.05    1.44    -7.82158   142.78013    21.73752
   186  H   1.0    0.08    1.02    1.43    -6.98443   137.66843    17.75587
   187  H   1.0    0.08    1.02    1.43    -7.51166   138.84761    20.83423
   188  N   5.0   -0.14    3.56    2.12    -9.28989   148.89907    21.86980
   189  C   4.0    0.04    4.44    4.45   -10.23854   150.56392    23.82755
   190  C   4.0    0.17    3.54    3.13   -13.10336   150.57903    23.64614
   191  O   6.0   -0.27    1.23    1.80   -14.43184   150.45998    25.55665
   192  C   4.0   -0.04    4.30    4.20    -9.14438   153.22654    23.54032
   193  C   4.0   -0.04    4.21    4.01    -6.35515   153.40417    24.22629
   194  C   4.0    0.23    3.13    3.03    -5.64461   155.97609    25.25052
   195  O   6.0   -0.33    1.18    1.80    -5.63516   157.80346    23.74819
   196  O   6.0   -0.33    1.17    1.80    -5.10793   156.15372    27.56165
   197  H   1.0    0.08    1.06    1.44    -7.66851   149.50756    21.02509
   198  H   1.0    0.05    1.06    1.44    -9.66595   149.91574    25.69649
   199  H   1.0    0.08    1.09    1.44    -9.35036   153.81991    21.57878
   200  H   1.0    0.06    1.04    1.43   -10.17995   154.50777    24.77620
   201  H   1.0    0.04    1.03    1.43    -5.92618   152.00011    25.67004
   202  H   1.0    0.03    1.04    1.43    -5.22320   153.05079    22.54254
   203  N   5.0   -0.12    3.61    2.17   -14.02177   150.62250    21.31044
   204  C   4.0    0.04    4.47    4.50   -16.69195   150.45053    20.81722
   205  C   4.0    0.16    3.50    3.11   -17.50831   147.72744    20.82667
   206  O   6.0   -0.30    1.44    1.80   -18.95017   146.99044    22.48585
   207  C   4.0   -0.05    4.29    4.17   -17.35713   151.76011    18.34546
   208  C   4.0   -0.05    4.19    3.98   -17.00375   154.62116    18.54766
   209  C   4.0   -0.01    4.19    3.97   -19.48874   156.11404    18.78766
   210  N   5.0   -0.14    3.40    2.02   -20.03676   157.41417    16.40660
   211  C   4.0    0.08    3.33    3.06   -22.33467   157.88282    15.49764
   212  N   5.0   -0.18    3.24    1.97   -24.39447   157.17229    16.77132
   213  N   5.0   -0.13    3.59    2.15   -22.55199   159.05445    13.28855
   214  H   1.0    0.11    1.09    1.44   -12.94273   150.77745    19.72118
   215  H   1.0    0.07    1.07    1.44   -17.73319   151.44264    22.29310
   216  H   1.0    0.05    1.03    1.43   -16.13070   151.05713    16.84880
   217  H   1.0    0.04    1.03    1.43   -19.32623   151.37839    17.87870
   218  H   1.0    0.05    1.04    1.43   -15.86803   155.02934    20.21629
   219  H   1.0    0.04    1.03    1.43   -16.03621   155.28823    16.85636
   220  H   1.0    0.05    1.03    1.43   -21.03832   154.82336    19.20906
   221  H   1.0    0.05    1.02    1.43   -19.31489   157.51811    20.28432
   222  H   1.0    0.07    1.06    1.44   -18.53254   158.00944    15.35780
   223  H   1.0    0.09    1.03    1.43   -24.21684   156.25955    18.46073
   224  H   1.0    0.08    1.02    1.43   -26.14625   157.54267    16.05511
   225  H   1.0    0.11    1.14    1.45   -20.97218   159.57980    12.31723
   226  H   1.0    0.09    1.09    1.44   -24.29810   159.42862    12.56290
   227  N   5.0   -0.14    3.49    2.07   -16.54455   146.22510    19.04844
   228  C   4.0    0.03    4.37    4.34   -17.30422   143.56437    18.79710
   229  C   4.0    0.17    3.51    3.12   -18.43617   142.48912    21.24619
   230  O   6.0   -0.31    1.29    1.80   -20.42605   141.28347    21.21973
   231  C   4.0   -0.04    4.24    4.08   -15.10836   141.89574    17.90137
   232  C   4.0   -0.05    4.12    3.85   -14.15972   142.33227    15.17261
   233  C   4.0   -0.01    4.17    3.94   -15.78299   141.08505    13.09580
   234  N   5.0   -0.14    3.37    2.01   -16.24408   138.36573    13.42083
   235  C   4.0    0.09    3.33    3.06   -15.78299   136.58939    11.68607
   236  N   5.0   -0.18    3.27    1.97   -14.81734   137.18466     9.44674
   237  N   5.0   -0.18    3.27    1.97   -16.30267   134.18944    12.18684
   238  H   1.0    0.12    1.16    1.45   -15.23497   146.78635    17.75020
   239  H   1.0    0.04    1.06    1.44   -18.77632   143.50579    17.35713
   240  H   1.0    0.05    1.04    1.43   -13.50776   142.22077    19.15615
   241  H   1.0    0.05    1.04    1.43   -15.70929   139.93043    18.02232
   242  H   1.0    0.05    1.03    1.43   -14.13704   144.35805    14.80411
   243  H   1.0    0.05    1.03    1.43   -12.25487   141.56504    15.01009
   244  H   1.0    0.04    1.02    1.43   -17.61980   142.01857    13.05801
   245  H   1.0    0.06    1.05    1.44   -14.82868   141.33260    11.28733
   246  H   1.0    0.08    1.06    1.44   -16.97541   137.78748    15.10836
   247  H   1.0    0.11    1.06    1.44   -14.41483   139.02336     9.02911
   248  H   1.0    0.07    1.03    1.43   -14.47719   135.80327     8.14661
   249  H   1.0    0.11    1.06    1.44   -17.05289   133.70189    13.89327
   250  H   1.0    0.07    1.03    1.43   -15.95118   132.83073    10.86403
   251  N   5.0   -0.12    3.56    2.12   -17.17572   142.95588    23.36079
   252  C   4.0    0.04    4.46    4.47   -18.20940   142.21322    25.78720
   253  C   4.0    0.16    3.47    3.10   -20.70951   143.54169    26.34089
   254  O   6.0   -0.31    1.42    1.80   -22.70128   142.37195    26.12735
   255  C   4.0   -0.05    4.29    4.18   -16.26676   142.58738    27.87724
   256  C   4.0   -0.04    4.21    4.02   -14.68128   140.22711    28.29109
   257  C   4.0    0.25    3.13    3.03   -11.87126   140.74301    28.49140
   258  O   6.0   -0.29    1.18    1.80   -11.04923   141.98834    30.31498
   259  O   6.0   -0.27    1.20    1.80   -10.46530   139.84917    26.83600
   260  H   1.0    0.11    1.08    1.44   -15.46174   143.83271    23.44961
   261  H   1.0    0.05    1.07    1.44   -18.64593   140.20066    25.74185
   262  H   1.0    0.06    1.04    1.43   -15.00442   144.13318    27.36323
   263  H   1.0    0.04    1.03    1.43   -17.23997   143.02958    29.63846
   264  H   1.0    0.04    1.03    1.43   -15.28032   139.32571    30.04286
   265  H   1.0    0.05    1.04    1.43   -14.97230   138.94588    26.70372
   266  N   5.0   -0.13    3.50    2.08   -20.60557   145.97944    26.95505
   267  C   4.0    0.03    4.42    4.41   -22.85813   147.48177    27.52008
   268  C   4.0    0.17    3.51    3.12   -25.13147   146.59171    26.02909
   269  O   6.0   -0.32    1.29    1.80   -27.15347   146.22510    27.09678
   270  C   4.0   -0.04    4.28    4.16   -22.41215   150.28424    26.97584
   271  C   4.0   -0.03    4.18    3.97   -20.25975   151.46153    28.48951
   272  C   4.0    0.24    3.11    3.02   -19.47741   154.08258    27.53520
   273  O   6.0   -0.31    1.17    1.80   -21.15170   155.73798    27.29520
   274  O   6.0   -0.28    1.17    1.80   -17.18706   154.50021    27.06843
   275  H   1.0    0.09    1.07    1.44   -18.96718   146.98666    27.07977
   276  H   1.0    0.04    1.06    1.44   -23.25875   147.25123    29.52697
   277  H   1.0    0.06    1.03    1.43   -21.96051   150.50155    24.97840
   278  H   1.0    0.05    1.03    1.43   -24.13180   151.32358    27.42748
   279  H   1.0    0.03    1.03    1.43   -20.85502   151.65618    30.45104
   280  H   1.0    0.06    1.04    1.43   -18.61191   150.22943    28.37235
   281  N   5.0   -0.12    3.51    2.09   -24.79131   146.21188    23.57055
   282  C   4.0    0.04    4.41    4.40   -26.85301   145.38040    21.93972
   283  C   4.0    0.16    3.51    3.12   -27.59000   142.66297    22.52931
   284  O   6.0   -0.30    1.30    1.80   -29.68948   142.16408    23.42882
   285  C   4.0   -0.05    4.28    4.16   -26.10467   145.61094    19.15426
   286  C   4.0   -0.04    4.15    3.90   -28.20605   146.57848    17.39115
   287  C   4.0    0.24    3.10    3.02   -27.88858   149.37339    16.65982
   288  O   6.0   -0.31    1.16    1.80   -27.96039   149.95920    14.35625
   289  O   6.0   -0.30    1.17    1.80   -27.70905   150.98154    18.38136
   290  H   1.0    0.10    1.07    1.44   -23.11513   146.46321    22.65214
   291  H   1.0    0.06    1.06    1.44   -28.48762   146.58793    22.27609
   292  H   1.0    0.05    1.04    1.43   -24.52486   146.92430    19.01064
   293  H   1.0    0.04    1.04    1.43   -25.53776   143.75145    18.47585
   294  H   1.0    0.04    1.03    1.43   -28.18904   145.46543    15.65827
   295  H   1.0    0.04    1.03    1.43   -30.02208   146.37439    18.34168
   296  N   5.0   -0.14    3.55    2.11   -25.84578   140.91686    22.05499
   297  C   4.0    0.04    4.44    4.44   -26.28231   138.28637    22.63325
   298  C   4.0    0.17    3.51    3.12   -27.51819   138.01613    25.22028
   299  O   6.0   -0.29    1.24    1.80   -28.95816   136.25869    25.67571
   300  C   4.0    0.04    4.20    3.99   -23.81811   136.85584    22.58034
   301  O   6.0   -0.25    2.05    1.83   -24.29810   134.30282    22.02476
   302  H   1.0    0.11    1.09    1.44   -24.12235   141.27969    21.27265
   303  H   1.0    0.06    1.06    1.44   -27.54276   137.47567    21.21973
   304  H   1.0    0.06    1.03    1.43   -22.59545   137.65331    21.12714
   305  H   1.0    0.05    1.02    1.43   -22.90726   136.99568    24.42282
   306  H   1.0    0.12    1.01    1.43   -22.70884   133.35418    21.98129
   307  N   5.0   -0.12    3.57    2.13   -26.97206   139.80571    26.88891
   308  C   4.0    0.04    4.36    4.31   -28.27030   139.99846    29.29642
   309  C   4.0    0.16    3.45    3.10   -31.10300   140.33861    28.95060
   310  O   6.0   -0.29    1.29    1.80   -32.51462   138.48101    28.96950
   311  C   4.0   -0.08    4.15    3.90   -27.18371   142.15086    30.87434
   312  H   1.0    0.12    1.15    1.45   -25.62657   141.16064    26.62246
   313  H   1.0    0.05    1.06    1.44   -27.97928   138.23912    30.32632
   314  H   1.0    0.03    1.00    1.43   -28.19471   142.24534    32.66580
   315  H   1.0    0.04    1.00    1.43   -25.18438   141.78992    31.21449
   316  H   1.0    0.07    1.04    1.43   -27.41236   143.91964    29.84444
   317  N   5.0   -0.14    3.47    2.06   -31.91558   142.69888    28.58022
   318  C   4.0    0.03    4.36    4.31   -34.60088   143.34516    28.75218
   319  C   4.0    0.16    3.46    3.10   -36.34510   141.50457    27.39914
   320  O   6.0   -0.32    1.32    1.80   -38.38411   140.94332    28.36857
   321  C   4.0   -0.08    4.12    3.84   -35.06953   146.00590    27.85834
   322  H   1.0    0.10    1.07    1.44   -30.77419   144.19365    28.16070
   323  H   1.0    0.05    1.07    1.44   -35.08654   143.23556    30.75151
   324  H   1.0    0.03    1.00    1.43   -37.08209   146.41975    28.01141
   325  H   1.0    0.03    1.00    1.43   -33.99239   147.30792    29.03564
   326  H   1.0    0.04    1.00    1.43   -34.46671   146.17030    25.89491
   327  N   5.0   -0.13    3.48    2.06   -35.52118   140.55404    25.21083
   328  C   4.0    0.03    4.36    4.30   -36.94792   138.66620    23.77275
   329  C   4.0    0.16    3.50    3.11   -37.62822   136.44199    25.45461
   330  O   6.0   -0.32    1.49    1.80   -39.84487   136.05460    26.09334
   331  C   4.0   -0.08    4.15    3.91   -35.43803   137.76291    21.54288
   332  H   1.0    0.10    1.07    1.44   -33.85822   141.05670    24.37558
   333  H   1.0    0.04    1.06    1.44   -38.68458   139.52414    23.06977
   334  H   1.0    0.03    1.00    1.43   -36.53974   136.36262    20.50920
   335  H   1.0    0.04    1.00    1.43   -35.01851   139.36729    20.32211
   336  H   1.0    0.05    1.01    1.43   -33.68437   136.91820    22.21751
   337  N   5.0   -0.13    3.50    2.08   -35.69881   135.00202    26.18971
   338  C   4.0    0.04    4.38    4.34   -36.04085   132.91010    27.94527
   339  C   4.0    0.16    3.52    3.13   -37.88145   133.64142    30.00507
   340  O   6.0   -0.31    1.32    1.80   -39.85621   132.46790    30.25073
   341  C   4.0   -0.08    4.14    3.88   -33.54453   132.15232    29.08666
   342  H   1.0    0.10    1.06    1.44   -33.87901   135.24013    25.60201
   343  H   1.0    0.05    1.06    1.44   -36.77218   131.28304    26.91537
   344  H   1.0    0.03    1.00    1.43   -33.85066   130.58762    30.39057
   345  H   1.0    0.05    1.00    1.43   -32.26707   131.57028    27.57866
   346  H   1.0    0.06    1.00    1.43   -32.75273   133.76425    30.09578
   347  N   5.0   -0.14    3.51    2.08   -37.25217   135.63697    31.40536
   348  C   4.0    0.03    4.44    4.44   -38.77151   136.44388    33.52752
   349  C   4.0    0.15    3.46    3.10   -41.42657   137.19788    32.73950
   350  O   6.0   -0.32    1.25    1.80   -43.18024   137.05993    34.26262
   351  C   4.0   -0.04    4.27    4.15   -37.49972   138.56604    35.00528
   352  C   4.0   -0.04    4.18    3.96   -38.26884   138.54526    37.80397
   353  C   4.0    0.23    3.10    3.02   -37.40713   140.86395    39.30630
   354  O   6.0   -0.32    1.18    1.80   -35.81976   142.36250    38.36333
   355  O   6.0   -0.34    1.17    1.80   -38.32931   141.17765    41.46437
   356  H   1.0    0.10    1.07    1.44   -35.69314   136.72923    31.10489
   357  H   1.0    0.04    1.07    1.44   -38.92835   134.85462    34.82954
   358  H   1.0    0.05    1.03    1.43   -35.45504   138.33739    34.89568
   359  H   1.0    0.06    1.03    1.43   -38.04963   140.37829    34.19837
   360  H   1.0    0.05    1.03    1.43   -40.32297   138.46022    37.91924
   361  H   1.0    0.03    1.03    1.43   -37.44303   136.88419    38.69970
   362  N   5.0   -0.12    3.55    2.12   -41.75349   137.94621    30.36790
   363  C   4.0    0.04    4.57    4.63   -44.29896   138.48290    29.47784
   364  C   4.0    0.15    3.56    3.14   -45.61987   136.14531    28.47817
   365  O   6.0   -0.32    1.28    1.80   -47.77038   135.63508    29.19249
   366  C   4.0   -0.02    4.30    4.20   -44.39722   140.61451    27.56543
   367  C   4.0   -0.09    4.15    3.90   -46.95591   140.64663    26.20105
   368  C   4.0   -0.08    4.13    3.87   -43.95692   143.09194    28.91848
   369  H   1.0    0.13    1.13    1.45   -40.34943   138.18810    29.06965
   370  H   1.0    0.05    1.09    1.44   -45.32130   139.14808    31.13701
   371  H   1.0    0.05    1.06    1.44   -42.93457   140.34239    26.14058
   372  H   1.0    0.02    1.00    1.43   -46.97292   142.19432    24.84234
   373  H   1.0    0.04    1.01    1.43   -47.21858   138.85139    25.22406
   374  H   1.0    0.03    1.00    1.43   -48.45257   140.91497    27.59000
   375  H   1.0    0.02    1.00    1.43   -44.02495   144.62640    27.54654
   376  H   1.0    0.03    1.00    1.43   -45.42712   143.35083    30.33766
   377  H   1.0    0.05    1.00    1.43   -42.10687   143.04281    29.82365
   378  N   5.0   -0.15    3.57    2.13   -44.36699   134.69967    26.86245
   379  C   4.0    0.03    4.46    4.48   -45.47625   132.31672    26.08767
   380  C   4.0    0.17    3.48    3.11   -45.95436   130.67644    28.40636
   381  O   6.0   -0.31    1.24    1.80   -47.41511   128.87931    28.30432
   382  C   4.0   -0.04    4.29    4.18   -43.80007   130.91832    24.22629
   383  C   4.0   -0.04    4.19    3.98   -45.18713   128.79049    22.83545
   384  C   4.0    0.23    3.11    3.03   -43.39945   126.99147    21.46351
   385  O   6.0   -0.31    1.18    1.80   -41.38878   126.34141    22.54443
   386  O   6.0   -0.34    1.16    1.80   -44.00794   126.21669    19.30544
   387  H   1.0    0.12    1.18    1.46   -42.64922   135.11163    26.08767
   388  H   1.0    0.04    1.06    1.44   -47.24315   132.67766    25.09178
   389  H   1.0    0.04    1.03    1.43   -43.10654   132.25247    22.81844
   390  H   1.0    0.07    1.03    1.43   -42.21648   130.08495    25.24674
   391  H   1.0    0.05    1.03    1.43   -46.26994   127.69256    24.20172
   392  H   1.0    0.03    1.03    1.43   -46.45135   129.61819    21.43705
   393  N   5.0   -0.12    3.58    2.14   -44.71092   131.31895    30.49262
   394  C   4.0    0.05    4.46    4.48   -45.16634   130.05850    32.88312
   395  C   4.0    0.16    3.47    3.10   -47.74204   130.71045    33.91869
   396  O   6.0   -0.29    1.25    1.80   -49.21602   129.01726    34.56120
   397  C   4.0   -0.04    4.30    4.19   -43.13488   130.71045    34.83143
   398  C   4.0   -0.04    4.19    3.97   -41.21303   128.61097    35.22071
   399  C   4.0    0.23    3.14    3.03   -42.44702   126.09574    35.90668
   400  O   6.0   -0.33    1.18    1.80   -43.70180   125.97102    37.89656
   401  O   6.0   -0.32    1.17    1.80   -42.17112   124.24192    34.46104
   402  H   1.0    0.11    1.12    1.45   -43.37677   132.70600    30.58332
   403  H   1.0    0.07    1.08    1.44   -45.07185   128.03082    32.53730
   404  H   1.0    0.06    1.04    1.43   -42.12010   132.38664    34.19837
   405  H   1.0    0.05    1.04    1.43   -44.04384   131.07895    36.64179
   406  H   1.0    0.05    1.03    1.43   -40.14534   128.34452    33.48027
   407  H   1.0    0.03    1.03    1.43   -39.94125   129.13820    36.75328
   408  N   5.0   -0.14    3.48    2.06   -48.29195   133.15576    34.09255
   409  C   4.0    0.04    4.36    4.31   -50.67678   133.94755    35.19615
   410  C   4.0    0.08    3.27    3.05   -52.79327   132.83451    33.61256
   411  O   6.0   -0.33    1.12    1.80   -54.30128   131.34540    34.56120
   412  C   4.0   -0.06    4.28    4.16   -50.88276   136.81805    35.39268
   413  C   4.0   -0.06    4.21    4.01   -51.91455   137.64764    37.91924
   414  C   4.0   -0.03    4.21    4.02   -51.72369   140.48034    38.29719
   415  N   5.0   -0.16    3.37    2.01   -52.54194   141.22489    40.84076
   416  C   4.0    0.06    3.33    3.06   -54.86630   142.01857    41.46248
   417  N   5.0   -0.22    3.25    1.97   -56.66721   142.20944    39.72393
   418  N   5.0   -0.23    3.22    1.96   -55.41054   142.63840    43.84542
   419  H   1.0    0.10    1.06    1.44   -47.15244   134.59384    33.50106
   420  H   1.0    0.04    1.07    1.44   -50.80528   133.27670    37.13878
   421  H   1.0    0.05    1.04    1.43   -49.01193   137.64764    35.15646
   422  H   1.0    0.03    1.04    1.43   -52.14888   137.50780    33.92247
   423  H   1.0    0.03    1.03    1.43   -53.90065   137.11851    38.04396
   424  H   1.0    0.03    1.03    1.43   -50.84497   136.72923    39.41968
   425  H   1.0    0.03    1.03    1.43   -49.76593   141.07182    38.04774
   426  H   1.0    0.02    1.03    1.43   -52.92744   141.43465    36.92525
   427  H   1.0    0.05    1.06    1.44   -51.23425   141.13040    42.25238
   428  H   1.0    0.05    1.03    1.43   -56.28927   141.75023    37.89090
   429  H   1.0    0.04    1.02    1.43   -58.42844   142.81604    40.22282
   430  H   1.0    0.04    1.02    1.43   -54.05372   142.50990    45.20791
   431  H   1.0    0.03    1.02    1.43   -57.18311   143.24123    44.30462
   432  N   5.0   -0.26    3.19    1.95     4.44000   137.72278    29.11249
   433  C   4.0    0.03    4.23    4.06     1.71896   137.83615    29.23154
   434  C   4.0    0.06    3.20    3.04     0.38217   137.51255    26.68419
   435  O   6.0   -0.29    1.13    1.80    -1.47805   136.12736    26.48955
   436  C   4.0   -0.06    4.25    4.09     0.90478   140.28099    30.57325
   437  C   4.0   -0.04    4.17    3.93    -1.96316   140.72575    30.72820
   438  C   4.0    0.25    3.12    3.03    -3.48317   138.36514    31.47465
   439  O   6.0   -0.25    1.17    1.80    -5.22892   137.63176    30.03845
   440  O   6.0   -0.33    1.17    1.80    -2.91416   137.23798    33.47776
   441  H   1.0    0.04    1.03    1.43     5.30110   138.86654    30.40317
   442  H   1.0    0.05    1.07    1.44     1.08145   136.21417    30.33136
   443  H   1.0    0.02    1.03    1.43     1.62227   140.23115    32.50266
   444  H   1.0    0.02    1.03    1.43     1.72031   141.87874    29.56035
   445  H   1.0    0.03    1.03    1.43    -2.33219   142.18040    32.13983
   446  H   1.0    0.05    1.03    1.43    -2.63710   141.34615    28.88383
   447  N   5.0   -0.23    3.19    1.95    -4.48234   131.32441    24.17463
   448  C   4.0    0.04    4.30    4.21    -6.87128   131.27223    22.79135
   449  C   4.0    0.05    3.24    3.04    -6.75135   130.09668    20.21188
   450  O   6.0   -0.34    1.21    1.80    -8.40756   128.62643    19.47489
   451  C   4.0   -0.03    4.41    4.39    -7.98810   133.86561    22.51357
   452  C   4.0    0.16    3.29    3.05    -9.86856   134.35778    24.47321
   453  O   6.0   -0.28    1.24    1.80    -9.60098   133.44175    26.61238
   454  N   5.0   -0.17    3.21    1.96   -11.83215   135.76421    23.80803
   455  H   1.0    0.11    1.03    1.43    -4.07663   132.94930    25.12895
   456  H   1.0    0.05    1.08    1.44    -8.08841   130.07872    23.94787
   457  H   1.0    0.05    1.04    1.43    -6.49390   135.27447    22.67608
   458  H   1.0    0.04    1.05    1.44    -8.90670   134.02065    20.67675
   459  H   1.0    0.10    1.03    1.43   -13.20716   136.17185    25.09682
   460  H   1.0    0.08    1.03    1.43   -11.96861   136.43870    22.00712
   461  N   5.0   -0.23    3.26    1.97   -11.55360   125.04437    18.70199
   462  C   4.0    0.04    4.39    4.36   -13.18184   125.22507    16.54959
   463  C   4.0    0.06    3.24    3.04   -13.50926   122.70398    15.23245
   464  O   6.0   -0.32    1.12    1.80   -15.49194   121.50732    15.41575
   465  C   4.0   -0.05    4.33    4.26   -12.18752   127.17783    14.70900
   466  C   4.0   -0.05    4.24    4.07   -14.30905   128.22377    13.17643
   467  C   4.0    0.23    3.24    3.04   -16.72859   128.35291    14.73167
   468  O   6.0   -0.30    1.25    1.80   -17.86956   126.31244    15.27025
   469  O   6.0   -0.31    1.22    1.80   -17.46108   130.50838    15.45733
   470  H   1.0    0.10    1.08    1.44    -9.75764   125.68330    18.41853
   471  H   1.0    0.08    1.15    1.45   -15.02921   125.83124    17.22800
   472  H   1.0    0.05    1.04    1.43   -11.29745   128.71946    15.74646
   473  H   1.0    0.02    1.03    1.43   -10.82115   126.30168    13.43910
   474  H   1.0    0.04    1.04    1.43   -13.83154   130.12797    12.55093
   475  H   1.0    0.03    1.03    1.43   -14.64354   127.00946    11.54749
   476  H   1.0    0.06    1.07    1.44   -11.44551   169.03213    12.57215
   477  H   1.0    0.04    1.05    1.44   -20.23179   169.08413    13.90876
   478  H   1.0    0.07    1.08    1.44   -21.38951   167.99573     8.70866
   479  H   1.0    0.07    1.05    1.44   -15.33750   148.73415    -1.07122
   480  H   1.0    0.07    1.07    1.44    -2.25941   152.19161    18.64758
   481  H   1.0    0.04    1.04    1.44   -52.96314   133.31264    31.79223
   482  H   1.0    0.06    1.07    1.44     4.95546   136.12979    29.41126
   483  H   1.0    0.03    1.04    1.43     1.01856   138.43038    25.15984
   484  H   1.0    0.08    1.07    1.44    -4.47459   130.08674    25.34112
   485  H   1.0    0.03    1.05    1.44    -5.31184   130.49973    19.05584
   486  H   1.0    0.10    1.08    1.44   -12.20021   125.95952    19.98142
   487  H   1.0    0.02    1.05    1.44   -12.10040   121.98994    14.19500

  Z AO/shell   Hii/eV     exponent
  1     Wed Apr 25 08:07:45 CEST 2018   EN: 2.200 GM2: 0.406  GM3: 0.0800  RAES: 1.40
     1s    -10.707211    1.230000
  6     Wed Apr 25 08:07:45 CEST 2018   EN: 2.550 GM2: 0.538  GM3: 0.1500  RAES: 3.00
     2s    -13.970922    2.096432
     2p    -10.063292    1.800000
  7     Wed Apr 25 08:07:45 CEST 2018   EN: 3.040 GM2: 0.461  GM3:-0.0640  RAES: 1.90
     2s    -16.686243    2.339881
     2p    -12.523956    2.014332
  8     Wed Apr 25 08:07:45 CEST 2018   EN: 3.440 GM2: 0.452  GM3:-0.0517  RAES: 1.80
     2s    -20.229985    2.439742
     2p    -15.503117    2.137023
 no old-style atom pair restraining (fixing) potential

molecular fragmentation (1/2 indicates fragments):
111111111111111111111111111111111122222222222222222222222222222222222222
222222222222222222222222222222222222222222222222222222222222222222222222
222222222222222222222222222222222222222222222222222222222222222222222222
222222222222222222222222222222222222222222222222222222222222222222222222
222222222222222222222222222222222222222222222222222222222222222222222222
222222222222222222222222222222222222222222222222222222222222222222222222
2222222222222222222222222222222222222222222112222222222
# atoms in fragment 1/2:    36   451
 fragment masses (1/2) :      230.29     3303.45
CMA distance (Bohr)    :  23.197
constraining FC (au)   :  0.0500
           ------------------------------------------------- 
          |        Self-Consistent Charge Iterations        |
           ------------------------------------------------- 

 Ncao       : 1228
 Nao        : 1228
 Nshell     : 734
 Nel        : 1398
 T(el)      :   500.0
 intcut     :    35.0
 scfconv/Eh :  0.100E-06
   qconv/e  :  0.100E-04
 intneglect :  0.100E-08
 broydamp   :      0.400
 iter      E             dE          RMSdq      gap      omega  full diag
   1   -808.9393982 -0.808939E+03  0.504E+00    3.27       0.0  T
   2   -811.5112568 -0.257186E+01  0.227E+00    1.82       1.0  T
   3   -811.6814569 -0.170200E+00  0.132E+00    1.92       1.0  T
   4   -811.8103085 -0.128852E+00  0.285E-01    1.23       1.0  T
   5   -811.8193789 -0.907046E-02  0.151E-01    1.43       1.0  T
   6   -811.8204945 -0.111560E-02  0.600E-02    1.41       1.0  T
   7   -811.8209289 -0.434354E-03  0.242E-02    1.41       1.0  T
   8   -811.8209618 -0.329187E-04  0.103E-02    1.40       1.0  T
   9   -811.8209728 -0.110091E-04  0.441E-03    1.40       1.0  T
  10   -811.8209740 -0.117340E-05  0.169E-03    1.40       2.7  T
  11   -811.8209743 -0.368112E-06  0.701E-04    1.40       6.5  T
  12   -811.8209744 -0.396785E-07  0.322E-04    1.40      14.1  T
  13   -811.8209744 -0.783086E-08  0.148E-04    1.40      30.7  T
  14   -811.8209744 -0.219268E-08  0.534E-05    1.40      84.8  T
  15   -811.8209744 -0.254431E-09  0.226E-05    1.40     200.3  T
speedup  0.95
cpu  time for SCC   24.17 s
wall time for SCC   25.33 s

   *** convergence criteria satisfied after 15 iterations ***

          eigenvalues
 #    :         687        688        689        690        691        692        693        694
 occ. :        2.000      2.000      2.000      2.000      2.000      2.000      2.000      2.000
 eps  :        -9.895     -9.885     -9.879     -9.866     -9.761     -9.747     -9.726     -9.719
 #    :         695        696        697        698        699        700        701        702
 occ. :        2.000      2.000      2.000      2.000      2.000      0.000      0.000      0.000
 eps  :        -9.657     -9.642     -9.634     -9.615     -9.593     -8.189     -7.861     -7.750
 #    :         703        704        705        706        707        708        709        710
 occ. :        0.000      0.000      0.000      0.000      0.000      0.000      0.000      0.000
 eps  :        -7.607     -7.458     -7.327     -7.080     -6.830     -6.785     -6.708     -6.695


   #   Z            q   n(s)   n(p)   n(d)      C6AA      α(0)
   1   7 N     -0.396  1.324  4.072  0.000    30.264     8.170
   2   6 C      0.030  1.047  2.923  0.000    20.074     6.380
   3   6 C      0.267  1.042  2.691  0.000    22.493     7.767
   4   8 O     -0.490  1.748  4.742  0.000    23.565     6.508
   5   6 C     -0.125  1.045  3.080  0.000    22.946     6.829
   6   1 H      0.164  0.836  0.000  0.000     1.309     1.793
   7   1 H      0.051  0.949  0.000  0.000     2.309     2.376
   8   1 H      0.042  0.958  0.000  0.000     2.423     2.434
   9   1 H      0.055  0.945  0.000  0.000     2.264     2.353
  10   1 H      0.048  0.952  0.000  0.000     2.351     2.398
  11   7 N     -0.161  1.236  3.926  0.000    24.490     7.350
  12   6 C      0.015  1.058  2.927  0.000    20.337     6.422
  13   6 C      0.212  1.078  2.710  0.000    23.513     7.942
  14   8 O     -0.369  1.756  4.613  0.000    21.077     6.155
  15   6 C     -0.090  1.059  3.031  0.000    22.207     6.708
  16   6 C     -0.090  1.053  3.037  0.000    22.217     6.710
  17   6 C     -0.031  1.054  2.977  0.000    21.195     6.568
  18   7 N     -0.143  1.214  3.929  0.000    24.106     7.292
  19   6 C      0.232  1.021  2.747  0.000    23.130     7.874
  20   7 N     -0.240  1.230  4.010  0.000    26.282     7.614
  21   7 N     -0.258  1.239  4.019  0.000    26.704     7.675
  22   1 H      0.218  0.782  0.000  0.000     1.021     1.583
  23   1 H      0.091  0.909  0.000  0.000     1.873     2.140
  24   1 H      0.087  0.913  0.000  0.000     1.912     2.162
  25   1 H      0.088  0.912  0.000  0.000     1.894     2.152
  26   1 H      0.069  0.931  0.000  0.000     2.099     2.266
  27   1 H      0.100  0.900  0.000  0.000     1.781     2.087
  28   1 H      0.097  0.903  0.000  0.000     1.809     2.103
  29   1 H      0.069  0.931  0.000  0.000     2.092     2.262
  30   1 H      0.251  0.749  0.000  0.000     0.880     1.469
  31   1 H      0.232  0.768  0.000  0.000     0.955     1.531
  32   1 H      0.218  0.782  0.000  0.000     1.021     1.583
  33   1 H      0.267  0.733  0.000  0.000     0.819     1.418
  34   1 H      0.240  0.760  0.000  0.000     0.924     1.506
  35   7 N     -0.390  1.321  4.069  0.000    30.086     8.146
  36   6 C      0.018  1.054  2.928  0.000    20.280     6.413
  37   6 C      0.269  1.043  2.688  0.000    22.455     7.760
  38   8 O     -0.482  1.753  4.729  0.000    23.278     6.474
  39   6 C      0.061  1.046  2.894  0.000    19.757     6.365
  40   8 O     -0.493  1.724  4.769  0.000    22.748     6.439
  41   1 H      0.186  0.814  0.000  0.000     1.178     1.700
  42   1 H      0.064  0.936  0.000  0.000     2.152     2.294
  43   1 H      0.053  0.947  0.000  0.000     2.287     2.365
  44   1 H      0.051  0.949  0.000  0.000     2.309     2.377
  45   1 H      0.349  0.651  0.000  0.000     0.592     1.209
  46   7 N     -0.163  1.231  3.932  0.000    24.515     7.354
  47   6 C      0.003  1.056  2.940  0.000    20.514     6.447
  48   6 C      0.270  1.032  2.698  0.000    22.438     7.760
  49   8 O     -0.469  1.738  4.731  0.000    23.116     6.446
  50   6 C      0.117  1.039  2.844  0.000    18.721     6.169
  51   8 O     -0.474  1.725  4.750  0.000    22.352     6.382
  52   6 C     -0.141  1.047  3.094  0.000    23.274     6.879
  53   1 H      0.234  0.766  0.000  0.000     0.949     1.526
  54   1 H      0.072  0.928  0.000  0.000     2.068     2.249
  55   1 H      0.017  0.983  0.000  0.000     2.777     2.606
  56   1 H      0.330  0.670  0.000  0.000     0.638     1.255
  57   1 H      0.074  0.926  0.000  0.000     2.047     2.237
  58   1 H      0.063  0.937  0.000  0.000     2.167     2.302
  59   1 H      0.086  0.914  0.000  0.000     1.922     2.168
  60   7 N     -0.176  1.244  3.932  0.000    24.814     7.398
  61   6 C      0.013  1.060  2.928  0.000    20.358     6.423
  62   6 C      0.294  1.030  2.676  0.000    22.020     7.685
  63   8 O     -0.474  1.738  4.736  0.000    23.218     6.460
  64   6 C     -0.089  1.064  3.025  0.000    22.187     6.704
  65   6 C     -0.011  1.058  2.954  0.000    20.748     6.479
  66   6 C     -0.119  1.048  3.071  0.000    22.832     6.814
  67   6 C     -0.105  1.040  3.064  0.000    22.556     6.772
  68   1 H      0.220  0.780  0.000  0.000     1.008     1.573
  69   1 H      0.089  0.911  0.000  0.000     1.893     2.151
  70   1 H      0.074  0.926  0.000  0.000     2.037     2.232
  71   1 H      0.055  0.945  0.000  0.000     2.264     2.353
  72   1 H      0.025  0.975  0.000  0.000     2.655     2.548
  73   1 H      0.039  0.961  0.000  0.000     2.459     2.452
  74   1 H      0.062  0.938  0.000  0.000     2.180     2.309
  75   1 H      0.032  0.968  0.000  0.000     2.563     2.504
  76   1 H      0.037  0.963  0.000  0.000     2.487     2.466
  77   1 H      0.038  0.962  0.000  0.000     2.474     2.460
  78   1 H      0.024  0.976  0.000  0.000     2.668     2.554
  79   7 N     -0.190  1.248  3.941  0.000    25.117     7.443
  80   6 C      0.041  1.052  2.907  0.000    19.895     6.351
  81   6 C      0.307  1.024  2.669  0.000    21.787     7.644
  82   8 O     -0.523  1.767  4.756  0.000    24.305     6.610
  83   6 C     -0.061  1.055  3.006  0.000    21.671     6.627
  84   6 C     -0.087  1.063  3.024  0.000    22.156     6.702
  85   6 C      0.368  1.023  2.609  0.000    20.759     7.457
  86   8 O     -0.661  1.774  4.886  0.000    27.655     7.051
  87   8 O     -0.661  1.785  4.876  0.000    27.666     7.052
  88   1 H      0.201  0.799  0.000  0.000     1.103     1.645
  89   1 H      0.026  0.974  0.000  0.000     2.640     2.541
  90   1 H      0.042  0.958  0.000  0.000     2.425     2.435
  91   1 H      0.068  0.932  0.000  0.000     2.109     2.271
  92   1 H      0.046  0.954  0.000  0.000     2.367     2.406
  93   1 H      0.019  0.981  0.000  0.000     2.743     2.590
  94   7 N     -0.176  1.239  3.937  0.000    24.804     7.397
  95   6 C      0.027  1.053  2.920  0.000    20.111     6.384
  96   6 C      0.287  1.033  2.681  0.000    22.141     7.706
  97   8 O     -0.511  1.762  4.750  0.000    24.039     6.574
  98   6 C      0.100  1.053  2.848  0.000    19.010     6.221
  99   8 O     -0.494  1.733  4.761  0.000    22.774     6.442
 100   6 C     -0.135  1.047  3.088  0.000    23.166     6.863
 101   1 H      0.233  0.767  0.000  0.000     0.952     1.528
 102   1 H      0.056  0.944  0.000  0.000     2.245     2.343
 103   1 H      0.046  0.954  0.000  0.000     2.369     2.407
 104   1 H      0.351  0.649  0.000  0.000     0.586     1.203
 105   1 H      0.087  0.913  0.000  0.000     1.906     2.159
 106   1 H      0.043  0.957  0.000  0.000     2.413     2.429
 107   1 H      0.060  0.940  0.000  0.000     2.198     2.318
 108   7 N     -0.178  1.242  3.935  0.000    24.843     7.403
 109   6 C      0.023  1.056  2.922  0.000    20.196     6.398
 110   6 C      0.294  1.032  2.674  0.000    22.016     7.684
 111   8 O     -0.494  1.750  4.745  0.000    23.658     6.521
 112   6 C     -0.089  1.059  3.030  0.000    22.191     6.705
 113   6 C     -0.022  1.052  2.970  0.000    20.931     6.507
 114   6 C     -0.126  1.045  3.081  0.000    22.963     6.832
 115   6 C     -0.131  1.045  3.086  0.000    23.064     6.846
 116   1 H      0.236  0.764  0.000  0.000     0.940     1.519
 117   1 H      0.083  0.917  0.000  0.000     1.949     2.183
 118   1 H      0.039  0.961  0.000  0.000     2.461     2.453
 119   1 H      0.076  0.924  0.000  0.000     2.021     2.223
 120   1 H      0.033  0.967  0.000  0.000     2.539     2.492
 121   1 H      0.066  0.934  0.000  0.000     2.132     2.283
 122   1 H      0.033  0.967  0.000  0.000     2.548     2.496
 123   1 H      0.063  0.937  0.000  0.000     2.159     2.298
 124   1 H      0.066  0.934  0.000  0.000     2.129     2.282
 125   1 H      0.065  0.935  0.000  0.000     2.138     2.287
 126   1 H      0.036  0.964  0.000  0.000     2.500     2.473
 127   7 N     -0.184  1.247  3.938  0.000    24.998     7.426
 128   6 C      0.039  1.054  2.907  0.000    19.922     6.356
 129   6 C      0.222  1.080  2.698  0.000    23.318     7.908
 130   8 O     -0.373  1.748  4.625  0.000    21.145     6.165
 131   6 C     -0.046  1.051  2.994  0.000    21.387     6.584
 132   6 C     -0.089  1.064  3.025  0.000    22.207     6.710
 133   6 C      0.351  1.037  2.612  0.000    21.045     7.507
 134   8 O     -0.639  1.789  4.850  0.000    27.095     6.979
 135   8 O     -0.619  1.769  4.851  0.000    26.604     6.915
 136   1 H      0.221  0.779  0.000  0.000     1.005     1.571
 137   1 H      0.079  0.921  0.000  0.000     1.985     2.203
 138   1 H      0.050  0.950  0.000  0.000     2.315     2.379
 139   1 H      0.033  0.967  0.000  0.000     2.550     2.497
 140   1 H      0.018  0.982  0.000  0.000     2.767     2.601
 141   1 H      0.034  0.966  0.000  0.000     2.524     2.484
 142   7 N     -0.412  1.326  4.085  0.000    30.702     8.229
 143   6 C      0.024  1.050  2.926  0.000    20.162     6.392
 144   6 C      0.276  1.037  2.687  0.000    22.329     7.740
 145   8 O     -0.511  1.751  4.760  0.000    24.027     6.572
 146   6 C     -0.021  1.061  2.960  0.000    20.903     6.501
 147   6 C     -0.134  1.048  3.086  0.000    23.138     6.858
 148   6 C     -0.111  1.043  3.068  0.000    22.669     6.788
 149   1 H      0.179  0.821  0.000  0.000     1.220     1.730
 150   1 H      0.036  0.964  0.000  0.000     2.497     2.471
 151   1 H      0.048  0.952  0.000  0.000     2.339     2.392
 152   1 H      0.068  0.932  0.000  0.000     2.108     2.271
 153   1 H      0.053  0.947  0.000  0.000     2.284     2.364
 154   1 H      0.041  0.959  0.000  0.000     2.435     2.440
 155   1 H      0.058  0.942  0.000  0.000     2.222     2.331
 156   1 H      0.043  0.957  0.000  0.000     2.412     2.429
 157   1 H      0.032  0.968  0.000  0.000     2.560     2.502
 158   7 N     -0.186  1.240  3.946  0.000    25.036     7.431
 159   6 C      0.017  1.048  2.935  0.000    20.268     6.405
 160   6 C      0.275  1.041  2.684  0.000    22.354     7.745
 161   8 O     -0.492  1.734  4.758  0.000    23.608     6.514
 162   6 C     -0.030  1.050  2.981  0.000    21.066     6.526
 163   6 C     -0.117  1.044  3.074  0.000    22.795     6.807
 164   6 C     -0.140  1.050  3.091  0.000    23.234     6.869
 165   1 H      0.234  0.766  0.000  0.000     0.949     1.526
 166   1 H      0.092  0.908  0.000  0.000     1.857     2.131
 167   1 H      0.054  0.946  0.000  0.000     2.267     2.355
 168   1 H      0.055  0.945  0.000  0.000     2.264     2.353
 169   1 H      0.035  0.965  0.000  0.000     2.523     2.484
 170   1 H      0.053  0.947  0.000  0.000     2.279     2.361
 171   1 H      0.078  0.922  0.000  0.000     2.003     2.213
 172   1 H      0.072  0.928  0.000  0.000     2.065     2.247
 173   1 H      0.074  0.926  0.000  0.000     2.037     2.232
 174   7 N     -0.164  1.236  3.928  0.000    24.557     7.360
 175   6 C      0.033  1.038  2.928  0.000    19.983     6.358
 176   6 C      0.287  1.028  2.685  0.000    22.140     7.706
 177   8 O     -0.510  1.759  4.751  0.000    24.006     6.569
 178   6 C     -0.097  1.046  3.051  0.000    22.335     6.725
 179   6 C      0.278  1.036  2.687  0.000    22.305     7.734
 180   8 O     -0.470  1.747  4.724  0.000    23.134     6.449
 181   7 N     -0.271  1.266  4.005  0.000    27.020     7.720
 182   1 H      0.236  0.764  0.000  0.000     0.938     1.517
 183   1 H      0.088  0.912  0.000  0.000     1.898     2.155
 184   1 H      0.095  0.905  0.000  0.000     1.827     2.114
 185   1 H      0.050  0.950  0.000  0.000     2.322     2.383
 186   1 H      0.250  0.750  0.000  0.000     0.882     1.471
 187   1 H      0.193  0.807  0.000  0.000     1.142     1.674
 188   7 N     -0.182  1.246  3.935  0.000    24.939     7.417
 189   6 C      0.038  1.056  2.906  0.000    19.941     6.357
 190   6 C      0.298  1.031  2.671  0.000    21.946     7.672
 191   8 O     -0.517  1.767  4.750  0.000    24.154     6.589
 192   6 C     -0.070  1.051  3.019  0.000    21.830     6.651
 193   6 C     -0.081  1.061  3.020  0.000    22.038     6.683
 194   6 C      0.367  1.022  2.611  0.000    20.781     7.460
 195   8 O     -0.619  1.756  4.863  0.000    26.583     6.913
 196   8 O     -0.667  1.783  4.884  0.000    27.837     7.074
 197   1 H      0.212  0.788  0.000  0.000     1.046     1.602
 198   1 H      0.026  0.974  0.000  0.000     2.644     2.543
 199   1 H      0.108  0.892  0.000  0.000     1.714     2.047
 200   1 H      0.022  0.978  0.000  0.000     2.700     2.570
 201   1 H     -0.004  1.004  0.000  0.000     3.127     2.766
 202   1 H      0.025  0.975  0.000  0.000     2.658     2.550
 203   7 N     -0.173  1.237  3.936  0.000    24.750     7.389
 204   6 C      0.037  1.048  2.915  0.000    19.952     6.359
 205   6 C      0.280  1.039  2.681  0.000    22.265     7.727
 206   8 O     -0.526  1.757  4.769  0.000    24.374     6.619
 207   6 C     -0.090  1.060  3.031  0.000    22.218     6.710
 208   6 C     -0.085  1.057  3.028  0.000    22.118     6.696
 209   6 C     -0.021  1.058  2.963  0.000    21.029     6.544
 210   7 N     -0.149  1.215  3.934  0.000    24.218     7.309
 211   6 C      0.215  1.023  2.762  0.000    23.452     7.929
 212   7 N     -0.246  1.230  4.016  0.000    26.419     7.634
 213   7 N     -0.249  1.264  3.985  0.000    26.469     7.641
 214   1 H      0.220  0.780  0.000  0.000     1.008     1.573
 215   1 H      0.062  0.938  0.000  0.000     2.177     2.307
 216   1 H      0.077  0.923  0.000  0.000     2.007     2.216
 217   1 H      0.058  0.942  0.000  0.000     2.218     2.329
 218   1 H      0.062  0.938  0.000  0.000     2.172     2.305
 219   1 H      0.092  0.908  0.000  0.000     1.859     2.132
 220   1 H      0.064  0.936  0.000  0.000     2.158     2.297
 221   1 H      0.090  0.910  0.000  0.000     1.877     2.142
 222   1 H      0.231  0.769  0.000  0.000     0.960     1.535
 223   1 H      0.221  0.779  0.000  0.000     1.006     1.571
 224   1 H      0.243  0.757  0.000  0.000     0.912     1.496
 225   1 H      0.284  0.716  0.000  0.000     0.764     1.369
 226   1 H      0.246  0.754  0.000  0.000     0.901     1.487
 227   7 N     -0.207  1.262  3.945  0.000    25.498     7.500
 228   6 C      0.019  1.064  2.917  0.000    20.259     6.410
 229   6 C      0.287  1.039  2.674  0.000    22.128     7.703
 230   8 O     -0.507  1.741  4.767  0.000    23.948     6.561
 231   6 C     -0.079  1.055  3.024  0.000    22.002     6.678
 232   6 C     -0.082  1.057  3.025  0.000    22.071     6.690
 233   6 C     -0.020  1.054  2.966  0.000    21.019     6.543
 234   7 N     -0.155  1.211  3.944  0.000    24.346     7.328
 235   6 C      0.239  1.017  2.744  0.000    23.000     7.852
 236   7 N     -0.243  1.237  4.006  0.000    26.337     7.622
 237   7 N     -0.255  1.244  4.011  0.000    26.630     7.664
 238   1 H      0.262  0.738  0.000  0.000     0.837     1.433
 239   1 H      0.073  0.927  0.000  0.000     2.055     2.242
 240   1 H      0.053  0.947  0.000  0.000     2.288     2.366
 241   1 H      0.056  0.944  0.000  0.000     2.244     2.342
 242   1 H      0.077  0.923  0.000  0.000     2.013     2.219
 243   1 H      0.076  0.924  0.000  0.000     2.018     2.222
 244   1 H      0.064  0.936  0.000  0.000     2.150     2.293
 245   1 H      0.108  0.892  0.000  0.000     1.710     2.045
 246   1 H      0.204  0.796  0.000  0.000     1.087     1.633
 247   1 H      0.248  0.752  0.000  0.000     0.892     1.479
 248   1 H      0.245  0.755  0.000  0.000     0.902     1.488
 249   1 H      0.243  0.757  0.000  0.000     0.912     1.496
 250   1 H      0.233  0.767  0.000  0.000     0.954     1.530
 251   7 N     -0.159  1.242  3.916  0.000    24.429     7.341
 252   6 C      0.035  1.056  2.909  0.000    19.983     6.364
 253   6 C      0.283  1.040  2.677  0.000    22.204     7.716
 254   8 O     -0.482  1.731  4.751  0.000    23.391     6.484
 255   6 C     -0.049  1.048  3.001  0.000    21.442     6.592
 256   6 C     -0.084  1.064  3.021  0.000    22.107     6.694
 257   6 C      0.373  1.019  2.608  0.000    20.671     7.441
 258   8 O     -0.670  1.776  4.894  0.000    27.898     7.082
 259   8 O     -0.637  1.763  4.874  0.000    27.058     6.974
 260   1 H      0.210  0.790  0.000  0.000     1.056     1.610
 261   1 H      0.060  0.940  0.000  0.000     2.198     2.319
 262   1 H      0.031  0.969  0.000  0.000     2.565     2.505
 263   1 H      0.041  0.959  0.000  0.000     2.441     2.443
 264   1 H      0.025  0.975  0.000  0.000     2.665     2.553
 265   1 H      0.021  0.979  0.000  0.000     2.722     2.580
 266   7 N     -0.161  1.245  3.916  0.000    24.476     7.348
 267   6 C      0.025  1.061  2.914  0.000    20.157     6.393
 268   6 C      0.290  1.033  2.677  0.000    22.078     7.695
 269   8 O     -0.486  1.728  4.758  0.000    23.485     6.497
 270   6 C     -0.049  1.048  3.001  0.000    21.451     6.593
 271   6 C     -0.087  1.062  3.026  0.000    22.163     6.703
 272   6 C      0.366  1.024  2.609  0.000    20.786     7.461
 273   8 O     -0.621  1.751  4.871  0.000    26.650     6.921
 274   8 O     -0.643  1.781  4.861  0.000    27.187     6.991
 275   1 H      0.205  0.795  0.000  0.000     1.083     1.630
 276   1 H      0.067  0.933  0.000  0.000     2.121     2.278
 277   1 H      0.036  0.964  0.000  0.000     2.497     2.471
 278   1 H      0.066  0.934  0.000  0.000     2.133     2.284
 279   1 H      0.027  0.973  0.000  0.000     2.626     2.534
 280   1 H      0.011  0.989  0.000  0.000     2.879     2.653
 281   7 N     -0.169  1.245  3.924  0.000    24.653     7.374
 282   6 C      0.029  1.059  2.912  0.000    20.083     6.381
 283   6 C      0.278  1.041  2.681  0.000    22.292     7.732
 284   8 O     -0.498  1.742  4.756  0.000    23.733     6.532
 285   6 C     -0.057  1.054  3.003  0.000    21.591     6.615
 286   6 C     -0.095  1.066  3.029  0.000    22.311     6.726
 287   6 C      0.361  1.027  2.612  0.000    20.879     7.478
 288   8 O     -0.633  1.764  4.869  0.000    26.956     6.961
 289   8 O     -0.633  1.765  4.868  0.000    26.935     6.958
 290   1 H      0.197  0.803  0.000  0.000     1.119     1.657
 291   1 H      0.081  0.919  0.000  0.000     1.964     2.192
 292   1 H      0.039  0.961  0.000  0.000     2.465     2.455
 293   1 H      0.034  0.966  0.000  0.000     2.535     2.490
 294   1 H      0.029  0.971  0.000  0.000     2.608     2.525
 295   1 H      0.028  0.972  0.000  0.000     2.609     2.526
 296   7 N     -0.181  1.249  3.931  0.000    24.910     7.413
 297   6 C      0.026  1.055  2.919  0.000    20.138     6.389
 298   6 C      0.289  1.034  2.677  0.000    22.096     7.698
 299   8 O     -0.502  1.742  4.760  0.000    23.824     6.544
 300   6 C      0.082  1.035  2.883  0.000    19.396     6.305
 301   8 O     -0.483  1.725  4.759  0.000    22.540     6.409
 302   1 H      0.222  0.778  0.000  0.000     1.001     1.567
 303   1 H      0.079  0.921  0.000  0.000     1.991     2.207
 304   1 H      0.058  0.942  0.000  0.000     2.218     2.329
 305   1 H      0.023  0.977  0.000  0.000     2.689     2.564
 306   1 H      0.350  0.650  0.000  0.000     0.588     1.205
 307   7 N     -0.195  1.252  3.944  0.000    25.242     7.462
 308   6 C      0.034  1.053  2.914  0.000    20.012     6.370
 309   6 C      0.279  1.044  2.677  0.000    22.276     7.729
 310   8 O     -0.501  1.747  4.754  0.000    23.817     6.543
 311   6 C     -0.145  1.049  3.096  0.000    23.356     6.891
 312   1 H      0.234  0.766  0.000  0.000     0.946     1.524
 313   1 H      0.054  0.946  0.000  0.000     2.272     2.357
 314   1 H      0.064  0.936  0.000  0.000     2.149     2.293
 315   1 H      0.049  0.951  0.000  0.000     2.333     2.389
 316   1 H      0.090  0.910  0.000  0.000     1.876     2.142
 317   7 N     -0.178  1.250  3.927  0.000    24.847     7.403
 318   6 C      0.025  1.055  2.919  0.000    20.151     6.392
 319   6 C      0.281  1.040  2.679  0.000    22.236     7.722
 320   8 O     -0.482  1.738  4.744  0.000    23.394     6.485
 321   6 C     -0.134  1.044  3.090  0.000    23.132     6.857
 322   1 H      0.229  0.771  0.000  0.000     0.971     1.544
 323   1 H      0.069  0.931  0.000  0.000     2.099     2.265
 324   1 H      0.090  0.910  0.000  0.000     1.878     2.143
 325   1 H      0.082  0.918  0.000  0.000     1.959     2.189
 326   1 H      0.067  0.933  0.000  0.000     2.121     2.278
 327   7 N     -0.169  1.244  3.925  0.000    24.663     7.376
 328   6 C      0.026  1.055  2.920  0.000    20.149     6.392
 329   6 C      0.278  1.041  2.681  0.000    22.303     7.734
 330   8 O     -0.484  1.734  4.750  0.000    23.434     6.490
 331   6 C     -0.136  1.044  3.091  0.000    23.156     6.860
 332   1 H      0.214  0.786  0.000  0.000     1.037     1.595
 333   1 H      0.088  0.912  0.000  0.000     1.901     2.156
 334   1 H      0.075  0.925  0.000  0.000     2.028     2.227
 335   1 H      0.084  0.916  0.000  0.000     1.938     2.177
 336   1 H      0.052  0.948  0.000  0.000     2.294     2.369
 337   7 N     -0.162  1.249  3.913  0.000    24.503     7.352
 338   6 C      0.030  1.052  2.918  0.000    20.065     6.378
 339   6 C      0.293  1.032  2.675  0.000    22.029     7.686
 340   8 O     -0.495  1.745  4.750  0.000    23.673     6.523
 341   6 C     -0.130  1.044  3.086  0.000    23.042     6.843
 342   1 H      0.226  0.774  0.000  0.000     0.984     1.554
 343   1 H      0.061  0.939  0.000  0.000     2.191     2.315
 344   1 H      0.062  0.938  0.000  0.000     2.177     2.307
 345   1 H      0.075  0.925  0.000  0.000     2.029     2.227
 346   1 H      0.071  0.929  0.000  0.000     2.077     2.254
 347   7 N     -0.186  1.247  3.939  0.000    25.033     7.431
 348   6 C      0.033  1.055  2.912  0.000    20.017     6.370
 349   6 C      0.275  1.039  2.685  0.000    22.342     7.741
 350   8 O     -0.513  1.735  4.778  0.000    24.064     6.577
 351   6 C     -0.045  1.049  2.996  0.000    21.368     6.581
 352   6 C     -0.089  1.064  3.026  0.000    22.203     6.709
 353   6 C      0.368  1.026  2.606  0.000    20.758     7.456
 354   8 O     -0.655  1.777  4.878  0.000    27.516     7.033
 355   8 O     -0.639  1.763  4.876  0.000    27.093     6.979
 356   1 H      0.209  0.791  0.000  0.000     1.064     1.616
 357   1 H      0.049  0.951  0.000  0.000     2.334     2.389
 358   1 H      0.034  0.966  0.000  0.000     2.537     2.491
 359   1 H      0.040  0.960  0.000  0.000     2.445     2.445
 360   1 H      0.045  0.955  0.000  0.000     2.379     2.412
 361   1 H      0.022  0.978  0.000  0.000     2.710     2.574
 362   7 N     -0.187  1.257  3.930  0.000    25.052     7.434
 363   6 C      0.021  1.059  2.919  0.000    20.208     6.398
 364   6 C      0.277  1.041  2.682  0.000    22.312     7.736
 365   8 O     -0.503  1.737  4.766  0.000    23.851     6.548
 366   6 C     -0.018  1.056  2.962  0.000    20.862     6.496
 367   6 C     -0.123  1.047  3.076  0.000    22.922     6.827
 368   6 C     -0.124  1.045  3.079  0.000    22.923     6.825
 369   1 H      0.231  0.769  0.000  0.000     0.960     1.534
 370   1 H      0.085  0.915  0.000  0.000     1.929     2.172
 371   1 H      0.035  0.965  0.000  0.000     2.514     2.480
 372   1 H      0.071  0.929  0.000  0.000     2.074     2.252
 373   1 H      0.028  0.972  0.000  0.000     2.618     2.530
 374   1 H      0.068  0.932  0.000  0.000     2.112     2.273
 375   1 H      0.065  0.935  0.000  0.000     2.136     2.286
 376   1 H      0.060  0.940  0.000  0.000     2.199     2.319
 377   1 H      0.042  0.958  0.000  0.000     2.427     2.436
 378   7 N     -0.217  1.265  3.952  0.000    25.737     7.535
 379   6 C      0.035  1.056  2.909  0.000    19.978     6.362
 380   6 C      0.293  1.036  2.671  0.000    22.034     7.687
 381   8 O     -0.524  1.750  4.774  0.000    24.320     6.612
 382   6 C     -0.043  1.047  2.997  0.000    21.342     6.576
 383   6 C     -0.089  1.063  3.026  0.000    22.205     6.709
 384   6 C      0.369  1.026  2.605  0.000    20.752     7.455
 385   8 O     -0.668  1.783  4.885  0.000    27.853     7.076
 386   8 O     -0.645  1.765  4.880  0.000    27.255     6.999
 387   1 H      0.245  0.755  0.000  0.000     0.902     1.487
 388   1 H      0.068  0.932  0.000  0.000     2.107     2.270
 389   1 H      0.039  0.961  0.000  0.000     2.456     2.451
 390   1 H      0.021  0.979  0.000  0.000     2.720     2.579
 391   1 H      0.033  0.967  0.000  0.000     2.542     2.493
 392   1 H      0.035  0.965  0.000  0.000     2.512     2.479
 393   7 N     -0.195  1.254  3.941  0.000    25.244     7.462
 394   6 C      0.048  1.048  2.904  0.000    19.763     6.329
 395   6 C      0.281  1.039  2.679  0.000    22.240     7.723
 396   8 O     -0.504  1.753  4.752  0.000    23.882     6.552
 397   6 C     -0.048  1.051  2.997  0.000    21.426     6.589
 398   6 C     -0.083  1.060  3.023  0.000    22.084     6.691
 399   6 C      0.371  1.024  2.605  0.000    20.705     7.447
 400   8 O     -0.638  1.760  4.878  0.000    27.062     6.975
 401   8 O     -0.666  1.778  4.889  0.000    27.809     7.070
 402   1 H      0.218  0.782  0.000  0.000     1.021     1.583
 403   1 H      0.037  0.963  0.000  0.000     2.494     2.470
 404   1 H      0.045  0.955  0.000  0.000     2.387     2.416
 405   1 H      0.045  0.955  0.000  0.000     2.388     2.416
 406   1 H      0.007  0.993  0.000  0.000     2.946     2.684
 407   1 H      0.024  0.976  0.000  0.000     2.669     2.555
 408   7 N     -0.165  1.244  3.921  0.000    24.568     7.362
 409   6 C      0.026  1.056  2.918  0.000    20.130     6.388
 410   6 C      0.212  1.082  2.706  0.000    23.513     7.941
 411   8 O     -0.348  1.747  4.601  0.000    20.676     6.096
 412   6 C     -0.083  1.054  3.028  0.000    22.068     6.687
 413   6 C     -0.086  1.052  3.033  0.000    22.134     6.697
 414   6 C     -0.025  1.055  2.969  0.000    21.096     6.554
 415   7 N     -0.145  1.212  3.933  0.000    24.142     7.298
 416   6 C      0.231  1.020  2.749  0.000    23.154     7.878
 417   7 N     -0.242  1.231  4.011  0.000    26.320     7.619
 418   7 N     -0.253  1.238  4.015  0.000    26.589     7.658
 419   1 H      0.209  0.791  0.000  0.000     1.062     1.614
 420   1 H      0.094  0.906  0.000  0.000     1.842     2.123
 421   1 H      0.065  0.935  0.000  0.000     2.136     2.285
 422   1 H      0.081  0.919  0.000  0.000     1.968     2.194
 423   1 H      0.085  0.915  0.000  0.000     1.927     2.171
 424   1 H      0.065  0.935  0.000  0.000     2.146     2.291
 425   1 H      0.079  0.921  0.000  0.000     1.989     2.206
 426   1 H      0.095  0.905  0.000  0.000     1.833     2.117
 427   1 H      0.226  0.774  0.000  0.000     0.981     1.551
 428   1 H      0.241  0.759  0.000  0.000     0.920     1.503
 429   1 H      0.267  0.733  0.000  0.000     0.819     1.418
 430   1 H      0.248  0.752  0.000  0.000     0.892     1.480
 431   1 H      0.270  0.730  0.000  0.000     0.810     1.410
 432   7 N     -0.387  1.317  4.071  0.000    30.020     8.137
 433   6 C      0.051  1.046  2.904  0.000    19.747     6.330
 434   6 C      0.199  1.089  2.712  0.000    23.769     7.984
 435   8 O     -0.392  1.779  4.614  0.000    21.524     6.220
 436   6 C     -0.055  1.060  2.996  0.000    21.565     6.611
 437   6 C     -0.080  1.063  3.018  0.000    22.035     6.684
 438   6 C      0.370  1.027  2.603  0.000    20.723     7.450
 439   8 O     -0.669  1.801  4.868  0.000    27.879     7.079
 440   8 O     -0.653  1.761  4.892  0.000    27.455     7.025
 441   1 H      0.183  0.817  0.000  0.000     1.194     1.712
 442   1 H      0.021  0.979  0.000  0.000     2.717     2.578
 443   1 H      0.060  0.940  0.000  0.000     2.195     2.317
 444   1 H      0.062  0.938  0.000  0.000     2.181     2.309
 445   1 H      0.018  0.982  0.000  0.000     2.761     2.599
 446   1 H     -0.007  1.007  0.000  0.000     3.187     2.792
 447   7 N     -0.374  1.297  4.078  0.000    29.661     8.089
 448   6 C      0.053  1.039  2.908  0.000    19.686     6.318
 449   6 C      0.190  1.093  2.716  0.000    23.932     8.012
 450   8 O     -0.362  1.754  4.608  0.000    20.943     6.136
 451   6 C     -0.089  1.053  3.036  0.000    22.164     6.699
 452   6 C      0.301  1.024  2.675  0.000    21.892     7.662
 453   8 O     -0.525  1.767  4.758  0.000    24.342     6.615
 454   7 N     -0.264  1.262  4.003  0.000    26.853     7.696
 455   1 H      0.157  0.843  0.000  0.000     1.353     1.822
 456   1 H      0.051  0.949  0.000  0.000     2.313     2.378
 457   1 H      0.091  0.909  0.000  0.000     1.866     2.136
 458   1 H      0.067  0.933  0.000  0.000     2.119     2.277
 459   1 H      0.197  0.803  0.000  0.000     1.122     1.659
 460   1 H      0.219  0.781  0.000  0.000     1.013     1.576
 461   7 N     -0.404  1.317  4.087  0.000    30.478     8.199
 462   6 C      0.037  1.046  2.917  0.000    19.963     6.363
 463   6 C      0.206  1.091  2.703  0.000    23.623     7.960
 464   8 O     -0.381  1.764  4.617  0.000    21.308     6.189
 465   6 C     -0.062  1.052  3.010  0.000    21.686     6.628
 466   6 C     -0.097  1.060  3.037  0.000    22.345     6.729
 467   6 C      0.362  1.031  2.607  0.000    20.852     7.473
 468   8 O     -0.646  1.794  4.851  0.000    27.269     7.001
 469   8 O     -0.647  1.772  4.875  0.000    27.302     7.005
 470   1 H      0.197  0.803  0.000  0.000     1.124     1.661
 471   1 H      0.058  0.942  0.000  0.000     2.223     2.332
 472   1 H      0.046  0.954  0.000  0.000     2.369     2.407
 473   1 H      0.047  0.953  0.000  0.000     2.354     2.399
 474   1 H      0.039  0.961  0.000  0.000     2.466     2.456
 475   1 H      0.027  0.973  0.000  0.000     2.636     2.539
 476   1 H      0.186  0.814  0.000  0.000     1.182     1.703
 477   1 H      0.081  0.919  0.000  0.000     1.964     2.192
 478   1 H      0.183  0.817  0.000  0.000     1.196     1.713
 479   1 H      0.061  0.939  0.000  0.000     2.187     2.312
 480   1 H      0.164  0.836  0.000  0.000     1.309     1.792
 481   1 H      0.074  0.926  0.000  0.000     2.039     2.233
 482   1 H      0.196  0.804  0.000  0.000     1.125     1.661
 483   1 H      0.087  0.913  0.000  0.000     1.909     2.161
 484   1 H      0.183  0.817  0.000  0.000     1.197     1.714
 485   1 H      0.104  0.896  0.000  0.000     1.751     2.069
 486   1 H      0.166  0.834  0.000  0.000     1.296     1.783
 487   1 H      0.075  0.925  0.000  0.000     2.028     2.227

 Mol. C6AA /au·bohr⁶  :    2279578.304044
 Mol. C8AA /au·bohr⁸  :   50211343.582288
 Mol. α(0) /au        :       2239.495283

 
molecular dipole:
                 x           y           z       tot (Debye)
 q only:      162.442    -926.000    -153.865
   full:      167.037    -926.461    -153.384    2424.400
molecular quadrupole (traceless):
                xx          xy          yy          xz          yz          zz
 q only:    58692.942   30999.203 -117498.238    4901.640  -30000.214   58805.296
  q+dip:    58479.484   31996.712 -117549.424    5151.063  -29894.451   59069.940
   full:    58477.630   31991.536 -117545.140    5156.771  -29895.672   59067.509
speedup  0.94
cpu  time for grad   26.83 s
wall time for grad   28.69 s

SCC energy    :    -811.8338022
rep           :       8.9757663
ES            :       5.0997173
AES           :      -0.1657532
AXC           :       0.1950182
disp          :      -0.6461374
XB            :       0.0000000
fix           :       0.0000000
Gborn         :       0.0000000
Gsasa         :       0.0000000
Ghb           :       0.0000000
Gshift        :       0.0000000
Gsolv         :      -2.3058622    -1446.95
Etot ala COSMO:    -811.8338022
grad norm     :       0.6425819
total E       :    -802.8052792
atomizationE  :     140.2354381    87999.07
(atE without considering molecular charge,
 total energy contains solvation terms)
H-L gap (eV)  :          1.4035

------------------------------------------------------------------------
 * finished run on 2019/05/04 at 18:21:12.311     
------------------------------------------------------------------------
 total:
 * wall-time:     0 d,  0 h,  0 min, 30.389 sec
 *  cpu-time:     0 d,  0 h,  0 min, 28.184 sec
 * ratio c/w:     0.927 speedup
 SCF:
 * wall-time:     0 d,  0 h,  0 min, 29.620 sec
 *  cpu-time:     0 d,  0 h,  0 min, 27.746 sec
 * ratio c/w:     0.937 speedup

