      -----------------------------------------------------------      
     |                   =====================                   |     
     |                           x T B                           |     
     |                   =====================                   |     
     |                         S. Grimme                         |     
     |          Mulliken Center for Theoretical Chemistry        |     
     |                    University of Bonn                     |     
     |                 Version 6.0.1 (SAW181210)                 |     
      -----------------------------------------------------------      

   This program is distributed in the hope that it will be useful,
   but WITHOUT ANY WARRANTY; without even the implied warranty of
   MERCHANTABILITY or FITNESS FOR A PARTICULAR PURPOSE.
   
   FOR NON-COMMERCIAL, ACADEMIA USE ONLY.
   
   Cite this work as:
   S. Grimme, C. Bannwarth, P. Shushkov, J. Comput. Theory Chem., 2017,
   13, 1989-2009.
   C. Bannwarth, S. Ehlert and S. Grimme., ChemRxiv, 2018, preprint.
   http://doi.org/10.26434/chemrxiv.7246238.v1
   
   for sTDA-xTB:
   S. Grimme and C. Bannwarth, J. Chem. Phys., 2016, 145, 054103.
   
   in the mass-spec context:
   V. Asgeirsson, C. Bauer and S. Grimme, Chem. Sci., 2017, 8, 4879.
   
   if GBSA is used:
   P. Shushkov, F. März and S. Grimme, unpublished.
   
   for ANC optimizer:
   S. Grimme, unpublished.
   Rational Function algorithm used in ANCopt:
   F. Eckert, P. Pulay, H.-J. Werner, J. Comput. Chem., 1997, 18, 1473.
   
   with help from (in alphabetical order)
   C. Bannwarth, F. Bohle, G. Brandenburg, E. Caldeweyher, M. Checinski,
   S. Dohm, S. Ehlert, S. Ehrlich, F. März, H. Neugebauer, J. Pisarek,
   P. Pracht, P. Shushkov, and S. Spicher.
   
 * started run on 2019/04/15 at 15:10:15.359     
========================================================================
 # omp threads = 2
========================================================================
number of atoms            : 256
number of electrons        : 730
charge                     : 0
spin                       : .0
first test random number   : .7028

########################################################################
# WARNING! Please study the warnings concerning your input carefully
#  - Process number higher than OMP_NUM_THREADS, I hope you know what you are doing.
########################################################################

           ------------------------------------------------- 
          |                 G F N 2 - x T B                 |
          | Geometry, Frequencies, Noncovalent interactions |
          |            JCTC 2018 parametrisation            |
           ------------------------------------------------- 
 
      method parameters     
 k(s)        :  1.8500
 k(p)        :  2.2300
 k(d)        :  2.2300
 k(f)        :  2.0000
 kEN (H0ij)  : -2.0000
 D4 a1       :  0.5200
 D4 a2       :  5.0000
 D4 s6       :  1.0000
 D4 s8       :  2.7000
 D4 s9       :  5.0000
 alphaj      :  2.0000

 Solvent             : h2o
 Using internal parameter file: .param_gbsa2_h2o
 Gsolv ref. state (COSMO-RS): gsolv [1 M gas/solution]
 temperature (mdtemp)       :    298.150000000000     
 dielectric constant        :    80.2000000000000     
 rho                        :    1.00000000000000     
 mass                       :    18.0000000000000     
 surface tension            :    15.5689454083859     
 probe radius               :   0.975313790000000     
 vdW radii scaling          :    1.00000000000000     
 Gshift (Eh)                :   1.857443126794793E-003
 c1                         :    1.55243817000000     
 soset                      :   0.130326360000000     
 HB correction              :  T

            Z     q(EN)     CN     RAES       Cart. coordinates
     1  N   5.0   -0.10    4.15    3.29    46.29266    62.70742    58.15484
     2  C   4.0    0.01    4.32    4.23    46.83953    61.61996    60.67751
     3  C   4.0    0.14    3.37    3.07    47.31500    63.80394    62.54365
     4  O   6.0   -0.31    1.24    1.80    47.63481    65.95812    61.76899
     5  C   4.0    0.03    4.13    3.86    49.09449    59.81117    60.39635
     6  O   6.0   -0.25    2.08    1.84    48.20762    57.82674    58.85697
     7  H   1.0    0.08    1.03    1.43    46.49156    61.31154    56.80321
     8  H   1.0    0.07    1.02    1.43    44.50116    63.45391    58.07062
     9  H   1.0    0.09    1.03    1.43    47.58781    64.13507    57.74700
    10  H   1.0    0.05    1.05    1.44    45.23148    60.48494    61.30988
    11  H   1.0    0.05    1.01    1.43    50.67869    60.80440    59.49545
    12  H   1.0    0.04    1.01    1.43    49.64365    59.11257    62.26903
    13  H   1.0    0.12    1.02    1.43    49.48885    56.55500    58.62864
    14  N   5.0   -0.14    3.50    2.08    47.28980    63.13377    64.96311
    15  C   4.0    0.03    4.51    4.55    47.97002    64.83800    66.99555
    16  C   4.0    0.14    3.47    3.10    49.34368    63.21891    68.94446
    17  O   6.0   -0.30    1.26    1.80    48.79908    60.98703    69.25058
    18  C   4.0   -0.02    4.24    4.08    45.62676    66.18394    68.12459
    19  C   4.0   -0.06    4.11    3.83    43.53228    64.30864    68.77952
    20  C   4.0   -0.07    4.13    3.85    46.39502    67.72281    70.43976
    21  H   1.0    0.09    1.08    1.44    46.96840    61.33805    65.56281
    22  H   1.0    0.05    1.09    1.44    49.24146    66.29447    66.25692
    23  H   1.0    0.05    1.05    1.44    44.97184    67.48623    66.65809
    24  H   1.0    0.04    1.00    1.43    42.05783    65.25414    69.85126
    25  H   1.0    0.05    1.00    1.43    42.69025    63.50031    67.09186
    26  H   1.0    0.06    1.00    1.43    44.28531    62.79005    69.93875
    27  H   1.0    0.05    1.00    1.43    44.83479    68.88051    71.10423
    28  H   1.0    0.07    1.00    1.43    46.97382    66.50170    71.98797
    29  H   1.0    0.05    1.00    1.43    47.96943    68.97451    70.01194
    30  N   5.0   -0.14    3.54    2.11    51.21922    64.38388    70.15357
    31  C   4.0    0.03    4.46    4.48    52.63021    63.17240    72.13771
    32  C   4.0    0.15    3.43    3.09    52.43080    64.75673    74.55566
    33  O   6.0   -0.29    1.24    1.80    50.77310    66.33602    74.83816
    34  C   4.0   -0.04    4.11    3.83    55.31405    62.52276    71.27997
    35  S   6.0   -0.14    2.43    3.10    57.58556    65.18375    71.47674
    36  H   1.0    0.07    1.18    1.46    51.59065    66.22280    69.73912
    37  H   1.0    0.06    1.07    1.44    51.63194    61.38584    72.52261
    38  H   1.0    0.04    1.07    1.44    56.10095    61.03551    72.45724
    39  H   1.0    0.05    1.07    1.44    55.22769    61.85313    69.33796
    40  N   5.0   -0.15    3.54    2.10    54.07073    64.10352    76.38049
    41  C   4.0    0.04    4.33    4.26    53.96875    65.11752    78.90940
    42  C   4.0    0.15    3.44    3.09    55.65125    67.42658    79.30619
    43  O   6.0   -0.29    1.25    1.80    55.70169    68.53309    81.33595
    44  C   4.0   -0.07    4.12    3.85    54.77223    63.06521    80.77409
    45  H   1.0    0.07    1.09    1.44    55.63240    63.10370    75.94259
    46  H   1.0    0.07    1.06    1.44    52.02024    65.73679    79.24981
    47  H   1.0    0.06    1.00    1.43    54.69656    63.80142    82.68779
    48  H   1.0    0.05    1.00    1.43    53.53744    61.43464    80.62621
    49  H   1.0    0.04    1.01    1.43    56.71062    62.52408    80.36037
    50  N   5.0   -0.14    3.49    2.07    57.18700    68.06088    77.37797
    51  C   4.0    0.03    4.36    4.32    58.66138    70.35467    77.64173
    52  C   4.0    0.16    3.48    3.10    56.86166    72.62480    77.60887
    53  O   6.0   -0.28    1.31    1.80    55.13119    72.77074    76.08007
    54  C   4.0   -0.07    4.10    3.80    60.60705    70.62751    75.54137
    55  H   1.0    0.08    1.12    1.45    56.88972    67.35474    75.61906
    56  H   1.0    0.05    1.06    1.44    59.58759    70.25053    79.48850
    57  H   1.0    0.05    1.00    1.43    61.63224    72.39622    75.74191
    58  H   1.0    0.04    1.00    1.43    61.96258    69.08768    75.59988
    59  H   1.0    0.05    1.00    1.43    59.67519    70.63717    73.70680
    60  N   5.0   -0.15    3.44    2.04    57.34691    74.45503    79.29358
    61  C   4.0    0.04    4.35    4.29    55.56709    76.52955    79.62355
    62  C   4.0    0.17    3.49    3.11    54.85541    77.64626    77.05393
    63  O   6.0   -0.27    1.23    1.80    52.66079    77.87900    76.39898
    64  C   4.0   -0.07    4.11    3.82    56.67477    78.54527    81.35217
    65  H   1.0    0.08    1.06    1.44    58.63596    74.18013    80.67721
    66  H   1.0    0.07    1.05    1.44    53.78820    75.79414    80.39790
    67  H   1.0    0.06    1.00    1.43    55.31391    80.06121    81.59936
    68  H   1.0    0.05    1.00    1.43    57.09785    77.73198    83.18854
    69  H   1.0    0.05    1.00    1.43    58.38919    79.32974    80.54049
    70  N   5.0   -0.14    3.48    2.07    56.81734    78.48587    75.65884
    71  C   4.0    0.05    4.45    4.46    56.40995    79.50909    73.15414
    72  C   4.0    0.16    3.49    3.11    56.82003    77.42142    71.20133
    73  O   6.0   -0.30    1.30    1.80    58.40965    77.53589    69.51844
    74  C   4.0   -0.02    4.30    4.19    57.99978    81.84594    72.56925
    75  C   4.0    0.16    3.22    3.04    56.41939    84.25352    72.72537
    76  O   6.0   -0.27    1.22    1.80    54.38973    84.35089    73.81164
    77  N   5.0   -0.18    3.18    1.95    57.45710    86.26595    71.58660
    78  H   1.0    0.08    1.06    1.44    58.60202    77.99359    76.12667
    79  H   1.0    0.08    1.08    1.44    54.40025    80.04028    73.10707
    80  H   1.0    0.05    1.03    1.43    59.57277    82.00469    73.88991
    81  H   1.0    0.06    1.04    1.43    58.76965    81.64819    70.66590
    82  H   1.0    0.10    1.03    1.43    56.47585    87.89801    71.55413
    83  H   1.0    0.09    1.03    1.43    59.07878    86.14179    70.60896
    84  N   5.0   -0.12    3.54    2.10    55.33710    75.40529    71.51105
    85  C   4.0    0.04    4.57    4.63    55.30878    73.50830    69.54891
    86  C   4.0    0.16    3.61    3.17    54.88341    74.93084    67.06163
    87  O   6.0   -0.28    1.26    1.80    53.25338    76.57548    66.94661
    88  C   4.0   -0.03    4.16    3.92    53.17470    71.65274    69.99571
    89  S   6.0   -0.14    2.51    3.10    52.95021    69.46503    67.38980
    90  H   1.0    0.11    1.08    1.44    53.99000    75.35706    72.86411
    91  H   1.0    0.03    1.07    1.44    57.15253    72.54701    69.48560
    92  H   1.0    0.06    1.05    1.44    53.42386    70.68070    71.80329
    93  H   1.0    0.06    1.08    1.44    51.38278    72.67477    70.04697
    94  N   5.0   -0.15    3.56    2.12    56.28173    74.22275    65.07895
    95  C   4.0    0.03    4.42    4.42    56.21314    75.64888    62.74618
    96  C   4.0    0.15    3.40    3.08    54.62452    74.30962    60.69481
    97  O   6.0   -0.28    1.26    1.80    55.05457    74.61476    58.44252
    98  C   4.0   -0.03    4.30    4.19    58.88542    76.19168    61.80059
    99  C   4.0   -0.03    4.24    4.08    60.50469    77.48415    63.80838
   100  C   4.0    0.16    3.22    3.04    63.30150    77.21917    63.22347
   101  O   6.0   -0.29    1.22    1.80    64.10962    76.20263    61.32610
   102  N   5.0   -0.18    3.18    1.95    64.83731    78.23304    64.98327
   103  H   1.0    0.07    1.18    1.46    57.75757    72.98979    65.28737
   104  H   1.0    0.07    1.07    1.44    55.26117    77.44163    63.18908
   105  H   1.0    0.06    1.03    1.43    59.78523    74.42383    61.22446
   106  H   1.0    0.06    1.03    1.43    58.77501    77.37759    60.11981
   107  H   1.0    0.05    1.03    1.43    60.02955    79.48569    63.94124
   108  H   1.0    0.07    1.04    1.43    60.17064    76.66492    65.67309
   109  H   1.0    0.09    1.03    1.43    64.16634    78.89980    66.62856
   110  H   1.0    0.11    1.03    1.43    66.72238    78.10160    64.74630
   111  N   5.0   -0.15    3.49    2.07    52.76196    72.86201    61.59611
   112  C   4.0    0.04    4.42    4.41    51.03124    71.38800    60.05326
   113  C   4.0    0.17    3.56    3.14    52.22127    70.59030    57.51215
   114  O   6.0   -0.26    1.26    1.80    51.27555    71.21293    55.48124
   115  C   4.0   -0.03    4.28    4.16    48.53812    72.78622    59.60263
   116  C   4.0   -0.05    4.16    3.93    46.75924    72.52945    61.85733
   117  C   4.0   -0.01    4.20    4.00    44.27400    73.95620    61.37178
   118  N   5.0   -0.14    3.39    2.02    42.14101    72.83000    62.66670
   119  C   4.0    0.10    3.34    3.06    40.63841    71.02276    61.75202
   120  N   5.0   -0.18    3.25    1.97    40.91091    70.11138    59.43636
   121  N   5.0   -0.18    3.24    1.97    38.81528    70.11572    63.23735
   122  H   1.0    0.08    1.11    1.45    52.59434    72.67243    63.49033
   123  H   1.0    0.05    1.06    1.44    50.62961    69.64099    61.09270
   124  H   1.0    0.06    1.02    1.43    48.93765    74.76544    59.17872
   125  H   1.0    0.06    1.04    1.43    47.69824    71.95443    57.91454
   126  H   1.0    0.06    1.03    1.43    46.39628    70.52055    62.15143
   127  H   1.0    0.05    1.02    1.43    47.69098    73.25779    63.54712
   128  H   1.0    0.05    1.02    1.43    44.44560    75.90647    62.01562
   129  H   1.0    0.05    1.03    1.43    43.90286    74.01515    59.34630
   130  H   1.0    0.08    1.07    1.44    41.98824    73.25235    64.52091
   131  H   1.0    0.09    1.03    1.43    42.30171    70.72457    58.28887
   132  H   1.0    0.09    1.03    1.43    39.58896    68.95982    58.68794
   133  H   1.0    0.08    1.03    1.43    38.53974    70.82819    64.97782
   134  H   1.0    0.09    1.03    1.43    37.61647    68.77206    62.62436
   135  N   5.0   -0.08    3.70    2.27    54.16487    69.00394    57.67065
   136  C   4.0    0.04    4.54    4.59    55.14411    67.78470    55.41542
   137  C   4.0    0.27    3.19    3.03    52.97618    66.23877    54.07102
   138  O   6.0   -0.28    1.19    1.80    51.35260    65.26390    55.47365
   139  C   4.0   -0.04    4.31    4.22    57.26662    66.05373    56.36624
   140  C   4.0   -0.05    4.26    4.12    57.94238    67.15713    58.94882
   141  C   4.0   -0.01    4.40    4.38    55.39900    68.08496    59.92715
   142  O   6.0   -0.27    1.16    1.80    53.13695    66.04718    51.74231
   143  H   1.0    0.07    1.04    1.43    55.81471    69.21093    54.06589
   144  H   1.0    0.05    1.03    1.43    56.53487    64.13502    56.55771
   145  H   1.0    0.05    1.02    1.43    58.84785    66.01635    55.05196
   146  H   1.0    0.04    1.02    1.43    58.82581    65.83515    60.25035
   147  H   1.0    0.04    1.03    1.43    59.19872    68.77744    58.71995
   148  H   1.0    0.05    1.02    1.43    54.27462    66.54734    60.74379
   149  H   1.0    0.04    1.04    1.43    55.63132    69.56630    61.33355
   150  N   5.0   -0.11    4.14    3.26    61.40413    57.24379    74.87502
   151  C   4.0   -0.00    4.34    4.26    61.59532    59.78682    73.68161
   152  C   4.0    0.15    3.47    3.10    62.30072    59.35772    70.90087
   153  O   6.0   -0.30    1.27    1.80    63.49124    57.46045    70.31564
   154  C   4.0   -0.04    4.32    4.24    63.73231    61.34710    74.89543
   155  C   4.0   -0.02    3.56    3.14    63.33047    61.70196    77.69556
   156  C   4.0   -0.04    3.47    3.10    64.52461    60.09021    79.39685
   157  C   4.0   -0.05    3.45    3.10    61.79144    63.61787    78.61788
   158  C   4.0   -0.04    3.37    3.07    64.17633    60.38190    81.97369
   159  C   4.0   -0.04    3.37    3.07    61.45006    63.91263    81.19865
   160  C   4.0   -0.04    3.37    3.07    62.62281    62.27861    82.87799
   161  H   1.0    0.08    1.04    1.43    62.95009    56.21554    74.23705
   162  H   1.0    0.06    1.03    1.43    61.41761    57.38055    76.82168
   163  H   1.0    0.06    1.02    1.43    59.79692    56.31231    74.28746
   164  H   1.0    0.04    1.05    1.44    59.83581    60.84254    73.86492
   165  H   1.0    0.05    1.03    1.43    65.55786    60.45110    74.56073
   166  H   1.0    0.04    1.03    1.43    63.76808    63.17665    73.94977
   167  H   1.0    0.05    1.03    1.43    65.79578    58.65025    78.71361
   168  H   1.0    0.05    1.03    1.43    60.88661    64.90516    77.31922
   169  H   1.0    0.05    1.03    1.43    65.14748    59.14893    83.27488
   170  H   1.0    0.06    1.03    1.43    60.29064    65.43136    81.91543
   171  H   1.0    0.05    1.03    1.43    62.34609    62.50596    84.88676
   172  N   5.0   -0.14    3.49    2.07    61.55374    61.14120    69.28961
   173  C   4.0    0.03    4.45    4.47    62.71500    61.15067    66.80901
   174  C   4.0    0.15    3.50    3.11    65.46701    62.00345    67.09200
   175  O   6.0   -0.30    1.28    1.80    66.03658    63.80788    68.42301
   176  C   4.0   -0.05    4.32    4.24    61.46086    62.98044    64.95023
   177  C   4.0    0.02    3.83    3.37    58.75793    62.36962    64.49683
   178  N   5.0   -0.18    3.26    1.97    56.83780    63.97900    65.13785
   179  C   4.0   -0.01    3.61    3.17    57.73805    60.24303    63.42935
   180  C   4.0    0.03    3.71    3.25    54.71806    62.86417    64.44119
   181  N   5.0   -0.11    3.46    2.05    55.19043    60.59569    63.41825
   182  H   1.0    0.07    1.18    1.46    60.58244    62.68779    69.93667
   183  H   1.0    0.05    1.06    1.44    62.63559    59.21167    66.09402
   184  H   1.0    0.04    1.08    1.44    61.58472    64.90841    65.67010
   185  H   1.0    0.04    1.03    1.43    62.50456    62.90138    63.16961
   186  H   1.0    0.05    1.02    1.43    58.59892    58.56851    62.70449
   187  H   1.0    0.04    1.02    1.43    52.88953    63.68847    64.67999
   188  H   1.0    0.07    1.05    1.44    53.92903    59.34216    62.74029
   189  N   5.0   -0.15    3.47    2.06    67.16843    60.70909    65.73767
   190  C   4.0    0.03    4.44    4.45    69.78529    61.53424    65.78174
   191  C   4.0    0.16    3.50    3.12    69.87765    64.33163    65.04779
   192  O   6.0   -0.30    1.35    1.80    70.79719    65.92092    66.45375
   193  C   4.0   -0.04    4.27    4.15    71.42531    59.83884    64.12799
   194  C   4.0   -0.03    4.24    4.07    71.73173    57.23703    65.34957
   195  C   4.0    0.16    3.21    3.04    73.16385    55.42986    63.63741
   196  O   6.0   -0.28    1.21    1.80    74.20821    56.08434    61.68278
   197  N   5.0   -0.18    3.18    1.95    73.13889    53.01920    64.42951
   198  H   1.0    0.07    1.06    1.44    66.70441    59.17497    64.69829
   199  H   1.0    0.06    1.06    1.44    70.48384    61.49302    67.73483
   200  H   1.0    0.05    1.03    1.43    70.59997    59.62749    62.24906
   201  H   1.0    0.06    1.03    1.43    73.27977    60.70961    63.88693
   202  H   1.0    0.05    1.03    1.43    72.78808    57.42943    67.11313
   203  H   1.0    0.05    1.03    1.43    69.89223    56.41838    65.78531
   204  H   1.0    0.09    1.03    1.43    72.32864    52.51604    66.07767
   205  H   1.0    0.10    1.03    1.43    74.10582    51.71458    63.43790
   206  N   5.0   -0.15    3.48    2.06    68.73472    64.95077    62.86593
   207  C   4.0    0.03    4.50    4.53    68.86148    67.52329    61.89434
   208  C   4.0    0.16    3.53    3.13    68.35263    69.42959    64.01344
   209  O   6.0   -0.28    1.23    1.80    69.76447    71.21346    64.40871
   210  C   4.0   -0.03    4.25    4.10    67.02854    67.84890    59.65231
   211  C   4.0   -0.06    4.14    3.88    66.42500    70.63461    59.19542
   212  C   4.0   -0.07    4.11    3.82    68.22782    66.70967    57.28274
   213  H   1.0    0.07    1.06    1.44    68.30746    63.57279    61.61165
   214  H   1.0    0.06    1.06    1.44    70.79632    67.95012    61.26944
   215  H   1.0    0.04    1.05    1.44    65.26204    66.86625    60.10205
   216  H   1.0    0.05    1.00    1.43    65.34536    70.86699    57.46347
   217  H   1.0    0.06    1.00    1.43    65.32373    71.46458    60.72114
   218  H   1.0    0.06    1.00    1.43    68.15373    71.73420    59.03219
   219  H   1.0    0.04    1.00    1.43    66.90811    66.77678    55.71281
   220  H   1.0    0.05    1.00    1.43    69.89422    67.80351    56.78126
   221  H   1.0    0.04    1.00    1.43    68.81226    64.76059    57.56446
   222  N   5.0   -0.13    3.56    2.12    66.23079    69.03142    65.35055
   223  C   4.0    0.05    4.51    4.55    65.32103    70.83992    67.17332
   224  C   4.0    0.16    3.41    3.08    67.05286    71.22183    69.47192
   225  O   6.0   -0.29    1.22    1.80    66.78429    73.12242    70.77407
   226  C   4.0   -0.04    4.17    3.94    62.73733    70.02710    68.15330
   227  S   6.0   -0.14    2.43    3.10    60.49675    69.81614    65.55682
   228  H   1.0    0.08    1.10    1.44    65.02660    67.64493    64.83088
   229  H   1.0    0.06    1.06    1.44    65.15362    72.71478    66.28092
   230  H   1.0    0.04    1.06    1.44    62.91833    68.19209    69.08345
   231  H   1.0    0.05    1.06    1.44    62.06869    71.44016    69.50109
   232  N   5.0   -0.14    3.54    2.11    68.62337    69.33752    70.02569
   233  C   4.0    0.04    4.49    4.52    70.37742    69.36513    72.12957
   234  C   4.0    0.16    3.39    3.08    73.07052    70.12263    71.35844
   235  O   6.0   -0.28    1.22    1.80    74.52503    71.02245    72.93364
   236  C   4.0   -0.02    4.25    4.11    70.14332    66.78311    73.46605
   237  C   4.0   -0.06    4.10    3.80    72.28535    66.17655    75.29778
   238  C   4.0   -0.07    4.13    3.86    67.60398    66.76104    74.84400
   239  H   1.0    0.12    1.11    1.45    68.78002    67.85224    68.82710
   240  H   1.0    0.07    1.07    1.44    69.77769    70.89042    73.40107
   241  H   1.0    0.06    1.06    1.44    70.13810    65.37064    71.95115
   242  H   1.0    0.04    1.00    1.43    71.87555    64.42688    76.29770
   243  H   1.0    0.07    1.00    1.43    74.07993    65.95053    74.31702
   244  H   1.0    0.06    1.00    1.43    72.50763    67.69035    76.66652
   245  H   1.0    0.04    1.00    1.43    67.37784    65.02695    75.91038
   246  H   1.0    0.04    1.00    1.43    67.52456    68.35405    76.13986
   247  H   1.0    0.05    1.00    1.43    66.06956    66.95486    73.48957
   248  N   5.0   -0.12    3.39    2.02    73.58303    69.94924    68.90158
   249  C   4.0    0.03    4.20    4.00    75.99460    70.65265    67.86268
   250  C   4.0    0.27    3.08    3.02    78.04757    68.51587    68.17117
   251  O   6.0   -0.26    1.16    1.80    80.24148    69.24965    68.53861
   252  O   6.0   -0.26    1.17    1.80    77.28878    66.29957    67.97793
   253  H   1.0    0.12    1.11    1.45    72.44243    68.90472    67.78818
   254  H   1.0    0.06    1.02    1.43    75.75149    71.03769    65.84910
   255  H   1.0    0.07    1.03    1.43    76.68028    72.34857    68.81921
   256  Zn  2.0    0.47    3.57    5.00    57.07256    67.43419    67.45300

  Z AO/shell   Hii/eV     exponent
  1     Wed Apr 25 08:07:45 CEST 2018   EN: 2.200 GM2: 0.406  GM3: 0.0800  RAES: 1.40
     1s    -10.707211    1.230000
  6     Wed Apr 25 08:07:45 CEST 2018   EN: 2.550 GM2: 0.538  GM3: 0.1500  RAES: 3.00
     2s    -13.970922    2.096432
     2p    -10.063292    1.800000
  7     Wed Apr 25 08:07:45 CEST 2018   EN: 3.040 GM2: 0.461  GM3:-0.0640  RAES: 1.90
     2s    -16.686243    2.339881
     2p    -12.523956    2.014332
  8     Wed Apr 25 08:07:45 CEST 2018   EN: 3.440 GM2: 0.452  GM3:-0.0517  RAES: 1.80
     2s    -20.229985    2.439742
     2p    -15.503117    2.137023
 16     Tue Apr 24 11:44:34 CEST 2018   EN: 2.580 GM2: 0.340  GM3:-0.0502  RAES: 3.10
     3s    -20.029654    1.981333
     3p    -11.377694    2.025643
     3d     -0.420282    1.702555
 30     Wed Apr 25 13:34:15 CEST 2018   EN: 1.650 GM2: 0.564  GM3: 0.2313  RAES: 5.00
     4s     -7.177294    1.664847
     4p     -0.991895    1.176434
 no old-style atom pair restraining (fixing) potential
           ------------------------------------------------- 
          |        Self-Consistent Charge Iterations        |
           ------------------------------------------------- 

 Ncao       : 670
 Nao        : 667
 Nshell     : 391
 Nel        : 730
 T(el)      :   500.0
 intcut     :    35.0
 scfconv/Eh :  0.100E-06
   qconv/e  :  0.100E-04
 intneglect :  0.100E-08
 broydamp   :      0.400
 iter      E             dE          RMSdq      gap      omega  full diag
   1   -418.4012946 -0.418401E+03  0.483E+00    3.82       0.0  T
   2   -419.4758997 -0.107461E+01  0.230E+00    3.25       1.0  T
   3   -419.5330863 -0.571867E-01  0.127E+00    3.34       1.0  T
   4   -419.5963107 -0.632244E-01  0.424E-01    2.67       1.0  T
   5   -419.6096186 -0.133080E-01  0.285E-01    2.65       1.0  T
   6   -419.6163930 -0.677436E-02  0.153E-01    2.66       1.0  T
   7   -419.6185951 -0.220211E-02  0.717E-02    2.60       1.0  T
   8   -419.6187170 -0.121882E-03  0.448E-02    2.59       1.0  T
   9   -419.6188144 -0.974177E-04  0.186E-02    2.59       1.0  T
  10   -419.6188282 -0.137673E-04  0.929E-03    2.58       1.0  T
  11   -419.6188300 -0.187230E-05  0.387E-03    2.57       1.6  T
  12   -419.6188310 -0.974891E-06  0.192E-03    2.57       3.3  T
  13   -419.6188312 -0.187230E-06  0.773E-04    2.57       8.1  T
  14   -419.6188312 -0.259200E-07  0.352E-04    2.57      17.7  T
  15   -419.6188312 -0.439064E-08  0.143E-04    2.57      43.6  T
  16   -419.6188312 -0.730495E-09  0.724E-05    2.57      86.3  T
  17   -419.6188312 -0.158423E-09  0.414E-05    2.57     151.1  T
speedup  1.96
cpu  time for SCC    4.19 s
wall time for SCC    2.14 s

   *** convergence criteria satisfied after 17 iterations ***

          eigenvalues
 #    :         353        354        355        356        357        358        359        360
 occ. :        2.000      2.000      2.000      2.000      2.000      2.000      2.000      2.000
 eps  :       -10.714    -10.668    -10.665    -10.518    -10.486    -10.269    -10.250    -10.181
 #    :         361        362        363        364        365        366        367        368
 occ. :        2.000      2.000      2.000      2.000      2.000      0.000      0.000      0.000
 eps  :        -9.974     -9.939     -9.910     -9.734     -9.493     -6.920     -6.877     -6.728
 #    :         369        370        371        372        373        374        375        376
 occ. :        0.000      0.000      0.000      0.000      0.000      0.000      0.000      0.000
 eps  :        -6.679     -6.585     -6.570     -6.564     -6.466     -6.442     -6.413     -6.383


   #   Z            q   n(s)   n(p)   n(d)      C6AA      α(0)
   1   7 N     -0.141  1.223  3.918  0.000    24.044     7.283
   2   6 C     -0.031  1.077  2.954  0.000    21.141     6.549
   3   6 C      0.260  1.031  2.709  0.000    22.617     7.787
   4   8 O     -0.457  1.750  4.707  0.000    22.844     6.408
   5   6 C      0.056  1.041  2.903  0.000    19.856     6.385
   6   8 O     -0.467  1.709  4.758  0.000    22.185     6.358
   7   1 H      0.311  0.689  0.000  0.000     0.682     1.293
   8   1 H      0.309  0.691  0.000  0.000     0.686     1.298
   9   1 H      0.293  0.707  0.000  0.000     0.736     1.344
  10   1 H      0.155  0.845  0.000  0.000     1.356     1.821
  11   1 H      0.059  0.941  0.000  0.000     2.210     2.325
  12   1 H      0.069  0.931  0.000  0.000     2.092     2.262
  13   1 H      0.353  0.647  0.000  0.000     0.582     1.198
  14   7 N     -0.154  1.234  3.919  0.000    24.324     7.325
  15   6 C     -0.004  1.070  2.934  0.000    20.645     6.470
  16   6 C      0.271  1.042  2.688  0.000    22.427     7.755
  17   8 O     -0.473  1.736  4.736  0.000    23.187     6.456
  18   6 C     -0.017  1.065  2.952  0.000    20.849     6.495
  19   6 C     -0.129  1.040  3.089  0.000    23.040     6.844
  20   6 C     -0.114  1.038  3.076  0.000    22.734     6.798
  21   1 H      0.235  0.765  0.000  0.000     0.946     1.523
  22   1 H      0.077  0.923  0.000  0.000     2.010     2.217
  23   1 H      0.064  0.936  0.000  0.000     2.151     2.294
  24   1 H      0.057  0.943  0.000  0.000     2.230     2.335
  25   1 H      0.068  0.932  0.000  0.000     2.110     2.271
  26   1 H      0.048  0.952  0.000  0.000     2.343     2.393
  27   1 H      0.050  0.950  0.000  0.000     2.323     2.383
  28   1 H      0.041  0.959  0.000  0.000     2.436     2.441
  29   1 H      0.025  0.975  0.000  0.000     2.661     2.551
  30   7 N     -0.166  1.238  3.928  0.000    24.588     7.365
  31   6 C      0.011  1.062  2.926  0.000    20.383     6.427
  32   6 C      0.279  1.040  2.682  0.000    22.287     7.730
  33   8 O     -0.489  1.758  4.730  0.000    23.538     6.505
  34   6 C     -0.025  1.076  2.950  0.000    21.036     6.531
  35  16 S     -0.531  1.917  4.575  0.039   165.072    21.626
  36   1 H      0.199  0.801  0.000  0.000     1.110     1.650
  37   1 H      0.110  0.890  0.000  0.000     1.697     2.037
  38   1 H      0.088  0.912  0.000  0.000     1.896     2.153
  39   1 H      0.074  0.926  0.000  0.000     2.044     2.236
  40   7 N     -0.182  1.242  3.940  0.000    24.932     7.416
  41   6 C      0.022  1.056  2.922  0.000    20.221     6.404
  42   6 C      0.276  1.046  2.679  0.000    22.336     7.740
  43   8 O     -0.494  1.751  4.743  0.000    23.657     6.521
  44   6 C     -0.137  1.045  3.092  0.000    23.177     6.863
  45   1 H      0.221  0.779  0.000  0.000     1.004     1.570
  46   1 H      0.080  0.920  0.000  0.000     1.976     2.198
  47   1 H      0.072  0.928  0.000  0.000     2.065     2.247
  48   1 H      0.088  0.912  0.000  0.000     1.902     2.157
  49   1 H      0.076  0.924  0.000  0.000     2.025     2.225
  50   7 N     -0.173  1.246  3.927  0.000    24.745     7.388
  51   6 C      0.031  1.056  2.913  0.000    20.055     6.376
  52   6 C      0.276  1.046  2.678  0.000    22.331     7.739
  53   8 O     -0.496  1.755  4.741  0.000    23.689     6.526
  54   6 C     -0.103  1.035  3.068  0.000    22.520     6.766
  55   1 H      0.206  0.794  0.000  0.000     1.078     1.626
  56   1 H      0.076  0.924  0.000  0.000     2.024     2.225
  57   1 H      0.044  0.956  0.000  0.000     2.393     2.419
  58   1 H      0.079  0.921  0.000  0.000     1.989     2.206
  59   1 H      0.033  0.967  0.000  0.000     2.540     2.492
  60   7 N     -0.195  1.261  3.934  0.000    25.224     7.459
  61   6 C      0.027  1.059  2.914  0.000    20.132     6.389
  62   6 C      0.292  1.039  2.669  0.000    22.051     7.690
  63   8 O     -0.478  1.748  4.731  0.000    23.310     6.473
  64   6 C     -0.138  1.044  3.094  0.000    23.217     6.870
  65   1 H      0.226  0.774  0.000  0.000     0.984     1.554
  66   1 H      0.074  0.926  0.000  0.000     2.046     2.237
  67   1 H      0.076  0.924  0.000  0.000     2.025     2.226
  68   1 H      0.087  0.913  0.000  0.000     1.911     2.162
  69   1 H      0.068  0.932  0.000  0.000     2.105     2.269
  70   7 N     -0.185  1.247  3.938  0.000    25.007     7.427
  71   6 C      0.026  1.054  2.920  0.000    20.135     6.389
  72   6 C      0.278  1.044  2.678  0.000    22.298     7.733
  73   8 O     -0.501  1.747  4.754  0.000    23.804     6.541
  74   6 C     -0.111  1.059  3.051  0.000    22.605     6.768
  75   6 C      0.291  1.035  2.674  0.000    22.067     7.692
  76   8 O     -0.491  1.752  4.738  0.000    23.577     6.510
  77   7 N     -0.291  1.266  4.025  0.000    27.494     7.788
  78   1 H      0.197  0.803  0.000  0.000     1.121     1.659
  79   1 H      0.095  0.905  0.000  0.000     1.828     2.115
  80   1 H      0.090  0.910  0.000  0.000     1.876     2.142
  81   1 H      0.082  0.918  0.000  0.000     1.961     2.190
  82   1 H      0.243  0.757  0.000  0.000     0.911     1.495
  83   1 H      0.231  0.769  0.000  0.000     0.959     1.534
  84   7 N     -0.189  1.254  3.936  0.000    25.106     7.442
  85   6 C      0.076  1.047  2.876  0.000    19.276     6.244
  86   6 C      0.295  1.040  2.666  0.000    22.006     7.682
  87   8 O     -0.511  1.751  4.760  0.000    24.025     6.572
  88   6 C      0.034  1.049  2.918  0.000    20.008     6.368
  89  16 S     -0.519  1.914  4.580  0.025   164.506    21.588
  90   1 H      0.212  0.788  0.000  0.000     1.048     1.603
  91   1 H      0.014  0.986  0.000  0.000     2.824     2.628
  92   1 H      0.033  0.967  0.000  0.000     2.550     2.497
  93   1 H      0.029  0.971  0.000  0.000     2.596     2.520
  94   7 N     -0.189  1.258  3.931  0.000    25.103     7.441
  95   6 C      0.030  1.061  2.909  0.000    20.071     6.379
  96   6 C      0.277  1.040  2.683  0.000    22.312     7.735
  97   8 O     -0.496  1.759  4.737  0.000    23.691     6.526
  98   6 C     -0.048  1.043  3.005  0.000    21.433     6.590
  99   6 C     -0.092  1.055  3.037  0.000    22.244     6.714
 100   6 C      0.294  1.037  2.669  0.000    22.012     7.682
 101   8 O     -0.491  1.750  4.741  0.000    23.586     6.511
 102   7 N     -0.296  1.265  4.031  0.000    27.629     7.807
 103   1 H      0.202  0.798  0.000  0.000     1.096     1.640
 104   1 H      0.068  0.932  0.000  0.000     2.112     2.273
 105   1 H      0.049  0.951  0.000  0.000     2.332     2.388
 106   1 H      0.061  0.939  0.000  0.000     2.189     2.314
 107   1 H      0.066  0.934  0.000  0.000     2.128     2.281
 108   1 H      0.066  0.934  0.000  0.000     2.129     2.282
 109   1 H      0.220  0.780  0.000  0.000     1.010     1.574
 110   1 H      0.217  0.783  0.000  0.000     1.025     1.586
 111   7 N     -0.170  1.243  3.928  0.000    24.685     7.379
 112   6 C      0.020  1.066  2.914  0.000    20.248     6.408
 113   6 C      0.280  1.038  2.682  0.000    22.255     7.725
 114   8 O     -0.531  1.757  4.774  0.000    24.478     6.633
 115   6 C     -0.068  1.051  3.017  0.000    21.806     6.648
 116   6 C     -0.086  1.057  3.028  0.000    22.132     6.698
 117   6 C     -0.024  1.052  2.972  0.000    21.089     6.553
 118   7 N     -0.141  1.210  3.930  0.000    24.048     7.283
 119   6 C      0.232  1.018  2.750  0.000    23.141     7.876
 120   7 N     -0.238  1.222  4.016  0.000    26.219     7.605
 121   7 N     -0.255  1.231  4.024  0.000    26.628     7.664
 122   1 H      0.198  0.802  0.000  0.000     1.116     1.655
 123   1 H      0.088  0.912  0.000  0.000     1.900     2.156
 124   1 H      0.039  0.961  0.000  0.000     2.461     2.453
 125   1 H      0.075  0.925  0.000  0.000     2.035     2.231
 126   1 H      0.091  0.909  0.000  0.000     1.866     2.136
 127   1 H      0.046  0.954  0.000  0.000     2.370     2.408
 128   1 H      0.079  0.921  0.000  0.000     1.991     2.206
 129   1 H      0.084  0.916  0.000  0.000     1.942     2.179
 130   1 H      0.231  0.769  0.000  0.000     0.962     1.537
 131   1 H      0.237  0.763  0.000  0.000     0.934     1.514
 132   1 H      0.264  0.736  0.000  0.000     0.832     1.428
 133   1 H      0.247  0.753  0.000  0.000     0.894     1.481
 134   1 H      0.265  0.735  0.000  0.000     0.827     1.425
 135   7 N     -0.081  1.232  3.849  0.000    22.823     7.095
 136   6 C      0.019  1.076  2.905  0.000    20.240     6.402
 137   6 C      0.373  1.025  2.602  0.000    20.680     7.442
 138   8 O     -0.604  1.734  4.870  0.000    26.214     6.865
 139   6 C     -0.058  1.053  3.005  0.000    21.597     6.612
 140   6 C     -0.056  1.049  3.007  0.000    21.556     6.606
 141   6 C      0.005  1.047  2.948  0.000    20.518     6.454
 142   8 O     -0.639  1.778  4.861  0.000    27.091     6.978
 143   1 H     -0.003  1.003  0.000  0.000     3.105     2.756
 144   1 H      0.053  0.947  0.000  0.000     2.286     2.365
 145   1 H      0.039  0.961  0.000  0.000     2.456     2.451
 146   1 H      0.064  0.936  0.000  0.000     2.152     2.294
 147   1 H      0.032  0.968  0.000  0.000     2.564     2.504
 148   1 H      0.064  0.936  0.000  0.000     2.158     2.297
 149   1 H      0.039  0.961  0.000  0.000     2.463     2.454
 150   7 N     -0.148  1.229  3.919  0.000    24.190     7.305
 151   6 C     -0.028  1.078  2.950  0.000    21.095     6.542
 152   6 C      0.264  1.034  2.702  0.000    22.540     7.776
 153   8 O     -0.455  1.739  4.716  0.000    22.807     6.403
 154   6 C     -0.089  1.055  3.035  0.000    22.197     6.706
 155   6 C      0.001  1.077  2.922  0.000    28.007     8.681
 156   6 C     -0.052  1.083  2.969  0.000    29.296     8.876
 157   6 C     -0.044  1.082  2.962  0.000    29.094     8.845
 158   6 C     -0.031  1.082  2.949  0.000    28.766     8.795
 159   6 C     -0.029  1.081  2.948  0.000    28.731     8.790
 160   6 C     -0.029  1.082  2.948  0.000    28.736     8.791
 161   1 H      0.310  0.690  0.000  0.000     0.683     1.295
 162   1 H      0.301  0.699  0.000  0.000     0.709     1.319
 163   1 H      0.311  0.689  0.000  0.000     0.680     1.292
 164   1 H      0.124  0.876  0.000  0.000     1.578     1.964
 165   1 H      0.083  0.917  0.000  0.000     1.953     2.185
 166   1 H      0.079  0.921  0.000  0.000     1.992     2.207
 167   1 H      0.064  0.936  0.000  0.000     2.147     2.291
 168   1 H      0.043  0.957  0.000  0.000     2.407     2.426
 169   1 H      0.047  0.953  0.000  0.000     2.354     2.399
 170   1 H      0.029  0.971  0.000  0.000     2.600     2.521
 171   1 H      0.036  0.964  0.000  0.000     2.505     2.475
 172   7 N     -0.154  1.242  3.913  0.000    24.340     7.327
 173   6 C      0.008  1.066  2.926  0.000    20.438     6.435
 174   6 C      0.270  1.042  2.688  0.000    22.445     7.759
 175   8 O     -0.486  1.759  4.727  0.000    23.476     6.496
 176   6 C     -0.071  1.046  3.025  0.000    21.854     6.654
 177   6 C      0.057  1.060  2.883  0.000    26.391     8.396
 178   7 N     -0.175  1.378  3.797  0.000    24.820     7.399
 179   6 C     -0.027  1.070  2.956  0.000    28.627     8.776
 180   6 C      0.077  1.060  2.864  0.000    26.139     8.375
 181   7 N     -0.043  1.225  3.818  0.000    22.063     6.976
 182   1 H      0.213  0.787  0.000  0.000     1.042     1.599
 183   1 H      0.107  0.893  0.000  0.000     1.723     2.052
 184   1 H      0.065  0.935  0.000  0.000     2.141     2.288
 185   1 H      0.069  0.931  0.000  0.000     2.096     2.264
 186   1 H      0.115  0.885  0.000  0.000     1.651     2.009
 187   1 H      0.083  0.917  0.000  0.000     1.953     2.185
 188   1 H      0.242  0.758  0.000  0.000     0.914     1.497
 189   7 N     -0.180  1.249  3.932  0.000    24.905     7.412
 190   6 C      0.019  1.062  2.919  0.000    20.254     6.407
 191   6 C      0.285  1.043  2.672  0.000    22.174     7.711
 192   8 O     -0.490  1.756  4.734  0.000    23.568     6.509
 193   6 C     -0.066  1.049  3.017  0.000    21.763     6.641
 194   6 C     -0.109  1.061  3.048  0.000    22.570     6.763
 195   6 C      0.292  1.034  2.674  0.000    22.052     7.689
 196   8 O     -0.510  1.762  4.747  0.000    23.999     6.568
 197   7 N     -0.293  1.267  4.026  0.000    27.545     7.795
 198   1 H      0.237  0.763  0.000  0.000     0.936     1.516
 199   1 H      0.083  0.917  0.000  0.000     1.947     2.182
 200   1 H      0.072  0.928  0.000  0.000     2.066     2.248
 201   1 H      0.053  0.947  0.000  0.000     2.284     2.363
 202   1 H      0.078  0.922  0.000  0.000     1.996     2.209
 203   1 H      0.096  0.904  0.000  0.000     1.824     2.112
 204   1 H      0.240  0.760  0.000  0.000     0.923     1.505
 205   1 H      0.232  0.768  0.000  0.000     0.959     1.534
 206   7 N     -0.192  1.258  3.933  0.000    25.162     7.450
 207   6 C      0.022  1.066  2.911  0.000    20.200     6.399
 208   6 C      0.298  1.037  2.665  0.000    21.940     7.670
 209   8 O     -0.510  1.761  4.749  0.000    24.008     6.569
 210   6 C     -0.018  1.065  2.954  0.000    20.867     6.497
 211   6 C     -0.102  1.035  3.067  0.000    22.504     6.764
 212   6 C     -0.126  1.044  3.082  0.000    22.964     6.832
 213   1 H      0.225  0.775  0.000  0.000     0.985     1.555
 214   1 H      0.055  0.945  0.000  0.000     2.260     2.351
 215   1 H      0.057  0.943  0.000  0.000     2.239     2.340
 216   1 H      0.060  0.940  0.000  0.000     2.200     2.319
 217   1 H      0.026  0.974  0.000  0.000     2.646     2.544
 218   1 H      0.033  0.967  0.000  0.000     2.546     2.495
 219   1 H      0.070  0.930  0.000  0.000     2.086     2.258
 220   1 H      0.048  0.952  0.000  0.000     2.351     2.398
 221   1 H      0.058  0.942  0.000  0.000     2.227     2.334
 222   7 N     -0.187  1.244  3.944  0.000    25.062     7.435
 223   6 C      0.060  1.049  2.891  0.000    19.545     6.290
 224   6 C      0.272  1.044  2.683  0.000    22.395     7.749
 225   8 O     -0.519  1.748  4.771  0.000    24.200     6.596
 226   6 C      0.043  1.050  2.906  0.000    19.846     6.342
 227  16 S     -0.565  1.950  4.594  0.022   166.829    21.740
 228   1 H      0.209  0.791  0.000  0.000     1.063     1.615
 229   1 H      0.025  0.975  0.000  0.000     2.665     2.553
 230   1 H      0.036  0.964  0.000  0.000     2.505     2.475
 231   1 H      0.005  0.995  0.000  0.000     2.981     2.700
 232   7 N     -0.176  1.248  3.928  0.000    24.816     7.399
 233   6 C      0.023  1.068  2.909  0.000    20.190     6.398
 234   6 C      0.274  1.041  2.685  0.000    22.366     7.744
 235   8 O     -0.525  1.753  4.772  0.000    24.345     6.615
 236   6 C     -0.011  1.061  2.950  0.000    20.735     6.476
 237   6 C     -0.111  1.038  3.073  0.000    22.673     6.790
 238   6 C     -0.119  1.044  3.075  0.000    22.824     6.811
 239   1 H      0.219  0.781  0.000  0.000     1.014     1.577
 240   1 H      0.072  0.928  0.000  0.000     2.069     2.249
 241   1 H      0.046  0.954  0.000  0.000     2.375     2.410
 242   1 H      0.074  0.926  0.000  0.000     2.037     2.232
 243   1 H      0.017  0.983  0.000  0.000     2.784     2.609
 244   1 H      0.047  0.953  0.000  0.000     2.364     2.404
 245   1 H      0.081  0.919  0.000  0.000     1.968     2.194
 246   1 H      0.045  0.955  0.000  0.000     2.379     2.412
 247   1 H      0.039  0.961  0.000  0.000     2.457     2.451
 248   7 N     -0.181  1.255  3.926  0.000    24.925     7.415
 249   6 C     -0.019  1.059  2.959  0.000    20.991     6.538
 250   6 C      0.374  1.023  2.604  0.000    20.666     7.439
 251   8 O     -0.631  1.768  4.863  0.000    26.889     6.952
 252   8 O     -0.625  1.762  4.863  0.000    26.735     6.932
 253   1 H      0.217  0.783  0.000  0.000     1.025     1.586
 254   1 H      0.028  0.972  0.000  0.000     2.610     2.527
 255   1 H      0.034  0.966  0.000  0.000     2.526     2.485
 256  30 Zn     0.277  1.193  0.530  0.000   121.864    21.564

 Mol. C6AA /au·bohr⁶  :     686613.865265
 Mol. C8AA /au·bohr⁸  :   16393489.527308
 Mol. α(0) /au        :       1253.287085

 
molecular dipole:
                 x           y           z       tot (Debye)
 q only:      -37.197     -24.482       5.647
   full:      -35.199     -22.131       5.837     106.721
molecular quadrupole (traceless):
                xx          xy          yy          xz          yz          zz
 q only:    -3242.172   -5976.661   -1240.515   -3083.850   -1943.918    4482.687
  q+dip:    -3197.048   -5568.728   -1032.865   -2886.924   -1678.816    4229.913
   full:    -3194.619   -5566.237   -1034.229   -2885.812   -1680.507    4228.848
speedup  1.97
cpu  time for grad    5.01 s
wall time for grad    2.55 s

SCC energy    :    -419.6257438
rep           :       4.7245732
ES            :       1.7123945
AES           :      -0.1183360
AXC           :       0.1234463
disp          :      -0.3640851
XB            :       0.0000000
fix           :       0.0000000
Gborn         :       0.0000000
Gsasa         :       0.0000000
Ghb           :       0.0000000
Gshift        :       0.0000000
Gsolv         :      -0.5580258     -350.17
Etot ala COSMO:    -419.6257438
grad norm     :       0.0281673
total E       :    -414.8682094
atomizationE  :      73.3536846    46030.13
(atE without considering molecular charge,
 total energy contains solvation terms)
H-L gap (eV)  :          2.5731

------------------------------------------------------------------------
 * finished run on 2019/04/15 at 15:10:18.181     
------------------------------------------------------------------------
 total:
 * wall-time:     0 d,  0 h,  0 min,  2.820 sec
 *  cpu-time:     0 d,  0 h,  0 min,  5.502 sec
 * ratio c/w:     1.951 speedup
 SCF:
 * wall-time:     0 d,  0 h,  0 min,  2.747 sec
 *  cpu-time:     0 d,  0 h,  0 min,  5.408 sec
 * ratio c/w:     1.969 speedup

