      -----------------------------------------------------------      
     |                   =====================                   |     
     |                           x T B                           |     
     |                   =====================                   |     
     |                         S. Grimme                         |     
     |          Mulliken Center for Theoretical Chemistry        |     
     |                    University of Bonn                     |     
     |                 Version 6.0.1 (SAW181210)                 |     
      -----------------------------------------------------------      

   This program is distributed in the hope that it will be useful,
   but WITHOUT ANY WARRANTY; without even the implied warranty of
   MERCHANTABILITY or FITNESS FOR A PARTICULAR PURPOSE.
   
   FOR NON-COMMERCIAL, ACADEMIA USE ONLY.
   
   Cite this work as:
   S. Grimme, C. Bannwarth, P. Shushkov, J. Comput. Theory Chem., 2017,
   13, 1989-2009.
   C. Bannwarth, S. Ehlert and S. Grimme., ChemRxiv, 2018, preprint.
   http://doi.org/10.26434/chemrxiv.7246238.v1
   
   for sTDA-xTB:
   S. Grimme and C. Bannwarth, J. Chem. Phys., 2016, 145, 054103.
   
   in the mass-spec context:
   V. Asgeirsson, C. Bauer and S. Grimme, Chem. Sci., 2017, 8, 4879.
   
   if GBSA is used:
   P. Shushkov, F. März and S. Grimme, unpublished.
   
   for ANC optimizer:
   S. Grimme, unpublished.
   Rational Function algorithm used in ANCopt:
   F. Eckert, P. Pulay, H.-J. Werner, J. Comput. Chem., 1997, 18, 1473.
   
   with help from (in alphabetical order)
   C. Bannwarth, F. Bohle, G. Brandenburg, E. Caldeweyher, M. Checinski,
   S. Dohm, S. Ehlert, S. Ehrlich, F. März, H. Neugebauer, J. Pisarek,
   P. Pracht, P. Shushkov, and S. Spicher.
   
 * started run on 2019/05/12 at 13:13:11.662     
========================================================================
 # omp threads = 2
========================================================================
number of atoms            : 227
number of electrons        : 606
charge                     : 1
spin                       : .0
first test random number   : .9315

########################################################################
# WARNING! Please study the warnings concerning your input carefully
#  - Process number higher than OMP_NUM_THREADS, I hope you know what you are doing.
########################################################################

           ------------------------------------------------- 
          |                 G F N 2 - x T B                 |
          | Geometry, Frequencies, Noncovalent interactions |
          |            JCTC 2018 parametrisation            |
           ------------------------------------------------- 
 
      method parameters     
 k(s)        :  1.8500
 k(p)        :  2.2300
 k(d)        :  2.2300
 k(f)        :  2.0000
 kEN (H0ij)  : -2.0000
 D4 a1       :  0.5200
 D4 a2       :  5.0000
 D4 s6       :  1.0000
 D4 s8       :  2.7000
 D4 s9       :  5.0000
 alphaj      :  2.0000

 Solvent             : h2o
 Using internal parameter file: .param_gbsa2_h2o
 Gsolv ref. state (COSMO-RS): gsolv [1 M gas/solution]
 temperature (mdtemp)       :    298.150000000000     
 dielectric constant        :    80.2000000000000     
 rho                        :    1.00000000000000     
 mass                       :    18.0000000000000     
 surface tension            :    15.5689454083859     
 probe radius               :   0.975313790000000     
 vdW radii scaling          :    1.00000000000000     
 Gshift (Eh)                :   1.857443126794793E-003
 c1                         :    1.55243817000000     
 soset                      :   0.130326360000000     
 HB correction              :  T

            Z     q(EN)     CN     RAES       Cart. coordinates
     1  N   5.0   -0.20    3.19    1.95    52.57274    46.79659   160.70366
     2  C   4.0    0.03    4.24    4.07    51.59657    44.25174   160.86122
     3  C   4.0    0.09    3.23    3.04    49.25602    43.89410   159.19695
     4  O   6.0   -0.28    1.12    1.80    48.99389    42.00042   157.89313
     5  C   4.0   -0.04    4.31    4.22    50.94576    43.54282   163.60606
     6  C   4.0   -0.00    3.57    3.15    49.81617    40.93220   163.78043
     7  C   4.0   -0.02    3.47    3.10    51.16910    38.81620   163.00503
     8  C   4.0   -0.03    3.46    3.10    47.38279    40.58511   164.69888
     9  C   4.0   -0.02    3.37    3.07    50.10462    36.42926   163.09875
    10  C   4.0   -0.03    3.37    3.07    46.33471    38.19191   164.85139
    11  C   4.0   -0.03    3.37    3.07    47.68228    36.10592   164.03512
    12  H   1.0    0.09    1.02    1.43    51.51539    48.14389   161.57124
    13  H   1.0    0.06    1.06    1.44    53.07001    42.98748   160.15980
    14  H   1.0    0.05    1.03    1.43    52.67774    43.63826   164.72603
    15  H   1.0    0.05    1.03    1.43    49.62786    44.93885   164.35932
    16  H   1.0    0.06    1.03    1.43    53.07685    39.03655   162.32065
    17  H   1.0    0.05    1.03    1.43    46.29690    42.20084   165.32223
    18  H   1.0    0.07    1.03    1.43    51.14709    34.81292   162.41795
    19  H   1.0    0.05    1.03    1.43    44.45090    37.96369   165.60886
    20  H   1.0    0.06    1.03    1.43    46.85294    34.24636   164.14809
    21  N   5.0   -0.13    3.45    2.04    44.01074    44.82501   153.58003
    22  C   4.0    0.03    4.38    4.34    43.82604    45.54775   150.92551
    23  C   4.0    0.09    3.20    3.04    42.36684    48.04864   150.68554
    24  O   6.0   -0.27    1.13    1.80    41.38168    49.09520   152.48902
    25  C   4.0   -0.04    4.31    4.22    42.35661    43.38565   149.67774
    26  C   4.0   -0.04    4.26    4.13    40.64589    42.48907   151.82799
    27  C   4.0    0.00    4.23    4.07    42.24319    42.82950   154.22988
    28  H   1.0    0.05    1.04    1.43    45.74181    45.79327   150.19484
    29  H   1.0    0.04    1.02    1.43    41.27920    44.02019   148.04802
    30  H   1.0    0.05    1.02    1.43    43.65200    41.88626   149.11897
    31  H   1.0    0.05    1.03    1.43    38.98473    43.70021   151.95324
    32  H   1.0    0.03    1.02    1.43    40.04587    40.53916   151.59373
    33  H   1.0    0.05    1.02    1.43    41.05053    43.35899   155.82560
    34  H   1.0    0.05    1.02    1.43    43.29087    41.10777   154.70218
    35  N   5.0   -0.20    3.19    1.95    24.42194    45.40902   158.52637
    36  C   4.0    0.03    4.23    4.05    25.84227    43.13087   159.06590
    37  C   4.0    0.08    3.22    3.04    25.21294    41.01685   157.18837
    38  O   6.0   -0.30    1.17    1.80    26.87499    39.67587   156.29304
    39  C   4.0   -0.05    4.27    4.14    25.31167    42.23415   161.75554
    40  C   4.0   -0.04    4.21    4.03    27.07758    40.06089   162.47450
    41  C   4.0   -0.00    4.22    4.04    26.97949    39.37089   165.26959
    42  N   5.0   -0.13    3.43    2.03    27.85097    41.48764   166.77505
    43  C   4.0    0.10    3.35    3.06    28.20227    41.42724   169.24254
    44  N   5.0   -0.17    3.26    1.97    27.77648    39.32733   170.55698
    45  N   5.0   -0.18    3.24    1.96    28.86648    43.56286   170.44402
    46  H   1.0    0.09    1.02    1.43    23.25915    46.09894   159.88758
    47  H   1.0    0.04    1.05    1.44    27.86928    43.51689   158.82410
    48  H   1.0    0.04    1.03    1.43    25.54957    43.84980   163.01433
    49  H   1.0    0.05    1.03    1.43    23.34366    41.62676   161.87147
    50  H   1.0    0.06    1.03    1.43    26.59223    38.38860   161.37713
    51  H   1.0    0.05    1.03    1.43    29.02463    40.52782   161.98643
    52  H   1.0    0.05    1.02    1.43    25.04605    38.88930   165.81995
    53  H   1.0    0.07    1.05    1.44    28.23021    37.75437   165.54684
    54  H   1.0    0.08    1.08    1.44    28.31401    43.08659   165.83394
    55  H   1.0    0.10    1.04    1.43    27.68163    37.64273   169.67361
    56  H   1.0    0.10    1.03    1.43    28.21253    39.24775   172.40960
    57  H   1.0    0.09    1.03    1.43    28.80351    45.22868   169.51747
    58  H   1.0    0.09    1.03    1.43    28.78661    43.62336   172.34803
    59  N   5.0   -0.18    3.25    1.97    28.85548    40.44884   151.41120
    60  C   4.0    0.03    4.32    4.23    31.45614    39.69640   151.75562
    61  C   4.0    0.15    3.39    3.07    31.63836    36.82972   152.21393
    62  O   6.0   -0.27    1.23    1.80    29.85198    35.48154   152.74984
    63  C   4.0   -0.05    4.34    4.28    32.63699    41.18081   153.94073
    64  C   4.0   -0.04    4.06    3.73    32.60876    44.01293   153.41975
    65  S   6.0   -0.03    2.46    3.10    34.40737    45.69463   155.87173
    66  C   4.0   -0.06    3.88    3.43    32.21693    48.18804   156.69459
    67  H   1.0    0.13    1.07    1.44    27.73689    40.13555   152.93737
    68  H   1.0    0.04    1.05    1.44    32.42883    40.12272   149.97327
    69  H   1.0    0.06    1.03    1.43    31.54579    40.78228   155.64519
    70  H   1.0    0.04    1.04    1.43    34.57593    40.55185   154.24455
    71  H   1.0    0.04    1.06    1.44    33.47652    44.43132   151.59891
    72  H   1.0    0.04    1.07    1.44    30.68283    44.73234   153.44285
    73  H   1.0    0.05    1.05    1.44    32.85299    48.99272   158.46871
    74  H   1.0    0.05    1.04    1.43    32.23292    49.63273   155.23682
    75  H   1.0    0.04    1.04    1.43    30.35334    47.36159   156.89132
    76  N   5.0   -0.15    3.44    2.04    33.98934    35.87683   151.89516
    77  C   4.0    0.03    4.48    4.51    34.35423    33.24243   151.19837
    78  C   4.0    0.15    3.41    3.08    34.97347    31.60453   153.50565
    79  O   6.0   -0.33    1.32    1.80    37.04883    31.63087   154.51869
    80  C   4.0   -0.02    4.25    4.10    36.36841    33.04210   149.09218
    81  C   4.0   -0.07    4.12    3.83    38.98841    33.94353   149.90569
    82  C   4.0   -0.07    4.11    3.83    36.50849    30.33069   148.11327
    83  H   1.0    0.07    1.07    1.44    35.40645    37.06668   151.43763
    84  H   1.0    0.05    1.07    1.44    32.53918    32.59334   150.42979
    85  H   1.0    0.04    1.06    1.44    35.70010    34.25673   147.55269
    86  H   1.0    0.04    1.00    1.43    40.23873    33.94283   148.27695
    87  H   1.0    0.04    1.00    1.43    38.94466    35.84917   150.67276
    88  H   1.0    0.06    1.01    1.43    39.75868    32.69562   151.33786
    89  H   1.0    0.05    1.00    1.43    37.80567    30.23302   146.52400
    90  H   1.0    0.05    1.00    1.43    37.19156    29.07137   149.58368
    91  H   1.0    0.04    1.00    1.43    34.66721    29.67489   147.48025
    92  N   5.0   -0.15    3.43    2.04    33.05470    30.15688   154.32461
    93  C   4.0    0.03    4.34    4.27    33.24239    28.25733   156.31667
    94  C   4.0    0.15    3.40    3.08    33.89286    29.41138   158.92610
    95  O   6.0   -0.30    1.26    1.80    34.94556    28.16473   160.56136
    96  C   4.0   -0.04    4.35    4.29    35.15688    26.13750   155.72186
    97  C   4.0   -0.02    4.15    3.90    34.17837    23.90117   154.15167
    98  C   4.0   -0.07    4.09    3.79    33.97164    24.54937   151.34543
    99  C   4.0   -0.07    4.10    3.81    35.95282    21.64315   154.50234
   100  H   1.0    0.09    1.07    1.44    31.35757    30.36353   153.47920
   101  H   1.0    0.04    1.05    1.44    31.36387    27.41562   156.52323
   102  H   1.0    0.05    1.03    1.43    36.78237    26.97394   154.77410
   103  H   1.0    0.06    1.05    1.44    35.77190    25.41272   157.55257
   104  H   1.0    0.05    1.05    1.44    32.30604    23.36347   154.85109
   105  H   1.0    0.05    1.00    1.43    33.18553    22.96335   150.30264
   106  H   1.0    0.05    1.00    1.43    32.75569    26.17809   151.05163
   107  H   1.0    0.04    1.00    1.43    35.82874    24.96315   150.57056
   108  H   1.0    0.05    1.00    1.43    35.29540    20.04272   153.39426
   109  H   1.0    0.05    1.00    1.43    37.85403    22.11455   153.88103
   110  H   1.0    0.05    1.00    1.43    36.02770    21.06964   156.47418
   111  N   5.0   -0.14    3.46    2.06    33.18082    31.81433   159.31441
   112  C   4.0    0.04    4.42    4.41    34.07064    33.22054   161.49734
   113  C   4.0    0.16    3.40    3.08    31.99450    33.62523   163.48438
   114  O   6.0   -0.31    1.28    1.80    31.13962    35.71209   163.95283
   115  C   4.0   -0.03    4.28    4.15    35.15434    35.78574   160.69868
   116  C   4.0   -0.04    4.16    3.92    37.27157    35.62622   158.74673
   117  C   4.0   -0.01    4.17    3.94    39.88112    34.90478   159.79243
   118  N   5.0   -0.13    3.42    2.03    39.94979    32.65400   161.35630
   119  C   4.0    0.11    3.35    3.06    40.25835    30.25704   160.65396
   120  N   5.0   -0.17    3.25    1.97    40.31452    29.59459   158.22436
   121  N   5.0   -0.16    3.27    1.97    40.68405    28.55247   162.44428
   122  H   1.0    0.09    1.07    1.44    32.23709    32.78909   157.97085
   123  H   1.0    0.08    1.08    1.44    35.50575    32.04020   162.40475
   124  H   1.0    0.05    1.03    1.43    33.59943    36.90238   159.93031
   125  H   1.0    0.05    1.03    1.43    35.81641    36.73801   162.40164
   126  H   1.0    0.07    1.06    1.44    36.74579    34.30093   157.27133
   127  H   1.0    0.04    1.03    1.43    37.49096    37.48140   157.87968
   128  H   1.0    0.05    1.03    1.43    41.17890    34.64709   158.21020
   129  H   1.0    0.04    1.03    1.43    40.58659    36.44430   160.96803
   130  H   1.0    0.09    1.12    1.45    39.95250    32.92904   163.24030
   131  H   1.0    0.11    1.07    1.44    39.45491    30.68193   156.89741
   132  H   1.0    0.09    1.04    1.43    40.45699    27.73856   157.82652
   133  H   1.0    0.13    1.09    1.44    40.67533    29.12067   164.29538
   134  H   1.0    0.10    1.03    1.43    40.65370    26.69477   162.05028
   135  N   5.0   -0.14    3.45    2.05    31.17000    31.52583   164.65533
   136  C   4.0    0.04    4.34    4.27    29.27582    31.68080   166.62108
   137  C   4.0    0.15    3.38    3.07    30.29616    31.66694   169.34807
   138  O   6.0   -0.29    1.21    1.80    29.10356    32.69638   171.03862
   139  C   4.0   -0.06    4.10    3.80    27.32163    29.56676   166.35817
   140  H   1.0    0.09    1.06    1.44    32.02487    29.85606   164.31680
   141  H   1.0    0.06    1.07    1.44    28.32924    33.50348   166.36081
   142  H   1.0    0.06    1.00    1.43    25.89725    29.77028   167.82389
   143  H   1.0    0.05    1.00    1.43    26.41147    29.68556   164.52229
   144  H   1.0    0.05    1.00    1.43    28.21527    27.72947   166.56183
   145  N   5.0   -0.15    3.50    2.08    32.42672    30.33129   169.72786
   146  C   4.0    0.04    4.44    4.44    33.49471    29.91047   172.20673
   147  C   4.0    0.15    3.40    3.08    35.60896    31.76037   172.92736
   148  O   6.0   -0.29    1.28    1.80    37.14008    31.29970   174.60864
   149  C   4.0    0.06    4.23    4.06    34.39909    27.12750   172.44365
   150  O   6.0   -0.23    2.12    1.84    35.25672    26.60963   174.90128
   151  C   4.0   -0.05    4.07    3.75    36.39320    26.46656   170.45645
   152  H   1.0    0.11    1.11    1.44    33.66180    30.14605   168.26410
   153  H   1.0    0.07    1.06    1.44    31.98052    30.22748   173.59415
   154  H   1.0    0.06    1.04    1.43    32.75087    25.89493   172.17824
   155  H   1.0    0.16    1.07    1.44    36.47414    27.91832   175.34664
   156  H   1.0    0.06    1.00    1.43    37.13555    24.59834   170.87445
   157  H   1.0    0.06    1.00    1.43    35.58310    26.45272   168.57219
   158  H   1.0    0.07    1.00    1.43    37.94689    27.81421   170.49852
   159  N   5.0   -0.12    3.54    2.11    35.53614    33.97453   171.72976
   160  C   4.0    0.04    4.40    4.38    37.31979    36.00658   172.15841
   161  C   4.0    0.15    3.45    3.09    35.85698    38.44037   171.58837
   162  O   6.0   -0.29    1.25    1.80    34.57122    38.67197   169.68143
   163  C   4.0   -0.03    4.23    4.06    39.68619    35.78495   170.47573
   164  C   4.0   -0.03    4.19    3.97    39.03130    35.37723   167.68727
   165  C   4.0    0.24    3.15    3.03    38.56274    32.54432   167.06659
   166  O   6.0   -0.31    1.26    1.80    40.48833    31.17403   166.89584
   167  O   6.0   -0.31    1.25    1.80    36.35607    31.83100   166.65571
   168  H   1.0    0.11    1.09    1.44    34.47686    34.16227   170.14721
   169  H   1.0    0.06    1.06    1.44    37.89117    35.91355   174.14409
   170  H   1.0    0.05    1.02    1.43    40.80050    37.50737   170.70562
   171  H   1.0    0.07    1.03    1.43    40.82675    34.19109   171.13430
   172  H   1.0    0.07    1.03    1.43    37.36300    36.47169   167.16723
   173  H   1.0    0.04    1.03    1.43    40.63509    35.98260   166.53708
   174  N   5.0   -0.13    3.44    2.04    35.94649    40.18802   173.42618
   175  C   4.0    0.04    4.37    4.33    34.64081    42.56205   173.13678
   176  C   4.0    0.15    3.40    3.08    36.35795    44.61027   172.04308
   177  O   6.0   -0.28    1.21    1.80    38.66213    44.58218   172.16345
   178  C   4.0   -0.06    4.11    3.82    33.57495    43.48333   175.65819
   179  H   1.0    0.09    1.06    1.44    37.29201    40.06248   174.76849
   180  H   1.0    0.06    1.08    1.44    33.13911    42.19368   171.76242
   181  H   1.0    0.05    1.00    1.43    32.47908    45.19863   175.39702
   182  H   1.0    0.05    1.00    1.43    32.40287    42.02037   176.49572
   183  H   1.0    0.06    1.00    1.43    35.11161    43.90212   176.95835
   184  N   5.0   -0.13    3.55    2.11    35.01024    46.46831   170.97053
   185  C   4.0    0.04    4.33    4.26    36.04552    48.91605   170.43130
   186  C   4.0    0.08    3.25    3.04    34.06848    50.84552   171.28464
   187  O   6.0   -0.28    1.17    1.80    31.85668    50.21679   171.50932
   188  C   4.0   -0.03    4.32    4.23    36.62039    49.16397   167.58926
   189  C   4.0   -0.00    3.59    3.16    34.29038    48.91695   165.99003
   190  C   4.0   -0.03    3.47    3.10    33.48235    46.55999   165.16959
   191  C   4.0   -0.03    3.47    3.10    32.90963    51.04469   165.31261
   192  C   4.0   -0.04    3.38    3.07    31.36021    46.34911   163.65732
   193  C   4.0   -0.03    3.37    3.07    30.77397    50.83136   163.82046
   194  C   4.0   -0.04    3.38    3.07    30.00090    48.47916   162.98247
   195  H   1.0    0.10    1.10    1.44    33.09454    46.48021   171.08173
   196  H   1.0    0.06    1.05    1.44    37.80460    49.16926   171.49592
   197  H   1.0    0.05    1.03    1.43    37.52455    50.98914   167.26585
   198  H   1.0    0.05    1.03    1.43    37.95676    47.66398   167.12143
   199  H   1.0    0.06    1.03    1.43    34.54301    44.89732   165.69285
   200  H   1.0    0.06    1.03    1.43    33.51398    52.86999   166.00395
   201  H   1.0    0.05    1.03    1.43    30.82682    44.51662   162.94283
   202  H   1.0    0.06    1.03    1.43    29.72894    52.50381   163.30527
   203  H   1.0    0.05    1.03    1.43    28.33694    48.30535   161.82060
   204  N   5.0   -0.19    3.23    1.96    52.50451    26.26965   156.48766
   205  C   4.0    0.04    4.21    4.02    52.10655    26.79010   153.83659
   206  C   4.0    0.10    3.18    3.03    54.09732    28.62765   152.72409
   207  O   6.0   -0.26    1.13    1.80    53.65783    29.87590   150.83210
   208  C   4.0   -0.02    4.30    4.21    49.42631    27.83352   153.41251
   209  C   4.0    0.16    3.24    3.04    48.82076    30.11226   155.07014
   210  O   6.0   -0.29    1.27    1.80    49.68124    30.40993   157.20492
   211  N   5.0   -0.18    3.18    1.95    47.24204    31.78384   154.02838
   212  H   1.0    0.12    1.07    1.44    51.81860    27.63438   157.66369
   213  H   1.0    0.05    1.05    1.44    52.30986    24.99605   152.81448
   214  H   1.0    0.06    1.03    1.43    49.23599    28.34787   151.42733
   215  H   1.0    0.05    1.03    1.43    48.04744    26.36272   153.85680
   216  H   1.0    0.10    1.03    1.43    46.66178    33.27444   155.06508
   217  H   1.0    0.09    1.03    1.43    46.49154    31.52819   152.30155
   218  H   1.0    0.10    1.07    1.44    54.11243    46.85962   161.42335
   219  H   1.0    0.06    1.04    1.44    47.90956    45.21959   159.16262
   220  H   1.0    0.10    1.10    1.44    45.64824    44.72383   154.02827
   221  H   1.0    0.06    1.05    1.44    42.19514    48.88435   148.99937
   222  H   1.0    0.09    1.07    1.44    25.49774    46.68119   158.18462
   223  H   1.0    0.06    1.04    1.44    23.42016    40.71267   156.67408
   224  H   1.0    0.09    1.08    1.44    28.78608    42.11487   151.07640
   225  H   1.0    0.06    1.04    1.43    34.58453    52.62432   171.65967
   226  H   1.0    0.10    1.07    1.44    51.73059    24.81317   156.90271
   227  H   1.0    0.07    1.04    1.44    55.78373    28.81075   153.55688

  Z AO/shell   Hii/eV     exponent
  1     Wed Apr 25 08:07:45 CEST 2018   EN: 2.200 GM2: 0.406  GM3: 0.0800  RAES: 1.40
     1s    -10.707211    1.230000
  6     Wed Apr 25 08:07:45 CEST 2018   EN: 2.550 GM2: 0.538  GM3: 0.1500  RAES: 3.00
     2s    -13.970922    2.096432
     2p    -10.063292    1.800000
  7     Wed Apr 25 08:07:45 CEST 2018   EN: 3.040 GM2: 0.461  GM3:-0.0640  RAES: 1.90
     2s    -16.686243    2.339881
     2p    -12.523956    2.014332
  8     Wed Apr 25 08:07:45 CEST 2018   EN: 3.440 GM2: 0.452  GM3:-0.0517  RAES: 1.80
     2s    -20.229985    2.439742
     2p    -15.503117    2.137023
 16     Tue Apr 24 11:44:34 CEST 2018   EN: 2.580 GM2: 0.340  GM3:-0.0502  RAES: 3.10
     3s    -20.029654    1.981333
     3p    -11.377694    2.025643
     3d     -0.420282    1.702555
 no old-style atom pair restraining (fixing) potential

molecular fragmentation (1/2 indicates fragments):
111111111111111111112222222222222222222222222222222222222222222222222222
222222222222222222222222222222222222222222222222222222222222222222222222
222222222222222222222222222222222222222222222222222222222222222222222222
21122222222
# atoms in fragment 1/2:    22   205
 fragment masses (1/2) :      149.19     1395.70
CMA distance (Bohr)    :  14.714
constraining FC (au)   :  0.0500
           ------------------------------------------------- 
          |        Self-Consistent Charge Iterations        |
           ------------------------------------------------- 

 Ncao       : 557
 Nao        : 556
 Nshell     : 336
 Nel        : 606
 T(el)      :   500.0
 intcut     :    35.0
 scfconv/Eh :  0.100E-06
   qconv/e  :  0.100E-04
 intneglect :  0.100E-08
 broydamp   :      0.400
 iter      E             dE          RMSdq      gap      omega  full diag
   1   -344.6401991 -0.344640E+03  0.462E+00    2.95       0.0  T
   2   -345.4345069 -0.794308E+00  0.217E+00    1.34       1.0  T
   3   -345.4818451 -0.473382E-01  0.122E+00    1.38       1.0  T
   4   -345.5362031 -0.543580E-01  0.239E-01    0.89       1.0  T
   5   -345.5389042 -0.270110E-02  0.114E-01    1.06       1.0  T
   6   -345.5394744 -0.570265E-03  0.481E-02    1.05       1.0  T
   7   -345.5395996 -0.125166E-03  0.208E-02    1.03       1.0  T
   8   -345.5396172 -0.175993E-04  0.102E-02    1.03       1.0  T
   9   -345.5396223 -0.506795E-05  0.438E-03    1.03       1.5  T
  10   -345.5396232 -0.931161E-06  0.180E-03    1.03       3.7  T
  11   -345.5396233 -0.121996E-06  0.826E-04    1.03       8.0  T
  12   -345.5396234 -0.250202E-07  0.367E-04    1.03      18.1  T
  13   -345.5396234 -0.103040E-07  0.170E-04    1.03      39.0  T
  14   -345.5396234 -0.104222E-08  0.805E-05    1.03      82.5  T
  15   -345.5396234 -0.282455E-09  0.346E-05    1.03     192.1  T
speedup  1.76
cpu  time for SCC    5.81 s
wall time for SCC    3.31 s

   *** convergence criteria satisfied after 15 iterations ***

          eigenvalues
 #    :         291        292        293        294        295        296        297        298
 occ. :        2.000      2.000      2.000      2.000      2.000      2.000      2.000      2.000
 eps  :       -10.903    -10.875    -10.851    -10.808    -10.779    -10.779    -10.271    -10.134
 #    :         299        300        301        302        303        304        305        306
 occ. :        2.000      2.000      2.000      2.000      2.000      0.000      0.000      0.000
 eps  :       -10.125     -9.940     -9.851     -9.616     -9.211     -8.181     -7.803     -7.722
 #    :         307        308        309        310        311        312        313        314
 occ. :        0.000      0.000      0.000      0.000      0.000      0.000      0.000      0.000
 eps  :        -7.658     -7.434     -6.550     -6.529     -6.377     -6.346     -6.316     -6.272


   #   Z            q   n(s)   n(p)   n(d)      C6AA      α(0)
   1   7 N     -0.392  1.326  4.065  0.000    30.147     8.154
   2   6 C      0.040  1.056  2.904  0.000    19.923     6.358
   3   6 C      0.203  1.089  2.708  0.000    23.693     7.972
   4   8 O     -0.372  1.757  4.615  0.000    21.132     6.163
   5   6 C     -0.075  1.059  3.016  0.000    21.922     6.665
   6   6 C      0.007  1.084  2.909  0.000    27.858     8.657
   7   6 C     -0.037  1.080  2.957  0.000    28.916     8.818
   8   6 C     -0.044  1.082  2.963  0.000    29.098     8.846
   9   6 C     -0.030  1.081  2.949  0.000    28.750     8.793
  10   6 C     -0.032  1.079  2.953  0.000    28.800     8.800
  11   6 C     -0.035  1.079  2.956  0.000    28.874     8.812
  12   1 H      0.166  0.834  0.000  0.000     1.297     1.784
  13   1 H      0.064  0.936  0.000  0.000     2.157     2.297
  14   1 H      0.059  0.941  0.000  0.000     2.208     2.324
  15   1 H      0.051  0.949  0.000  0.000     2.313     2.378
  16   1 H      0.033  0.967  0.000  0.000     2.544     2.494
  17   1 H      0.035  0.965  0.000  0.000     2.515     2.480
  18   1 H      0.036  0.964  0.000  0.000     2.499     2.472
  19   1 H      0.025  0.975  0.000  0.000     2.657     2.549
  20   1 H      0.034  0.966  0.000  0.000     2.530     2.487
  21   7 N     -0.271  1.248  4.023  0.000    26.999     7.717
  22   6 C      0.028  1.064  2.908  0.000    20.095     6.380
  23   6 C      0.198  1.088  2.714  0.000    23.779     7.986
  24   8 O     -0.364  1.756  4.608  0.000    20.981     6.141
  25   6 C     -0.065  1.054  3.010  0.000    21.726     6.633
  26   6 C     -0.060  1.052  3.007  0.000    21.624     6.616
  27   6 C      0.011  1.048  2.942  0.000    20.453     6.449
  28   1 H      0.049  0.951  0.000  0.000     2.334     2.389
  29   1 H      0.044  0.956  0.000  0.000     2.392     2.418
  30   1 H      0.059  0.941  0.000  0.000     2.213     2.326
  31   1 H      0.041  0.959  0.000  0.000     2.429     2.437
  32   1 H      0.045  0.955  0.000  0.000     2.382     2.414
  33   1 H      0.043  0.957  0.000  0.000     2.409     2.427
  34   1 H      0.028  0.972  0.000  0.000     2.615     2.529
  35   7 N     -0.392  1.314  4.078  0.000    30.153     8.155
  36   6 C      0.042  1.054  2.903  0.000    19.882     6.351
  37   6 C      0.195  1.092  2.713  0.000    23.843     7.997
  38   8 O     -0.371  1.758  4.613  0.000    21.109     6.160
  39   6 C     -0.082  1.060  3.022  0.000    22.056     6.686
  40   6 C     -0.075  1.049  3.026  0.000    21.924     6.666
  41   6 C     -0.034  1.054  2.980  0.000    21.256     6.578
  42   7 N     -0.124  1.207  3.917  0.000    23.695     7.230
  43   6 C      0.229  1.019  2.752  0.000    23.185     7.884
  44   7 N     -0.232  1.229  4.002  0.000    26.079     7.584
  45   7 N     -0.261  1.239  4.022  0.000    26.771     7.684
  46   1 H      0.174  0.826  0.000  0.000     1.248     1.750
  47   1 H      0.051  0.949  0.000  0.000     2.313     2.379
  48   1 H      0.071  0.929  0.000  0.000     2.072     2.251
  49   1 H      0.065  0.935  0.000  0.000     2.147     2.291
  50   1 H      0.058  0.942  0.000  0.000     2.225     2.332
  51   1 H      0.067  0.933  0.000  0.000     2.118     2.276
  52   1 H      0.085  0.915  0.000  0.000     1.925     2.170
  53   1 H      0.099  0.901  0.000  0.000     1.793     2.094
  54   1 H      0.227  0.773  0.000  0.000     0.978     1.549
  55   1 H      0.230  0.770  0.000  0.000     0.965     1.539
  56   1 H      0.241  0.759  0.000  0.000     0.918     1.501
  57   1 H      0.238  0.762  0.000  0.000     0.930     1.511
  58   1 H      0.243  0.757  0.000  0.000     0.912     1.496
  59   7 N     -0.394  1.325  4.070  0.000    30.220     8.164
  60   6 C      0.031  1.061  2.909  0.000    20.072     6.381
  61   6 C      0.271  1.050  2.679  0.000    22.415     7.753
  62   8 O     -0.462  1.745  4.717  0.000    22.961     6.424
  63   6 C     -0.071  1.056  3.016  0.000    21.832     6.647
  64   6 C     -0.005  1.065  2.940  0.000    20.675     6.475
  65  16 S     -0.226  1.922  4.255  0.049   150.715    20.663
  66   6 C     -0.054  1.052  3.002  0.000    21.618     6.632
  67   1 H      0.177  0.823  0.000  0.000     1.230     1.737
  68   1 H      0.042  0.958  0.000  0.000     2.427     2.436
  69   1 H      0.062  0.938  0.000  0.000     2.181     2.309
  70   1 H      0.046  0.954  0.000  0.000     2.367     2.406
  71   1 H      0.038  0.962  0.000  0.000     2.478     2.462
  72   1 H      0.047  0.953  0.000  0.000     2.357     2.401
  73   1 H      0.068  0.932  0.000  0.000     2.109     2.271
  74   1 H      0.049  0.951  0.000  0.000     2.331     2.388
  75   1 H      0.057  0.943  0.000  0.000     2.231     2.336
  76   7 N     -0.191  1.254  3.937  0.000    25.148     7.448
  77   6 C      0.016  1.068  2.916  0.000    20.311     6.417
  78   6 C      0.273  1.044  2.683  0.000    22.390     7.748
  79   8 O     -0.450  1.723  4.727  0.000    22.705     6.389
  80   6 C     -0.017  1.063  2.954  0.000    20.846     6.494
  81   6 C     -0.124  1.039  3.085  0.000    22.943     6.830
  82   6 C     -0.120  1.040  3.080  0.000    22.853     6.816
  83   1 H      0.198  0.802  0.000  0.000     1.117     1.655
  84   1 H      0.057  0.943  0.000  0.000     2.239     2.340
  85   1 H      0.044  0.956  0.000  0.000     2.399     2.422
  86   1 H      0.053  0.947  0.000  0.000     2.282     2.362
  87   1 H      0.040  0.960  0.000  0.000     2.445     2.445
  88   1 H      0.073  0.927  0.000  0.000     2.056     2.242
  89   1 H      0.056  0.944  0.000  0.000     2.249     2.345
  90   1 H      0.050  0.950  0.000  0.000     2.319     2.381
  91   1 H      0.040  0.960  0.000  0.000     2.443     2.444
  92   7 N     -0.173  1.246  3.928  0.000    24.750     7.389
  93   6 C      0.012  1.069  2.920  0.000    20.397     6.433
  94   6 C      0.270  1.045  2.685  0.000    22.441     7.757
  95   8 O     -0.480  1.748  4.732  0.000    23.339     6.477
  96   6 C     -0.082  1.057  3.025  0.000    22.057     6.686
  97   6 C     -0.014  1.060  2.954  0.000    20.784     6.485
  98   6 C     -0.116  1.041  3.075  0.000    22.784     6.806
  99   6 C     -0.119  1.043  3.076  0.000    22.825     6.812
 100   1 H      0.206  0.794  0.000  0.000     1.078     1.626
 101   1 H      0.081  0.919  0.000  0.000     1.969     2.194
 102   1 H      0.066  0.934  0.000  0.000     2.133     2.284
 103   1 H      0.074  0.926  0.000  0.000     2.043     2.235
 104   1 H      0.033  0.967  0.000  0.000     2.539     2.492
 105   1 H      0.039  0.961  0.000  0.000     2.461     2.453
 106   1 H      0.038  0.962  0.000  0.000     2.480     2.463
 107   1 H      0.045  0.955  0.000  0.000     2.387     2.416
 108   1 H      0.041  0.959  0.000  0.000     2.436     2.441
 109   1 H      0.045  0.955  0.000  0.000     2.380     2.412
 110   1 H      0.038  0.962  0.000  0.000     2.478     2.462
 111   7 N     -0.174  1.242  3.931  0.000    24.756     7.390
 112   6 C      0.011  1.062  2.927  0.000    20.396     6.431
 113   6 C      0.270  1.047  2.683  0.000    22.447     7.758
 114   8 O     -0.453  1.728  4.725  0.000    22.771     6.398
 115   6 C     -0.072  1.050  3.022  0.000    21.880     6.659
 116   6 C     -0.089  1.053  3.036  0.000    22.198     6.708
 117   6 C     -0.017  1.052  2.966  0.000    20.968     6.535
 118   7 N     -0.150  1.206  3.944  0.000    24.252     7.314
 119   6 C      0.244  1.020  2.737  0.000    22.916     7.838
 120   7 N     -0.262  1.248  4.014  0.000    26.804     7.689
 121   7 N     -0.275  1.255  4.020  0.000    27.105     7.732
 122   1 H      0.202  0.798  0.000  0.000     1.093     1.638
 123   1 H      0.087  0.913  0.000  0.000     1.912     2.162
 124   1 H      0.068  0.932  0.000  0.000     2.103     2.268
 125   1 H      0.061  0.939  0.000  0.000     2.185     2.312
 126   1 H      0.076  0.924  0.000  0.000     2.025     2.226
 127   1 H      0.073  0.927  0.000  0.000     2.057     2.243
 128   1 H      0.085  0.915  0.000  0.000     1.927     2.171
 129   1 H      0.071  0.929  0.000  0.000     2.079     2.255
 130   1 H      0.194  0.806  0.000  0.000     1.136     1.670
 131   1 H      0.261  0.739  0.000  0.000     0.841     1.437
 132   1 H      0.229  0.771  0.000  0.000     0.968     1.542
 133   1 H      0.245  0.755  0.000  0.000     0.903     1.489
 134   1 H      0.237  0.763  0.000  0.000     0.935     1.515
 135   7 N     -0.173  1.240  3.933  0.000    24.737     7.387
 136   6 C      0.015  1.061  2.925  0.000    20.334     6.421
 137   6 C      0.268  1.048  2.684  0.000    22.470     7.762
 138   8 O     -0.476  1.741  4.735  0.000    23.261     6.466
 139   6 C     -0.134  1.044  3.090  0.000    23.124     6.856
 140   1 H      0.197  0.803  0.000  0.000     1.120     1.658
 141   1 H      0.096  0.904  0.000  0.000     1.825     2.113
 142   1 H      0.075  0.925  0.000  0.000     2.033     2.230
 143   1 H      0.080  0.920  0.000  0.000     1.975     2.198
 144   1 H      0.058  0.942  0.000  0.000     2.227     2.334
 145   7 N     -0.200  1.258  3.942  0.000    25.347     7.477
 146   6 C      0.006  1.066  2.927  0.000    20.482     6.445
 147   6 C      0.276  1.043  2.681  0.000    22.333     7.738
 148   8 O     -0.498  1.750  4.749  0.000    23.745     6.533
 149   6 C      0.117  1.046  2.837  0.000    18.766     6.186
 150   8 O     -0.489  1.722  4.767  0.000    22.663     6.427
 151   6 C     -0.124  1.041  3.084  0.000    22.946     6.831
 152   1 H      0.227  0.773  0.000  0.000     0.978     1.549
 153   1 H      0.088  0.912  0.000  0.000     1.898     2.154
 154   1 H      0.049  0.951  0.000  0.000     2.330     2.387
 155   1 H      0.333  0.667  0.000  0.000     0.629     1.246
 156   1 H      0.063  0.937  0.000  0.000     2.167     2.302
 157   1 H      0.056  0.944  0.000  0.000     2.252     2.347
 158   1 H      0.035  0.965  0.000  0.000     2.514     2.480
 159   7 N     -0.169  1.241  3.928  0.000    24.661     7.376
 160   6 C      0.022  1.062  2.916  0.000    20.210     6.402
 161   6 C      0.266  1.044  2.690  0.000    22.519     7.772
 162   8 O     -0.458  1.737  4.721  0.000    22.872     6.412
 163   6 C     -0.050  1.050  3.000  0.000    21.470     6.597
 164   6 C     -0.097  1.062  3.035  0.000    22.354     6.732
 165   6 C      0.364  1.027  2.609  0.000    20.833     7.469
 166   8 O     -0.616  1.771  4.845  0.000    26.521     6.905
 167   8 O     -0.607  1.758  4.850  0.000    26.300     6.876
 168   1 H      0.210  0.790  0.000  0.000     1.056     1.610
 169   1 H      0.062  0.938  0.000  0.000     2.177     2.307
 170   1 H      0.045  0.955  0.000  0.000     2.378     2.412
 171   1 H      0.038  0.962  0.000  0.000     2.474     2.460
 172   1 H      0.047  0.953  0.000  0.000     2.355     2.400
 173   1 H      0.030  0.970  0.000  0.000     2.593     2.518
 174   7 N     -0.163  1.242  3.921  0.000    24.531     7.356
 175   6 C      0.003  1.062  2.936  0.000    20.529     6.450
 176   6 C      0.274  1.039  2.687  0.000    22.364     7.744
 177   8 O     -0.485  1.756  4.730  0.000    23.465     6.495
 178   6 C     -0.141  1.045  3.096  0.000    23.274     6.878
 179   1 H      0.205  0.795  0.000  0.000     1.079     1.627
 180   1 H      0.098  0.902  0.000  0.000     1.803     2.100
 181   1 H      0.079  0.921  0.000  0.000     1.991     2.207
 182   1 H      0.083  0.917  0.000  0.000     1.950     2.183
 183   1 H      0.062  0.938  0.000  0.000     2.177     2.307
 184   7 N     -0.170  1.241  3.929  0.000    24.674     7.377
 185   6 C      0.026  1.058  2.917  0.000    20.150     6.392
 186   6 C      0.196  1.086  2.717  0.000    23.817     7.993
 187   8 O     -0.347  1.746  4.602  0.000    20.651     6.093
 188   6 C     -0.074  1.056  3.018  0.000    21.907     6.662
 189   6 C      0.010  1.079  2.911  0.000    27.782     8.646
 190   6 C     -0.042  1.083  2.959  0.000    29.043     8.838
 191   6 C     -0.037  1.081  2.956  0.000    28.929     8.820
 192   6 C     -0.042  1.079  2.963  0.000    29.047     8.838
 193   6 C     -0.032  1.080  2.952  0.000    28.798     8.800
 194   6 C     -0.037  1.078  2.959  0.000    28.918     8.819
 195   1 H      0.221  0.779  0.000  0.000     1.007     1.572
 196   1 H      0.087  0.913  0.000  0.000     1.904     2.158
 197   1 H      0.065  0.935  0.000  0.000     2.146     2.291
 198   1 H      0.076  0.924  0.000  0.000     2.021     2.223
 199   1 H      0.049  0.951  0.000  0.000     2.326     2.385
 200   1 H      0.028  0.972  0.000  0.000     2.622     2.532
 201   1 H      0.056  0.944  0.000  0.000     2.247     2.344
 202   1 H      0.036  0.964  0.000  0.000     2.505     2.475
 203   1 H      0.042  0.958  0.000  0.000     2.419     2.432
 204   7 N     -0.410  1.323  4.087  0.000    30.661     8.224
 205   6 C      0.042  1.056  2.902  0.000    19.887     6.353
 206   6 C      0.199  1.094  2.707  0.000    23.760     7.983
 207   8 O     -0.378  1.754  4.624  0.000    21.242     6.179
 208   6 C     -0.109  1.062  3.048  0.000    22.584     6.765
 209   6 C      0.291  1.037  2.672  0.000    22.070     7.692
 210   8 O     -0.501  1.756  4.745  0.000    23.798     6.540
 211   7 N     -0.281  1.265  4.016  0.000    27.265     7.755
 212   1 H      0.188  0.812  0.000  0.000     1.172     1.696
 213   1 H      0.078  0.922  0.000  0.000     2.000     2.212
 214   1 H      0.076  0.924  0.000  0.000     2.024     2.225
 215   1 H      0.085  0.915  0.000  0.000     1.933     2.174
 216   1 H      0.232  0.768  0.000  0.000     0.958     1.533
 217   1 H      0.234  0.766  0.000  0.000     0.949     1.526
 218   1 H      0.189  0.811  0.000  0.000     1.163     1.689
 219   1 H      0.076  0.924  0.000  0.000     2.020     2.223
 220   1 H      0.157  0.843  0.000  0.000     1.356     1.824
 221   1 H      0.057  0.943  0.000  0.000     2.236     2.338
 222   1 H      0.175  0.825  0.000  0.000     1.244     1.747
 223   1 H      0.071  0.929  0.000  0.000     2.079     2.254
 224   1 H      0.175  0.825  0.000  0.000     1.240     1.744
 225   1 H      0.082  0.918  0.000  0.000     1.958     2.188
 226   1 H      0.184  0.816  0.000  0.000     1.191     1.709
 227   1 H      0.072  0.928  0.000  0.000     2.061     2.245

 Mol. C6AA /au·bohr⁶  :     480320.219909
 Mol. C8AA /au·bohr⁸  :   10859045.392675
 Mol. α(0) /au        :       1046.275739

 
molecular dipole:
                 x           y           z       tot (Debye)
 q only:       28.368      42.578     159.887
   full:       28.558      43.394     160.004     427.595
molecular quadrupole (traceless):
                xx          xy          yy          xz          yz          zz
 q only:   -12946.001    1826.030  -11331.460    6695.203   10405.966   24277.462
  q+dip:   -12999.781    1887.738  -11280.374    6765.827   10618.543   24280.155
   full:   -13002.795    1889.393  -11283.300    6764.394   10617.499   24286.095
speedup  1.79
cpu  time for grad    6.83 s
wall time for grad    3.82 s

SCC energy    :    -345.5555694
rep           :       4.3884624
ES            :       0.8551750
AES           :      -0.0154937
AXC           :       0.1382937
disp          :      -0.2638102
XB            :       0.0000000
fix           :       0.0000000
Gborn         :       0.0000000
Gsasa         :       0.0000000
Ghb           :       0.0000000
Gshift        :       0.0000000
Gsolv         :      -0.1901850     -119.34
Etot ala COSMO:    -345.5555694
grad norm     :       0.4991849
total E       :    -341.1496471
atomizationE  :      62.9469869    39499.83
(atE without considering molecular charge,
 total energy contains solvation terms)
H-L gap (eV)  :          1.0307

------------------------------------------------------------------------
 * finished run on 2019/05/12 at 13:13:15.852     
------------------------------------------------------------------------
 total:
 * wall-time:     0 d,  0 h,  0 min,  4.188 sec
 *  cpu-time:     0 d,  0 h,  0 min,  7.264 sec
 * ratio c/w:     1.734 speedup
 SCF:
 * wall-time:     0 d,  0 h,  0 min,  3.924 sec
 *  cpu-time:     0 d,  0 h,  0 min,  7.038 sec
 * ratio c/w:     1.794 speedup

