      -----------------------------------------------------------      
     |                   =====================                   |     
     |                           x T B                           |     
     |                   =====================                   |     
     |                         S. Grimme                         |     
     |          Mulliken Center for Theoretical Chemistry        |     
     |                    University of Bonn                     |     
     |                 Version 6.0.1 (SAW181210)                 |     
      -----------------------------------------------------------      

   This program is distributed in the hope that it will be useful,
   but WITHOUT ANY WARRANTY; without even the implied warranty of
   MERCHANTABILITY or FITNESS FOR A PARTICULAR PURPOSE.
   
   FOR NON-COMMERCIAL, ACADEMIA USE ONLY.
   
   Cite this work as:
   S. Grimme, C. Bannwarth, P. Shushkov, J. Comput. Theory Chem., 2017,
   13, 1989-2009.
   C. Bannwarth, S. Ehlert and S. Grimme., ChemRxiv, 2018, preprint.
   http://doi.org/10.26434/chemrxiv.7246238.v1
   
   for sTDA-xTB:
   S. Grimme and C. Bannwarth, J. Chem. Phys., 2016, 145, 054103.
   
   in the mass-spec context:
   V. Asgeirsson, C. Bauer and S. Grimme, Chem. Sci., 2017, 8, 4879.
   
   if GBSA is used:
   P. Shushkov, F. März and S. Grimme, unpublished.
   
   for ANC optimizer:
   S. Grimme, unpublished.
   Rational Function algorithm used in ANCopt:
   F. Eckert, P. Pulay, H.-J. Werner, J. Comput. Chem., 1997, 18, 1473.
   
   with help from (in alphabetical order)
   C. Bannwarth, F. Bohle, G. Brandenburg, E. Caldeweyher, M. Checinski,
   S. Dohm, S. Ehlert, S. Ehrlich, F. März, H. Neugebauer, J. Pisarek,
   P. Pracht, P. Shushkov, and S. Spicher.
   
 * started run on 2019/05/06 at 07:35:34.178     
========================================================================
 # omp threads = 2
========================================================================
number of atoms            : 623
number of electrons        : 1594
charge                     : 1
spin                       : .0
first test random number   : .1710

########################################################################
# WARNING! Please study the warnings concerning your input carefully
#  - Process number higher than OMP_NUM_THREADS, I hope you know what you are doing.
########################################################################

           ------------------------------------------------- 
          |                 G F N 2 - x T B                 |
          | Geometry, Frequencies, Noncovalent interactions |
          |            JCTC 2018 parametrisation            |
           ------------------------------------------------- 
 
      method parameters     
 k(s)        :  1.8500
 k(p)        :  2.2300
 k(d)        :  2.2300
 k(f)        :  2.0000
 kEN (H0ij)  : -2.0000
 D4 a1       :  0.5200
 D4 a2       :  5.0000
 D4 s6       :  1.0000
 D4 s8       :  2.7000
 D4 s9       :  5.0000
 alphaj      :  2.0000

 Solvent             : h2o
 Using internal parameter file: .param_gbsa2_h2o
 Gsolv ref. state (COSMO-RS): gsolv [1 M gas/solution]
 temperature (mdtemp)       :    298.150000000000     
 dielectric constant        :    80.2000000000000     
 rho                        :    1.00000000000000     
 mass                       :    18.0000000000000     
 surface tension            :    15.5689454083859     
 probe radius               :   0.975313790000000     
 vdW radii scaling          :    1.00000000000000     
 Gshift (Eh)                :   1.857443126794793E-003
 c1                         :    1.55243817000000     
 soset                      :   0.130326360000000     
 HB correction              :  T

            Z     q(EN)     CN     RAES       Cart. coordinates
     1  N   5.0   -0.21    3.24    1.97    90.47049    19.60870    -5.53786
     2  C   4.0    0.02    4.38    4.35    89.67532    21.23205    -3.47534
     3  C   4.0    0.15    3.45    3.09    91.49871    20.71268    -1.26596
     4  O   6.0   -0.32    1.32    1.80    92.78572    22.38039    -0.29749
     5  C   4.0   -0.04    4.27    4.13    86.81488    20.95116    -2.90379
     6  C   4.0   -0.01    3.58    3.15    86.20690    22.84682    -0.84806
     7  C   4.0   -0.04    3.53    3.13    87.38445    25.21578    -0.82233
     8  C   4.0   -0.04    3.46    3.10    84.74701    22.14757     1.21599
     9  C   4.0   -0.04    3.38    3.07    87.26812    26.75469     1.27027
    10  C   4.0   -0.05    3.39    3.08    84.63465    23.70051     3.31179
    11  C   4.0   -0.05    3.40    3.08    85.92170    25.96072     3.35396
    12  H   1.0    0.08    1.03    1.43    89.10537    18.55342    -6.35643
    13  H   1.0    0.04    1.06    1.44    90.08186    23.17697    -4.07467
    14  H   1.0    0.04    1.02    1.43    85.78415    21.30537    -4.65440
    15  H   1.0    0.04    1.03    1.43    86.40623    19.04125    -2.26123
    16  H   1.0    0.05    1.04    1.43    88.37317    25.90799    -2.46504
    17  H   1.0    0.05    1.03    1.43    83.79397    20.33985     1.21416
    18  H   1.0    0.05    1.03    1.43    88.19984    28.56716     1.27322
    19  H   1.0    0.04    1.03    1.43    83.54867    23.16433     4.94463
    20  H   1.0    0.04    1.03    1.43    85.74979    27.19395     4.96495
    21  N   5.0   -0.15    3.51    2.08    91.59530    18.25922    -0.64755
    22  C   4.0    0.04    4.44    4.45    93.07935    17.43785     1.45995
    23  C   4.0    0.16    3.59    3.16    95.79535    18.39017     1.16216
    24  O   6.0   -0.30    1.39    1.80    96.81499    19.48323     2.97624
    25  C   4.0   -0.04    4.31    4.22    92.77438    14.63654     1.92900
    26  C   4.0    0.16    3.24    3.04    93.80705    13.99926     4.52728
    27  O   6.0   -0.30    1.20    1.80    92.76692    14.57607     6.49959
    28  N   5.0   -0.18    3.19    1.95    96.01391    12.74339     4.41133
    29  H   1.0    0.07    1.07    1.44    90.49989    16.99560    -1.59083
    30  H   1.0    0.06    1.06    1.44    92.40595    18.43242     3.17106
    31  H   1.0    0.05    1.03    1.43    90.75920    14.20646     1.87454
    32  H   1.0    0.04    1.03    1.43    93.72108    13.55519     0.45072
    33  H   1.0    0.10    1.03    1.43    96.88275    12.26441     6.04353
    34  H   1.0    0.08    1.03    1.43    96.83107    12.25701     2.77025
    35  N   5.0   -0.15    3.43    2.04    97.06101    18.13194    -1.00768
    36  C   4.0    0.04    4.48    4.51    99.51568    19.36161    -0.89596
    37  C   4.0    0.16    3.68    3.22    99.07139    22.09731    -0.08826
    38  O   6.0   -0.30    1.42    1.80   100.45073    23.03318     1.53769
    39  C   4.0   -0.05    4.17    3.95   101.23890    19.14636    -3.19463
    40  C   4.0   -0.05    4.10    3.81   103.68724    20.74579    -2.99607
    41  C   4.0   -0.05    4.02    3.65   105.49826    20.29676    -0.68080
    42  C   4.0   -0.04    3.98    3.59   108.07891    21.87349    -0.63667
    43  N   5.0   -0.12    3.93    2.69   109.37796    22.19406     1.98211
    44  H   1.0    0.08    1.04    1.43    96.34598    17.32121    -2.59058
    45  H   1.0    0.06    1.07    1.44   100.51396    18.52406     0.72496
    46  H   1.0    0.04    1.02    1.43   101.72012    17.15606    -3.44622
    47  H   1.0    0.04    1.03    1.43   100.22479    19.79441    -4.87184
    48  H   1.0    0.04    1.02    1.43   104.75930    20.40096    -4.72606
    49  H   1.0    0.05    1.03    1.43   103.14879    22.73672    -2.97952
    50  H   1.0    0.05    1.02    1.43   104.44666    20.80579     1.02060
    51  H   1.0    0.04    1.02    1.43   105.96662    18.29619    -0.58838
    52  H   1.0    0.04    1.01    1.43   109.45329    20.95505    -1.85263
    53  H   1.0    0.05    1.02    1.43   107.68609    23.76573    -1.33423
    54  H   1.0    0.06    1.02    1.43   110.84429    23.44843     1.81589
    55  H   1.0    0.06    1.01    1.43   108.14364    22.81604     3.34793
    56  H   1.0    0.06    1.01    1.43   110.07787    20.50679     2.66145
    57  N   5.0   -0.13    3.53    2.10    97.35817    23.60093    -1.15437
    58  C   4.0    0.04    4.61    4.67    97.78555    26.26229    -0.57927
    59  C   4.0    0.17    3.60    3.17    97.63902    26.64655     2.25182
    60  O   6.0   -0.30    1.30    1.80    99.34658    27.78913     3.34392
    61  C   4.0   -0.02    4.36    4.31    96.26801    28.12674    -2.18985
    62  C   4.0   -0.05    4.23    4.05    93.53481    28.31690    -1.43104
    63  C   4.0   -0.07    4.18    3.96    96.46874    27.51535    -4.99951
    64  C   4.0   -0.08    4.10    3.81    92.28402    30.10737    -3.28472
    65  H   1.0    0.09    1.06    1.44    96.25454    23.07247    -2.62142
    66  H   1.0    0.06    1.07    1.44    99.78626    26.66283    -1.02529
    67  H   1.0    0.04    1.06    1.44    97.18481    29.96144    -1.86484
    68  H   1.0    0.06    1.04    1.43    92.64313    26.46472    -1.45009
    69  H   1.0    0.04    1.03    1.43    93.38070    29.08719     0.48324
    70  H   1.0    0.04    1.01    1.43    96.02656    29.14508    -6.14906
    71  H   1.0    0.04    1.00    1.43    98.38549    26.93660    -5.46854
    72  H   1.0    0.04    1.00    1.43    95.21680    25.96527    -5.51496
    73  H   1.0    0.04    0.99    1.43    90.41108    30.66418    -2.59558
    74  H   1.0    0.04    1.00    1.43    93.39396    31.82272    -3.48344
    75  H   1.0    0.04    1.00    1.43    92.01116    29.26364    -5.13067
    76  N   5.0   -0.14    3.46    2.05    95.61868    25.67065     3.40279
    77  C   4.0    0.04    4.54    4.59    95.51466    25.68242     6.14579
    78  C   4.0    0.17    3.71    3.25    98.08438    25.24309     7.32827
    79  O   6.0   -0.33    1.32    1.80    98.92121    26.62474     8.99021
    80  C   4.0   -0.02    4.38    4.35    93.92080    23.63398     7.43226
    81  C   4.0   -0.05    4.16    3.92    91.05460    24.06708     7.01635
    82  C   4.0   -0.07    4.19    3.99    94.59029    23.48540    10.25920
    83  C   4.0   -0.08    4.04    3.69    90.16735    26.71787     7.57017
    84  H   1.0    0.11    1.09    1.44    94.41940    24.55305     2.41901
    85  H   1.0    0.04    1.06    1.44    94.88517    27.55561     6.79263
    86  H   1.0    0.06    1.06    1.44    94.40307    21.81208     6.57608
    87  H   1.0    0.05    1.03    1.43    90.58275    23.59350     5.06253
    88  H   1.0    0.04    1.03    1.43    90.07250    22.73109     8.23540
    89  H   1.0    0.04    1.00    1.43    93.16142    22.37273    11.23996
    90  H   1.0    0.05    1.01    1.43    96.39276    22.56699    10.56779
    91  H   1.0    0.05    1.00    1.43    94.64429    25.35027    11.11431
    92  H   1.0    0.03    1.00    1.43    88.14615    26.73653     7.90818
    93  H   1.0    0.04    1.00    1.43    91.06692    27.46568     9.27131
    94  H   1.0    0.04    1.00    1.43    90.56876    27.99519     6.00947
    95  N   5.0   -0.14    3.55    2.12    99.21061    23.07419     6.68025
    96  C   4.0    0.05    4.44    4.45   101.76154    22.70285     7.56330
    97  C   4.0    0.09    3.15    3.03   103.78349    24.77123     6.84431
    98  O   6.0   -0.29    1.11    1.80   105.35276    25.44874     8.41942
    99  C   4.0   -0.04    4.06    3.73   102.50791    19.96110     7.04320
   100  S   6.0   -0.05    2.34    3.10   100.87171    18.11095     9.56837
   101  H   1.0    0.12    1.10    1.44    98.62453    22.08853     5.15160
   102  H   1.0    0.05    1.11    1.45   101.71693    22.91997     9.62900
   103  H   1.0    0.06    1.05    1.44   101.80287    19.34909     5.20917
   104  H   1.0    0.04    1.05    1.44   104.53957    19.64844     7.24352
   105  H   1.0    0.05    0.98    1.43   102.82658    16.63698    10.11871
   106  N   5.0   -0.19    3.21    1.96   103.50414    30.48479     6.54868
   107  C   4.0    0.03    4.26    4.11   102.96759    32.43311     8.44454
   108  C   4.0    0.15    3.39    3.08   104.06288    31.84592    11.14632
   109  O   6.0   -0.31    1.21    1.80   105.30522    33.48138    12.29663
   110  C   4.0   -0.05    4.39    4.37   100.08558    32.60075     8.63899
   111  C   4.0   -0.02    4.19    3.97    99.05347    33.89867    11.03309
   112  C   4.0   -0.08    4.09    3.79    99.48131    36.74395    10.77682
   113  C   4.0   -0.08    4.08    3.76    96.25444    33.13174    11.34521
   114  H   1.0    0.11    1.04    1.44   102.01555    29.47655     5.89228
   115  H   1.0    0.05    1.04    1.43   103.83019    34.21520     7.84421
   116  H   1.0    0.04    1.03    1.43    99.36870    33.58452     6.98151
   117  H   1.0    0.07    1.05    1.44    99.37261    30.65965     8.59366
   118  H   1.0    0.04    1.07    1.44   100.09535    33.20894    12.67061
   119  H   1.0    0.04    1.00    1.43    98.71409    37.75560    12.39307
   120  H   1.0    0.05    1.00    1.43   101.48589    37.14388    10.63811
   121  H   1.0    0.04    1.00    1.43    98.55919    37.44596     9.08113
   122  H   1.0    0.04    1.00    1.43    95.42774    33.99897    13.00636
   123  H   1.0    0.04    1.00    1.43    95.18428    33.74589     9.70171
   124  H   1.0    0.04    1.00    1.43    96.10477    31.08934    11.47486
   125  N   5.0   -0.14    3.47    2.06   103.35482    29.58901    12.13130
   126  C   4.0    0.04    4.42    4.42   103.96227    28.88710    14.68612
   127  C   4.0    0.09    3.24    3.04   106.65943    28.01194    15.04457
   128  O   6.0   -0.31    1.17    1.80   107.68990    28.72026    16.98373
   129  C   4.0   -0.03    4.25    4.09   101.93873    27.22538    15.91874
   130  C   4.0   -0.07    4.21    4.02   100.46976    25.83276    13.90629
   131  C   4.0   -0.07    4.12    3.85   102.98068    25.43642    17.93504
   132  H   1.0    0.10    1.09    1.44   102.44105    28.34981    10.99775
   133  H   1.0    0.06    1.08    1.44   103.99182    30.69827    15.74385
   134  H   1.0    0.03    1.05    1.44   100.59902    28.49350    16.88668
   135  H   1.0    0.04    1.00    1.43    99.24107    24.41605    14.78787
   136  H   1.0    0.06    1.03    1.43    99.27658    27.08355    12.82195
   137  H   1.0    0.05    1.01    1.43   101.76077    24.82193    12.66567
   138  H   1.0    0.04    1.00    1.43   101.43938    24.34981    18.75157
   139  H   1.0    0.05    1.00    1.43   104.33744    24.11550    17.12578
   140  H   1.0    0.05    1.00    1.43   103.91923    26.47976    19.43091
   141  N   5.0   -0.20    3.24    1.97   106.33865    36.38706    17.00198
   142  C   4.0    0.03    4.45    4.45   105.43768    36.33813    19.61181
   143  C   4.0    0.15    3.55    3.14   107.18993    35.20343    21.53777
   144  O   6.0   -0.32    1.29    1.80   107.21532    35.90103    23.74264
   145  C   4.0   -0.02    4.38    4.35   103.02656    34.80120    19.71738
   146  C   4.0   -0.05    4.18    3.96   100.94936    36.34486    18.36054
   147  C   4.0   -0.07    4.17    3.93   102.41628    33.98259    22.42289
   148  C   4.0   -0.08    4.00    3.61    98.59137    34.82531    17.61859
   149  H   1.0    0.11    1.04    1.43   105.37056    35.46811    15.62704
   150  H   1.0    0.04    1.06    1.44   105.06372    38.29119    20.19952
   151  H   1.0    0.04    1.06    1.44   103.35729    33.06435    18.61966
   152  H   1.0    0.04    1.02    1.43   100.39360    37.92643    19.56082
   153  H   1.0    0.04    1.04    1.43   101.74144    37.12011    16.62598
   154  H   1.0    0.03    1.00    1.43   100.53929    33.14375    22.47894
   155  H   1.0    0.05    1.01    1.43   103.74727    32.56833    23.07729
   156  H   1.0    0.05    1.00    1.43   102.45345    35.57604    23.71487
   157  H   1.0    0.03    1.00    1.43    97.33944    36.00515    16.50543
   158  H   1.0    0.03    1.00    1.43    99.13196    33.18979    16.50568
   159  H   1.0    0.04    1.00    1.43    97.56661    34.18193    19.27241
   160  N   5.0   -0.14    3.47    2.06   108.66875    33.34999    20.73115
   161  C   4.0    0.04    4.44    4.45   110.38907    32.24835    22.50385
   162  C   4.0    0.09    3.29    3.05   112.93142    33.51680    22.69232
   163  O   6.0   -0.28    1.16    1.80   114.20653    32.92837    24.53801
   164  C   4.0   -0.03    4.45    4.47   111.12012    29.54908    21.88176
   165  C   4.0   -0.04    4.09    3.79   108.97302    27.82233    22.51525
   166  S   6.0   -0.01    2.44    3.10   109.92484    24.51858    21.95559
   167  C   4.0   -0.06    3.84    3.38   111.26288    23.59621    25.10321
   168  H   1.0    0.10    1.06    1.44   108.40454    32.44706    19.04162
   169  H   1.0    0.06    1.07    1.44   109.54797    32.30821    24.40498
   170  H   1.0    0.06    1.04    1.43   111.55565    29.35034    19.87438
   171  H   1.0    0.06    1.06    1.44   112.77784    29.01837    22.98428
   172  H   1.0    0.04    1.06    1.44   108.40647    27.98004    24.48905
   173  H   1.0    0.06    1.08    1.44   107.38374    28.12737    21.25465
   174  H   1.0    0.06    1.03    1.43   112.77071    22.26209    24.71386
   175  H   1.0    0.05    1.03    1.43   111.98051    25.26763    26.04693
   176  H   1.0    0.06    1.03    1.43   109.77229    22.68681    26.19564
   177  N   5.0   -0.20    3.28    1.98   109.97983    38.79182    28.29162
   178  C   4.0    0.04    4.37    4.34   109.92390    37.99271    30.83913
   179  C   4.0    0.09    3.21    3.04   112.47355    37.24647    32.00576
   180  O   6.0   -0.28    1.16    1.80   112.60134    36.75579    34.25866
   181  C   4.0   -0.02    4.41    4.40   107.88761    36.01276    31.04181
   182  C   4.0   -0.05    4.24    4.08   105.35546    37.24666    30.43102
   183  C   4.0   -0.06    4.20    4.00   107.89846    34.91713    33.67361
   184  C   4.0   -0.08    4.02    3.66   103.37997    35.22678    29.84060
   185  H   1.0    0.11    1.04    1.43   109.08769    37.76264    26.94362
   186  H   1.0    0.05    1.06    1.44   109.35107    39.61972    32.02012
   187  H   1.0    0.05    1.06    1.44   108.27510    34.49450    29.68276
   188  H   1.0    0.04    1.03    1.43   104.72902    38.36830    32.04655
   189  H   1.0    0.05    1.04    1.43   105.51374    38.47175    28.78608
   190  H   1.0    0.04    1.00    1.43   106.23485    33.74245    34.00712
   191  H   1.0    0.06    1.01    1.43   109.53755    33.72457    34.02164
   192  H   1.0    0.06    1.00    1.43   107.90804    36.41066    35.08596
   193  H   1.0    0.04    1.00    1.43   101.54792    36.06073    29.41189
   194  H   1.0    0.04    1.00    1.43   103.98629    34.11464    28.21907
   195  H   1.0    0.04    1.00    1.43   103.13784    33.93194    31.41712
   196  N   5.0   -0.21    3.25    1.97   100.07406    13.80814    34.67460
   197  C   4.0    0.02    4.37    4.33   100.89320    16.46684    34.50177
   198  C   4.0    0.15    3.47    3.10   100.58433    17.32617    31.75787
   199  O   6.0   -0.33    1.38    1.80    99.17217    19.08140    31.20805
   200  C   4.0   -0.02    4.32    4.23   103.60870    16.62997    35.48633
   201  C   4.0   -0.05    4.18    3.97   103.53897    15.84749    38.30251
   202  C   4.0   -0.07    4.08    3.76   105.00147    19.09704    34.93353
   203  C   4.0   -0.07    4.00    3.62   106.17872    15.71537    39.52049
   204  H   1.0    0.08    1.03    1.43   101.38050    12.56663    35.33470
   205  H   1.0    0.04    1.05    1.44    99.63285    17.65912    35.63733
   206  H   1.0    0.05    1.06    1.44   104.66845    15.18352    34.43332
   207  H   1.0    0.04    1.03    1.43   102.40358    17.21892    39.33928
   208  H   1.0    0.04    1.03    1.43   102.64240    14.00419    38.48967
   209  H   1.0    0.05    1.00    1.43   106.97909    18.96668    35.45796
   210  H   1.0    0.05    1.00    1.43   104.96805    19.49780    32.90947
   211  H   1.0    0.04    1.00    1.43   104.17689    20.69665    35.92560
   212  H   1.0    0.05    1.00    1.43   106.04727    14.87933    41.38935
   213  H   1.0    0.05    1.00    1.43   107.47474    14.61735    38.37294
   214  H   1.0    0.04    1.00    1.43   106.99192    17.58726    39.68792
   215  N   5.0   -0.14    3.52    2.09   101.67121    15.99803    29.92414
   216  C   4.0    0.04    4.59    4.66   101.23795    16.92543    27.41197
   217  C   4.0    0.15    3.57    3.15    98.59519    16.44276    26.53471
   218  O   6.0   -0.32    1.49    1.80    97.61482    18.11820    25.28671
   219  C   4.0   -0.03    4.28    4.17   103.17973    15.91184    25.58933
   220  C   4.0    0.25    3.18    3.03   105.62544    17.34752    26.44697
   221  O   6.0   -0.31    1.18    1.80   105.89532    19.47044    25.50988
   222  O   6.0   -0.29    1.17    1.80   106.96734    16.30715    28.08424
   223  H   1.0    0.09    1.06    1.44   103.13935    14.78906    30.20121
   224  H   1.0    0.06    1.08    1.44   101.44043    19.00149    27.39896
   225  H   1.0    0.05    1.02    1.43   103.37282    13.86857    25.77369
   226  H   1.0    0.05    1.03    1.43   102.71373    16.46016    23.66185
   227  N   5.0   -0.15    3.47    2.06    97.33959    14.34190    27.09492
   228  C   4.0    0.03    4.47    4.49    94.64762    14.22935    26.36736
   229  C   4.0    0.16    3.65    3.20    93.43471    16.76147    26.95337
   230  O   6.0   -0.34    1.36    1.80    91.81773    17.76947    25.62855
   231  C   4.0   -0.04    4.31    4.23    92.99604    12.30549    27.85657
   232  C   4.0   -0.02    3.52    3.12    90.36229    11.83626    26.78887
   233  C   4.0   -0.04    3.49    3.11    89.71212     9.40074    26.05778
   234  C   4.0   -0.04    3.51    3.12    88.46191    13.62609    26.74933
   235  C   4.0   -0.03    3.39    3.08    87.29267     8.79412    25.28068
   236  C   4.0   -0.05    3.47    3.10    86.04571    13.00810    25.95609
   237  C   4.0   -0.04    3.36    3.07    85.42086    10.60755    25.17111
   238  H   1.0    0.08    1.05    1.44    98.18822    12.77923    27.81574
   239  H   1.0    0.04    1.05    1.44    94.52417    13.79360    24.34743
   240  H   1.0    0.05    1.03    1.43    94.02378    10.50954    27.86207
   241  H   1.0    0.04    1.03    1.43    92.83701    12.95229    29.80559
   242  H   1.0    0.06    1.03    1.43    91.14417     7.93842    26.11402
   243  H   1.0    0.06    1.05    1.44    88.80109    15.50794    27.45071
   244  H   1.0    0.06    1.03    1.43    86.86035     6.85166    24.78284
   245  H   1.0    0.05    1.03    1.43    84.59068    14.44038    26.06733
   246  H   1.0    0.06    1.03    1.43    83.53304    10.14082    24.56494
   247  N   5.0   -0.14    3.67    2.23    94.11529    17.49463    29.24946
   248  C   4.0    0.04    4.56    4.62    93.17275    19.71703    30.44626
   249  C   4.0    0.15    3.50    3.12    94.05691    22.03066    29.03649
   250  O   6.0   -0.33    1.33    1.80    92.35098    23.45616    28.31999
   251  C   4.0   -0.02    4.34    4.28    93.67709    19.51619    33.26375
   252  C   4.0   -0.05    4.18    3.97    91.45416    18.01538    34.40749
   253  C   4.0   -0.07    4.13    3.87    94.10985    22.08007    34.40794
   254  C   4.0   -0.08    3.98    3.59    92.03764    16.58649    36.87524
   255  H   1.0    0.09    1.11    1.45    95.44249    16.49325    30.18489
   256  H   1.0    0.05    1.08    1.44    91.10846    19.78984    30.14767
   257  H   1.0    0.05    1.07    1.44    95.40585    18.40820    33.51088
   258  H   1.0    0.04    1.02    1.43    89.86297    19.29062    34.70469
   259  H   1.0    0.04    1.03    1.43    90.88705    16.59448    33.01369
   260  H   1.0    0.04    1.00    1.43    94.30921    21.95626    36.45060
   261  H   1.0    0.05    1.00    1.43    95.83178    22.91354    33.64978
   262  H   1.0    0.05    1.00    1.43    92.54224    23.35074    33.98118
   263  H   1.0    0.04    1.00    1.43    90.48305    15.35006    37.36592
   264  H   1.0    0.04    1.00    1.43    93.75465    15.48819    36.63493
   265  H   1.0    0.04    1.00    1.43    92.34190    17.91614    38.41399
   266  N   5.0   -0.14    3.46    2.06    96.47334    22.43226    28.40878
   267  C   4.0    0.03    4.48    4.51    97.06778    24.82861    27.17352
   268  C   4.0    0.15    3.42    3.08    96.32521    24.86053    24.27558
   269  O   6.0   -0.33    1.28    1.80    95.61191    26.79175    23.19035
   270  C   4.0   -0.03    4.34    4.28    99.75329    25.87581    27.63631
   271  C   4.0   -0.04    4.33    4.26   101.24580    25.42202    25.27223
   272  C   4.0   -0.07    4.21    4.03   101.16899    24.76222    29.82928
   273  C   4.0   -0.08    4.13    3.86   103.99014    25.94613    25.78177
   274  H   1.0    0.12    1.11    1.45    97.85556    21.31216    29.10906
   275  H   1.0    0.05    1.07    1.44    95.71146    26.19150    27.99242
   276  H   1.0    0.04    1.06    1.44    99.56306    27.91330    27.93170
   277  H   1.0    0.05    1.03    1.43   101.07330    23.44688    24.67025
   278  H   1.0    0.04    1.03    1.43   100.58482    26.62158    23.72432
   279  H   1.0    0.04    1.01    1.43   102.74565    25.95896    30.34980
   280  H   1.0    0.05    1.00    1.43    99.95929    24.60032    31.49713
   281  H   1.0    0.05    1.00    1.43   101.88748    22.88001    29.38942
   282  H   1.0    0.04    1.02    1.43   105.00111    25.83308    23.98924
   283  H   1.0    0.03    1.00    1.43   104.25806    27.82418    26.57828
   284  H   1.0    0.05    1.01    1.43   104.84837    24.53790    26.99653
   285  N   5.0   -0.15    3.50    2.08    96.43746    22.61394    23.16429
   286  C   4.0    0.03    4.44    4.45    95.46687    21.99924    20.66870
   287  C   4.0    0.15    3.48    3.11    92.56839    22.30444    20.54991
   288  O   6.0   -0.31    1.22    1.80    91.50323    22.92982    18.56333
   289  C   4.0   -0.02    4.30    4.19    96.13480    19.24690    19.80572
   290  C   4.0   -0.05    4.19    3.97    95.99631    19.12825    16.91067
   291  C   4.0   -0.06    4.24    4.08    94.31436    17.28979    20.87245
   292  C   4.0   -0.07    4.02    3.65    95.45531    16.51280    15.72231
   293  H   1.0    0.12    1.15    1.45    97.03580    21.10610    24.19811
   294  H   1.0    0.05    1.05    1.44    96.26569    23.33980    19.30333
   295  H   1.0    0.05    1.05    1.44    98.04862    18.84375    20.47051
   296  H   1.0    0.05    1.04    1.43    94.47610    20.38999    16.29489
   297  H   1.0    0.04    1.02    1.43    97.76114    19.85438    16.11720
   298  H   1.0    0.04    1.01    1.43    95.07985    15.41629    20.54713
   299  H   1.0    0.08    1.08    1.44    94.08626    17.60355    22.85027
   300  H   1.0    0.05    1.01    1.43    92.48519    17.43488    19.94607
   301  H   1.0    0.05    1.00    1.43    95.70669    16.66336    13.68863
   302  H   1.0    0.04    1.00    1.43    96.76825    15.10464    16.43581
   303  H   1.0    0.05    1.00    1.43    93.52828    15.90091    16.06044
   304  N   5.0   -0.13    3.55    2.11    91.37023    21.82217    22.71358
   305  C   4.0    0.04    4.35    4.30    88.73545    22.42865    23.01225
   306  C   4.0    0.16    3.46    3.10    88.41783    25.32729    22.72140
   307  O   6.0   -0.31    1.27    1.80    87.12594    26.28703    21.02893
   308  C   4.0   -0.07    4.14    3.87    87.76953    21.56574    25.58544
   309  H   1.0    0.12    1.11    1.44    92.30187    21.20580    24.25861
   310  H   1.0    0.06    1.09    1.44    87.66107    21.56842    21.46168
   311  H   1.0    0.04    1.00    1.43    85.75573    21.96802    25.71957
   312  H   1.0    0.06    1.02    1.43    88.07771    19.55594    25.79116
   313  H   1.0    0.07    1.02    1.43    88.74981    22.53972    27.09411
   314  N   5.0   -0.14    3.50    2.08    89.62514    26.69229    24.47431
   315  C   4.0    0.04    4.44    4.44    89.54344    29.40740    24.46642
   316  C   4.0    0.16    3.63    3.18    90.04296    30.53689    21.85235
   317  O   6.0   -0.31    1.32    1.80    88.70656    32.20724    20.92679
   318  C   4.0   -0.04    4.39    4.36    91.58752    30.41696    26.19989
   319  C   4.0   -0.01    3.63    3.19    92.38453    33.06582    25.51986
   320  C   4.0   -0.04    3.48    3.10    91.12437    35.12924    26.54920
   321  C   4.0   -0.04    3.48    3.11    94.51130    33.49386    24.03666
   322  C   4.0   -0.05    3.37    3.07    92.05966    37.55820    26.32145
   323  C   4.0   -0.05    3.38    3.07    95.43921    35.92817    23.78847
   324  C   4.0   -0.05    3.38    3.07    94.27808    37.94093    25.00062
   325  H   1.0    0.10    1.09    1.44    90.68262    25.80563    25.80252
   326  H   1.0    0.05    1.05    1.44    87.65707    30.05215    25.04967
   327  H   1.0    0.04    1.03    1.43    90.94345    30.36019    28.15677
   328  H   1.0    0.06    1.05    1.44    93.23685    29.19014    26.01426
   329  H   1.0    0.05    1.03    1.43    89.42644    34.79316    27.63386
   330  H   1.0    0.05    1.03    1.43    95.52629    31.91572    23.23080
   331  H   1.0    0.05    1.03    1.43    91.10719    39.11093    27.22937
   332  H   1.0    0.04    1.03    1.43    97.15764    36.25380    22.74230
   333  H   1.0    0.04    1.03    1.43    95.12506    39.79184    24.89820
   334  N   5.0   -0.14    3.56    2.13    92.09263    29.71192    20.67476
   335  C   4.0    0.04    4.39    4.36    92.72677    30.82011    18.25620
   336  C   4.0    0.16    3.53    3.13    90.52885    30.68005    16.39964
   337  O   6.0   -0.31    1.27    1.80    90.29497    32.31893    14.78388
   338  C   4.0   -0.08    4.13    3.86    94.96257    29.43675    17.10983
   339  H   1.0    0.11    1.12    1.45    93.26981    28.40586    21.43842
   340  H   1.0    0.05    1.05    1.44    93.17480    32.83164    18.52008
   341  H   1.0    0.04    1.01    1.43    95.52577    30.33725    15.36209
   342  H   1.0    0.04    1.00    1.43    96.54090    29.45141    18.43164
   343  H   1.0    0.05    1.00    1.43    94.44111    27.48003    16.72990
   344  N   5.0   -0.13    3.54    2.11    89.00776    28.65834    16.59896
   345  C   4.0    0.03    4.44    4.45    86.84847    28.33416    14.90903
   346  C   4.0    0.16    3.53    3.13    85.42998    30.83238    15.02144
   347  O   6.0   -0.32    1.26    1.80    84.75952    32.07079    13.17691
   348  C   4.0   -0.05    4.29    4.17    85.05964    26.11678    15.55293
   349  C   4.0   -0.03    4.18    3.97    82.73932    25.97701    13.76817
   350  C   4.0   -0.08    4.15    3.91    83.41098    26.20174    10.99344
   351  C   4.0   -0.08    4.14    3.87    81.30211    23.50523    13.97901
   352  H   1.0    0.11    1.08    1.44    89.30503    27.31092    17.91995
   353  H   1.0    0.04    1.05    1.44    87.58913    28.08681    12.98665
   354  H   1.0    0.05    1.02    1.43    86.16012    24.37812    15.40907
   355  H   1.0    0.06    1.03    1.43    84.43103    26.28763    17.50253
   356  H   1.0    0.04    1.05    1.44    81.46913    27.54650    14.25526
   357  H   1.0    0.03    1.00    1.43    81.73274    25.95466     9.83230
   358  H   1.0    0.05    1.00    1.43    84.19904    28.05076    10.53718
   359  H   1.0    0.03    1.00    1.43    84.78583    24.75898    10.48099
   360  H   1.0    0.03    1.01    1.43    79.77904    23.50829    12.61818
   361  H   1.0    0.04    1.00    1.43    82.56330    21.93063    13.57452
   362  H   1.0    0.04    1.00    1.43    80.53824    23.23149    15.87181
   363  N   5.0   -0.14    3.58    2.14    84.91366    31.47720    17.40295
   364  C   4.0    0.04    4.38    4.35    83.16716    33.45501    18.09880
   365  C   4.0    0.16    3.51    3.12    84.14734    36.12417    17.47519
   366  O   6.0   -0.31    1.35    1.80    82.80072    37.45749    16.12564
   367  C   4.0   -0.03    4.33    4.26    82.26494    32.81056    20.76479
   368  C   4.0   -0.01    3.57    3.15    81.92490    35.00986    22.49951
   369  C   4.0   -0.04    3.46    3.10    79.68131    35.21998    23.85674
   370  C   4.0   -0.04    3.51    3.12    83.94066    36.63003    23.02621
   371  C   4.0   -0.04    3.36    3.07    79.48115    36.95254    25.81552
   372  C   4.0   -0.05    3.37    3.07    83.68139    38.46355    24.87773
   373  C   4.0   -0.05    3.39    3.07    81.48037    38.57998    26.33498
   374  H   1.0    0.11    1.11    1.45    85.75703    30.48854    18.79911
   375  H   1.0    0.05    1.07    1.44    81.54739    33.30909    16.79942
   376  H   1.0    0.04    1.03    1.43    80.52330    31.72030    20.63947
   377  H   1.0    0.06    1.05    1.44    83.69971    31.59887    21.64361
   378  H   1.0    0.05    1.03    1.43    78.13948    33.94932    23.44910
   379  H   1.0    0.06    1.06    1.44    85.75728    36.28624    22.21011
   380  H   1.0    0.05    1.03    1.43    77.78755    37.00318    26.94502
   381  H   1.0    0.04    1.03    1.43    85.27006    39.65745    25.32928
   382  H   1.0    0.05    1.03    1.43    81.37435    39.82543    27.94523
   383  N   5.0   -0.15    3.49    2.07    86.40069    36.94708    18.28375
   384  C   4.0    0.04    4.55    4.60    87.09125    39.38706    17.22375
   385  C   4.0    0.16    3.61    3.17    87.14008    39.39451    14.34603
   386  O   6.0   -0.32    1.31    1.80    86.85419    41.35805    13.16141
   387  C   4.0   -0.03    4.32    4.23    89.52732    40.74483    18.15622
   388  C   4.0   -0.05    4.22    4.03    91.67610    40.82400    16.21237
   389  C   4.0   -0.07    4.15    3.89    90.25929    39.69711    20.73012
   390  C   4.0   -0.08    4.04    3.69    93.94755    42.20782    17.23337
   391  H   1.0    0.10    1.06    1.44    87.71761    35.70755    18.91336
   392  H   1.0    0.05    1.07    1.44    85.49828    40.62663    17.71574
   393  H   1.0    0.04    1.06    1.44    88.98133    42.72338    18.42586
   394  H   1.0    0.04    1.02    1.43    92.21723    38.89683    15.65821
   395  H   1.0    0.05    1.05    1.44    91.01433    41.79782    14.52569
   396  H   1.0    0.04    1.00    1.43    91.66972    40.90136    21.59961
   397  H   1.0    0.04    1.00    1.43    88.62586    39.61956    21.96122
   398  H   1.0    0.05    1.00    1.43    91.05894    37.80609    20.57051
   399  H   1.0    0.04    1.00    1.43    95.30871    42.54298    15.72181
   400  H   1.0    0.04    1.00    1.43    93.39549    44.03813    17.98691
   401  H   1.0    0.04    1.00    1.43    94.89615    41.14331    18.70975
   402  N   5.0   -0.14    3.52    2.09    87.59003    37.23023    13.15545
   403  C   4.0    0.05    4.49    4.52    87.47263    37.28631    10.44035
   404  C   4.0    0.16    3.62    3.18    84.73407    37.69631     9.60656
   405  O   6.0   -0.31    1.33    1.80    84.36626    39.03291     7.72878
   406  C   4.0   -0.04    4.31    4.21    88.58889    34.91122     9.21335
   407  C   4.0   -0.01    3.61    3.17    87.94163    34.84479     6.42486
   408  C   4.0   -0.05    3.45    3.09    89.81105    35.04434     4.59066
   409  C   4.0   -0.03    3.59    3.16    85.42939    34.52656     5.69996
   410  C   4.0   -0.05    3.38    3.07    89.15222    34.96048     2.08030
   411  C   4.0   -0.04    3.37    3.07    84.75229    34.57433     3.20292
   412  C   4.0   -0.04    3.40    3.08    86.62379    34.76267     1.40611
   413  H   1.0    0.11    1.07    1.44    88.04228    35.57619    14.00730
   414  H   1.0    0.06    1.06    1.44    88.49452    38.95944     9.76005
   415  H   1.0    0.04    1.03    1.43    90.62747    34.89320     9.49460
   416  H   1.0    0.06    1.03    1.43    87.78733    33.25328    10.15496
   417  H   1.0    0.04    1.03    1.43    91.76200    35.25221     5.15560
   418  H   1.0    0.05    1.05    1.44    84.02917    34.14190     7.13845
   419  H   1.0    0.05    1.03    1.43    90.57767    35.05834     0.62277
   420  H   1.0    0.05    1.03    1.43    82.79812    34.40713     2.63983
   421  H   1.0    0.05    1.03    1.43    86.12378    34.75586    -0.57881
   422  N   5.0   -0.13    3.46    2.05    82.82714    36.65951    10.96055
   423  C   4.0    0.04    4.54    4.59    80.32446    37.00807     9.85502
   424  C   4.0    0.16    3.52    3.12    79.37051    39.69491    10.28763
   425  O   6.0   -0.31    1.29    1.80    78.18859    40.78709     8.61330
   426  C   4.0   -0.02    4.24    4.08    78.18487    35.16185    10.44905
   427  C   4.0   -0.07    4.13    3.87    76.37940    35.17243     8.16527
   428  C   4.0   -0.07    4.11    3.82    79.09968    32.47336    10.90021
   429  H   1.0    0.11    1.09    1.44    83.21307    35.24502    12.19142
   430  H   1.0    0.06    1.09    1.44    80.62126    36.92583     7.79187
   431  H   1.0    0.04    1.05    1.44    77.18150    35.81363    12.13324
   432  H   1.0    0.04    1.00    1.43    74.66511    34.14081     8.63865
   433  H   1.0    0.06    1.01    1.43    75.87257    37.09466     7.65569
   434  H   1.0    0.04    1.00    1.43    77.26791    34.28236     6.54023
   435  H   1.0    0.03    1.00    1.43    77.49361    31.25494    11.30794
   436  H   1.0    0.04    1.00    1.43    80.05916    31.74551     9.22824
   437  H   1.0    0.06    1.00    1.43    80.41419    32.35908    12.47191
   438  N   5.0   -0.14    3.44    2.04    79.86424    40.81831    12.50361
   439  C   4.0    0.04    4.46    4.48    79.21197    43.48337    12.58776
   440  C   4.0    0.15    3.47    3.10    80.90004    45.15115    10.92000
   441  O   6.0   -0.29    1.40    1.80    79.78656    46.31747     9.23598
   442  C   4.0   -0.05    4.26    4.11    78.70697    44.48025    15.21618
   443  C   4.0   -0.05    4.18    3.96    80.92179    44.21341    17.03924
   444  C   4.0   -0.05    4.20    3.99    79.87330    43.59684    19.67875
   445  C   4.0   -0.04    4.12    3.85    81.92812    43.70319    21.68995
   446  N   5.0   -0.12    4.04    2.97    80.71649    43.86220    24.21087
   447  H   1.0    0.11    1.07    1.44    80.90485    39.94712    13.85449
   448  H   1.0    0.07    1.10    1.44    77.40031    43.61521    11.56983
   449  H   1.0    0.05    1.03    1.43    78.12289    46.44984    15.05410
   450  H   1.0    0.04    1.04    1.43    77.09528    43.41563    15.94518
   451  H   1.0    0.05    1.03    1.43    82.17325    42.69715    16.42412
   452  H   1.0    0.04    1.02    1.43    82.01365    45.95604    17.09512
   453  H   1.0    0.04    1.03    1.43    78.41871    44.99588    20.09866
   454  H   1.0    0.05    1.03    1.43    79.00293    41.73187    19.63050
   455  H   1.0    0.04    1.02    1.43    83.10599    42.01465    21.62192
   456  H   1.0    0.04    1.02    1.43    83.10502    45.37248    21.40628
   457  H   1.0    0.05    1.02    1.43    82.04151    44.15108    25.61381
   458  H   1.0    0.05    1.02    1.43    79.44193    45.33935    24.24843
   459  H   1.0    0.06    1.04    1.43    79.76563    42.20040    24.60926
   460  N   5.0   -0.14    3.38    2.01    83.39395    45.39898    11.21456
   461  C   4.0    0.04    4.45    4.46    84.73342    46.98908     9.36585
   462  C   4.0    0.16    3.53    3.13    83.68576    46.64632     6.63775
   463  O   6.0   -0.28    1.24    1.80    83.50020    48.44555     5.17550
   464  C   4.0   -0.02    4.26    4.12    87.66489    46.63533     9.35068
   465  C   4.0   -0.05    4.16    3.92    88.79995    47.31713    11.95723
   466  C   4.0   -0.07    4.12    3.83    88.92598    48.24520     7.27994
   467  C   4.0   -0.08    4.00    3.62    91.65771    46.89738    12.18643
   468  H   1.0    0.10    1.07    1.44    84.45683    44.16421    12.23062
   469  H   1.0    0.06    1.05    1.44    84.32454    48.97267     9.82601
   470  H   1.0    0.05    1.04    1.43    88.03946    44.62661     8.96097
   471  H   1.0    0.04    1.03    1.43    88.38102    49.29677    12.35243
   472  H   1.0    0.05    1.03    1.43    87.86739    46.16172    13.38418
   473  H   1.0    0.04    1.00    1.43    90.93494    47.85411     7.21618
   474  H   1.0    0.06    1.00    1.43    88.11949    47.88111     5.42868
   475  H   1.0    0.05    1.00    1.43    88.64648    50.23790     7.70360
   476  H   1.0    0.04    1.00    1.43    92.21945    47.13350    14.14378
   477  H   1.0    0.04    1.00    1.43    92.16882    45.00206    11.56961
   478  H   1.0    0.04    1.00    1.43    92.70722    48.25669    11.05957
   479  N   5.0   -0.13    3.52    2.09    83.11989    44.30192     5.87109
   480  C   4.0    0.05    4.39    4.36    82.60215    43.87702     3.24725
   481  C   4.0    0.16    3.40    3.08    79.89171    44.42101     2.42147
   482  O   6.0   -0.27    1.23    1.80    79.38400    44.26037     0.16133
   483  C   4.0   -0.05    4.15    3.90    83.20295    41.14852     2.57786
   484  H   1.0    0.11    1.08    1.44    83.39070    42.74471     6.95621
   485  H   1.0    0.07    1.06    1.44    83.77771    45.17380     2.12647
   486  H   1.0    0.06    1.00    1.43    82.79662    40.84242     0.58954
   487  H   1.0    0.05    1.00    1.43    85.17892    40.72637     2.94569
   488  H   1.0    0.07    1.00    1.43    82.04422    39.89429     3.71560
   489  N   5.0   -0.12    3.43    2.03    78.18500    44.97283     4.21419
   490  C   4.0    0.05    4.24    4.08    75.48113    45.18073     3.66836
   491  C   4.0    0.10    3.16    3.03    74.61514    47.97772     3.44423
   492  O   6.0   -0.25    1.10    1.80    73.20120    48.84243     1.81944
   493  C   4.0   -0.03    4.26    4.11    73.91706    43.77302     5.69648
   494  C   4.0    0.16    3.17    3.03    72.60125    41.31498     4.82627
   495  O   6.0   -0.27    1.19    1.80    72.69049    40.40683     2.71130
   496  N   5.0   -0.18    3.18    1.95    71.28806    40.20153     6.70499
   497  H   1.0    0.12    1.10    1.44    78.74623    45.03384     6.04498
   498  H   1.0    0.09    1.06    1.44    75.15965    44.29648     1.81836
   499  H   1.0    0.07    1.05    1.44    75.19505    43.22037     7.21574
   500  H   1.0    0.05    1.03    1.43    72.46228    45.02020     6.45860
   501  H   1.0    0.10    1.03    1.43    70.39070    38.55530     6.37315
   502  H   1.0    0.08    1.03    1.43    71.28439    40.89647     8.47233
   503  N   5.0   -0.21    3.18    1.95    69.40904    24.51694     2.03851
   504  C   4.0    0.03    4.27    4.14    70.52832    24.53715     4.52920
   505  C   4.0    0.08    3.33    3.06    70.64631    21.96790     5.79411
   506  O   6.0   -0.32    1.18    1.80    72.69577    21.14340     6.48628
   507  C   4.0   -0.05    4.40    4.39    69.03262    26.19594     6.32636
   508  C   4.0   -0.02    4.26    4.12    70.12506    25.92545     8.99206
   509  C   4.0   -0.08    4.09    3.78    72.26868    27.83540     9.35534
   510  C   4.0   -0.08    4.09    3.78    67.98196    26.10004    10.91781
   511  H   1.0    0.08    1.03    1.43    68.43374    26.11391     1.59056
   512  H   1.0    0.05    1.05    1.44    72.49658    25.19682     4.40116
   513  H   1.0    0.04    1.02    1.43    69.08777    28.16552     5.70439
   514  H   1.0    0.04    1.03    1.43    67.06834    25.56666     6.31271
   515  H   1.0    0.05    1.11    1.45    70.95042    24.06197     9.22224
   516  H   1.0    0.03    1.00    1.43    73.01721    27.70585    11.26444
   517  H   1.0    0.04    1.00    1.43    73.79146    27.42762     8.04264
   518  H   1.0    0.04    1.00    1.43    71.59259    29.75038     9.04276
   519  H   1.0    0.04    1.00    1.43    68.69132    25.99020    12.84216
   520  H   1.0    0.04    1.00    1.43    66.96857    27.88036    10.71149
   521  H   1.0    0.04    1.00    1.43    66.66248    24.55188    10.64044
   522  N   5.0   -0.21    3.23    1.96    77.04215    18.53686     8.38407
   523  C   4.0    0.03    4.34    4.27    77.82497    17.86852    10.91083
   524  C   4.0    0.08    3.33    3.06    78.14246    15.05543    11.24019
   525  O   6.0   -0.32    1.18    1.80    79.56018    14.17175    12.86332
   526  C   4.0   -0.02    4.42    4.41    75.86752    18.54969    12.88022
   527  C   4.0   -0.05    4.20    3.99    75.39675    21.40705    12.92871
   528  C   4.0   -0.07    4.18    3.96    76.63948    17.53396    15.47743
   529  C   4.0   -0.08    4.02    3.66    72.61108    21.93147    13.51099
   530  H   1.0    0.11    1.06    1.44    75.30363    19.26080     8.07545
   531  H   1.0    0.04    1.05    1.44    79.64499    18.78374    11.31340
   532  H   1.0    0.05    1.07    1.44    74.10946    17.61013    12.30192
   533  H   1.0    0.03    1.03    1.43    76.54732    22.27619    14.38811
   534  H   1.0    0.04    1.03    1.43    75.85972    22.23099    11.10006
   535  H   1.0    0.04    1.00    1.43    75.49871    18.43682    16.93254
   536  H   1.0    0.06    1.01    1.43    76.34806    15.51155    15.61935
   537  H   1.0    0.04    1.00    1.43    78.61794    17.93635    15.84148
   538  H   1.0    0.04    1.00    1.43    72.28610    23.95241    13.65069
   539  H   1.0    0.05    1.00    1.43    71.40883    21.14176    12.04871
   540  H   1.0    0.04    1.00    1.43    72.08502    21.06101    15.29779
   541  N   5.0   -0.20    3.21    1.96    85.01914    13.60291     7.58327
   542  C   4.0    0.04    4.45    4.46    86.91519    14.79454     9.13332
   543  C   4.0    0.15    3.54    3.13    87.33609    13.72590    11.73786
   544  O   6.0   -0.31    1.24    1.80    89.51898    13.60706    12.54145
   545  C   4.0   -0.02    4.36    4.31    86.20025    17.53270     9.67507
   546  C   4.0   -0.07    4.22    4.03    87.94078    18.59445    11.71165
   547  C   4.0   -0.08    4.12    3.84    86.37513    19.11199     7.26943
   548  H   1.0    0.08    1.03    1.43    83.52296    14.67303     7.04525
   549  H   1.0    0.07    1.06    1.44    88.75297    14.71151     8.16856
   550  H   1.0    0.04    1.05    1.44    84.24010    17.56041    10.35496
   551  H   1.0    0.03    1.00    1.43    87.74794    20.64266    11.82068
   552  H   1.0    0.05    1.02    1.43    87.52684    17.85331    13.57851
   553  H   1.0    0.06    1.00    1.43    89.89821    18.14949    11.26644
   554  H   1.0    0.03    1.00    1.43    86.00492    21.08477     7.68790
   555  H   1.0    0.05    1.00    1.43    88.25359    18.94748     6.45686
   556  H   1.0    0.04    1.00    1.43    85.00049    18.46796     5.88633
   557  N   5.0   -0.15    3.44    2.04    85.23367    13.24058    13.10477
   558  C   4.0    0.04    4.35    4.29    85.34296    12.28467    15.66479
   559  C   4.0    0.08    3.21    3.04    85.21256     9.41259    15.87516
   560  O   6.0   -0.29    1.12    1.80    85.76866     8.29461    17.83181
   561  C   4.0   -0.04    4.30    4.19    83.32924    13.36802    17.37741
   562  C   4.0   -0.04    4.03    3.68    83.64536    16.19228    17.80369
   563  S   6.0   -0.05    2.51    3.10    86.72163    17.56205    18.85270
   564  C   4.0   -0.07    3.96    3.55    87.07983    16.29065    21.99785
   565  H   1.0    0.10    1.07    1.44    83.50380    13.37151    12.29889
   566  H   1.0    0.06    1.08    1.44    87.21413    12.84687    16.39938
   567  H   1.0    0.06    1.04    1.43    81.48089    13.08925    16.51328
   568  H   1.0    0.05    1.03    1.43    83.39730    12.34449    19.16846
   569  H   1.0    0.04    1.08    1.44    83.33812    17.17696    16.01941
   570  H   1.0    0.04    1.06    1.44    82.24542    16.85007    19.16585
   571  H   1.0    0.06    1.06    1.44    88.92495    16.86818    22.65613
   572  H   1.0    0.04    1.05    1.44    85.58360    17.04371    23.16962
   573  H   1.0    0.05    1.07    1.44    86.98956    14.25140    21.84789
   574  N   5.0   -0.19    3.20    1.96    91.98797     8.37840    15.65622
   575  C   4.0    0.04    4.14    3.89    92.91688     8.95519    18.17253
   576  C   4.0    0.09    3.23    3.04    92.76126     6.60888    19.81755
   577  O   6.0   -0.28    1.11    1.80    94.48497     5.88671    21.18493
   578  C   4.0   -0.07    4.12    3.83    91.33132    10.99675    19.43769
   579  H   1.0    0.10    1.03    1.43    90.82543     9.68042    14.88435
   580  H   1.0    0.05    1.05    1.44    94.90297     9.55135    18.05413
   581  H   1.0    0.04    1.00    1.43    92.06317    11.38599    21.31552
   582  H   1.0    0.04    1.00    1.43    91.39468    12.73192    18.33062
   583  H   1.0    0.06    1.00    1.43    89.37873    10.37702    19.62919
   584  N   5.0   -0.20    3.15    1.95   109.93360    35.66456    -0.20975
   585  C   4.0    0.03    4.22    4.04   107.15876    35.69343    -0.17513
   586  C   4.0    0.09    3.32    3.06   105.99027    36.16769    -2.71880
   587  O   6.0   -0.28    1.12    1.80   104.25014    34.87821    -3.56329
   588  C   4.0   -0.04    4.33    4.25   106.00187    37.94218     1.32034
   589  C   4.0   -0.01    3.54    3.13   103.12046    37.71564     1.48532
   590  C   4.0   -0.03    3.47    3.10   101.90855    35.55448     2.39265
   591  C   4.0   -0.03    3.46    3.10   101.57106    39.73836     0.87980
   592  C   4.0   -0.04    3.40    3.08    99.29951    35.37570     2.50207
   593  C   4.0   -0.04    3.40    3.08    98.95168    39.53253     0.99481
   594  C   4.0   -0.04    3.35    3.06    97.76614    37.33547     1.73283
   595  H   1.0    0.09    1.03    1.43   110.73107    37.04713     0.85558
   596  H   1.0    0.05    1.05    1.44   106.46778    33.91479     0.61210
   597  H   1.0    0.04    1.02    1.43   106.78331    37.92319     3.24050
   598  H   1.0    0.04    1.03    1.43   106.50318    39.72850     0.44481
   599  H   1.0    0.05    1.03    1.43   103.01145    33.92911     2.96361
   600  H   1.0    0.05    1.03    1.43   102.39964    41.51346     0.28555
   601  H   1.0    0.05    1.03    1.43    98.46910    33.58814     3.06971
   602  H   1.0    0.05    1.03    1.43    97.83673    41.17424     0.49197
   603  H   1.0    0.05    1.03    1.43    95.73918    37.19519     1.77789
   604  H   1.0    0.09    1.07    1.44    91.13796    20.55709    -6.78188
   605  H   1.0    0.07    1.04    1.43   103.78689    25.52744     5.11249
   606  H   1.0    0.09    1.07    1.44   104.20722    31.20503     5.17773
   607  H   1.0    0.07    1.04    1.43   107.48184    26.92472    13.73589
   608  H   1.0    0.10    1.07    1.44   106.39653    37.99519    16.45141
   609  H   1.0    0.06    1.04    1.43   113.47514    34.74552    21.36352
   610  H   1.0    0.09    1.08    1.44   109.27322    40.33362    28.16461
   611  H   1.0    0.07    1.04    1.43   114.02004    37.16367    30.92291
   612  H   1.0    0.09    1.07    1.44    98.74056    13.69199    35.72382
   613  H   1.0    0.07    1.05    1.44    75.21823    49.25690     4.69765
   614  H   1.0    0.10    1.07    1.44    70.63056    24.33878     0.86859
   615  H   1.0    0.05    1.04    1.44    69.06329    20.96912     6.05406
   616  H   1.0    0.09    1.07    1.44    78.09168    19.72016     7.75888
   617  H   1.0    0.06    1.05    1.44    77.19102    13.86050    10.12755
   618  H   1.0    0.10    1.07    1.44    85.72851    13.05848     6.13657
   619  H   1.0    0.06    1.05    1.44    84.66093     8.38058    14.39134
   620  H   1.0    0.10    1.07    1.44    93.30214     8.22086    14.58819
   621  H   1.0    0.07    1.05    1.44    91.18891     5.56067    19.82205
   622  H   1.0    0.10    1.07    1.44   110.49340    34.17533     0.39140
   623  H   1.0    0.06    1.05    1.44   106.62474    37.58064    -3.80142

  Z AO/shell   Hii/eV     exponent
  1     Wed Apr 25 08:07:45 CEST 2018   EN: 2.200 GM2: 0.406  GM3: 0.0800  RAES: 1.40
     1s    -10.707211    1.230000
  6     Wed Apr 25 08:07:45 CEST 2018   EN: 2.550 GM2: 0.538  GM3: 0.1500  RAES: 3.00
     2s    -13.970922    2.096432
     2p    -10.063292    1.800000
  7     Wed Apr 25 08:07:45 CEST 2018   EN: 3.040 GM2: 0.461  GM3:-0.0640  RAES: 1.90
     2s    -16.686243    2.339881
     2p    -12.523956    2.014332
  8     Wed Apr 25 08:07:45 CEST 2018   EN: 3.440 GM2: 0.452  GM3:-0.0517  RAES: 1.80
     2s    -20.229985    2.439742
     2p    -15.503117    2.137023
 16     Tue Apr 24 11:44:34 CEST 2018   EN: 2.580 GM2: 0.340  GM3:-0.0502  RAES: 3.10
     3s    -20.029654    1.981333
     3p    -11.377694    2.025643
     3d     -0.420282    1.702555
 no old-style atom pair restraining (fixing) potential

molecular fragmentation (1/2 indicates fragments):
111111111111111111111111111111111111111111111111111111111111111111111111
111111111111111111111111111111111222222222222222222222222222222222222222
222222222222222222222222222222222222222222222222222222222222222222222222
222222222222222222222222222222222222222222222222222222222222222222222222
222222222222222222222222222222222222222222222222222222222222222222222222
222222222222222222222222222222222222222222222222222222222222222222222222
222222222222222222222222222222222222222222222222222222222222222222222222
222222222222222222222222222222222222222222222222222222222222222222222222
22222222222222222222222222211222222222222222222
# atoms in fragment 1/2:   107   516
 fragment masses (1/2) :      721.93     3313.39
CMA distance (Bohr)    :  16.985
constraining FC (au)   :  0.0500
           ------------------------------------------------- 
          |        Self-Consistent Charge Iterations        |
           ------------------------------------------------- 

 Ncao       : 1490
 Nao        : 1487
 Nshell     : 909
 Nel        : 1594
 T(el)      :   500.0
 intcut     :    35.0
 scfconv/Eh :  0.100E-06
   qconv/e  :  0.100E-04
 intneglect :  0.100E-08
 broydamp   :      0.400
 iter      E             dE          RMSdq      gap      omega  full diag
   1   -897.8212222 -0.897821E+03  0.427E+00    2.65       0.0  T
   2   -899.5991648 -0.177794E+01  0.207E+00    1.40       1.0  T
   3   -899.6968484 -0.976836E-01  0.116E+00    1.75       1.0  T
   4   -899.8472081 -0.150360E+00  0.236E-01    1.23       1.0  T
   5   -899.8549367 -0.772853E-02  0.115E-01    1.43       1.0  T
   6   -899.8566748 -0.173813E-02  0.542E-02    1.43       1.0  T
   7   -899.8572124 -0.537611E-03  0.233E-02    1.45       1.0  T
   8   -899.8572651 -0.527542E-04  0.114E-02    1.47       1.0  T
   9   -899.8572823 -0.171620E-04  0.542E-03    1.47       1.0  T
  10   -899.8572858 -0.345078E-05  0.253E-03    1.47       1.6  T
  11   -899.8572866 -0.861464E-06  0.123E-03    1.47       3.3  T
  12   -899.8572868 -0.200834E-06  0.584E-04    1.47       6.9  T
  13   -899.8572869 -0.619568E-07  0.293E-04    1.47      13.7  T
  14   -899.8572869 -0.100138E-07  0.143E-04    1.47      28.0  T
  15   -899.8572869 -0.367447E-08  0.667E-05    1.47      60.1  T
  16   -899.8572869 -0.674731E-09  0.359E-05    1.47     111.6  T
speedup  1.98
cpu  time for SCC   23.47 s
wall time for SCC   11.85 s

   *** convergence criteria satisfied after 16 iterations ***

          eigenvalues
 #    :         785        786        787        788        789        790        791        792
 occ. :        2.000      2.000      2.000      2.000      2.000      2.000      2.000      2.000
 eps  :       -10.384    -10.183    -10.165    -10.114    -10.061    -10.048     -9.839     -9.797
 #    :         793        794        795        796        797        798        799        800
 occ. :        2.000      2.000      2.000      2.000      2.000      0.000      0.000      0.000
 eps  :        -9.764     -9.689     -9.664     -9.591     -9.580     -8.110     -7.882     -7.851
 #    :         801        802        803        804        805        806        807        808
 occ. :        0.000      0.000      0.000      0.000      0.000      0.000      0.000      0.000
 eps  :        -7.829     -7.786     -7.762     -7.707     -7.649     -7.642     -7.461     -6.942


   #   Z            q   n(s)   n(p)   n(d)      C6AA      α(0)
   1   7 N     -0.398  1.314  4.085  0.000    30.324     8.179
   2   6 C      0.025  1.066  2.909  0.000    20.168     6.396
   3   6 C      0.266  1.049  2.685  0.000    22.516     7.771
   4   8 O     -0.481  1.747  4.734  0.000    23.366     6.481
   5   6 C     -0.079  1.061  3.018  0.000    22.005     6.678
   6   6 C      0.004  1.086  2.910  0.000    27.930     8.669
   7   6 C     -0.042  1.081  2.961  0.000    29.032     8.836
   8   6 C     -0.044  1.081  2.963  0.000    29.091     8.845
   9   6 C     -0.030  1.077  2.952  0.000    28.738     8.791
  10   6 C     -0.035  1.078  2.956  0.000    28.864     8.810
  11   6 C     -0.035  1.078  2.957  0.000    28.877     8.813
  12   1 H      0.170  0.830  0.000  0.000     1.271     1.766
  13   1 H      0.043  0.957  0.000  0.000     2.409     2.427
  14   1 H      0.064  0.936  0.000  0.000     2.150     2.293
  15   1 H      0.056  0.944  0.000  0.000     2.247     2.344
  16   1 H      0.040  0.960  0.000  0.000     2.447     2.446
  17   1 H      0.038  0.962  0.000  0.000     2.471     2.458
  18   1 H      0.027  0.973  0.000  0.000     2.625     2.533
  19   1 H      0.039  0.961  0.000  0.000     2.462     2.454
  20   1 H      0.032  0.968  0.000  0.000     2.556     2.500
  21   7 N     -0.176  1.243  3.933  0.000    24.807     7.397
  22   6 C      0.036  1.050  2.914  0.000    19.973     6.362
  23   6 C      0.270  1.046  2.684  0.000    22.450     7.762
  24   8 O     -0.491  1.755  4.736  0.000    23.589     6.512
  25   6 C     -0.113  1.062  3.051  0.000    22.656     6.775
  26   6 C      0.293  1.030  2.677  0.000    22.022     7.684
  27   8 O     -0.483  1.758  4.725  0.000    23.404     6.486
  28   7 N     -0.288  1.267  4.021  0.000    27.442     7.780
  29   1 H      0.228  0.772  0.000  0.000     0.976     1.547
  30   1 H      0.068  0.932  0.000  0.000     2.111     2.272
  31   1 H      0.090  0.910  0.000  0.000     1.877     2.143
  32   1 H      0.084  0.916  0.000  0.000     1.942     2.179
  33   1 H      0.227  0.773  0.000  0.000     0.977     1.548
  34   1 H      0.238  0.762  0.000  0.000     0.933     1.513
  35   7 N     -0.174  1.244  3.930  0.000    24.762     7.391
  36   6 C      0.020  1.062  2.918  0.000    20.219     6.397
  37   6 C      0.280  1.044  2.676  0.000    22.265     7.730
  38   8 O     -0.487  1.745  4.743  0.000    23.505     6.500
  39   6 C     -0.083  1.057  3.025  0.000    22.079     6.690
  40   6 C     -0.072  1.056  3.017  0.000    21.895     6.664
  41   6 C     -0.092  1.063  3.028  0.000    22.269     6.722
  42   6 C     -0.053  1.079  2.974  0.000    21.667     6.653
  43   7 N     -0.147  1.233  3.914  0.000    24.161     7.300
  44   1 H      0.226  0.774  0.000  0.000     0.981     1.552
  45   1 H      0.091  0.909  0.000  0.000     1.874     2.141
  46   1 H      0.082  0.918  0.000  0.000     1.955     2.187
  47   1 H      0.064  0.936  0.000  0.000     2.148     2.292
  48   1 H      0.073  0.927  0.000  0.000     2.051     2.240
  49   1 H      0.045  0.955  0.000  0.000     2.386     2.415
  50   1 H      0.073  0.927  0.000  0.000     2.054     2.241
  51   1 H      0.084  0.916  0.000  0.000     1.942     2.179
  52   1 H      0.129  0.871  0.000  0.000     1.539     1.940
  53   1 H      0.117  0.883  0.000  0.000     1.640     2.002
  54   1 H      0.305  0.695  0.000  0.000     0.697     1.308
  55   1 H      0.268  0.732  0.000  0.000     0.817     1.416
  56   1 H      0.300  0.700  0.000  0.000     0.712     1.322
  57   7 N     -0.170  1.248  3.922  0.000    24.682     7.379
  58   6 C      0.027  1.065  2.908  0.000    20.092     6.377
  59   6 C      0.294  1.036  2.670  0.000    22.013     7.684
  60   8 O     -0.504  1.744  4.760  0.000    23.863     6.550
  61   6 C     -0.019  1.060  2.959  0.000    20.873     6.497
  62   6 C     -0.062  1.044  3.018  0.000    21.680     6.628
  63   6 C     -0.120  1.040  3.080  0.000    22.853     6.816
  64   6 C     -0.106  1.036  3.069  0.000    22.562     6.771
  65   1 H      0.202  0.798  0.000  0.000     1.094     1.639
  66   1 H      0.068  0.932  0.000  0.000     2.110     2.272
  67   1 H      0.039  0.961  0.000  0.000     2.462     2.454
  68   1 H      0.059  0.941  0.000  0.000     2.213     2.326
  69   1 H      0.018  0.982  0.000  0.000     2.767     2.601
  70   1 H      0.061  0.939  0.000  0.000     2.193     2.316
  71   1 H      0.048  0.952  0.000  0.000     2.349     2.397
  72   1 H      0.045  0.955  0.000  0.000     2.384     2.414
  73   1 H      0.031  0.969  0.000  0.000     2.579     2.511
  74   1 H      0.034  0.966  0.000  0.000     2.527     2.486
  75   1 H      0.048  0.952  0.000  0.000     2.351     2.398
  76   7 N     -0.188  1.252  3.936  0.000    25.080     7.438
  77   6 C      0.031  1.053  2.916  0.000    20.053     6.375
  78   6 C      0.296  1.039  2.665  0.000    21.987     7.681
  79   8 O     -0.498  1.738  4.760  0.000    23.739     6.532
  80   6 C     -0.019  1.067  2.951  0.000    20.861     6.494
  81   6 C     -0.061  1.050  3.012  0.000    21.680     6.629
  82   6 C     -0.105  1.038  3.067  0.000    22.558     6.772
  83   6 C     -0.103  1.033  3.069  0.000    22.522     6.768
  84   1 H      0.222  0.778  0.000  0.000     1.001     1.567
  85   1 H      0.053  0.947  0.000  0.000     2.288     2.366
  86   1 H      0.045  0.955  0.000  0.000     2.387     2.416
  87   1 H      0.034  0.966  0.000  0.000     2.534     2.489
  88   1 H      0.050  0.950  0.000  0.000     2.314     2.379
  89   1 H      0.047  0.953  0.000  0.000     2.363     2.404
  90   1 H      0.040  0.960  0.000  0.000     2.451     2.448
  91   1 H      0.035  0.965  0.000  0.000     2.512     2.479
  92   1 H      0.046  0.954  0.000  0.000     2.375     2.410
  93   1 H      0.029  0.971  0.000  0.000     2.603     2.523
  94   1 H      0.034  0.966  0.000  0.000     2.531     2.488
  95   7 N     -0.179  1.256  3.922  0.000    24.874     7.407
  96   6 C      0.032  1.058  2.909  0.000    19.989     6.358
  97   6 C      0.191  1.097  2.711  0.000    23.905     8.006
  98   8 O     -0.340  1.756  4.585  0.000    20.527     6.074
  99   6 C     -0.026  1.079  2.947  0.000    21.049     6.534
 100  16 S     -0.318  1.959  4.315  0.043   154.863    20.945
 101   1 H      0.227  0.773  0.000  0.000     0.980     1.550
 102   1 H      0.082  0.918  0.000  0.000     1.957     2.187
 103   1 H      0.091  0.909  0.000  0.000     1.865     2.135
 104   1 H      0.095  0.905  0.000  0.000     1.834     2.118
 105   1 H      0.209  0.791  0.000  0.000     1.055     1.606
 106   7 N     -0.393  1.315  4.077  0.000    30.166     8.157
 107   6 C      0.035  1.065  2.900  0.000    20.014     6.374
 108   6 C      0.262  1.064  2.674  0.000    22.584     7.781
 109   8 O     -0.504  1.759  4.746  0.000    23.882     6.552
 110   6 C     -0.080  1.065  3.015  0.000    22.016     6.678
 111   6 C     -0.013  1.060  2.953  0.000    20.766     6.482
 112   6 C     -0.109  1.039  3.071  0.000    22.645     6.785
 113   6 C     -0.103  1.041  3.062  0.000    22.533     6.769
 114   1 H      0.169  0.831  0.000  0.000     1.281     1.773
 115   1 H      0.034  0.966  0.000  0.000     2.536     2.490
 116   1 H      0.042  0.958  0.000  0.000     2.419     2.432
 117   1 H      0.060  0.940  0.000  0.000     2.195     2.317
 118   1 H      0.023  0.977  0.000  0.000     2.694     2.567
 119   1 H      0.040  0.960  0.000  0.000     2.445     2.445
 120   1 H      0.037  0.963  0.000  0.000     2.488     2.467
 121   1 H      0.037  0.963  0.000  0.000     2.492     2.469
 122   1 H      0.041  0.959  0.000  0.000     2.430     2.438
 123   1 H      0.032  0.968  0.000  0.000     2.554     2.499
 124   1 H      0.029  0.971  0.000  0.000     2.604     2.524
 125   7 N     -0.171  1.242  3.929  0.000    24.701     7.381
 126   6 C      0.029  1.056  2.916  0.000    20.097     6.383
 127   6 C      0.205  1.083  2.712  0.000    23.652     7.965
 128   8 O     -0.359  1.746  4.613  0.000    20.871     6.125
 129   6 C     -0.009  1.058  2.951  0.000    20.704     6.472
 130   6 C     -0.120  1.041  3.079  0.000    22.848     6.815
 131   6 C     -0.105  1.037  3.068  0.000    22.574     6.775
 132   1 H      0.226  0.774  0.000  0.000     0.981     1.551
 133   1 H      0.075  0.925  0.000  0.000     2.028     2.227
 134   1 H      0.041  0.959  0.000  0.000     2.434     2.440
 135   1 H      0.040  0.960  0.000  0.000     2.454     2.450
 136   1 H      0.075  0.925  0.000  0.000     2.029     2.228
 137   1 H      0.053  0.947  0.000  0.000     2.285     2.364
 138   1 H      0.041  0.959  0.000  0.000     2.437     2.441
 139   1 H      0.044  0.956  0.000  0.000     2.401     2.423
 140   1 H      0.038  0.962  0.000  0.000     2.479     2.462
 141   7 N     -0.405  1.311  4.093  0.000    30.499     8.202
 142   6 C      0.031  1.054  2.915  0.000    20.050     6.375
 143   6 C      0.275  1.042  2.683  0.000    22.351     7.744
 144   8 O     -0.504  1.741  4.763  0.000    23.881     6.552
 145   6 C     -0.016  1.066  2.949  0.000    20.811     6.487
 146   6 C     -0.061  1.053  3.008  0.000    21.672     6.628
 147   6 C     -0.105  1.036  3.069  0.000    22.557     6.773
 148   6 C     -0.107  1.037  3.070  0.000    22.609     6.781
 149   1 H      0.172  0.828  0.000  0.000     1.263     1.760
 150   1 H      0.037  0.963  0.000  0.000     2.483     2.464
 151   1 H      0.025  0.975  0.000  0.000     2.654     2.548
 152   1 H      0.040  0.960  0.000  0.000     2.443     2.444
 153   1 H      0.040  0.960  0.000  0.000     2.455     2.450
 154   1 H      0.044  0.956  0.000  0.000     2.402     2.423
 155   1 H      0.023  0.977  0.000  0.000     2.683     2.562
 156   1 H      0.050  0.950  0.000  0.000     2.319     2.381
 157   1 H      0.042  0.958  0.000  0.000     2.421     2.433
 158   1 H      0.032  0.968  0.000  0.000     2.558     2.501
 159   1 H      0.040  0.960  0.000  0.000     2.443     2.444
 160   7 N     -0.170  1.240  3.930  0.000    24.687     7.379
 161   6 C      0.033  1.048  2.919  0.000    20.005     6.365
 162   6 C      0.203  1.083  2.714  0.000    23.692     7.974
 163   8 O     -0.375  1.755  4.620  0.000    21.196     6.173
 164   6 C     -0.067  1.053  3.014  0.000    21.734     6.628
 165   6 C     -0.008  1.068  2.940  0.000    20.729     6.482
 166  16 S     -0.220  1.925  4.253  0.042   150.452    20.644
 167   6 C     -0.056  1.062  2.994  0.000    21.672     6.643
 168   1 H      0.222  0.778  0.000  0.000     1.002     1.568
 169   1 H      0.089  0.911  0.000  0.000     1.890     2.150
 170   1 H      0.082  0.918  0.000  0.000     1.957     2.188
 171   1 H      0.068  0.932  0.000  0.000     2.110     2.271
 172   1 H      0.052  0.948  0.000  0.000     2.297     2.370
 173   1 H      0.070  0.930  0.000  0.000     2.082     2.257
 174   1 H      0.055  0.945  0.000  0.000     2.263     2.352
 175   1 H      0.059  0.941  0.000  0.000     2.207     2.323
 176   1 H      0.046  0.954  0.000  0.000     2.374     2.410
 177   7 N     -0.395  1.296  4.099  0.000    30.239     8.167
 178   6 C      0.044  1.050  2.906  0.000    19.841     6.342
 179   6 C      0.196  1.091  2.713  0.000    23.812     7.991
 180   8 O     -0.383  1.754  4.628  0.000    21.342     6.194
 181   6 C     -0.008  1.058  2.949  0.000    20.670     6.465
 182   6 C     -0.061  1.052  3.010  0.000    21.674     6.627
 183   6 C     -0.111  1.038  3.072  0.000    22.660     6.786
 184   6 C     -0.106  1.037  3.068  0.000    22.578     6.776
 185   1 H      0.171  0.829  0.000  0.000     1.265     1.762
 186   1 H      0.055  0.945  0.000  0.000     2.256     2.349
 187   1 H      0.030  0.970  0.000  0.000     2.582     2.513
 188   1 H      0.041  0.959  0.000  0.000     2.436     2.441
 189   1 H      0.045  0.955  0.000  0.000     2.377     2.411
 190   1 H      0.040  0.960  0.000  0.000     2.445     2.445
 191   1 H      0.031  0.969  0.000  0.000     2.568     2.506
 192   1 H      0.046  0.954  0.000  0.000     2.365     2.405
 193   1 H      0.043  0.957  0.000  0.000     2.407     2.426
 194   1 H      0.032  0.968  0.000  0.000     2.558     2.501
 195   1 H      0.034  0.966  0.000  0.000     2.527     2.486
 196   7 N     -0.398  1.325  4.073  0.000    30.322     8.178
 197   6 C      0.027  1.065  2.908  0.000    20.130     6.390
 198   6 C      0.273  1.051  2.676  0.000    22.392     7.751
 199   8 O     -0.491  1.731  4.760  0.000    23.587     6.512
 200   6 C     -0.019  1.067  2.952  0.000    20.882     6.500
 201   6 C     -0.063  1.055  3.009  0.000    21.717     6.635
 202   6 C     -0.103  1.034  3.068  0.000    22.522     6.768
 203   6 C     -0.113  1.037  3.075  0.000    22.717     6.797
 204   1 H      0.168  0.832  0.000  0.000     1.286     1.776
 205   1 H      0.049  0.951  0.000  0.000     2.328     2.386
 206   1 H      0.029  0.971  0.000  0.000     2.601     2.522
 207   1 H      0.044  0.956  0.000  0.000     2.391     2.418
 208   1 H      0.045  0.955  0.000  0.000     2.385     2.415
 209   1 H      0.049  0.951  0.000  0.000     2.331     2.387
 210   1 H      0.012  0.988  0.000  0.000     2.864     2.647
 211   1 H      0.046  0.954  0.000  0.000     2.372     2.408
 212   1 H      0.048  0.952  0.000  0.000     2.342     2.393
 213   1 H      0.034  0.966  0.000  0.000     2.524     2.485
 214   1 H      0.041  0.959  0.000  0.000     2.440     2.443
 215   7 N     -0.179  1.250  3.929  0.000    24.886     7.409
 216   6 C      0.061  1.042  2.897  0.000    19.530     6.286
 217   6 C      0.278  1.041  2.682  0.000    22.305     7.735
 218   8 O     -0.482  1.728  4.755  0.000    23.391     6.484
 219   6 C     -0.101  1.068  3.032  0.000    22.418     6.740
 220   6 C      0.374  1.019  2.607  0.000    20.664     7.440
 221   8 O     -0.612  1.765  4.847  0.000    26.419     6.891
 222   8 O     -0.642  1.773  4.869  0.000    27.179     6.990
 223   1 H      0.209  0.791  0.000  0.000     1.063     1.615
 224   1 H      0.055  0.945  0.000  0.000     2.254     2.348
 225   1 H      0.031  0.969  0.000  0.000     2.578     2.511
 226   1 H      0.036  0.964  0.000  0.000     2.507     2.476
 227   7 N     -0.188  1.250  3.938  0.000    25.080     7.438
 228   6 C      0.017  1.066  2.917  0.000    20.273     6.409
 229   6 C      0.289  1.031  2.680  0.000    22.106     7.700
 230   8 O     -0.469  1.738  4.730  0.000    23.099     6.444
 231   6 C     -0.082  1.062  3.019  0.000    22.050     6.683
 232   6 C      0.009  1.078  2.913  0.000    27.815     8.651
 233   6 C     -0.039  1.082  2.957  0.000    28.963     8.826
 234   6 C     -0.038  1.078  2.960  0.000    28.954     8.824
 235   6 C     -0.028  1.081  2.947  0.000    28.709     8.787
 236   6 C     -0.033  1.082  2.951  0.000    28.815     8.803
 237   6 C     -0.033  1.078  2.955  0.000    28.816     8.803
 238   1 H      0.221  0.779  0.000  0.000     1.007     1.572
 239   1 H      0.075  0.925  0.000  0.000     2.032     2.229
 240   1 H      0.069  0.931  0.000  0.000     2.096     2.264
 241   1 H      0.062  0.938  0.000  0.000     2.172     2.305
 242   1 H      0.033  0.967  0.000  0.000     2.543     2.494
 243   1 H      0.040  0.960  0.000  0.000     2.451     2.448
 244   1 H      0.039  0.961  0.000  0.000     2.460     2.453
 245   1 H      0.047  0.953  0.000  0.000     2.357     2.401
 246   1 H      0.047  0.953  0.000  0.000     2.359     2.402
 247   7 N     -0.177  1.236  3.940  0.000    24.821     7.399
 248   6 C      0.026  1.059  2.915  0.000    20.126     6.386
 249   6 C      0.272  1.047  2.681  0.000    22.403     7.752
 250   8 O     -0.506  1.736  4.769  0.000    23.908     6.556
 251   6 C     -0.023  1.062  2.960  0.000    20.941     6.508
 252   6 C     -0.070  1.058  3.012  0.000    21.839     6.653
 253   6 C     -0.112  1.035  3.077  0.000    22.702     6.793
 254   6 C     -0.114  1.039  3.074  0.000    22.744     6.802
 255   1 H      0.195  0.805  0.000  0.000     1.130     1.666
 256   1 H      0.083  0.917  0.000  0.000     1.953     2.186
 257   1 H      0.049  0.951  0.000  0.000     2.336     2.390
 258   1 H      0.054  0.946  0.000  0.000     2.274     2.358
 259   1 H      0.036  0.964  0.000  0.000     2.497     2.471
 260   1 H      0.060  0.940  0.000  0.000     2.204     2.322
 261   1 H      0.034  0.966  0.000  0.000     2.528     2.487
 262   1 H      0.046  0.954  0.000  0.000     2.368     2.406
 263   1 H      0.053  0.947  0.000  0.000     2.279     2.361
 264   1 H      0.035  0.965  0.000  0.000     2.518     2.482
 265   1 H      0.045  0.955  0.000  0.000     2.388     2.417
 266   7 N     -0.190  1.259  3.931  0.000    25.131     7.445
 267   6 C      0.017  1.074  2.908  0.000    20.281     6.412
 268   6 C      0.271  1.053  2.676  0.000    22.414     7.752
 269   8 O     -0.495  1.731  4.764  0.000    23.674     6.524
 270   6 C     -0.016  1.056  2.960  0.000    20.821     6.489
 271   6 C     -0.049  1.043  3.006  0.000    21.428     6.588
 272   6 C     -0.103  1.034  3.069  0.000    22.518     6.764
 273   6 C     -0.103  1.034  3.069  0.000    22.510     6.764
 274   1 H      0.233  0.767  0.000  0.000     0.954     1.530
 275   1 H      0.068  0.932  0.000  0.000     2.104     2.268
 276   1 H      0.056  0.944  0.000  0.000     2.250     2.346
 277   1 H      0.022  0.978  0.000  0.000     2.707     2.573
 278   1 H      0.032  0.968  0.000  0.000     2.556     2.500
 279   1 H      0.060  0.940  0.000  0.000     2.198     2.318
 280   1 H      0.043  0.957  0.000  0.000     2.408     2.427
 281   1 H      0.026  0.974  0.000  0.000     2.640     2.541
 282   1 H      0.042  0.958  0.000  0.000     2.426     2.436
 283   1 H      0.035  0.965  0.000  0.000     2.519     2.482
 284   1 H      0.037  0.963  0.000  0.000     2.491     2.468
 285   7 N     -0.198  1.260  3.938  0.000    25.312     7.472
 286   6 C      0.024  1.069  2.907  0.000    20.179     6.398
 287   6 C      0.276  1.043  2.681  0.000    22.324     7.737
 288   8 O     -0.500  1.752  4.749  0.000    23.792     6.540
 289   6 C     -0.013  1.066  2.947  0.000    20.777     6.483
 290   6 C     -0.059  1.053  3.006  0.000    21.639     6.623
 291   6 C     -0.127  1.039  3.088  0.000    22.997     6.837
 292   6 C     -0.102  1.038  3.063  0.000    22.507     6.766
 293   1 H      0.235  0.765  0.000  0.000     0.946     1.523
 294   1 H      0.053  0.947  0.000  0.000     2.284     2.363
 295   1 H      0.032  0.968  0.000  0.000     2.564     2.504
 296   1 H      0.042  0.958  0.000  0.000     2.428     2.437
 297   1 H      0.029  0.971  0.000  0.000     2.607     2.525
 298   1 H      0.040  0.960  0.000  0.000     2.451     2.448
 299   1 H      0.074  0.926  0.000  0.000     2.038     2.232
 300   1 H      0.041  0.959  0.000  0.000     2.440     2.443
 301   1 H      0.045  0.955  0.000  0.000     2.377     2.411
 302   1 H      0.036  0.964  0.000  0.000     2.508     2.476
 303   1 H      0.044  0.956  0.000  0.000     2.400     2.423
 304   7 N     -0.172  1.243  3.929  0.000    24.716     7.384
 305   6 C      0.028  1.059  2.913  0.000    20.114     6.386
 306   6 C      0.267  1.053  2.680  0.000    22.500     7.768
 307   8 O     -0.494  1.744  4.750  0.000    23.643     6.519
 308   6 C     -0.144  1.044  3.100  0.000    23.330     6.887
 309   1 H      0.213  0.787  0.000  0.000     1.042     1.599
 310   1 H      0.083  0.917  0.000  0.000     1.953     2.186
 311   1 H      0.060  0.940  0.000  0.000     2.195     2.317
 312   1 H      0.083  0.917  0.000  0.000     1.944     2.181
 313   1 H      0.075  0.925  0.000  0.000     2.028     2.227
 314   7 N     -0.186  1.250  3.936  0.000    25.023     7.429
 315   6 C      0.033  1.054  2.913  0.000    20.022     6.371
 316   6 C      0.283  1.042  2.675  0.000    22.209     7.718
 317   8 O     -0.502  1.732  4.770  0.000    23.821     6.544
 318   6 C     -0.082  1.054  3.028  0.000    22.040     6.681
 319   6 C      0.004  1.083  2.913  0.000    27.931     8.669
 320   6 C     -0.041  1.081  2.960  0.000    29.021     8.835
 321   6 C     -0.044  1.082  2.962  0.000    29.096     8.846
 322   6 C     -0.034  1.081  2.953  0.000    28.854     8.808
 323   6 C     -0.037  1.081  2.956  0.000    28.922     8.819
 324   6 C     -0.035  1.081  2.954  0.000    28.879     8.813
 325   1 H      0.220  0.780  0.000  0.000     1.010     1.574
 326   1 H      0.070  0.930  0.000  0.000     2.084     2.258
 327   1 H      0.066  0.934  0.000  0.000     2.132     2.284
 328   1 H      0.055  0.945  0.000  0.000     2.253     2.347
 329   1 H      0.048  0.952  0.000  0.000     2.347     2.396
 330   1 H      0.023  0.977  0.000  0.000     2.693     2.566
 331   1 H      0.064  0.936  0.000  0.000     2.148     2.292
 332   1 H      0.040  0.960  0.000  0.000     2.442     2.444
 333   1 H      0.048  0.952  0.000  0.000     2.348     2.396
 334   7 N     -0.192  1.254  3.938  0.000    25.171     7.451
 335   6 C      0.040  1.053  2.907  0.000    19.898     6.350
 336   6 C      0.282  1.041  2.677  0.000    22.225     7.720
 337   8 O     -0.493  1.737  4.756  0.000    23.632     6.518
 338   6 C     -0.121  1.039  3.082  0.000    22.872     6.818
 339   1 H      0.227  0.773  0.000  0.000     0.979     1.550
 340   1 H      0.066  0.934  0.000  0.000     2.133     2.284
 341   1 H      0.073  0.927  0.000  0.000     2.051     2.239
 342   1 H      0.063  0.937  0.000  0.000     2.162     2.300
 343   1 H      0.046  0.954  0.000  0.000     2.372     2.409
 344   7 N     -0.185  1.246  3.938  0.000    25.005     7.427
 345   6 C      0.030  1.061  2.909  0.000    20.074     6.379
 346   6 C      0.283  1.040  2.677  0.000    22.204     7.717
 347   8 O     -0.487  1.735  4.752  0.000    23.497     6.499
 348   6 C     -0.078  1.060  3.017  0.000    21.982     6.675
 349   6 C     -0.008  1.055  2.953  0.000    20.691     6.470
 350   6 C     -0.110  1.039  3.070  0.000    22.632     6.780
 351   6 C     -0.118  1.043  3.075  0.000    22.797     6.805
 352   1 H      0.205  0.795  0.000  0.000     1.083     1.630
 353   1 H      0.062  0.938  0.000  0.000     2.179     2.308
 354   1 H      0.056  0.944  0.000  0.000     2.246     2.343
 355   1 H      0.065  0.935  0.000  0.000     2.138     2.287
 356   1 H      0.031  0.969  0.000  0.000     2.572     2.508
 357   1 H      0.049  0.951  0.000  0.000     2.331     2.387
 358   1 H      0.032  0.968  0.000  0.000     2.565     2.505
 359   1 H      0.034  0.966  0.000  0.000     2.533     2.489
 360   1 H      0.062  0.938  0.000  0.000     2.175     2.306
 361   1 H      0.039  0.961  0.000  0.000     2.469     2.457
 362   1 H      0.042  0.958  0.000  0.000     2.426     2.436
 363   7 N     -0.186  1.249  3.937  0.000    25.022     7.429
 364   6 C      0.028  1.062  2.910  0.000    20.114     6.387
 365   6 C      0.269  1.049  2.682  0.000    22.462     7.763
 366   8 O     -0.479  1.738  4.741  0.000    23.320     6.475
 367   6 C     -0.077  1.055  3.022  0.000    21.953     6.668
 368   6 C      0.010  1.082  2.908  0.000    27.792     8.647
 369   6 C     -0.040  1.084  2.956  0.000    28.992     8.830
 370   6 C     -0.054  1.085  2.969  0.000    29.345     8.883
 371   6 C     -0.038  1.084  2.954  0.000    28.947     8.823
 372   6 C     -0.045  1.084  2.961  0.000    29.125     8.850
 373   6 C     -0.061  1.084  2.977  0.000    29.509     8.908
 374   1 H      0.212  0.788  0.000  0.000     1.045     1.602
 375   1 H      0.073  0.927  0.000  0.000     2.051     2.240
 376   1 H      0.066  0.934  0.000  0.000     2.134     2.284
 377   1 H      0.062  0.938  0.000  0.000     2.178     2.308
 378   1 H      0.038  0.962  0.000  0.000     2.478     2.462
 379   1 H      0.052  0.948  0.000  0.000     2.292     2.368
 380   1 H      0.052  0.948  0.000  0.000     2.290     2.366
 381   1 H      0.062  0.938  0.000  0.000     2.174     2.306
 382   1 H      0.069  0.931  0.000  0.000     2.091     2.262
 383   7 N     -0.165  1.251  3.914  0.000    24.570     7.362
 384   6 C      0.007  1.067  2.926  0.000    20.445     6.434
 385   6 C      0.282  1.041  2.678  0.000    22.228     7.722
 386   8 O     -0.497  1.735  4.762  0.000    23.714     6.529
 387   6 C     -0.030  1.070  2.960  0.000    21.075     6.529
 388   6 C     -0.058  1.045  3.013  0.000    21.617     6.620
 389   6 C     -0.123  1.039  3.084  0.000    22.907     6.824
 390   6 C     -0.111  1.036  3.075  0.000    22.671     6.789
 391   1 H      0.212  0.788  0.000  0.000     1.045     1.601
 392   1 H      0.096  0.904  0.000  0.000     1.823     2.112
 393   1 H      0.074  0.926  0.000  0.000     2.048     2.238
 394   1 H      0.015  0.985  0.000  0.000     2.814     2.623
 395   1 H      0.043  0.957  0.000  0.000     2.415     2.430
 396   1 H      0.068  0.932  0.000  0.000     2.105     2.269
 397   1 H      0.067  0.933  0.000  0.000     2.118     2.276
 398   1 H      0.029  0.971  0.000  0.000     2.605     2.524
 399   1 H      0.034  0.966  0.000  0.000     2.526     2.486
 400   1 H      0.051  0.949  0.000  0.000     2.310     2.377
 401   1 H      0.045  0.955  0.000  0.000     2.388     2.416
 402   7 N     -0.179  1.241  3.938  0.000    24.876     7.407
 403   6 C      0.041  1.055  2.903  0.000    19.873     6.345
 404   6 C      0.281  1.049  2.670  0.000    22.238     7.723
 405   8 O     -0.506  1.752  4.754  0.000    23.924     6.558
 406   6 C     -0.074  1.055  3.019  0.000    21.906     6.662
 407   6 C      0.010  1.084  2.906  0.000    27.778     8.645
 408   6 C     -0.039  1.077  2.962  0.000    28.980     8.828
 409   6 C     -0.028  1.078  2.950  0.000    28.709     8.787
 410   6 C     -0.034  1.077  2.957  0.000    28.843     8.807
 411   6 C     -0.028  1.075  2.954  0.000    28.712     8.787
 412   6 C     -0.036  1.080  2.956  0.000    28.893     8.815
 413   1 H      0.204  0.796  0.000  0.000     1.085     1.631
 414   1 H      0.065  0.935  0.000  0.000     2.140     2.288
 415   1 H      0.054  0.946  0.000  0.000     2.268     2.355
 416   1 H      0.068  0.932  0.000  0.000     2.112     2.273
 417   1 H      0.031  0.969  0.000  0.000     2.565     2.505
 418   1 H      0.027  0.973  0.000  0.000     2.625     2.534
 419   1 H      0.038  0.962  0.000  0.000     2.470     2.457
 420   1 H      0.032  0.968  0.000  0.000     2.555     2.499
 421   1 H      0.035  0.965  0.000  0.000     2.523     2.484
 422   7 N     -0.193  1.263  3.930  0.000    25.184     7.453
 423   6 C      0.027  1.059  2.914  0.000    20.112     6.383
 424   6 C      0.272  1.047  2.682  0.000    22.411     7.754
 425   8 O     -0.502  1.750  4.752  0.000    23.826     6.544
 426   6 C     -0.016  1.060  2.956  0.000    20.828     6.491
 427   6 C     -0.120  1.044  3.076  0.000    22.844     6.814
 428   6 C     -0.114  1.039  3.076  0.000    22.739     6.799
 429   1 H      0.229  0.771  0.000  0.000     0.971     1.544
 430   1 H      0.063  0.937  0.000  0.000     2.164     2.300
 431   1 H      0.050  0.950  0.000  0.000     2.320     2.382
 432   1 H      0.058  0.942  0.000  0.000     2.219     2.330
 433   1 H      0.046  0.954  0.000  0.000     2.374     2.409
 434   1 H      0.040  0.960  0.000  0.000     2.447     2.446
 435   1 H      0.060  0.940  0.000  0.000     2.203     2.321
 436   1 H      0.040  0.960  0.000  0.000     2.453     2.449
 437   1 H      0.046  0.954  0.000  0.000     2.376     2.411
 438   7 N     -0.183  1.249  3.934  0.000    24.963     7.421
 439   6 C      0.018  1.060  2.922  0.000    20.258     6.406
 440   6 C      0.269  1.049  2.682  0.000    22.456     7.760
 441   8 O     -0.504  1.756  4.747  0.000    23.867     6.550
 442   6 C     -0.088  1.055  3.033  0.000    22.173     6.703
 443   6 C     -0.081  1.051  3.030  0.000    22.050     6.685
 444   6 C     -0.101  1.060  3.042  0.000    22.426     6.741
 445   6 C     -0.054  1.059  2.994  0.000    21.630     6.638
 446   7 N     -0.141  1.230  3.912  0.000    24.052     7.284
 447   1 H      0.229  0.771  0.000  0.000     0.968     1.541
 448   1 H      0.088  0.912  0.000  0.000     1.902     2.157
 449   1 H      0.070  0.930  0.000  0.000     2.082     2.256
 450   1 H      0.085  0.915  0.000  0.000     1.931     2.173
 451   1 H      0.049  0.951  0.000  0.000     2.336     2.390
 452   1 H      0.066  0.934  0.000  0.000     2.127     2.280
 453   1 H      0.089  0.911  0.000  0.000     1.886     2.147
 454   1 H      0.080  0.920  0.000  0.000     1.975     2.198
 455   1 H      0.107  0.893  0.000  0.000     1.723     2.053
 456   1 H      0.126  0.874  0.000  0.000     1.567     1.958
 457   1 H      0.298  0.702  0.000  0.000     0.721     1.330
 458   1 H      0.303  0.697  0.000  0.000     0.705     1.316
 459   1 H      0.280  0.720  0.000  0.000     0.776     1.380
 460   7 N     -0.176  1.258  3.919  0.000    24.822     7.399
 461   6 C      0.014  1.076  2.910  0.000    20.345     6.423
 462   6 C      0.289  1.045  2.666  0.000    22.097     7.698
 463   8 O     -0.514  1.757  4.757  0.000    24.089     6.580
 464   6 C     -0.018  1.071  2.947  0.000    20.873     6.499
 465   6 C     -0.069  1.055  3.014  0.000    21.822     6.651
 466   6 C     -0.113  1.038  3.074  0.000    22.714     6.796
 467   6 C     -0.110  1.038  3.072  0.000    22.669     6.790
 468   1 H      0.230  0.770  0.000  0.000     0.967     1.540
 469   1 H      0.073  0.927  0.000  0.000     2.048     2.238
 470   1 H      0.036  0.964  0.000  0.000     2.505     2.475
 471   1 H      0.048  0.952  0.000  0.000     2.351     2.398
 472   1 H      0.059  0.941  0.000  0.000     2.216     2.328
 473   1 H      0.059  0.941  0.000  0.000     2.216     2.328
 474   1 H      0.025  0.975  0.000  0.000     2.658     2.550
 475   1 H      0.047  0.953  0.000  0.000     2.353     2.399
 476   1 H      0.056  0.944  0.000  0.000     2.244     2.342
 477   1 H      0.034  0.966  0.000  0.000     2.526     2.485
 478   1 H      0.039  0.961  0.000  0.000     2.462     2.454
 479   7 N     -0.183  1.243  3.940  0.000    24.956     7.419
 480   6 C      0.039  1.050  2.911  0.000    19.917     6.353
 481   6 C      0.277  1.045  2.678  0.000    22.315     7.736
 482   8 O     -0.513  1.752  4.761  0.000    24.083     6.580
 483   6 C     -0.114  1.040  3.075  0.000    22.729     6.796
 484   1 H      0.208  0.792  0.000  0.000     1.064     1.616
 485   1 H      0.061  0.939  0.000  0.000     2.182     2.310
 486   1 H      0.063  0.937  0.000  0.000     2.168     2.303
 487   1 H      0.064  0.936  0.000  0.000     2.152     2.294
 488   1 H      0.059  0.941  0.000  0.000     2.206     2.323
 489   7 N     -0.178  1.251  3.927  0.000    24.848     7.403
 490   6 C      0.034  1.058  2.908  0.000    20.021     6.374
 491   6 C      0.200  1.093  2.707  0.000    23.746     7.980
 492   8 O     -0.366  1.760  4.606  0.000    21.021     6.147
 493   6 C     -0.113  1.069  3.044  0.000    22.665     6.778
 494   6 C      0.295  1.038  2.667  0.000    21.994     7.679
 495   8 O     -0.492  1.756  4.736  0.000    23.610     6.515
 496   7 N     -0.288  1.263  4.025  0.000    27.439     7.780
 497   1 H      0.228  0.772  0.000  0.000     0.976     1.547
 498   1 H      0.095  0.905  0.000  0.000     1.829     2.115
 499   1 H      0.117  0.883  0.000  0.000     1.637     2.001
 500   1 H      0.085  0.915  0.000  0.000     1.926     2.170
 501   1 H      0.236  0.764  0.000  0.000     0.942     1.520
 502   1 H      0.234  0.766  0.000  0.000     0.950     1.526
 503   7 N     -0.394  1.320  4.074  0.000    30.209     8.163
 504   6 C      0.045  1.049  2.906  0.000    19.833     6.343
 505   6 C      0.207  1.092  2.701  0.000    23.599     7.957
 506   8 O     -0.376  1.745  4.631  0.000    21.216     6.175
 507   6 C     -0.078  1.061  3.016  0.000    21.966     6.669
 508   6 C     -0.020  1.058  2.962  0.000    20.891     6.501
 509   6 C     -0.112  1.041  3.072  0.000    22.708     6.795
 510   6 C     -0.117  1.043  3.074  0.000    22.795     6.808
 511   1 H      0.170  0.830  0.000  0.000     1.271     1.766
 512   1 H      0.032  0.968  0.000  0.000     2.563     2.504
 513   1 H      0.055  0.945  0.000  0.000     2.254     2.348
 514   1 H      0.056  0.944  0.000  0.000     2.246     2.344
 515   1 H      0.041  0.959  0.000  0.000     2.441     2.443
 516   1 H      0.043  0.957  0.000  0.000     2.403     2.424
 517   1 H      0.039  0.961  0.000  0.000     2.456     2.450
 518   1 H      0.043  0.957  0.000  0.000     2.411     2.428
 519   1 H      0.045  0.955  0.000  0.000     2.388     2.417
 520   1 H      0.044  0.956  0.000  0.000     2.395     2.420
 521   1 H      0.037  0.963  0.000  0.000     2.494     2.470
 522   7 N     -0.404  1.308  4.096  0.000    30.488     8.201
 523   6 C      0.044  1.050  2.906  0.000    19.851     6.345
 524   6 C      0.196  1.094  2.711  0.000    23.829     7.996
 525   8 O     -0.393  1.751  4.642  0.000    21.540     6.222
 526   6 C     -0.017  1.065  2.952  0.000    20.830     6.489
 527   6 C     -0.067  1.053  3.013  0.000    21.777     6.644
 528   6 C     -0.116  1.040  3.076  0.000    22.780     6.805
 529   6 C     -0.108  1.040  3.068  0.000    22.628     6.783
 530   1 H      0.187  0.813  0.000  0.000     1.176     1.699
 531   1 H      0.049  0.951  0.000  0.000     2.335     2.390
 532   1 H      0.039  0.961  0.000  0.000     2.460     2.453
 533   1 H      0.057  0.943  0.000  0.000     2.239     2.340
 534   1 H      0.041  0.959  0.000  0.000     2.432     2.439
 535   1 H      0.049  0.951  0.000  0.000     2.336     2.390
 536   1 H      0.033  0.967  0.000  0.000     2.541     2.493
 537   1 H      0.049  0.951  0.000  0.000     2.328     2.386
 538   1 H      0.047  0.953  0.000  0.000     2.363     2.404
 539   1 H      0.033  0.967  0.000  0.000     2.551     2.497
 540   1 H      0.038  0.962  0.000  0.000     2.481     2.463
 541   7 N     -0.397  1.314  4.083  0.000    30.294     8.174
 542   6 C      0.028  1.055  2.918  0.000    20.109     6.385
 543   6 C      0.274  1.049  2.677  0.000    22.378     7.748
 544   8 O     -0.502  1.755  4.747  0.000    23.829     6.545
 545   6 C     -0.011  1.062  2.949  0.000    20.725     6.473
 546   6 C     -0.102  1.037  3.065  0.000    22.490     6.761
 547   6 C     -0.110  1.041  3.069  0.000    22.656     6.786
 548   1 H      0.159  0.841  0.000  0.000     1.343     1.816
 549   1 H      0.056  0.944  0.000  0.000     2.241     2.341
 550   1 H      0.028  0.972  0.000  0.000     2.617     2.530
 551   1 H      0.031  0.969  0.000  0.000     2.569     2.506
 552   1 H      0.036  0.964  0.000  0.000     2.497     2.471
 553   1 H      0.040  0.960  0.000  0.000     2.455     2.450
 554   1 H      0.046  0.954  0.000  0.000     2.371     2.408
 555   1 H      0.039  0.961  0.000  0.000     2.460     2.453
 556   1 H      0.045  0.955  0.000  0.000     2.381     2.413
 557   7 N     -0.179  1.240  3.939  0.000    24.882     7.408
 558   6 C      0.031  1.050  2.919  0.000    20.063     6.379
 559   6 C      0.195  1.088  2.717  0.000    23.841     7.997
 560   8 O     -0.369  1.755  4.613  0.000    21.068     6.154
 561   6 C     -0.069  1.051  3.018  0.000    21.814     6.648
 562   6 C     -0.019  1.071  2.948  0.000    20.923     6.514
 563  16 S     -0.244  1.928  4.255  0.061   151.539    20.719
 564   6 C     -0.064  1.059  3.006  0.000    21.802     6.660
 565   1 H      0.214  0.786  0.000  0.000     1.038     1.596
 566   1 H      0.097  0.903  0.000  0.000     1.814     2.106
 567   1 H      0.092  0.908  0.000  0.000     1.862     2.134
 568   1 H      0.064  0.936  0.000  0.000     2.152     2.294
 569   1 H      0.065  0.935  0.000  0.000     2.144     2.290
 570   1 H      0.066  0.934  0.000  0.000     2.132     2.284
 571   1 H      0.075  0.925  0.000  0.000     2.028     2.227
 572   1 H      0.062  0.938  0.000  0.000     2.175     2.306
 573   1 H      0.056  0.944  0.000  0.000     2.249     2.345
 574   7 N     -0.387  1.313  4.074  0.000    30.020     8.137
 575   6 C      0.050  1.049  2.901  0.000    19.753     6.331
 576   6 C      0.205  1.092  2.703  0.000    23.655     7.966
 577   8 O     -0.388  1.756  4.632  0.000    21.442     6.208
 578   6 C     -0.108  1.039  3.069  0.000    22.608     6.778
 579   1 H      0.162  0.838  0.000  0.000     1.321     1.801
 580   1 H      0.035  0.965  0.000  0.000     2.511     2.478
 581   1 H      0.041  0.959  0.000  0.000     2.436     2.441
 582   1 H      0.061  0.939  0.000  0.000     2.184     2.311
 583   1 H      0.064  0.936  0.000  0.000     2.156     2.296
 584   7 N     -0.394  1.331  4.063  0.000    30.204     8.162
 585   6 C      0.041  1.054  2.906  0.000    19.912     6.357
 586   6 C      0.206  1.087  2.707  0.000    23.626     7.963
 587   8 O     -0.393  1.761  4.632  0.000    21.550     6.224
 588   6 C     -0.075  1.062  3.013  0.000    21.912     6.660
 589   6 C      0.007  1.089  2.905  0.000    27.873     8.660
 590   6 C     -0.037  1.080  2.957  0.000    28.912     8.818
 591   6 C     -0.042  1.083  2.959  0.000    29.044     8.838
 592   6 C     -0.028  1.078  2.950  0.000    28.695     8.785
 593   6 C     -0.032  1.082  2.951  0.000    28.804     8.802
 594   6 C     -0.034  1.076  2.958  0.000    28.851     8.808
 595   1 H      0.170  0.830  0.000  0.000     1.270     1.765
 596   1 H      0.055  0.945  0.000  0.000     2.261     2.351
 597   1 H      0.068  0.932  0.000  0.000     2.110     2.272
 598   1 H      0.058  0.942  0.000  0.000     2.222     2.331
 599   1 H      0.036  0.964  0.000  0.000     2.508     2.477
 600   1 H      0.034  0.966  0.000  0.000     2.524     2.484
 601   1 H      0.029  0.971  0.000  0.000     2.596     2.520
 602   1 H      0.033  0.967  0.000  0.000     2.549     2.497
 603   1 H      0.034  0.966  0.000  0.000     2.532     2.488
 604   1 H      0.184  0.816  0.000  0.000     1.191     1.710
 605   1 H      0.095  0.905  0.000  0.000     1.829     2.115
 606   1 H      0.175  0.825  0.000  0.000     1.242     1.746
 607   1 H      0.082  0.918  0.000  0.000     1.954     2.186
 608   1 H      0.176  0.824  0.000  0.000     1.238     1.743
 609   1 H      0.083  0.917  0.000  0.000     1.951     2.184
 610   1 H      0.182  0.818  0.000  0.000     1.203     1.718
 611   1 H      0.065  0.935  0.000  0.000     2.142     2.289
 612   1 H      0.185  0.815  0.000  0.000     1.183     1.704
 613   1 H      0.085  0.915  0.000  0.000     1.929     2.172
 614   1 H      0.181  0.819  0.000  0.000     1.209     1.722
 615   1 H      0.071  0.929  0.000  0.000     2.071     2.250
 616   1 H      0.173  0.827  0.000  0.000     1.256     1.756
 617   1 H      0.068  0.932  0.000  0.000     2.102     2.267
 618   1 H      0.182  0.818  0.000  0.000     1.199     1.715
 619   1 H      0.075  0.925  0.000  0.000     2.032     2.229
 620   1 H      0.185  0.815  0.000  0.000     1.184     1.705
 621   1 H      0.075  0.925  0.000  0.000     2.028     2.227
 622   1 H      0.197  0.803  0.000  0.000     1.122     1.659
 623   1 H      0.072  0.928  0.000  0.000     2.066     2.248

 Mol. C6AA /au·bohr⁶  :    3516805.843712
 Mol. C8AA /au·bohr⁸  :   79533931.253870
 Mol. α(0) /au        :       2831.761169

 
molecular dipole:
                 x           y           z       tot (Debye)
 q only:       83.895      26.787       7.232
   full:       84.997      23.885       7.796     225.288
molecular quadrupole (traceless):
                xx          xy          yy          xz          yz          zz
 q only:     6619.047    3208.719   -2895.349    -152.914    1094.867   -3723.698
  q+dip:     6857.112    2866.699   -3186.572     -30.641    1043.393   -3670.540
   full:     6854.588    2864.667   -3190.399     -32.865    1042.672   -3664.189
speedup  1.98
cpu  time for grad   28.41 s
wall time for grad   14.33 s

SCC energy    :    -899.8899857
rep           :      11.7195711
ES            :       2.0680874
AES           :      -0.0517796
AXC           :       0.3746691
disp          :      -0.8613862
XB            :       0.0000000
fix           :       0.0000000
Gborn         :       0.0000000
Gsasa         :       0.0000000
Ghb           :       0.0000000
Gshift        :       0.0000000
Gsolv         :      -0.4773773     -299.56
Etot ala COSMO:    -899.8899857
grad norm     :       0.7278180
total E       :    -888.0756625
atomizationE  :     171.4736431   107601.34
(atE without considering molecular charge,
 total energy contains solvation terms)
H-L gap (eV)  :          1.4707

------------------------------------------------------------------------
 * finished run on 2019/05/06 at 07:35:49.769     
------------------------------------------------------------------------
 total:
 * wall-time:     0 d,  0 h,  0 min, 15.589 sec
 *  cpu-time:     0 d,  0 h,  0 min, 30.593 sec
 * ratio c/w:     1.962 speedup
 SCF:
 * wall-time:     0 d,  0 h,  0 min, 15.101 sec
 *  cpu-time:     0 d,  0 h,  0 min, 29.896 sec
 * ratio c/w:     1.980 speedup

