      -----------------------------------------------------------      
     |                   =====================                   |     
     |                           x T B                           |     
     |                   =====================                   |     
     |                         S. Grimme                         |     
     |          Mulliken Center for Theoretical Chemistry        |     
     |                    University of Bonn                     |     
     |                 Version 6.0.1 (SAW181210)                 |     
      -----------------------------------------------------------      

   This program is distributed in the hope that it will be useful,
   but WITHOUT ANY WARRANTY; without even the implied warranty of
   MERCHANTABILITY or FITNESS FOR A PARTICULAR PURPOSE.
   
   FOR NON-COMMERCIAL, ACADEMIA USE ONLY.
   
   Cite this work as:
   S. Grimme, C. Bannwarth, P. Shushkov, J. Comput. Theory Chem., 2017,
   13, 1989-2009.
   C. Bannwarth, S. Ehlert and S. Grimme., ChemRxiv, 2018, preprint.
   http://doi.org/10.26434/chemrxiv.7246238.v1
   
   for sTDA-xTB:
   S. Grimme and C. Bannwarth, J. Chem. Phys., 2016, 145, 054103.
   
   in the mass-spec context:
   V. Asgeirsson, C. Bauer and S. Grimme, Chem. Sci., 2017, 8, 4879.
   
   if GBSA is used:
   P. Shushkov, F. März and S. Grimme, unpublished.
   
   for ANC optimizer:
   S. Grimme, unpublished.
   Rational Function algorithm used in ANCopt:
   F. Eckert, P. Pulay, H.-J. Werner, J. Comput. Chem., 1997, 18, 1473.
   
   with help from (in alphabetical order)
   C. Bannwarth, F. Bohle, G. Brandenburg, E. Caldeweyher, M. Checinski,
   S. Dohm, S. Ehlert, S. Ehrlich, F. März, H. Neugebauer, J. Pisarek,
   P. Pracht, P. Shushkov, and S. Spicher.
   
 * started run on 2019/05/11 at 08:42:31.211     
========================================================================
 # omp threads = 2
========================================================================
number of atoms            : 675
number of electrons        : 1752
charge                     : -1
spin                       : .0
first test random number   : .0987

########################################################################
# WARNING! Please study the warnings concerning your input carefully
#  - Process number higher than OMP_NUM_THREADS, I hope you know what you are doing.
########################################################################

           ------------------------------------------------- 
          |                 G F N 2 - x T B                 |
          | Geometry, Frequencies, Noncovalent interactions |
          |            JCTC 2018 parametrisation            |
           ------------------------------------------------- 
 
      method parameters     
 k(s)        :  1.8500
 k(p)        :  2.2300
 k(d)        :  2.2300
 k(f)        :  2.0000
 kEN (H0ij)  : -2.0000
 D4 a1       :  0.5200
 D4 a2       :  5.0000
 D4 s6       :  1.0000
 D4 s8       :  2.7000
 D4 s9       :  5.0000
 alphaj      :  2.0000

 Solvent             : h2o
 Using internal parameter file: .param_gbsa2_h2o
 Gsolv ref. state (COSMO-RS): gsolv [1 M gas/solution]
 temperature (mdtemp)       :    298.150000000000     
 dielectric constant        :    80.2000000000000     
 rho                        :    1.00000000000000     
 mass                       :    18.0000000000000     
 surface tension            :    15.5689454083859     
 probe radius               :   0.975313790000000     
 vdW radii scaling          :    1.00000000000000     
 Gshift (Eh)                :   1.857443126794793E-003
 c1                         :    1.55243817000000     
 soset                      :   0.130326360000000     
 HB correction              :  T

            Z     q(EN)     CN     RAES       Cart. coordinates
     1  N   5.0   -0.22    3.27    1.97    65.68792    -0.77124   -23.50981
     2  C   4.0    0.02    4.39    4.37    68.13961    -1.29002   -22.39753
     3  C   4.0    0.14    3.45    3.10    69.73083     1.13816   -22.46703
     4  O   6.0   -0.32    1.34    1.80    71.25124     1.62306   -20.78400
     5  C   4.0   -0.03    4.26    4.11    69.51681    -3.44576   -23.77894
     6  C   4.0   -0.08    4.12    3.85    71.92519    -4.13560   -22.34335
     7  C   4.0   -0.09    4.12    3.84    67.83524    -5.78218   -24.01698
     8  H   1.0    0.07    1.03    1.43    65.30076    -1.57606   -25.19110
     9  H   1.0    0.04    1.05    1.44    67.87710    -1.76853   -20.39882
    10  H   1.0    0.04    1.05    1.44    70.01930    -2.74304   -25.65938
    11  H   1.0    0.03    1.00    1.43    73.05425    -5.45412   -23.43629
    12  H   1.0    0.05    1.00    1.43    73.05382    -2.46661   -21.94913
    13  H   1.0    0.03    1.00    1.43    71.44234    -5.02077   -20.55270
    14  H   1.0    0.03    1.00    1.43    68.95509    -7.35511   -24.71203
    15  H   1.0    0.03    1.00    1.43    67.07418    -6.29597   -22.17986
    16  H   1.0    0.03    1.00    1.43    66.27196    -5.47966   -25.31085
    17  N   5.0   -0.15    3.48    2.07    69.37554     2.62326   -24.46958
    18  C   4.0    0.03    4.41    4.40    70.55800     5.08274   -24.75827
    19  C   4.0    0.16    3.53    3.13    70.98654     6.33013   -22.19496
    20  O   6.0   -0.32    1.27    1.80    73.08314     7.06747   -21.54533
    21  C   4.0   -0.06    4.37    4.32    68.86903     6.76710   -26.40550
    22  C   4.0   -0.03    4.18    3.96    69.93428     9.42670   -26.86083
    23  C   4.0   -0.08    4.10    3.80    72.35311     9.34912   -28.43448
    24  C   4.0   -0.08    4.10    3.80    67.93926    11.04728   -28.18326
    25  H   1.0    0.07    1.07    1.44    68.15018     2.14934   -25.88347
    26  H   1.0    0.04    1.05    1.44    72.42226     4.85630   -25.63562
    27  H   1.0    0.03    1.03    1.43    68.58311     5.82244   -28.21790
    28  H   1.0    0.04    1.03    1.43    67.03616     6.95149   -25.46964
    29  H   1.0    0.04    1.05    1.44    70.35194    10.28130   -25.01935
    30  H   1.0    0.04    1.00    1.43    72.90579    11.25790   -28.95412
    31  H   1.0    0.04    1.00    1.43    73.89402     8.51482   -27.36542
    32  H   1.0    0.03    1.00    1.43    72.05061     8.26267   -30.15125
    33  H   1.0    0.03    1.00    1.43    68.64888    12.95034   -28.49444
    34  H   1.0    0.03    1.00    1.43    67.44180    10.23195   -30.00210
    35  H   1.0    0.03    1.00    1.43    66.24088    11.18675   -27.03296
    36  N   5.0   -0.15    3.51    2.08    68.90740     6.68666   -20.79795
    37  C   4.0    0.04    4.46    4.48    69.00801     8.17803   -18.50652
    38  C   4.0    0.17    3.49    3.11    70.68230     6.93181   -16.51899
    39  O   6.0   -0.30    1.28    1.80    72.21929     8.12560   -15.26256
    40  C   4.0   -0.04    4.28    4.15    66.40112     8.58902   -17.38861
    41  C   4.0    0.25    3.14    3.03    66.70584    10.45986   -15.10401
    42  O   6.0   -0.29    1.16    1.80    66.34569     9.55603   -12.96364
    43  O   6.0   -0.30    1.17    1.80    67.29276    12.66839   -15.65079
    44  H   1.0    0.07    1.06    1.44    67.20380     6.00391   -21.32469
    45  H   1.0    0.06    1.06    1.44    69.85242    10.02821   -18.92869
    46  H   1.0    0.04    1.02    1.43    65.15156     9.43119   -18.79516
    47  H   1.0    0.05    1.02    1.43    65.60723     6.81149   -16.71389
    48  N   5.0   -0.14    3.54    2.10    70.32679     4.44945   -16.27054
    49  C   4.0    0.03    4.41    4.40    71.76341     2.90538   -14.51881
    50  C   4.0    0.16    3.47    3.10    74.60026     3.25038   -14.99778
    51  O   6.0   -0.31    1.25    1.80    76.12085     3.52412   -13.27043
    52  C   4.0   -0.05    4.37    4.33    70.97121     0.15107   -14.88430
    53  C   4.0   -0.02    4.18    3.96    72.28310    -1.73079   -13.11671
    54  C   4.0   -0.08    4.10    3.80    71.39331    -1.39678   -10.39281
    55  C   4.0   -0.09    4.10    3.81    71.73794    -4.41605   -14.02881
    56  H   1.0    0.09    1.08    1.44    69.05623     3.58322   -17.39946
    57  H   1.0    0.05    1.05    1.44    71.39197     3.56650   -12.58919
    58  H   1.0    0.04    1.03    1.43    68.92883     0.04106   -14.59825
    59  H   1.0    0.05    1.04    1.43    71.39028    -0.33055   -16.84541
    60  H   1.0    0.05    1.05    1.44    74.32217    -1.38716   -13.19360
    61  H   1.0    0.03    1.00    1.43    72.23039    -2.83297    -9.18734
    62  H   1.0    0.04    1.00    1.43    71.94007     0.44478    -9.66372
    63  H   1.0    0.04    1.00    1.43    69.34660    -1.55583   -10.28007
    64  H   1.0    0.03    1.00    1.43    72.64799    -5.78611   -12.80164
    65  H   1.0    0.03    1.00    1.43    69.71297    -4.76369   -14.01070
    66  H   1.0    0.03    1.00    1.43    72.44642    -4.67386   -15.93823
    67  N   5.0   -0.14    3.52    2.09    75.27300     3.10961   -17.42266
    68  C   4.0    0.04    4.34    4.28    77.87188     3.44581   -18.22371
    69  C   4.0    0.16    3.49    3.11    78.81972     6.05964   -17.43057
    70  O   6.0   -0.32    1.31    1.80    80.79793     6.32126   -16.24729
    71  C   4.0   -0.07    4.11    3.82    78.08452     3.07918   -21.06739
    72  H   1.0    0.11    1.11    1.44    73.93390     2.89003   -18.77652
    73  H   1.0    0.05    1.05    1.44    79.05748     2.06997   -17.21824
    74  H   1.0    0.04    1.00    1.43    80.03536     3.30076   -21.66908
    75  H   1.0    0.04    1.00    1.43    77.44944     1.19275   -21.57147
    76  H   1.0    0.06    1.00    1.43    76.91311     4.46417   -22.03057
    77  N   5.0   -0.14    3.52    2.09    77.38444     8.00477   -18.13064
    78  C   4.0    0.03    4.52    4.57    78.06786    10.54624   -17.37315
    79  C   4.0    0.16    3.57    3.15    78.69987    10.54803   -14.55749
    80  O   6.0   -0.32    1.31    1.80    80.60763    11.57943   -13.72646
    81  C   4.0   -0.02    4.34    4.27    75.94888    12.44972   -17.95417
    82  C   4.0   -0.05    4.19    3.98    75.62627    12.72850   -20.81935
    83  C   4.0   -0.07    4.14    3.89    76.54549    14.99423   -16.72987
    84  C   4.0   -0.08    4.01    3.65    73.32781    14.30267   -21.54899
    85  H   1.0    0.11    1.09    1.44    75.73255     7.73331   -19.06137
    86  H   1.0    0.04    1.05    1.44    79.80363    11.10382   -18.37300
    87  H   1.0    0.06    1.06    1.44    74.19872    11.70626   -17.13480
    88  H   1.0    0.03    1.03    1.43    77.31935    13.61327   -21.58829
    89  H   1.0    0.05    1.03    1.43    75.42349    10.85550   -21.65431
    90  H   1.0    0.04    1.00    1.43    74.99917    16.30619   -17.03524
    91  H   1.0    0.05    1.01    1.43    76.79309    14.78551   -14.70086
    92  H   1.0    0.04    1.00    1.43    78.26884    15.78076   -17.52697
    93  H   1.0    0.04    1.00    1.43    73.00736    14.19311   -23.57501
    94  H   1.0    0.05    1.00    1.43    71.64932    13.61239   -20.57839
    95  H   1.0    0.04    1.00    1.43    73.59311    16.27432   -21.04944
    96  N   5.0   -0.13    3.52    2.09    77.02922     9.39647   -13.07073
    97  C   4.0    0.04    4.35    4.29    77.31015     9.43195   -10.34917
    98  C   4.0    0.17    3.50    3.11    79.95856     8.55520    -9.59523
    99  O   6.0   -0.31    1.30    1.80    81.26453     9.82179    -8.15656
   100  C   4.0   -0.07    4.11    3.82    75.28691     7.79564    -9.12344
   101  H   1.0    0.12    1.10    1.44    75.38336     8.72484   -13.78210
   102  H   1.0    0.05    1.05    1.44    77.15008    11.39088    -9.66682
   103  H   1.0    0.04    1.00    1.43    75.55765     7.73498    -7.08933
   104  H   1.0    0.05    1.00    1.43    73.42800     8.57491    -9.53602
   105  H   1.0    0.06    1.01    1.43    75.38571     5.89178    -9.88635
   106  N   5.0   -0.14    3.47    2.06    80.72662     6.32352   -10.48159
   107  C   4.0    0.04    4.51    4.56    83.14595     5.34166    -9.63248
   108  C   4.0    0.16    3.46    3.10    85.33295     7.02526   -10.51206
   109  O   6.0   -0.31    1.27    1.80    87.04797     7.58712    -9.05617
   110  C   4.0   -0.02    4.24    4.09    83.53475     2.55032   -10.35675
   111  C   4.0   -0.07    4.13    3.86    84.15490     2.19056   -13.14814
   112  C   4.0   -0.07    4.11    3.82    85.61853     1.39846    -8.71799
   113  H   1.0    0.11    1.07    1.44    79.62802     5.31554   -11.67839
   114  H   1.0    0.05    1.06    1.44    83.16617     5.49057    -7.55952
   115  H   1.0    0.04    1.06    1.44    81.74299     1.59648    -9.94704
   116  H   1.0    0.04    1.00    1.43    84.21940     0.18800   -13.59248
   117  H   1.0    0.06    1.01    1.43    82.73868     3.08569   -14.33371
   118  H   1.0    0.05    1.00    1.43    85.99351     2.99280   -13.59057
   119  H   1.0    0.04    1.00    1.43    86.02561    -0.51282    -9.34811
   120  H   1.0    0.05    1.00    1.43    87.33626     2.51480    -8.87568
   121  H   1.0    0.04    1.00    1.43    85.05883     1.34605    -6.74301
   122  N   5.0   -0.14    3.51    2.08    85.27673     7.75711   -12.92104
   123  C   4.0    0.04    4.51    4.56    87.37306     9.11056   -14.06914
   124  C   4.0    0.16    3.50    3.12    87.69987    11.68298   -12.81342
   125  O   6.0   -0.31    1.26    1.80    89.66919    12.39855   -11.83212
   126  C   4.0   -0.02    4.29    4.19    86.90363     9.47729   -16.91064
   127  C   4.0   -0.07    4.14    3.87    88.90893    11.21621   -18.03975
   128  C   4.0   -0.07    4.12    3.83    86.88435     6.93860   -18.26803
   129  H   1.0    0.11    1.09    1.44    83.74279     7.38213   -13.99993
   130  H   1.0    0.07    1.05    1.44    89.12771     8.04579   -13.75620
   131  H   1.0    0.05    1.05    1.44    85.03638    10.34853   -17.13041
   132  H   1.0    0.04    1.00    1.43    88.58820    11.46011   -20.05451
   133  H   1.0    0.05    1.01    1.43    88.86468    13.07541   -17.16684
   134  H   1.0    0.05    1.00    1.43    90.77856    10.41010   -17.75967
   135  H   1.0    0.03    1.00    1.43    86.62457     7.22645   -20.28492
   136  H   1.0    0.05    1.00    1.43    88.66893     5.96275   -17.97675
   137  H   1.0    0.05    1.00    1.43    85.34112     5.77271   -17.58300
   138  N   5.0   -0.15    3.58    2.14    85.64188    13.13836   -12.97596
   139  C   4.0    0.04    4.51    4.56    85.67471    15.70465   -12.07407
   140  C   4.0    0.15    3.43    3.09    85.71001    15.80120    -9.19584
   141  O   6.0   -0.33    1.29    1.80    86.69862    17.57704    -8.07927
   142  C   4.0   -0.05    4.32    4.23    83.48494    17.20007   -13.21066
   143  C   4.0   -0.04    4.06    3.73    83.77860    17.51772   -16.06324
   144  S   6.0   -0.06    2.58    3.10    86.89645    18.60399   -17.05750
   145  C   4.0   -0.07    3.89    3.45    86.99265    21.63914   -15.45826
   146  H   1.0    0.11    1.11    1.45    83.96221    12.41638   -13.54564
   147  H   1.0    0.05    1.10    1.44    87.46730    16.55595   -12.69249
   148  H   1.0    0.05    1.03    1.43    81.72911    16.18115   -12.84051
   149  H   1.0    0.04    1.03    1.43    83.38791    19.04321   -12.29603
   150  H   1.0    0.04    1.08    1.44    83.53930    15.71154   -17.01832
   151  H   1.0    0.03    1.06    1.44    82.38710    18.85203   -16.78823
   152  H   1.0    0.06    1.05    1.44    88.64925    22.63502   -16.13988
   153  H   1.0    0.04    1.04    1.43    85.28655    22.68520   -15.90667
   154  H   1.0    0.05    1.04    1.43    87.15602    21.35753   -13.43441
   155  N   5.0   -0.13    3.44    2.04    84.69129    13.82243    -8.02244
   156  C   4.0    0.02    4.26    4.11    84.84519    13.48797    -5.32023
   157  C   4.0    0.16    3.37    3.07    87.59461    13.21086    -4.48811
   158  O   6.0   -0.32    1.30    1.80    88.45798    14.49042    -2.75710
   159  H   1.0    0.12    1.10    1.44    83.73653    12.47405    -8.98387
   160  H   1.0    0.05    1.02    1.43    84.05395    15.12906    -4.34047
   161  H   1.0    0.05    1.03    1.43    83.76252    11.80264    -4.84175
   162  N   5.0   -0.14    3.50    2.08    88.97071    11.54857    -5.78004
   163  C   4.0    0.04    4.35    4.29    91.64713    11.23186    -5.25979
   164  C   4.0    0.16    3.46    3.10    93.03729    13.74435    -5.64758
   165  O   6.0   -0.31    1.27    1.80    94.60547    14.52374    -4.12779
   166  C   4.0   -0.06    4.11    3.82    92.73347     9.16906    -6.94551
   167  H   1.0    0.12    1.10    1.44    88.19157    10.38372    -7.09382
   168  H   1.0    0.05    1.05    1.44    91.88907    10.73044    -3.25989
   169  H   1.0    0.04    1.00    1.43    94.72102     8.89283    -6.51818
   170  H   1.0    0.05    1.00    1.43    91.71518     7.41728    -6.61456
   171  H   1.0    0.07    1.00    1.43    92.51399     9.67550    -8.92519
   172  N   5.0   -0.13    3.52    2.09    92.41671    15.00364    -7.73910
   173  C   4.0    0.04    4.35    4.30    93.61998    17.39374    -8.34988
   174  C   4.0    0.16    3.47    3.10    93.23008    19.26375    -6.16774
   175  O   6.0   -0.31    1.24    1.80    94.96519    20.52292    -5.28534
   176  C   4.0   -0.07    4.11    3.83    92.52628    18.42453   -10.80061
   177  H   1.0    0.11    1.09    1.44    91.27555    14.20346    -9.06022
   178  H   1.0    0.05    1.05    1.44    95.66738    17.10506    -8.53092
   179  H   1.0    0.04    1.00    1.43    93.51796    20.13040   -11.36386
   180  H   1.0    0.05    1.00    1.43    92.70727    17.01349   -12.28411
   181  H   1.0    0.05    1.00    1.43    90.53716    18.87060   -10.55094
   182  N   5.0   -0.14    3.54    2.10    90.85263    19.40636    -5.35867
   183  C   4.0    0.04    4.44    4.45    90.08709    21.03484    -3.29889
   184  C   4.0    0.16    3.51    3.12    91.64716    20.41298    -0.95092
   185  O   6.0   -0.32    1.32    1.80    92.75110    22.03755     0.27981
   186  C   4.0   -0.03    4.35    4.28    87.26211    20.68164    -2.77521
   187  C   4.0   -0.02    3.57    3.15    86.29820    22.68633    -1.01335
   188  C   4.0   -0.05    3.47    3.10    86.09955    25.17210    -1.83645
   189  C   4.0   -0.04    3.46    3.10    85.61956    22.09834     1.44788
   190  C   4.0   -0.05    3.38    3.07    85.24817    27.03825    -0.21765
   191  C   4.0   -0.05    3.38    3.07    84.78206    23.97017     3.07245
   192  C   4.0   -0.05    3.38    3.07    84.59899    26.44228     2.24444
   193  H   1.0    0.11    1.12    1.45    89.46824    18.40718    -6.23353
   194  H   1.0    0.05    1.05    1.44    90.47999    23.01155    -3.79593
   195  H   1.0    0.05    1.03    1.43    86.26666    20.78095    -4.57984
   196  H   1.0    0.06    1.03    1.43    86.96419    18.80214    -1.98293
   197  H   1.0    0.04    1.03    1.43    86.60756    25.63847    -3.75739
   198  H   1.0    0.05    1.03    1.43    85.74455    20.16579     2.08613
   199  H   1.0    0.04    1.03    1.43    85.08261    28.96277    -0.87056
   200  H   1.0    0.04    1.03    1.43    84.28029    23.50435     4.99252
   201  H   1.0    0.04    1.03    1.43    83.94652    27.90325     3.50723
   202  N   5.0   -0.14    3.53    2.10    91.72992    17.96877    -0.37092
   203  C   4.0    0.04    4.45    4.46    93.18700    17.07611     1.75858
   204  C   4.0    0.17    3.52    3.12    95.79303    18.33063     1.76695
   205  O   6.0   -0.31    1.29    1.80    96.66236    19.30455     3.68059
   206  C   4.0   -0.03    4.32    4.24    93.40256    14.19895     1.66287
   207  C   4.0    0.15    3.23    3.04    94.28764    13.17129     4.20209
   208  O   6.0   -0.30    1.21    1.80    93.29087    13.80756     6.17783
   209  N   5.0   -0.19    3.18    1.95    96.16388    11.47376     4.07020
   210  H   1.0    0.12    1.11    1.45    90.71315    16.68068    -1.36639
   211  H   1.0    0.06    1.05    1.44    92.27280    17.63168     3.54134
   212  H   1.0    0.05    1.03    1.43    91.51115    13.44315     1.31149
   213  H   1.0    0.06    1.03    1.43    94.63717    13.63680     0.11640
   214  H   1.0    0.09    1.03    1.43    96.86704    10.74815     5.68352
   215  H   1.0    0.08    1.03    1.43    97.02212    11.05089     2.42900
   216  N   5.0   -0.14    3.47    2.06    97.07856    18.22116    -0.40806
   217  C   4.0    0.04    4.45    4.46    99.58114    19.32207    -0.51107
   218  C   4.0    0.16    3.55    3.14    99.55477    22.16365    -0.02400
   219  O   6.0   -0.33    1.41    1.80   101.20161    23.07064     1.35007
   220  C   4.0   -0.05    4.24    4.09   100.94401    18.78618    -3.00620
   221  C   4.0   -0.05    4.19    3.98   103.47061    20.19862    -3.25001
   222  C   4.0   -0.05    4.17    3.93   105.30010    19.70434    -1.05253
   223  C   4.0   -0.04    4.11    3.82   107.72720    21.24205    -1.31943
   224  N   5.0   -0.12    4.01    2.88   109.34708    21.07599     0.97933
   225  H   1.0    0.11    1.08    1.44    96.30461    17.45225    -1.98113
   226  H   1.0    0.05    1.06    1.44   100.65122    18.51482     1.07395
   227  H   1.0    0.04    1.03    1.43   101.25446    16.75507    -3.15133
   228  H   1.0    0.06    1.03    1.43    99.69015    19.36865    -4.53684
   229  H   1.0    0.04    1.03    1.43   104.34874    19.61309    -5.01887
   230  H   1.0    0.05    1.03    1.43   103.09309    22.22279    -3.36606
   231  H   1.0    0.06    1.04    1.43   104.38507    20.27204     0.70049
   232  H   1.0    0.04    1.02    1.43   105.72602    17.69180    -0.98013
   233  H   1.0    0.03    1.02    1.43   108.83295    20.55027    -2.91608
   234  H   1.0    0.04    1.02    1.43   107.24537    23.22153    -1.62732
   235  H   1.0    0.06    1.02    1.43   110.97841    22.10512     0.74086
   236  H   1.0    0.08    1.02    1.43   108.53608    21.76568     2.63618
   237  H   1.0    0.06    1.02    1.43   109.82880    19.22897     1.34821
   238  N   5.0   -0.14    3.50    2.08    97.88380    23.60601    -1.20942
   239  C   4.0    0.04    4.54    4.59    98.02242    26.31344    -0.77024
   240  C   4.0    0.16    3.51    3.12    97.78972    26.85238     2.06160
   241  O   6.0   -0.31    1.26    1.80    99.08226    28.48874     3.07661
   242  C   4.0   -0.02    4.31    4.22    96.18981    27.87882    -2.39191
   243  C   4.0   -0.04    4.19    3.98    93.43706    27.66902    -1.52723
   244  C   4.0   -0.07    4.14    3.88    96.53669    27.16172    -5.16179
   245  C   4.0   -0.08    4.02    3.66    91.62238    29.21366    -3.14721
   246  H   1.0    0.11    1.07    1.44    96.51699    22.84563    -2.30837
   247  H   1.0    0.06    1.06    1.44    99.94257    26.93943    -1.26466
   248  H   1.0    0.04    1.06    1.44    96.80009    29.84362    -2.15532
   249  H   1.0    0.06    1.04    1.43    92.85547    25.69688    -1.54121
   250  H   1.0    0.04    1.03    1.43    93.30787    28.34100     0.41886
   251  H   1.0    0.04    1.00    1.43    95.49837    28.46675    -6.35388
   252  H   1.0    0.06    1.00    1.43    98.52088    27.26254    -5.67440
   253  H   1.0    0.06    1.00    1.43    95.86229    25.25690    -5.53305
   254  H   1.0    0.04    1.00    1.43    89.77274    29.26372    -2.25732
   255  H   1.0    0.03    1.00    1.43    92.30994    31.14076    -3.32825
   256  H   1.0    0.04    1.00    1.43    91.40906    28.38888    -5.01653
   257  N   5.0   -0.14    3.52    2.09    96.12773    25.42928     3.32161
   258  C   4.0    0.04    4.51    4.56    95.86912    25.67306     6.03809
   259  C   4.0    0.16    3.54    3.13    98.43498    25.15534     7.25321
   260  O   6.0   -0.30    1.28    1.80    99.46868    26.67908     8.66111
   261  C   4.0   -0.02    4.33    4.25    93.84773    23.88490     7.10027
   262  C   4.0   -0.05    4.18    3.95    91.19777    24.50643     6.09185
   263  C   4.0   -0.07    4.14    3.88    93.92703    23.92880     9.98829
   264  C   4.0   -0.08    4.02    3.65    90.17160    27.09685     6.81535
   265  H   1.0    0.11    1.09    1.44    94.98963    24.19804     2.40050
   266  H   1.0    0.05    1.05    1.44    95.39197    27.63826     6.50065
   267  H   1.0    0.06    1.06    1.44    94.32082    21.97317     6.46376
   268  H   1.0    0.06    1.03    1.43    91.19106    24.33699     4.03750
   269  H   1.0    0.04    1.03    1.43    89.91783    23.07159     6.83182
   270  H   1.0    0.04    1.00    1.43    92.37088    22.83308    10.75552
   271  H   1.0    0.05    1.00    1.43    95.67937    23.10392    10.67484
   272  H   1.0    0.04    1.00    1.43    93.79926    25.85149    10.69659
   273  H   1.0    0.04    1.00    1.43    88.28118    27.31805     6.04410
   274  H   1.0    0.03    1.00    1.43    90.06910    27.29801     8.85483
   275  H   1.0    0.04    1.00    1.43    91.33172    28.60593     6.04746
   276  N   5.0   -0.13    3.54    2.11    99.50226    22.93945     6.68243
   277  C   4.0    0.04    4.52    4.56   101.87496    22.26532     7.86586
   278  C   4.0    0.18    3.52    3.12   103.84114    24.33637     7.38947
   279  O   6.0   -0.30    1.33    1.80   105.15011    25.14632     9.11830
   280  C   4.0   -0.03    4.10    3.81   102.86095    19.73291     6.94884
   281  S   6.0   -0.03    2.30    3.10   100.86486    17.13030     8.09270
   282  H   1.0    0.11    1.10    1.44    98.61116    21.65837     5.56820
   283  H   1.0    0.06    1.06    1.44   101.62266    22.18486     9.92885
   284  H   1.0    0.06    1.06    1.44   102.85333    19.68098     4.89310
   285  H   1.0    0.07    1.07    1.44   104.76507    19.40206     7.65609
   286  H   1.0    0.05    0.98    1.43   102.73140    15.74670     9.03675
   287  N   5.0   -0.14    3.52    2.09   104.01965    25.15366     5.02269
   288  C   4.0    0.05    4.42    4.41   105.86798    27.04262     4.33224
   289  C   4.0    0.17    3.49    3.11   105.70305    29.30535     6.11990
   290  O   6.0   -0.28    1.23    1.80   107.60591    30.20232     7.11258
   291  C   4.0    0.04    4.15    3.90   105.51164    27.88884     1.58604
   292  O   6.0   -0.25    2.06    1.83   107.67962    29.27305     0.90342
   293  H   1.0    0.12    1.14    1.45   102.82143    24.49882     3.67162
   294  H   1.0    0.07    1.05    1.44   107.76984    26.23906     4.57307
   295  H   1.0    0.05    1.01    1.43   105.27726    26.21056     0.39291
   296  H   1.0    0.06    1.01    1.43   103.78344    29.02056     1.41889
   297  H   1.0    0.13    1.02    1.43   107.53524    29.85591    -0.82239
   298  N   5.0   -0.13    3.49    2.07   103.39777    30.23965     6.45242
   299  C   4.0    0.04    4.31    4.22   102.89199    32.32093     8.16595
   300  C   4.0    0.10    3.26    3.05   103.95989    31.75646    10.78392
   301  O   6.0   -0.28    1.11    1.80   105.23204    33.32835    11.93732
   302  C   4.0   -0.04    4.36    4.30   100.02399    32.72929     8.25484
   303  C   4.0   -0.02    4.18    3.95    99.09009    34.68304    10.17836
   304  C   4.0   -0.07    4.10    3.81   100.03844    37.33397     9.55915
   305  C   4.0   -0.08    4.10    3.81    96.20237    34.65883    10.25501
   306  H   1.0    0.11    1.09    1.44   101.87934    29.44183     5.59131
   307  H   1.0    0.05    1.05    1.44   103.86646    34.01723     7.47709
   308  H   1.0    0.05    1.03    1.43    99.41760    33.29028     6.36567
   309  H   1.0    0.06    1.04    1.43    99.17249    30.90317     8.68973
   310  H   1.0    0.05    1.06    1.44    99.78686    34.13922    12.04711
   311  H   1.0    0.04    1.00    1.43    99.26856    38.69241    10.89356
   312  H   1.0    0.05    1.00    1.43   102.08503    37.41288     9.66737
   313  H   1.0    0.04    1.00    1.43    99.45560    37.87798     7.66451
   314  H   1.0    0.04    1.00    1.43    95.50145    35.93251    11.70735
   315  H   1.0    0.04    1.00    1.43    95.43690    35.26354     8.44665
   316  H   1.0    0.04    1.00    1.43    95.48962    32.77467    10.66086
   317  N   5.0   -0.19    3.23    1.96   108.04676    27.43901    12.85456
   318  C   4.0    0.03    4.21    4.02   110.68584    26.76248    12.99000
   319  C   4.0    0.09    3.22    3.04   112.35353    29.11193    12.77935
   320  O   6.0   -0.29    1.11    1.80   114.28020    29.38161    14.01740
   321  C   4.0   -0.03    4.27    4.14   111.37775    24.98784    10.80732
   322  C   4.0   -0.03    4.16    3.92   110.20400    22.36628    10.97714
   323  C   4.0    0.25    3.09    3.02   109.59089    21.15159     8.36020
   324  O   6.0   -0.31    1.20    1.80   109.68518    22.46838     6.40083
   325  O   6.0   -0.30    1.18    1.80   108.95139    18.88375     8.41968
   326  H   1.0    0.13    1.08    1.44   107.02151    26.70793    11.41082
   327  H   1.0    0.05    1.05    1.44   111.08163    25.86961    14.82292
   328  H   1.0    0.07    1.04    1.43   110.71687    25.84419     9.04896
   329  H   1.0    0.05    1.03    1.43   113.43244    24.82286    10.72410
   330  H   1.0    0.05    1.02    1.43   111.40210    21.04937    12.02103
   331  H   1.0    0.05    1.03    1.43   108.39022    22.44660    11.95765
   332  N   5.0   -0.22    3.20    1.96    89.16525    29.15231    16.16281
   333  C   4.0    0.02    4.23    4.05    86.96540    29.20074    14.53878
   334  C   4.0    0.07    3.22    3.04    85.21367    31.37462    15.31698
   335  O   6.0   -0.31    1.13    1.80    84.36382    32.85486    13.74359
   336  C   4.0   -0.05    4.35    4.29    85.60262    26.66697    14.61703
   337  C   4.0   -0.02    4.20    3.99    83.32460    26.57496    12.83449
   338  C   4.0   -0.08    4.11    3.81    84.10489    26.60311    10.05692
   339  C   4.0   -0.08    4.11    3.83    81.79792    24.19307    13.37189
   340  H   1.0    0.08    1.02    1.43    89.58990    27.54947    17.11921
   341  H   1.0    0.04    1.05    1.44    87.58264    29.63452    12.60520
   342  H   1.0    0.03    1.03    1.43    86.94252    25.17975    14.11424
   343  H   1.0    0.04    1.03    1.43    84.98797    26.33286    16.55751
   344  H   1.0    0.05    1.06    1.44    82.14200    28.23141    13.20608
   345  H   1.0    0.04    1.00    1.43    82.44145    26.41351     8.86501
   346  H   1.0    0.04    1.00    1.43    85.04468    28.35608     9.54972
   347  H   1.0    0.03    1.00    1.43    85.37575    25.03728     9.66280
   348  H   1.0    0.04    1.00    1.43    80.22499    24.06902    12.05966
   349  H   1.0    0.04    1.00    1.43    82.98914    22.53330    13.14217
   350  H   1.0    0.04    1.00    1.43    81.07281    24.21916    15.29299
   351  N   5.0   -0.20    3.20    1.95    87.61705    37.53331    13.14482
   352  C   4.0    0.03    4.22    4.05    87.41386    37.57142    10.41118
   353  C   4.0    0.09    3.23    3.04    84.76797    38.41747     9.59445
   354  O   6.0   -0.29    1.11    1.80    84.44453    40.11300     8.04758
   355  C   4.0   -0.04    4.33    4.25    87.97906    34.93893     9.33453
   356  C   4.0   -0.01    3.57    3.15    87.79173    34.90504     6.49945
   357  C   4.0   -0.04    3.47    3.10    89.83350    35.64114     5.02250
   358  C   4.0   -0.04    3.47    3.10    85.58117    34.15076     5.30328
   359  C   4.0   -0.04    3.37    3.07    89.67796    35.60489     2.41310
   360  C   4.0   -0.04    3.37    3.07    85.41605    34.12519     2.69315
   361  C   4.0   -0.04    3.37    3.07    87.46731    34.84578     1.24157
   362  H   1.0    0.09    1.03    1.43    88.33855    35.95472    13.96200
   363  H   1.0    0.05    1.05    1.44    88.74164    38.96133     9.62178
   364  H   1.0    0.03    1.03    1.43    89.87771    34.39475     9.93021
   365  H   1.0    0.06    1.04    1.43    86.63205    33.61194    10.15263
   366  H   1.0    0.04    1.03    1.43    91.56178    36.24118     5.92780
   367  H   1.0    0.05    1.03    1.43    83.97422    33.57924     6.42381
   368  H   1.0    0.04    1.03    1.43    91.28142    36.16069     1.27904
   369  H   1.0    0.04    1.03    1.43    83.68516    33.54389     1.78268
   370  H   1.0    0.04    1.03    1.43    87.34821    34.81905    -0.79470
   371  N   5.0   -0.22    3.25    1.97    70.32679    16.27054     4.44945
   372  C   4.0    0.02    4.32    4.23    71.76341    14.51881     2.90538
   373  C   4.0    0.15    3.43    3.09    74.60026    14.99778     3.25038
   374  O   6.0   -0.31    1.23    1.80    76.12085    13.27043     3.52412
   375  C   4.0   -0.05    4.37    4.33    70.97121    14.88430     0.15107
   376  C   4.0   -0.02    4.18    3.96    72.28310    13.11671    -1.73079
   377  C   4.0   -0.08    4.10    3.80    71.39331    10.39281    -1.39678
   378  C   4.0   -0.08    4.10    3.81    71.73794    14.02881    -4.41605
   379  H   1.0    0.07    1.03    1.43    69.05623    17.39946     3.58322
   380  H   1.0    0.04    1.05    1.44    71.39197    12.58919     3.56650
   381  H   1.0    0.03    1.03    1.43    68.92883    14.59825     0.04106
   382  H   1.0    0.04    1.03    1.43    71.39028    16.84541    -0.33055
   383  H   1.0    0.05    1.05    1.44    74.32217    13.19360    -1.38716
   384  H   1.0    0.04    1.00    1.43    72.23039     9.18734    -2.83297
   385  H   1.0    0.04    1.00    1.43    71.94007     9.66372     0.44478
   386  H   1.0    0.04    1.00    1.43    69.34660    10.28007    -1.55583
   387  H   1.0    0.04    1.00    1.43    72.64799    12.80164    -5.78611
   388  H   1.0    0.04    1.00    1.43    69.71297    14.01070    -4.76369
   389  H   1.0    0.04    1.00    1.43    72.44642    15.93823    -4.67386
   390  N   5.0   -0.15    3.48    2.06    75.27300    17.42266     3.10961
   391  C   4.0    0.03    4.24    4.09    77.87188    18.22371     3.44581
   392  C   4.0    0.08    3.23    3.04    78.81972    17.43057     6.05964
   393  O   6.0   -0.32    1.15    1.80    80.79793    16.24729     6.32126
   394  C   4.0   -0.08    4.10    3.80    78.08452    21.06739     3.07918
   395  H   1.0    0.07    1.07    1.44    73.93390    18.77652     2.89003
   396  H   1.0    0.05    1.05    1.44    79.05748    17.21824     2.06997
   397  H   1.0    0.04    1.00    1.43    80.03536    21.66908     3.30076
   398  H   1.0    0.04    1.00    1.43    77.44944    21.57147     1.19275
   399  H   1.0    0.04    1.00    1.43    76.91311    22.03057     4.46417
   400  N   5.0   -0.20    3.22    1.96    80.72662    10.48159     6.32352
   401  C   4.0    0.03    4.38    4.35    83.14595     9.63248     5.34166
   402  C   4.0    0.15    3.43    3.09    85.33295    10.51206     7.02526
   403  O   6.0   -0.31    1.27    1.80    87.04797     9.05617     7.58712
   404  C   4.0   -0.02    4.24    4.09    83.53475    10.35675     2.55032
   405  C   4.0   -0.07    4.13    3.86    84.15490    13.14814     2.19056
   406  C   4.0   -0.07    4.11    3.82    85.61853     8.71799     1.39846
   407  H   1.0    0.11    1.03    1.43    79.62802    11.67839     5.31554
   408  H   1.0    0.04    1.06    1.44    83.16617     7.55952     5.49057
   409  H   1.0    0.04    1.06    1.44    81.74299     9.94704     1.59648
   410  H   1.0    0.05    1.00    1.43    84.21940    13.59248     0.18800
   411  H   1.0    0.06    1.01    1.43    82.73868    14.33371     3.08569
   412  H   1.0    0.05    1.00    1.43    85.99351    13.59057     2.99280
   413  H   1.0    0.05    1.00    1.43    86.02561     9.34811    -0.51282
   414  H   1.0    0.05    1.00    1.43    87.33626     8.87568     2.51480
   415  H   1.0    0.04    1.00    1.43    85.05883     6.74301     1.34605
   416  N   5.0   -0.15    3.48    2.07    85.27673    12.92104     7.75711
   417  C   4.0    0.04    4.40    4.38    87.37306    14.06914     9.11056
   418  C   4.0    0.09    3.28    3.05    87.69987    12.81342    11.68298
   419  O   6.0   -0.29    1.11    1.80    89.66919    11.83212    12.39855
   420  C   4.0   -0.02    4.27    4.14    86.90363    16.91064     9.47729
   421  C   4.0   -0.07    4.13    3.87    88.90893    18.03975    11.21621
   422  C   4.0   -0.07    4.12    3.83    86.88435    18.26803     6.93860
   423  H   1.0    0.10    1.09    1.44    83.74279    13.99993     7.38213
   424  H   1.0    0.07    1.05    1.44    89.12771    13.75620     8.04579
   425  H   1.0    0.04    1.05    1.44    85.03638    17.13041    10.34853
   426  H   1.0    0.03    1.00    1.43    88.58820    20.05451    11.46011
   427  H   1.0    0.05    1.00    1.43    88.86468    17.16684    13.07541
   428  H   1.0    0.05    1.00    1.43    90.77856    17.75967    10.41010
   429  H   1.0    0.03    1.00    1.43    86.62457    20.28492     7.22645
   430  H   1.0    0.05    1.00    1.43    88.66893    17.97675     5.96275
   431  H   1.0    0.05    1.00    1.43    85.34112    17.58300     5.77271
   432  N   5.0   -0.20    3.21    1.96    88.97071     5.78004    11.54857
   433  C   4.0    0.04    4.14    3.88    91.64713     5.25979    11.23186
   434  C   4.0    0.09    3.20    3.04    93.03729     5.64758    13.74435
   435  O   6.0   -0.29    1.11    1.80    94.60547     4.12779    14.52374
   436  C   4.0   -0.06    4.10    3.80    92.73347     6.94551     9.16906
   437  H   1.0    0.12    1.06    1.44    88.19157     7.09382    10.38372
   438  H   1.0    0.05    1.05    1.44    91.88907     3.25989    10.73044
   439  H   1.0    0.05    1.00    1.43    94.72102     6.51818     8.89283
   440  H   1.0    0.05    1.00    1.43    91.71518     6.61456     7.41728
   441  H   1.0    0.07    1.00    1.43    92.51399     8.92519     9.67550
   442  N   5.0   -0.22    3.14    1.94    84.69129    -8.02244   -13.82243
   443  C   4.0   -0.00    4.15    3.91    84.84519    -5.32023   -13.48797
   444  C   4.0    0.14    3.34    3.06    87.59461    -4.48811   -13.21086
   445  O   6.0   -0.33    1.30    1.80    88.45798    -2.75710   -14.49042
   446  H   1.0    0.07    1.02    1.43    83.73653    -8.98387   -12.47405
   447  H   1.0    0.04    1.02    1.43    84.05395    -4.34047   -15.12906
   448  H   1.0    0.03    1.03    1.43    83.76252    -4.84175   -11.80264
   449  N   5.0   -0.15    3.45    2.05    88.97071    -5.78004   -11.54857
   450  C   4.0    0.03    4.25    4.10    91.64713    -5.25979   -11.23186
   451  C   4.0    0.09    3.24    3.04    93.03729    -5.64758   -13.74435
   452  O   6.0   -0.30    1.12    1.80    94.60547    -4.12779   -14.52374
   453  C   4.0   -0.08    4.10    3.80    92.73347    -6.94551    -9.16906
   454  H   1.0    0.07    1.06    1.44    88.19157    -7.09382   -10.38372
   455  H   1.0    0.05    1.05    1.44    91.88907    -3.25989   -10.73044
   456  H   1.0    0.04    1.00    1.43    94.72102    -6.51818    -8.89283
   457  H   1.0    0.04    1.00    1.43    91.71518    -6.61456    -7.41728
   458  H   1.0    0.04    1.00    1.43    92.51399    -8.92519    -9.67550
   459  N   5.0   -0.19    3.25    1.97    90.85263    -5.35867   -19.40636
   460  C   4.0    0.03    4.35    4.28    90.08709    -3.29889   -21.03484
   461  C   4.0    0.16    3.46    3.10    91.64716    -0.95092   -20.41298
   462  O   6.0   -0.31    1.29    1.80    92.75110     0.27981   -22.03755
   463  C   4.0   -0.04    4.34    4.28    87.26211    -2.77521   -20.68164
   464  C   4.0   -0.02    3.57    3.15    86.29820    -1.01335   -22.68633
   465  C   4.0   -0.04    3.47    3.10    86.09955    -1.83645   -25.17210
   466  C   4.0   -0.04    3.46    3.10    85.61956     1.44788   -22.09834
   467  C   4.0   -0.05    3.38    3.07    85.24817    -0.21765   -27.03825
   468  C   4.0   -0.05    3.38    3.07    84.78206     3.07245   -23.97017
   469  C   4.0   -0.05    3.38    3.07    84.59899     2.24444   -26.44228
   470  H   1.0    0.08    1.03    1.43    89.46824    -6.23353   -18.40718
   471  H   1.0    0.04    1.05    1.44    90.47999    -3.79593   -23.01155
   472  H   1.0    0.04    1.03    1.43    86.26666    -4.57984   -20.78095
   473  H   1.0    0.05    1.03    1.43    86.96419    -1.98293   -18.80214
   474  H   1.0    0.04    1.03    1.43    86.60756    -3.75739   -25.63847
   475  H   1.0    0.05    1.03    1.43    85.74455     2.08613   -20.16579
   476  H   1.0    0.04    1.03    1.43    85.08261    -0.87056   -28.96277
   477  H   1.0    0.04    1.03    1.43    84.28029     4.99252   -23.50435
   478  H   1.0    0.04    1.03    1.43    83.94652     3.50723   -27.90325
   479  N   5.0   -0.14    3.50    2.08    91.72992    -0.37092   -17.96877
   480  C   4.0    0.05    4.35    4.29    93.18700     1.75858   -17.07611
   481  C   4.0    0.10    3.29    3.05    95.79303     1.76695   -18.33063
   482  O   6.0   -0.29    1.12    1.80    96.66236     3.68059   -19.30455
   483  C   4.0   -0.03    4.31    4.22    93.40256     1.66287   -14.19895
   484  C   4.0    0.16    3.23    3.04    94.28764     4.20209   -13.17129
   485  O   6.0   -0.30    1.21    1.80    93.29087     6.17783   -13.80756
   486  N   5.0   -0.19    3.18    1.95    96.16388     4.07020   -11.47376
   487  H   1.0    0.12    1.11    1.45    90.71315    -1.36639   -16.68068
   488  H   1.0    0.06    1.05    1.44    92.27280     3.54134   -17.63168
   489  H   1.0    0.05    1.03    1.43    91.51115     1.31149   -13.44315
   490  H   1.0    0.06    1.03    1.43    94.63717     0.11640   -13.63680
   491  H   1.0    0.09    1.03    1.43    96.86704     5.68352   -10.74815
   492  H   1.0    0.08    1.03    1.43    97.02212     2.42900   -11.05089
   493  N   5.0   -0.20    3.22    1.96    96.12773     3.32161   -25.42928
   494  C   4.0    0.03    4.31    4.21    95.86912     6.03809   -25.67306
   495  C   4.0    0.08    3.25    3.04    98.43498     7.25321   -25.15534
   496  O   6.0   -0.29    1.11    1.80    99.46868     8.66111   -26.67908
   497  C   4.0   -0.02    4.32    4.23    93.84773     7.10027   -23.88490
   498  C   4.0   -0.05    4.18    3.95    91.19777     6.09185   -24.50643
   499  C   4.0   -0.07    4.14    3.88    93.92703     9.98829   -23.92880
   500  C   4.0   -0.08    4.02    3.65    90.17160     6.81535   -27.09685
   501  H   1.0    0.12    1.05    1.44    94.98963     2.40050   -24.19804
   502  H   1.0    0.05    1.05    1.44    95.39197     6.50065   -27.63826
   503  H   1.0    0.06    1.06    1.44    94.32082     6.46376   -21.97317
   504  H   1.0    0.06    1.03    1.43    91.19106     4.03750   -24.33699
   505  H   1.0    0.04    1.03    1.43    89.91783     6.83182   -23.07159
   506  H   1.0    0.04    1.00    1.43    92.37088    10.75552   -22.83308
   507  H   1.0    0.05    1.00    1.43    95.67937    10.67484   -23.10392
   508  H   1.0    0.05    1.00    1.43    93.79926    10.69659   -25.85149
   509  H   1.0    0.04    1.00    1.43    88.28118     6.04410   -27.31805
   510  H   1.0    0.04    1.00    1.43    90.06910     8.85483   -27.29801
   511  H   1.0    0.04    1.00    1.43    91.33172     6.04746   -28.60593
   512  N   5.0   -0.22    3.24    1.97   113.78249    37.89583    -2.40285
   513  C   4.0    0.02    4.29    4.18   113.30260    35.23080    -2.89383
   514  C   4.0    0.15    3.43    3.09   110.48196    34.68506    -2.53630
   515  O   6.0   -0.32    1.29    1.80   109.36766    33.15152    -3.87758
   516  C   4.0   -0.05    4.34    4.28   114.99413    33.63288    -1.16101
   517  C   4.0   -0.03    4.17    3.94   115.65840    30.99690    -2.16893
   518  C   4.0   -0.08    4.11    3.82   117.88686    29.98093    -0.63320
   519  C   4.0   -0.07    4.10    3.80   113.43246    29.17557    -2.01731
   520  H   1.0    0.07    1.03    1.43   115.42905    38.36670    -1.55978
   521  H   1.0    0.04    1.05    1.44   113.74197    34.77432    -4.87043
   522  H   1.0    0.03    1.04    1.43   116.77903    34.65054    -0.97013
   523  H   1.0    0.05    1.03    1.43   114.13959    33.47213     0.70979
   524  H   1.0    0.03    1.05    1.44   116.23539    31.19276    -4.15038
   525  H   1.0    0.04    1.00    1.43   118.38640    28.08776    -1.24639
   526  H   1.0    0.03    1.00    1.43   119.53604    31.18317    -0.86731
   527  H   1.0    0.04    1.00    1.43   117.41658    29.93083     1.36682
   528  H   1.0    0.04    1.00    1.43   114.02930    27.31141    -2.63318
   529  H   1.0    0.05    1.00    1.43   112.73802    29.09695    -0.08606
   530  H   1.0    0.06    1.01    1.43   111.91211    29.79855    -3.24469
   531  N   5.0   -0.14    3.46    2.05   109.31342    35.91963    -0.67457
   532  C   4.0    0.04    4.36    4.30   106.58747    35.72449    -0.39828
   533  C   4.0    0.09    3.29    3.05   105.27940    36.30899    -2.91356
   534  O   6.0   -0.32    1.18    1.80   103.88471    34.76605    -3.94387
   535  C   4.0   -0.04    4.32    4.23   105.67043    37.49814     1.69124
   536  C   4.0   -0.02    3.57    3.15   102.83003    37.68317     1.76421
   537  C   4.0   -0.03    3.48    3.11   101.33630    35.52466     1.83018
   538  C   4.0   -0.05    3.46    3.10   101.65971    40.03190     1.79246
   539  C   4.0   -0.04    3.38    3.07    98.72898    35.71084     1.88947
   540  C   4.0   -0.05    3.37    3.07    99.05229    40.22160     1.88553
   541  C   4.0   -0.05    3.37    3.07    97.58021    38.06043     1.92044
   542  H   1.0    0.08    1.06    1.44   110.22418    37.19483     0.44014
   543  H   1.0    0.06    1.06    1.44   106.10891    33.76225     0.05809
   544  H   1.0    0.05    1.03    1.43   106.38479    36.78806     3.49316
   545  H   1.0    0.04    1.03    1.43   106.48753    39.36722     1.39794
   546  H   1.0    0.06    1.03    1.43   102.20079    33.67991     1.82816
   547  H   1.0    0.04    1.03    1.43   102.79661    41.72528     1.75471
   548  H   1.0    0.05    1.03    1.43    97.59898    34.01364     1.91322
   549  H   1.0    0.04    1.03    1.43    98.16837    42.05908     1.92444
   550  H   1.0    0.04    1.03    1.43    95.54785    38.21403     1.97543
   551  N   5.0   -0.20    3.25    1.97   105.89341    31.51261    -8.14918
   552  C   4.0    0.03    4.28    4.16   104.31746    29.28633    -8.04203
   553  C   4.0    0.15    3.41    3.08   101.65021    29.84343    -9.00942
   554  O   6.0   -0.33    1.27    1.80   100.37067    28.15814    -9.96186
   555  C   4.0    0.03    4.14    3.88   104.26721    28.20919    -5.34908
   556  O   6.0   -0.26    2.05    1.83   102.80473    29.57657    -3.62952
   557  H   1.0    0.12    1.04    1.43   106.83312    32.10513    -6.58480
   558  H   1.0    0.04    1.05    1.44   105.10972    27.87023    -9.34423
   559  H   1.0    0.04    1.02    1.43   103.44632    26.31517    -5.43470
   560  H   1.0    0.04    1.01    1.43   106.24528    28.06838    -4.71958
   561  H   1.0    0.15    1.06    1.44   103.16780    31.38130    -3.75242
   562  N   5.0   -0.14    3.49    2.07   100.80202    32.17956    -8.62702
   563  C   4.0    0.03    4.41    4.39    98.33919    33.00042    -9.49673
   564  C   4.0    0.08    3.23    3.04    98.33773    33.28414   -12.37660
   565  O   6.0   -0.31    1.14    1.80    96.59857    32.47963   -13.68234
   566  C   4.0   -0.03    4.25    4.11    97.54542    35.45846    -8.16809
   567  C   4.0   -0.08    4.12    3.84    94.88011    36.20636    -8.98443
   568  C   4.0   -0.07    4.12    3.85    97.64847    35.12055    -5.30246
   569  H   1.0    0.09    1.08    1.44   101.94863    33.48853    -7.83776
   570  H   1.0    0.05    1.06    1.44    96.98894    31.49052    -9.05963
   571  H   1.0    0.04    1.05    1.44    98.88438    36.92274    -8.75357
   572  H   1.0    0.04    1.00    1.43    94.37154    38.00644    -8.14173
   573  H   1.0    0.05    1.00    1.43    94.75985    36.36970   -11.02768
   574  H   1.0    0.04    1.00    1.43    93.52616    34.78808    -8.36916
   575  H   1.0    0.04    1.00    1.43    96.88481    36.77981    -4.36554
   576  H   1.0    0.04    1.00    1.43    96.53183    33.48688    -4.75214
   577  H   1.0    0.06    1.01    1.43    99.56854    34.83144    -4.63837
   578  N   5.0   -0.20    3.22    1.96    97.64437    27.03717   -14.48405
   579  C   4.0    0.03    4.22    4.04    95.01653    26.28204   -14.25696
   580  C   4.0    0.08    3.23    3.04    93.54358    27.02243   -16.62744
   581  O   6.0   -0.32    1.15    1.80    92.00816    25.58982   -17.61311
   582  C   4.0   -0.03    4.34    4.27    93.89210    27.56875   -11.91491
   583  C   4.0   -0.02    3.56    3.14    91.15546    26.94622   -11.48450
   584  C   4.0   -0.05    3.46    3.10    90.46901    24.94716    -9.92892
   585  C   4.0   -0.04    3.47    3.10    89.27020    28.40482   -12.58706
   586  C   4.0   -0.05    3.38    3.07    87.94661    24.39346    -9.51058
   587  C   4.0   -0.05    3.37    3.07    86.74896    27.86444   -12.15570
   588  C   4.0   -0.05    3.38    3.07    86.08265    25.85211   -10.62382
   589  H   1.0    0.12    1.06    1.44    98.48548    27.81565   -12.94486
   590  H   1.0    0.04    1.05    1.44    94.88899    24.21565   -14.08809
   591  H   1.0    0.05    1.03    1.43    95.02815    26.96576   -10.30168
   592  H   1.0    0.06    1.05    1.44    94.12223    29.60116   -12.17310
   593  H   1.0    0.05    1.03    1.43    91.92620    23.83494    -9.02761
   594  H   1.0    0.05    1.03    1.43    89.79572    29.98297   -13.76991
   595  H   1.0    0.05    1.03    1.43    87.44431    22.81998    -8.31559
   596  H   1.0    0.04    1.03    1.43    85.30331    29.02523   -13.00297
   597  H   1.0    0.04    1.03    1.43    84.11711    25.43362   -10.28657
   598  N   5.0   -0.21    3.25    1.97    95.67047    23.13342   -22.40057
   599  C   4.0    0.03    4.38    4.35    95.02614    20.47421   -22.23106
   600  C   4.0    0.15    3.43    3.09    92.22869    20.17058   -22.94908
   601  O   6.0   -0.31    1.24    1.80    91.49546    18.37474   -24.21373
   602  C   4.0   -0.02    4.31    4.22    95.78839    19.34284   -19.66114
   603  C   4.0   -0.05    4.18    3.96    96.23658    16.48755   -19.87547
   604  C   4.0   -0.07    4.15    3.89    93.84677    19.91866   -17.61924
   605  C   4.0   -0.08    4.02    3.65    97.46220    15.39304   -17.50812
   606  H   1.0    0.09    1.02    1.43    96.18916    24.07083   -20.81626
   607  H   1.0    0.04    1.06    1.44    96.08042    19.48968   -23.72700
   608  H   1.0    0.04    1.06    1.44    97.58150    20.25220   -19.14569
   609  H   1.0    0.05    1.03    1.43    94.43387    15.55484   -20.23694
   610  H   1.0    0.04    1.03    1.43    97.47675    16.12731   -21.48362
   611  H   1.0    0.04    1.00    1.43    94.59756    19.40842   -15.78044
   612  H   1.0    0.06    1.02    1.43    93.40461    21.91845   -17.58997
   613  H   1.0    0.05    1.02    1.43    92.11799    18.85886   -17.95142
   614  H   1.0    0.04    1.00    1.43    97.97481    13.42581   -17.79655
   615  H   1.0    0.04    1.00    1.43    99.16743    16.45201   -17.05532
   616  H   1.0    0.04    1.00    1.43    96.18637    15.49068   -15.90478
   617  N   5.0   -0.14    3.49    2.07    90.71276    22.05824   -22.23733
   618  C   4.0    0.04    4.25    4.09    88.08771    22.16237   -23.02810
   619  C   4.0    0.09    3.24    3.04    87.99371    22.29010   -25.91686
   620  O   6.0   -0.30    1.12    1.80    86.67478    20.86890   -27.18396
   621  C   4.0   -0.08    4.11    3.82    86.82775    24.46690   -21.85929
   622  H   1.0    0.10    1.08    1.44    91.29231    23.38476   -20.98930
   623  H   1.0    0.05    1.05    1.44    87.12362    20.41741   -22.45596
   624  H   1.0    0.04    1.00    1.43    84.86372    24.57586   -22.44212
   625  H   1.0    0.05    1.00    1.43    86.91594    24.33748   -19.81465
   626  H   1.0    0.05    1.00    1.43    87.81458    26.16992   -22.44391
   627  N   5.0   -0.20    3.21    1.96    89.16525    16.16281   -29.15231
   628  C   4.0    0.03    4.23    4.06    86.96540    14.53878   -29.20074
   629  C   4.0    0.08    3.22    3.04    85.21367    15.31698   -31.37462
   630  O   6.0   -0.30    1.11    1.80    84.36382    13.74359   -32.85486
   631  C   4.0   -0.04    4.35    4.29    85.60262    14.61703   -26.66697
   632  C   4.0   -0.02    4.20    3.99    83.32460    12.83449   -26.57496
   633  C   4.0   -0.08    4.11    3.81    84.10489    10.05692   -26.60311
   634  C   4.0   -0.08    4.11    3.83    81.79792    13.37189   -24.19307
   635  H   1.0    0.12    1.04    1.43    89.58990    17.11921   -27.54947
   636  H   1.0    0.04    1.05    1.44    87.58264    12.60520   -29.63452
   637  H   1.0    0.04    1.03    1.43    86.94252    14.11424   -25.17975
   638  H   1.0    0.06    1.03    1.43    84.98797    16.55751   -26.33286
   639  H   1.0    0.05    1.06    1.44    82.14200    13.20608   -28.23141
   640  H   1.0    0.04    1.00    1.43    82.44145     8.86501   -26.41351
   641  H   1.0    0.04    1.00    1.43    85.04468     9.54972   -28.35608
   642  H   1.0    0.03    1.00    1.43    85.37575     9.66280   -25.03728
   643  H   1.0    0.04    1.00    1.43    80.22499    12.05966   -24.06902
   644  H   1.0    0.04    1.00    1.43    82.98914    13.14217   -22.53330
   645  H   1.0    0.04    1.00    1.43    81.07281    15.29299   -24.21916
   646  H   1.0    0.08    1.07    1.44    64.46287    -1.30946   -22.45999
   647  H   1.0    0.07    1.05    1.44   103.63189    30.08262    11.59740
   648  H   1.0    0.10    1.07    1.44   107.25642    26.92870    14.27142
   649  H   1.0    0.07    1.05    1.44   111.87996    30.50338    11.59164
   650  H   1.0    0.09    1.07    1.44    90.55823    29.47397    15.24154
   651  H   1.0    0.05    1.04    1.44    84.74449    31.60623    17.13283
   652  H   1.0    0.09    1.07    1.44    88.62672    38.80255    13.65682
   653  H   1.0    0.06    1.05    1.44    83.24024    37.58080    10.32730
   654  H   1.0    0.09    1.07    1.44    69.42873    15.40404     5.60496
   655  H   1.0    0.05    1.05    1.44    77.82188    17.87530     7.60159
   656  H   1.0    0.09    1.07    1.44    79.71690     9.13819     6.58486
   657  H   1.0    0.05    1.05    1.44    86.25377    12.75869    12.89823
   658  H   1.0    0.09    1.07    1.44    88.08048     4.35464    11.28729
   659  H   1.0    0.06    1.05    1.44    92.67556     7.17360    14.79861
   660  H   1.0    0.09    1.07    1.44    83.90693    -8.36895   -15.29120
   661  H   1.0    0.05    1.05    1.44    92.67556    -7.17360   -14.79861
   662  H   1.0    0.09    1.07    1.44    91.58556    -6.57749   -20.33902
   663  H   1.0    0.06    1.05    1.44    96.82842     0.18658   -18.36872
   664  H   1.0    0.09    1.07    1.44    95.82433     2.58530   -26.93206
   665  H   1.0    0.06    1.05    1.44    99.33145     6.91064   -23.52744
   666  H   1.0    0.09    1.07    1.44   113.77589    38.75382    -3.87131
   667  H   1.0    0.05    1.05    1.44   105.55239    37.97895    -3.75486
   668  H   1.0    0.09    1.07    1.44   107.12349    31.28253    -9.30092
   669  H   1.0    0.05    1.05    1.44    99.78078    34.14419   -13.24203
   670  H   1.0    0.09    1.07    1.44    98.59350    25.68026   -14.87199
   671  H   1.0    0.06    1.05    1.44    93.81795    28.71590   -17.41988
   672  H   1.0    0.09    1.07    1.44    96.98651    23.33232   -23.45935
   673  H   1.0    0.05    1.05    1.44    89.03433    23.56882   -26.84047
   674  H   1.0    0.09    1.07    1.44    90.55823    15.24154   -29.47397
   675  H   1.0    0.06    1.04    1.44    84.74449    17.13283   -31.60623

  Z AO/shell   Hii/eV     exponent
  1     Wed Apr 25 08:07:45 CEST 2018   EN: 2.200 GM2: 0.406  GM3: 0.0800  RAES: 1.40
     1s    -10.707211    1.230000
  6     Wed Apr 25 08:07:45 CEST 2018   EN: 2.550 GM2: 0.538  GM3: 0.1500  RAES: 3.00
     2s    -13.970922    2.096432
     2p    -10.063292    1.800000
  7     Wed Apr 25 08:07:45 CEST 2018   EN: 3.040 GM2: 0.461  GM3:-0.0640  RAES: 1.90
     2s    -16.686243    2.339881
     2p    -12.523956    2.014332
  8     Wed Apr 25 08:07:45 CEST 2018   EN: 3.440 GM2: 0.452  GM3:-0.0517  RAES: 1.80
     2s    -20.229985    2.439742
     2p    -15.503117    2.137023
 16     Tue Apr 24 11:44:34 CEST 2018   EN: 2.580 GM2: 0.340  GM3:-0.0502  RAES: 3.10
     3s    -20.029654    1.981333
     3p    -11.377694    2.025643
     3d     -0.420282    1.702555
 no old-style atom pair restraining (fixing) potential

molecular fragmentation (1/2 indicates fragments):
111111111111111111111111111111111111111111111111111111111111111111111111
111111111111111111111111111111111111111111111111111111111111111111111111
111111111111111111111111111111111111111111111111111111111111111111111111
111111111111111111111111111111111111111111111111111111111111111111111111
111111111111111111111111111122222222222222222222222222222222222222222222
222222222222222222222222222222222222222222222222222222222222222222222222
222222222222222222222222222222222222222222222222222222222222222222222222
222222222222222222222222222222222222222222222222222222222222222222222222
222222222222222222222222222222222222222222222222222222222222222222222112
222222222222222222222222222
# atoms in fragment 1/2:   318   357
 fragment masses (1/2) :     2145.68     2263.93
CMA distance (Bohr)    :   6.359
constraining FC (au)   :  0.0500
           ------------------------------------------------- 
          |        Self-Consistent Charge Iterations        |
           ------------------------------------------------- 

 Ncao       : 1614
 Nao        : 1612
 Nshell     : 986
 Nel        : 1752
 T(el)      :   500.0
 intcut     :    35.0
 scfconv/Eh :  0.100E-06
   qconv/e  :  0.100E-04
 intneglect :  0.100E-08
 broydamp   :      0.400
 iter      E             dE          RMSdq      gap      omega  full diag
   1   -992.9351641 -0.992935E+03  0.442E+00    2.98       0.0  T
   2   -995.0875302 -0.215237E+01  0.211E+00    1.76       1.0  T
   3   -995.2141432 -0.126613E+00  0.121E+00    1.83       1.0  T
   4   -995.3845065 -0.170363E+00  0.229E-01    1.14       1.0  T
   5   -995.3926123 -0.810582E-02  0.109E-01    1.38       1.0  T
   6   -995.3939467 -0.133436E-02  0.482E-02    1.38       1.0  T
   7   -995.3943589 -0.412216E-03  0.205E-02    1.39       1.0  T
   8   -995.3944069 -0.479722E-04  0.952E-03    1.39       1.0  T
   9   -995.3944216 -0.147380E-04  0.440E-03    1.39       1.0  T
  10   -995.3944242 -0.262770E-05  0.199E-03    1.40       1.9  T
  11   -995.3944247 -0.499872E-06  0.964E-04    1.40       4.0  T
  12   -995.3944248 -0.109898E-06  0.460E-04    1.40       8.4  T
  13   -995.3944249 -0.430563E-07  0.248E-04    1.40      15.5  T
  14   -995.3944249 -0.744080E-08  0.106E-04    1.40      36.2  T
  15   -995.3944249 -0.178147E-08  0.420E-05    1.40      91.7  T
  16   -995.3944249 -0.239652E-09  0.175E-05    1.40     219.8  T
speedup  1.94
cpu  time for SCC    1 m  5.8 s
wall time for SCC    0 m 33.9 s

   *** convergence criteria satisfied after 16 iterations ***

          eigenvalues
 #    :         864        865        866        867        868        869        870        871
 occ. :        2.000      2.000      2.000      2.000      2.000      2.000      2.000      2.000
 eps  :       -10.006     -9.913     -9.897     -9.865     -9.800     -9.776     -9.685     -9.672
 #    :         872        873        874        875        876        877        878        879
 occ. :        2.000      2.000      2.000      2.000      2.000      0.000      0.000      0.000
 eps  :        -9.625     -9.583     -9.567     -9.564     -9.495     -8.096     -7.949     -7.822
 #    :         880        881        882        883        884        885        886        887
 occ. :        0.000      0.000      0.000      0.000      0.000      0.000      0.000      0.000
 eps  :        -7.674     -7.618     -7.613     -7.532     -7.501     -7.470     -7.468     -7.445


   #   Z            q   n(s)   n(p)   n(d)      C6AA      α(0)
   1   7 N     -0.400  1.315  4.085  0.000    30.360     8.183
   2   6 C      0.025  1.064  2.911  0.000    20.172     6.397
   3   6 C      0.265  1.052  2.684  0.000    22.532     7.773
   4   8 O     -0.505  1.744  4.761  0.000    23.897     6.554
   5   6 C     -0.019  1.064  2.955  0.000    20.871     6.498
   6   6 C     -0.116  1.039  3.076  0.000    22.763     6.802
   7   6 C     -0.115  1.039  3.076  0.000    22.754     6.801
   8   1 H      0.169  0.831  0.000  0.000     1.279     1.772
   9   1 H      0.046  0.954  0.000  0.000     2.374     2.409
  10   1 H      0.037  0.963  0.000  0.000     2.483     2.464
  11   1 H      0.049  0.951  0.000  0.000     2.330     2.387
  12   1 H      0.034  0.966  0.000  0.000     2.525     2.485
  13   1 H      0.044  0.956  0.000  0.000     2.392     2.419
  14   1 H      0.053  0.947  0.000  0.000     2.280     2.361
  15   1 H      0.045  0.955  0.000  0.000     2.380     2.412
  16   1 H      0.044  0.956  0.000  0.000     2.392     2.419
  17   7 N     -0.172  1.247  3.924  0.000    24.712     7.383
  18   6 C      0.015  1.063  2.922  0.000    20.324     6.420
  19   6 C      0.292  1.038  2.670  0.000    22.050     7.690
  20   8 O     -0.489  1.739  4.750  0.000    23.534     6.504
  21   6 C     -0.086  1.066  3.020  0.000    22.128     6.696
  22   6 C     -0.008  1.055  2.953  0.000    20.682     6.469
  23   6 C     -0.119  1.041  3.078  0.000    22.826     6.812
  24   6 C     -0.119  1.043  3.076  0.000    22.826     6.812
  25   1 H      0.230  0.770  0.000  0.000     0.965     1.539
  26   1 H      0.081  0.919  0.000  0.000     1.964     2.192
  27   1 H      0.077  0.923  0.000  0.000     2.013     2.219
  28   1 H      0.053  0.947  0.000  0.000     2.283     2.363
  29   1 H      0.020  0.980  0.000  0.000     2.740     2.589
  30   1 H      0.047  0.953  0.000  0.000     2.362     2.403
  31   1 H      0.036  0.964  0.000  0.000     2.508     2.476
  32   1 H      0.054  0.946  0.000  0.000     2.265     2.354
  33   1 H      0.044  0.956  0.000  0.000     2.390     2.418
  34   1 H      0.055  0.945  0.000  0.000     2.260     2.351
  35   1 H      0.037  0.963  0.000  0.000     2.494     2.470
  36   7 N     -0.193  1.248  3.945  0.000    25.194     7.455
  37   6 C      0.048  1.051  2.901  0.000    19.772     6.330
  38   6 C      0.286  1.041  2.673  0.000    22.153     7.708
  39   8 O     -0.506  1.743  4.763  0.000    23.914     6.557
  40   6 C     -0.105  1.072  3.033  0.000    22.497     6.753
  41   6 C      0.377  1.019  2.604  0.000    20.618     7.431
  42   8 O     -0.640  1.772  4.868  0.000    27.122     6.982
  43   8 O     -0.632  1.770  4.861  0.000    26.917     6.956
  44   1 H      0.209  0.791  0.000  0.000     1.059     1.612
  45   1 H      0.055  0.945  0.000  0.000     2.260     2.351
  46   1 H      0.044  0.956  0.000  0.000     2.393     2.419
  47   1 H      0.029  0.971  0.000  0.000     2.597     2.520
  48   7 N     -0.179  1.246  3.934  0.000    24.886     7.409
  49   6 C      0.030  1.060  2.910  0.000    20.076     6.380
  50   6 C      0.279  1.042  2.679  0.000    22.275     7.729
  51   8 O     -0.501  1.741  4.761  0.000    23.814     6.543
  52   6 C     -0.081  1.062  3.019  0.000    22.037     6.682
  53   6 C     -0.008  1.054  2.954  0.000    20.694     6.470
  54   6 C     -0.116  1.040  3.076  0.000    22.783     6.806
  55   6 C     -0.120  1.043  3.077  0.000    22.858     6.816
  56   1 H      0.208  0.792  0.000  0.000     1.067     1.618
  57   1 H      0.057  0.943  0.000  0.000     2.240     2.340
  58   1 H      0.055  0.945  0.000  0.000     2.259     2.350
  59   1 H      0.071  0.929  0.000  0.000     2.071     2.251
  60   1 H      0.030  0.970  0.000  0.000     2.584     2.514
  61   1 H      0.053  0.947  0.000  0.000     2.281     2.362
  62   1 H      0.027  0.973  0.000  0.000     2.634     2.538
  63   1 H      0.044  0.956  0.000  0.000     2.394     2.420
  64   1 H      0.054  0.946  0.000  0.000     2.267     2.355
  65   1 H      0.049  0.951  0.000  0.000     2.334     2.389
  66   1 H      0.045  0.955  0.000  0.000     2.380     2.413
  67   7 N     -0.188  1.251  3.937  0.000    25.069     7.436
  68   6 C      0.029  1.057  2.913  0.000    20.085     6.382
  69   6 C      0.276  1.043  2.681  0.000    22.328     7.738
  70   8 O     -0.494  1.735  4.759  0.000    23.647     6.520
  71   6 C     -0.131  1.042  3.090  0.000    23.080     6.850
  72   1 H      0.231  0.769  0.000  0.000     0.961     1.536
  73   1 H      0.074  0.926  0.000  0.000     2.047     2.237
  74   1 H      0.071  0.929  0.000  0.000     2.072     2.251
  75   1 H      0.075  0.925  0.000  0.000     2.028     2.227
  76   1 H      0.068  0.932  0.000  0.000     2.112     2.273
  77   7 N     -0.183  1.250  3.933  0.000    24.967     7.421
  78   6 C      0.028  1.063  2.909  0.000    20.102     6.383
  79   6 C      0.287  1.041  2.671  0.000    22.134     7.704
  80   8 O     -0.502  1.729  4.772  0.000    23.825     6.544
  81   6 C     -0.018  1.064  2.954  0.000    20.861     6.496
  82   6 C     -0.068  1.051  3.017  0.000    21.800     6.647
  83   6 C     -0.113  1.038  3.075  0.000    22.713     6.795
  84   6 C     -0.102  1.035  3.067  0.000    22.504     6.765
  85   1 H      0.221  0.779  0.000  0.000     1.003     1.569
  86   1 H      0.065  0.935  0.000  0.000     2.141     2.288
  87   1 H      0.035  0.965  0.000  0.000     2.519     2.482
  88   1 H      0.055  0.945  0.000  0.000     2.257     2.349
  89   1 H      0.047  0.953  0.000  0.000     2.357     2.401
  90   1 H      0.058  0.942  0.000  0.000     2.228     2.334
  91   1 H      0.024  0.976  0.000  0.000     2.675     2.558
  92   1 H      0.056  0.944  0.000  0.000     2.248     2.345
  93   1 H      0.050  0.950  0.000  0.000     2.320     2.382
  94   1 H      0.019  0.981  0.000  0.000     2.754     2.595
  95   1 H      0.045  0.955  0.000  0.000     2.381     2.413
  96   7 N     -0.189  1.253  3.936  0.000    25.100     7.441
  97   6 C      0.038  1.054  2.907  0.000    19.934     6.357
  98   6 C      0.279  1.042  2.679  0.000    22.285     7.731
  99   8 O     -0.498  1.736  4.762  0.000    23.745     6.533
 100   6 C     -0.123  1.040  3.083  0.000    22.913     6.825
 101   1 H      0.219  0.781  0.000  0.000     1.013     1.576
 102   1 H      0.053  0.947  0.000  0.000     2.282     2.362
 103   1 H      0.062  0.938  0.000  0.000     2.173     2.305
 104   1 H      0.052  0.948  0.000  0.000     2.296     2.370
 105   1 H      0.074  0.926  0.000  0.000     2.045     2.236
 106   7 N     -0.173  1.245  3.928  0.000    24.751     7.389
 107   6 C      0.019  1.066  2.915  0.000    20.256     6.407
 108   6 C      0.278  1.041  2.681  0.000    22.299     7.733
 109   8 O     -0.491  1.735  4.757  0.000    23.591     6.512
 110   6 C     -0.021  1.063  2.958  0.000    20.911     6.504
 111   6 C     -0.123  1.038  3.085  0.000    22.917     6.826
 112   6 C     -0.121  1.041  3.080  0.000    22.863     6.817
 113   1 H      0.213  0.787  0.000  0.000     1.042     1.599
 114   1 H      0.073  0.927  0.000  0.000     2.051     2.240
 115   1 H      0.052  0.948  0.000  0.000     2.299     2.371
 116   1 H      0.057  0.943  0.000  0.000     2.234     2.338
 117   1 H      0.049  0.951  0.000  0.000     2.330     2.387
 118   1 H      0.042  0.958  0.000  0.000     2.418     2.432
 119   1 H      0.059  0.941  0.000  0.000     2.213     2.327
 120   1 H      0.048  0.952  0.000  0.000     2.350     2.397
 121   1 H      0.052  0.948  0.000  0.000     2.297     2.370
 122   7 N     -0.180  1.248  3.932  0.000    24.900     7.411
 123   6 C      0.019  1.064  2.917  0.000    20.257     6.408
 124   6 C      0.281  1.042  2.677  0.000    22.252     7.725
 125   8 O     -0.482  1.733  4.750  0.000    23.399     6.486
 126   6 C     -0.012  1.061  2.952  0.000    20.759     6.480
 127   6 C     -0.109  1.037  3.072  0.000    22.636     6.784
 128   6 C     -0.111  1.039  3.073  0.000    22.682     6.790
 129   1 H      0.221  0.779  0.000  0.000     1.006     1.571
 130   1 H      0.087  0.913  0.000  0.000     1.909     2.161
 131   1 H      0.033  0.967  0.000  0.000     2.544     2.494
 132   1 H      0.047  0.953  0.000  0.000     2.361     2.403
 133   1 H      0.038  0.962  0.000  0.000     2.470     2.458
 134   1 H      0.053  0.947  0.000  0.000     2.284     2.363
 135   1 H      0.049  0.951  0.000  0.000     2.333     2.389
 136   1 H      0.044  0.956  0.000  0.000     2.395     2.420
 137   1 H      0.051  0.949  0.000  0.000     2.303     2.373
 138   7 N     -0.196  1.250  3.947  0.000    25.263     7.465
 139   6 C      0.026  1.055  2.918  0.000    20.129     6.387
 140   6 C      0.266  1.044  2.690  0.000    22.506     7.769
 141   8 O     -0.484  1.728  4.757  0.000    23.435     6.491
 142   6 C     -0.068  1.052  3.017  0.000    21.789     6.643
 143   6 C     -0.015  1.065  2.951  0.000    20.857     6.503
 144  16 S     -0.216  1.920  4.242  0.053   150.247    20.630
 145   6 C     -0.064  1.055  3.009  0.000    21.805     6.661
 146   1 H      0.223  0.777  0.000  0.000     0.994     1.562
 147   1 H      0.088  0.912  0.000  0.000     1.896     2.153
 148   1 H      0.057  0.943  0.000  0.000     2.232     2.336
 149   1 H      0.067  0.933  0.000  0.000     2.115     2.274
 150   1 H      0.051  0.949  0.000  0.000     2.306     2.375
 151   1 H      0.062  0.938  0.000  0.000     2.178     2.308
 152   1 H      0.079  0.921  0.000  0.000     1.992     2.207
 153   1 H      0.062  0.938  0.000  0.000     2.181     2.310
 154   1 H      0.052  0.948  0.000  0.000     2.296     2.369
 155   7 N     -0.168  1.239  3.929  0.000    24.626     7.370
 156   6 C     -0.027  1.049  2.978  0.000    21.127     6.556
 157   6 C      0.274  1.039  2.687  0.000    22.373     7.746
 158   8 O     -0.485  1.730  4.756  0.000    23.465     6.495
 159   1 H      0.212  0.788  0.000  0.000     1.048     1.604
 160   1 H      0.088  0.912  0.000  0.000     1.897     2.154
 161   1 H      0.092  0.908  0.000  0.000     1.857     2.131
 162   7 N     -0.180  1.251  3.929  0.000    24.902     7.411
 163   6 C      0.023  1.060  2.917  0.000    20.190     6.398
 164   6 C      0.274  1.043  2.683  0.000    22.372     7.746
 165   8 O     -0.493  1.736  4.757  0.000    23.641     6.519
 166   6 C     -0.136  1.043  3.093  0.000    23.166     6.863
 167   1 H      0.228  0.772  0.000  0.000     0.976     1.547
 168   1 H      0.073  0.927  0.000  0.000     2.049     2.239
 169   1 H      0.074  0.926  0.000  0.000     2.040     2.234
 170   1 H      0.079  0.921  0.000  0.000     1.993     2.208
 171   1 H      0.072  0.928  0.000  0.000     2.063     2.246
 172   7 N     -0.186  1.253  3.934  0.000    25.037     7.431
 173   6 C      0.026  1.059  2.915  0.000    20.146     6.391
 174   6 C      0.277  1.041  2.682  0.000    22.307     7.734
 175   8 O     -0.496  1.737  4.759  0.000    23.693     6.526
 176   6 C     -0.123  1.041  3.082  0.000    22.912     6.825
 177   1 H      0.224  0.776  0.000  0.000     0.993     1.561
 178   1 H      0.073  0.927  0.000  0.000     2.057     2.243
 179   1 H      0.068  0.932  0.000  0.000     2.109     2.271
 180   1 H      0.068  0.932  0.000  0.000     2.113     2.273
 181   1 H      0.062  0.938  0.000  0.000     2.180     2.309
 182   7 N     -0.189  1.251  3.937  0.000    25.088     7.439
 183   6 C      0.032  1.059  2.908  0.000    20.036     6.373
 184   6 C      0.280  1.039  2.680  0.000    22.257     7.726
 185   8 O     -0.493  1.737  4.756  0.000    23.638     6.518
 186   6 C     -0.082  1.056  3.027  0.000    22.056     6.685
 187   6 C      0.009  1.080  2.912  0.000    27.823     8.652
 188   6 C     -0.039  1.079  2.960  0.000    28.982     8.828
 189   6 C     -0.044  1.081  2.963  0.000    29.092     8.845
 190   6 C     -0.031  1.080  2.951  0.000    28.775     8.797
 191   6 C     -0.035  1.079  2.956  0.000    28.877     8.812
 192   6 C     -0.035  1.079  2.955  0.000    28.860     8.810
 193   1 H      0.229  0.771  0.000  0.000     0.969     1.542
 194   1 H      0.072  0.928  0.000  0.000     2.061     2.245
 195   1 H      0.072  0.928  0.000  0.000     2.065     2.247
 196   1 H      0.058  0.942  0.000  0.000     2.221     2.331
 197   1 H      0.040  0.960  0.000  0.000     2.444     2.445
 198   1 H      0.036  0.964  0.000  0.000     2.507     2.476
 199   1 H      0.042  0.958  0.000  0.000     2.429     2.437
 200   1 H      0.045  0.955  0.000  0.000     2.384     2.414
 201   1 H      0.044  0.956  0.000  0.000     2.400     2.423
 202   7 N     -0.188  1.252  3.936  0.000    25.080     7.438
 203   6 C      0.041  1.054  2.905  0.000    19.885     6.349
 204   6 C      0.282  1.040  2.677  0.000    22.218     7.719
 205   8 O     -0.490  1.739  4.751  0.000    23.570     6.509
 206   6 C     -0.111  1.063  3.048  0.000    22.611     6.768
 207   6 C      0.289  1.034  2.677  0.000    22.096     7.697
 208   8 O     -0.482  1.747  4.735  0.000    23.391     6.484
 209   7 N     -0.285  1.264  4.021  0.000    27.354     7.768
 210   1 H      0.235  0.765  0.000  0.000     0.944     1.522
 211   1 H      0.068  0.932  0.000  0.000     2.106     2.269
 212   1 H      0.085  0.915  0.000  0.000     1.931     2.173
 213   1 H      0.082  0.918  0.000  0.000     1.958     2.188
 214   1 H      0.225  0.775  0.000  0.000     0.986     1.555
 215   1 H      0.236  0.764  0.000  0.000     0.938     1.517
 216   7 N     -0.179  1.244  3.936  0.000    24.888     7.409
 217   6 C      0.025  1.058  2.917  0.000    20.160     6.393
 218   6 C      0.277  1.042  2.680  0.000    22.308     7.735
 219   8 O     -0.508  1.732  4.776  0.000    23.956     6.562
 220   6 C     -0.084  1.057  3.027  0.000    22.102     6.693
 221   6 C     -0.073  1.052  3.021  0.000    21.896     6.662
 222   6 C     -0.093  1.052  3.041  0.000    22.270     6.719
 223   6 C     -0.045  1.059  2.985  0.000    21.468     6.614
 224   7 N     -0.134  1.224  3.910  0.000    23.894     7.260
 225   1 H      0.220  0.780  0.000  0.000     1.010     1.574
 226   1 H      0.071  0.929  0.000  0.000     2.075     2.253
 227   1 H      0.076  0.924  0.000  0.000     2.017     2.221
 228   1 H      0.071  0.929  0.000  0.000     2.077     2.254
 229   1 H      0.079  0.921  0.000  0.000     1.985     2.203
 230   1 H      0.045  0.955  0.000  0.000     2.385     2.415
 231   1 H      0.062  0.938  0.000  0.000     2.180     2.309
 232   1 H      0.082  0.918  0.000  0.000     1.955     2.187
 233   1 H      0.132  0.868  0.000  0.000     1.517     1.926
 234   1 H      0.103  0.897  0.000  0.000     1.756     2.072
 235   1 H      0.292  0.708  0.000  0.000     0.737     1.345
 236   1 H      0.268  0.732  0.000  0.000     0.817     1.416
 237   1 H      0.292  0.708  0.000  0.000     0.738     1.346
 238   7 N     -0.161  1.243  3.919  0.000    24.492     7.350
 239   6 C      0.016  1.066  2.918  0.000    20.291     6.412
 240   6 C      0.280  1.042  2.678  0.000    22.263     7.727
 241   8 O     -0.501  1.740  4.761  0.000    23.799     6.541
 242   6 C     -0.020  1.064  2.956  0.000    20.888     6.501
 243   6 C     -0.068  1.048  3.020  0.000    21.796     6.647
 244   6 C     -0.114  1.037  3.077  0.000    22.735     6.798
 245   6 C     -0.109  1.036  3.073  0.000    22.637     6.785
 246   1 H      0.222  0.778  0.000  0.000     0.999     1.566
 247   1 H      0.089  0.911  0.000  0.000     1.893     2.152
 248   1 H      0.052  0.948  0.000  0.000     2.291     2.367
 249   1 H      0.047  0.953  0.000  0.000     2.364     2.404
 250   1 H      0.024  0.976  0.000  0.000     2.667     2.554
 251   1 H      0.054  0.946  0.000  0.000     2.266     2.354
 252   1 H      0.051  0.949  0.000  0.000     2.312     2.378
 253   1 H      0.043  0.957  0.000  0.000     2.404     2.425
 254   1 H      0.046  0.954  0.000  0.000     2.373     2.409
 255   1 H      0.044  0.956  0.000  0.000     2.397     2.421
 256   1 H      0.040  0.960  0.000  0.000     2.455     2.450
 257   7 N     -0.188  1.249  3.939  0.000    25.074     7.437
 258   6 C      0.030  1.060  2.910  0.000    20.068     6.378
 259   6 C      0.286  1.041  2.672  0.000    22.153     7.708
 260   8 O     -0.501  1.749  4.751  0.000    23.802     6.541
 261   6 C     -0.023  1.064  2.959  0.000    20.951     6.510
 262   6 C     -0.065  1.050  3.015  0.000    21.743     6.639
 263   6 C     -0.110  1.037  3.073  0.000    22.653     6.786
 264   6 C     -0.111  1.035  3.076  0.000    22.690     6.793
 265   1 H      0.224  0.776  0.000  0.000     0.992     1.560
 266   1 H      0.066  0.934  0.000  0.000     2.125     2.280
 267   1 H      0.045  0.955  0.000  0.000     2.388     2.417
 268   1 H      0.042  0.958  0.000  0.000     2.422     2.434
 269   1 H      0.050  0.950  0.000  0.000     2.321     2.382
 270   1 H      0.061  0.939  0.000  0.000     2.183     2.311
 271   1 H      0.020  0.980  0.000  0.000     2.733     2.585
 272   1 H      0.048  0.952  0.000  0.000     2.346     2.395
 273   1 H      0.054  0.946  0.000  0.000     2.275     2.359
 274   1 H      0.046  0.954  0.000  0.000     2.369     2.407
 275   1 H      0.031  0.969  0.000  0.000     2.573     2.508
 276   7 N     -0.197  1.252  3.945  0.000    25.270     7.466
 277   6 C      0.051  1.050  2.899  0.000    19.700     6.315
 278   6 C      0.290  1.038  2.673  0.000    22.089     7.697
 279   8 O     -0.504  1.745  4.759  0.000    23.881     6.552
 280   6 C     -0.012  1.066  2.946  0.000    20.801     6.494
 281  16 S     -0.295  1.937  4.325  0.034   153.835    20.875
 282   1 H      0.229  0.771  0.000  0.000     0.968     1.541
 283   1 H      0.043  0.957  0.000  0.000     2.408     2.427
 284   1 H      0.063  0.937  0.000  0.000     2.160     2.298
 285   1 H      0.069  0.931  0.000  0.000     2.092     2.262
 286   1 H      0.198  0.802  0.000  0.000     1.107     1.645
 287   7 N     -0.206  1.256  3.951  0.000    25.490     7.498
 288   6 C      0.027  1.060  2.913  0.000    20.114     6.385
 289   6 C      0.289  1.035  2.675  0.000    22.098     7.698
 290   8 O     -0.501  1.752  4.749  0.000    23.804     6.541
 291   6 C      0.073  1.040  2.888  0.000    19.574     6.338
 292   8 O     -0.457  1.715  4.742  0.000    21.987     6.330
 293   1 H      0.246  0.754  0.000  0.000     0.897     1.484
 294   1 H      0.082  0.918  0.000  0.000     1.957     2.188
 295   1 H      0.053  0.947  0.000  0.000     2.286     2.364
 296   1 H      0.048  0.952  0.000  0.000     2.347     2.396
 297   1 H      0.327  0.673  0.000  0.000     0.645     1.261
 298   7 N     -0.174  1.243  3.931  0.000    24.769     7.392
 299   6 C      0.040  1.057  2.903  0.000    19.908     6.354
 300   6 C      0.218  1.083  2.699  0.000    23.398     7.922
 301   8 O     -0.371  1.752  4.619  0.000    21.112     6.160
 302   6 C     -0.079  1.060  3.019  0.000    21.999     6.676
 303   6 C     -0.007  1.054  2.953  0.000    20.677     6.468
 304   6 C     -0.119  1.040  3.079  0.000    22.828     6.812
 305   6 C     -0.112  1.041  3.071  0.000    22.695     6.792
 306   1 H      0.222  0.778  0.000  0.000     1.002     1.568
 307   1 H      0.076  0.924  0.000  0.000     2.024     2.225
 308   1 H      0.070  0.930  0.000  0.000     2.081     2.256
 309   1 H      0.066  0.934  0.000  0.000     2.127     2.281
 310   1 H      0.020  0.980  0.000  0.000     2.729     2.583
 311   1 H      0.051  0.949  0.000  0.000     2.312     2.378
 312   1 H      0.038  0.962  0.000  0.000     2.482     2.464
 313   1 H      0.050  0.950  0.000  0.000     2.324     2.384
 314   1 H      0.049  0.951  0.000  0.000     2.333     2.389
 315   1 H      0.048  0.952  0.000  0.000     2.348     2.396
 316   1 H      0.033  0.967  0.000  0.000     2.546     2.495
 317   7 N     -0.404  1.314  4.091  0.000    30.493     8.201
 318   6 C      0.049  1.055  2.896  0.000    19.768     6.334
 319   6 C      0.205  1.094  2.702  0.000    23.654     7.965
 320   8 O     -0.386  1.746  4.640  0.000    21.395     6.202
 321   6 C     -0.047  1.050  2.997  0.000    21.413     6.587
 322   6 C     -0.084  1.062  3.021  0.000    22.097     6.693
 323   6 C      0.365  1.031  2.604  0.000    20.805     7.464
 324   8 O     -0.620  1.751  4.869  0.000    26.621     6.918
[...]
 389   1 H      0.042  0.958  0.000  0.000     2.421     2.433
 390   7 N     -0.168  1.243  3.924  0.000    24.633     7.371
 391   6 C      0.031  1.055  2.914  0.000    20.054     6.377
 392   6 C      0.202  1.089  2.709  0.000    23.707     7.974
 393   8 O     -0.352  1.748  4.605  0.000    20.752     6.108
 394   6 C     -0.138  1.044  3.095  0.000    23.217     6.870
 395   1 H      0.224  0.776  0.000  0.000     0.991     1.559
 396   1 H      0.078  0.922  0.000  0.000     1.999     2.211
 397   1 H      0.078  0.922  0.000  0.000     1.999     2.211
 398   1 H      0.082  0.918  0.000  0.000     1.953     2.186
 399   1 H      0.080  0.920  0.000  0.000     1.977     2.199
 400   7 N     -0.396  1.306  4.090  0.000    30.268     8.171
 401   6 C      0.031  1.063  2.906  0.000    20.064     6.380
 402   6 C      0.270  1.048  2.682  0.000    22.440     7.757
 403   8 O     -0.507  1.747  4.759  0.000    23.929     6.559
 404   6 C     -0.016  1.064  2.952  0.000    20.828     6.491
 405   6 C     -0.120  1.038  3.082  0.000    22.864     6.818
 406   6 C     -0.111  1.040  3.072  0.000    22.679     6.790
 407   1 H      0.165  0.835  0.000  0.000     1.302     1.788
 408   1 H      0.032  0.968  0.000  0.000     2.563     2.503
 409   1 H      0.033  0.967  0.000  0.000     2.544     2.494
 410   1 H      0.038  0.962  0.000  0.000     2.471     2.458
 411   1 H      0.060  0.940  0.000  0.000     2.196     2.317
 412   1 H      0.037  0.963  0.000  0.000     2.488     2.466
 413   1 H      0.035  0.965  0.000  0.000     2.519     2.482
 414   1 H      0.038  0.962  0.000  0.000     2.481     2.463
 415   1 H      0.040  0.960  0.000  0.000     2.454     2.450
 416   7 N     -0.171  1.247  3.924  0.000    24.698     7.381
 417   6 C      0.024  1.062  2.915  0.000    20.177     6.396
 418   6 C      0.207  1.083  2.711  0.000    23.615     7.959
 419   8 O     -0.365  1.758  4.608  0.000    21.000     6.144
 420   6 C     -0.018  1.063  2.955  0.000    20.865     6.497
 421   6 C     -0.112  1.038  3.074  0.000    22.702     6.794
 422   6 C     -0.116  1.040  3.076  0.000    22.770     6.803
 423   1 H      0.237  0.763  0.000  0.000     0.936     1.516
 424   1 H      0.086  0.914  0.000  0.000     1.923     2.169
 425   1 H      0.058  0.942  0.000  0.000     2.226     2.333
 426   1 H      0.055  0.945  0.000  0.000     2.258     2.350
 427   1 H      0.036  0.964  0.000  0.000     2.499     2.472
 428   1 H      0.047  0.953  0.000  0.000     2.356     2.400
 429   1 H      0.059  0.941  0.000  0.000     2.208     2.324
 430   1 H      0.038  0.962  0.000  0.000     2.479     2.462
 431   1 H      0.057  0.943  0.000  0.000     2.233     2.337
 432   7 N     -0.402  1.317  4.085  0.000    30.431     8.193
 433   6 C      0.050  1.053  2.897  0.000    19.763     6.333
 434   6 C      0.204  1.096  2.701  0.000    23.670     7.968
 435   8 O     -0.389  1.755  4.633  0.000    21.460     6.211
 436   6 C     -0.114  1.041  3.073  0.000    22.734     6.798
 437   1 H      0.177  0.823  0.000  0.000     1.229     1.737
 438   1 H      0.042  0.958  0.000  0.000     2.428     2.437
 439   1 H      0.045  0.955  0.000  0.000     2.389     2.417
 440   1 H      0.064  0.936  0.000  0.000     2.157     2.297
 441   1 H      0.062  0.938  0.000  0.000     2.181     2.309
 442   7 N     -0.390  1.310  4.080  0.000    30.093     8.147
 443   6 C     -0.012  1.044  2.968  0.000    20.878     6.521
 444   6 C      0.265  1.046  2.689  0.000    22.532     7.773
 445   8 O     -0.489  1.741  4.748  0.000    23.535     6.504
 446   1 H      0.171  0.829  0.000  0.000     1.269     1.765
 447   1 H      0.047  0.953  0.000  0.000     2.362     2.403
 448   1 H      0.052  0.948  0.000  0.000     2.292     2.368
 449   7 N     -0.162  1.243  3.919  0.000    24.503     7.352
 450   6 C      0.025  1.058  2.917  0.000    20.158     6.394
 451   6 C      0.202  1.087  2.711  0.000    23.697     7.972
 452   8 O     -0.358  1.757  4.601  0.000    20.862     6.124
 453   6 C     -0.139  1.044  3.095  0.000    23.226     6.871
 454   1 H      0.229  0.771  0.000  0.000     0.971     1.544
 455   1 H      0.086  0.914  0.000  0.000     1.918     2.166
 456   1 H      0.079  0.921  0.000  0.000     1.994     2.208
 457   1 H      0.085  0.915  0.000  0.000     1.930     2.172
 458   1 H      0.077  0.923  0.000  0.000     2.010     2.217
 459   7 N     -0.389  1.316  4.073  0.000    30.072     8.144
 460   6 C      0.039  1.057  2.904  0.000    19.931     6.358
 461   6 C      0.273  1.046  2.681  0.000    22.390     7.749
 462   8 O     -0.509  1.751  4.758  0.000    23.977     6.565
 463   6 C     -0.078  1.058  3.020  0.000    21.981     6.673
 464   6 C      0.009  1.083  2.908  0.000    27.813     8.651
 465   6 C     -0.041  1.079  2.962  0.000    29.016     8.834
 466   6 C     -0.043  1.081  2.962  0.000    29.064     8.841
 467   6 C     -0.034  1.080  2.954  0.000    28.848     8.808
 468   6 C     -0.033  1.079  2.954  0.000    28.825     8.804
 469   6 C     -0.036  1.079  2.957  0.000    28.887     8.814
 470   1 H      0.160  0.840  0.000  0.000     1.333     1.808
 471   1 H      0.033  0.967  0.000  0.000     2.546     2.495
 472   1 H      0.056  0.944  0.000  0.000     2.245     2.343
 473   1 H      0.058  0.942  0.000  0.000     2.218     2.329
 474   1 H      0.037  0.963  0.000  0.000     2.492     2.469
 475   1 H      0.032  0.968  0.000  0.000     2.556     2.500
 476   1 H      0.039  0.961  0.000  0.000     2.469     2.457
 477   1 H      0.030  0.970  0.000  0.000     2.586     2.515
 478   1 H      0.035  0.965  0.000  0.000     2.518     2.482
 479   7 N     -0.174  1.250  3.924  0.000    24.768     7.391
 480   6 C      0.045  1.052  2.904  0.000    19.826     6.340
 481   6 C      0.208  1.083  2.709  0.000    23.582     7.953
 482   8 O     -0.366  1.756  4.610  0.000    21.020     6.147
 483   6 C     -0.112  1.064  3.048  0.000    22.629     6.771
 484   6 C      0.288  1.034  2.678  0.000    22.110     7.699
 485   8 O     -0.488  1.751  4.738  0.000    23.526     6.503
 486   7 N     -0.287  1.265  4.021  0.000    27.401     7.774
 487   1 H      0.246  0.754  0.000  0.000     0.900     1.486
 488   1 H      0.069  0.931  0.000  0.000     2.096     2.264
 489   1 H      0.094  0.906  0.000  0.000     1.838     2.120
 490   1 H      0.094  0.906  0.000  0.000     1.845     2.124
 491   1 H      0.228  0.772  0.000  0.000     0.973     1.545
 492   1 H      0.239  0.761  0.000  0.000     0.926     1.507
 493   7 N     -0.395  1.310  4.085  0.000    30.229     8.166
 494   6 C      0.044  1.057  2.900  0.000    19.857     6.347
 495   6 C      0.207  1.093  2.700  0.000    23.607     7.957
 496   8 O     -0.392  1.755  4.636  0.000    21.513     6.219
 497   6 C     -0.018  1.065  2.952  0.000    20.856     6.495
 498   6 C     -0.054  1.048  3.007  0.000    21.544     6.608
 499   6 C     -0.106  1.038  3.068  0.000    22.575     6.775
 500   6 C     -0.105  1.034  3.071  0.000    22.561     6.774
 501   1 H      0.177  0.823  0.000  0.000     1.230     1.737
 502   1 H      0.038  0.962  0.000  0.000     2.473     2.459
 503   1 H      0.047  0.953  0.000  0.000     2.361     2.403
 504   1 H      0.038  0.962  0.000  0.000     2.476     2.461
 505   1 H      0.035  0.965  0.000  0.000     2.520     2.483
 506   1 H      0.046  0.954  0.000  0.000     2.370     2.408
 507   1 H      0.027  0.973  0.000  0.000     2.631     2.537
 508   1 H      0.039  0.961  0.000  0.000     2.456     2.451
 509   1 H      0.041  0.959  0.000  0.000     2.435     2.440
 510   1 H      0.038  0.962  0.000  0.000     2.472     2.459
 511   1 H      0.030  0.970  0.000  0.000     2.583     2.513
 512   7 N     -0.401  1.315  4.085  0.000    30.397     8.188
 513   6 C      0.032  1.060  2.908  0.000    20.053     6.379
 514   6 C      0.270  1.051  2.679  0.000    22.437     7.757
 515   8 O     -0.500  1.742  4.759  0.000    23.790     6.539
 516   6 C     -0.073  1.063  3.010  0.000    21.881     6.659
 517   6 C     -0.011  1.059  2.952  0.000    20.747     6.479
 518   6 C     -0.116  1.043  3.073  0.000    22.769     6.803
 519   6 C     -0.124  1.041  3.083  0.000    22.934     6.828
 520   1 H      0.166  0.834  0.000  0.000     1.298     1.785
 521   1 H      0.035  0.965  0.000  0.000     2.514     2.480
 522   1 H      0.050  0.950  0.000  0.000     2.314     2.379
 523   1 H      0.043  0.957  0.000  0.000     2.414     2.430
 524   1 H      0.032  0.968  0.000  0.000     2.561     2.503
 525   1 H      0.044  0.956  0.000  0.000     2.396     2.421
 526   1 H      0.035  0.965  0.000  0.000     2.510     2.478
 527   1 H      0.036  0.964  0.000  0.000     2.508     2.477
 528   1 H      0.044  0.956  0.000  0.000     2.390     2.418
 529   1 H      0.041  0.959  0.000  0.000     2.434     2.440
 530   1 H      0.047  0.953  0.000  0.000     2.353     2.399
 531   7 N     -0.164  1.247  3.917  0.000    24.542     7.358
 532   6 C      0.029  1.058  2.913  0.000    20.096     6.383
 533   6 C      0.207  1.089  2.704  0.000    23.615     7.958
 534   8 O     -0.350  1.742  4.607  0.000    20.701     6.100
 535   6 C     -0.081  1.055  3.025  0.000    22.036     6.682
 536   6 C      0.007  1.079  2.915  0.000    27.871     8.660
 537   6 C     -0.039  1.079  2.960  0.000    28.958     8.825
 538   6 C     -0.043  1.082  2.961  0.000    29.065     8.841
 539   6 C     -0.029  1.079  2.950  0.000    28.717     8.788
 540   6 C     -0.033  1.081  2.953  0.000    28.834     8.806
 541   6 C     -0.034  1.079  2.955  0.000    28.835     8.806
 542   1 H      0.224  0.776  0.000  0.000     0.990     1.558
 543   1 H      0.084  0.916  0.000  0.000     1.942     2.179
 544   1 H      0.071  0.929  0.000  0.000     2.078     2.254
 545   1 H      0.075  0.925  0.000  0.000     2.031     2.229
 546   1 H      0.030  0.970  0.000  0.000     2.586     2.515
 547   1 H      0.047  0.953  0.000  0.000     2.358     2.401
 548   1 H      0.035  0.965  0.000  0.000     2.519     2.482
 549   1 H      0.045  0.955  0.000  0.000     2.382     2.414
 550   1 H      0.039  0.961  0.000  0.000     2.461     2.453
 551   7 N     -0.402  1.304  4.099  0.000    30.441     8.194
 552   6 C      0.020  1.061  2.919  0.000    20.256     6.411
 553   6 C      0.268  1.046  2.686  0.000    22.476     7.763
 554   8 O     -0.498  1.744  4.754  0.000    23.742     6.533
 555   6 C      0.081  1.036  2.883  0.000    19.446     6.317
 556   8 O     -0.481  1.714  4.767  0.000    22.489     6.402
 557   1 H      0.175  0.825  0.000  0.000     1.240     1.745
 558   1 H      0.041  0.959  0.000  0.000     2.441     2.443
 559   1 H      0.041  0.959  0.000  0.000     2.429     2.437
 560   1 H      0.029  0.971  0.000  0.000     2.597     2.520
 561   1 H      0.332  0.668  0.000  0.000     0.633     1.250
 562   7 N     -0.158  1.238  3.920  0.000    24.416     7.339
 563   6 C      0.019  1.064  2.917  0.000    20.264     6.410
 564   6 C      0.198  1.086  2.716  0.000    23.784     7.987
 565   8 O     -0.349  1.754  4.594  0.000    20.684     6.098
 566   6 C     -0.017  1.063  2.953  0.000    20.836     6.492
 567   6 C     -0.121  1.039  3.081  0.000    22.864     6.818
 568   6 C     -0.123  1.041  3.083  0.000    22.919     6.826
 569   1 H      0.226  0.774  0.000  0.000     0.984     1.554
 570   1 H      0.089  0.911  0.000  0.000     1.888     2.149
 571   1 H      0.053  0.947  0.000  0.000     2.281     2.362
 572   1 H      0.060  0.940  0.000  0.000     2.198     2.319
 573   1 H      0.040  0.960  0.000  0.000     2.446     2.446
 574   1 H      0.053  0.947  0.000  0.000     2.278     2.360
 575   1 H      0.058  0.942  0.000  0.000     2.223     2.332
 576   1 H      0.049  0.951  0.000  0.000     2.332     2.388
 577   1 H      0.056  0.944  0.000  0.000     2.244     2.343
 578   7 N     -0.398  1.313  4.085  0.000    30.329     8.179
 579   6 C      0.052  1.054  2.894  0.000    19.725     6.327
 580   6 C      0.198  1.096  2.705  0.000    23.772     7.985
 581   8 O     -0.379  1.746  4.632  0.000    21.261     6.182
 582   6 C     -0.078  1.058  3.021  0.000    21.987     6.674
 583   6 C      0.009  1.084  2.907  0.000    27.820     8.652
 584   6 C     -0.040  1.079  2.961  0.000    29.002     8.832
 585   6 C     -0.040  1.082  2.958  0.000    29.002     8.832
 586   6 C     -0.036  1.079  2.957  0.000    28.899     8.815
 587   6 C     -0.034  1.081  2.953  0.000    28.841     8.807
 588   6 C     -0.037  1.078  2.959  0.000    28.932     8.821
 589   1 H      0.183  0.817  0.000  0.000     1.199     1.715
 590   1 H      0.031  0.969  0.000  0.000     2.569     2.507
 591   1 H      0.061  0.939  0.000  0.000     2.182     2.310
 592   1 H      0.079  0.921  0.000  0.000     1.988     2.205
 593   1 H      0.026  0.974  0.000  0.000     2.648     2.545
 594   1 H      0.038  0.962  0.000  0.000     2.473     2.459
 595   1 H      0.033  0.967  0.000  0.000     2.550     2.497
 596   1 H      0.041  0.959  0.000  0.000     2.430     2.438
 597   1 H      0.034  0.966  0.000  0.000     2.529     2.487
 598   7 N     -0.394  1.312  4.083  0.000    30.209     8.163
 599   6 C      0.027  1.065  2.908  0.000    20.133     6.391
 600   6 C      0.272  1.049  2.679  0.000    22.401     7.750
 601   8 O     -0.510  1.750  4.760  0.000    24.005     6.569
 602   6 C     -0.020  1.069  2.951  0.000    20.901     6.502
 603   6 C     -0.057  1.050  3.007  0.000    21.590     6.615
 604   6 C     -0.124  1.039  3.085  0.000    22.940     6.829
 605   6 C     -0.109  1.038  3.072  0.000    22.651     6.787
 606   1 H      0.153  0.847  0.000  0.000     1.378     1.839
 607   1 H      0.033  0.967  0.000  0.000     2.540     2.492
 608   1 H      0.036  0.964  0.000  0.000     2.507     2.476
 609   1 H      0.031  0.969  0.000  0.000     2.577     2.510
 610   1 H      0.025  0.975  0.000  0.000     2.652     2.547
 611   1 H      0.046  0.954  0.000  0.000     2.374     2.409
 612   1 H      0.060  0.940  0.000  0.000     2.198     2.318
 613   1 H      0.037  0.963  0.000  0.000     2.483     2.464
 614   1 H      0.036  0.964  0.000  0.000     2.503     2.474
 615   1 H      0.043  0.957  0.000  0.000     2.415     2.430
 616   1 H      0.041  0.959  0.000  0.000     2.435     2.440
 617   7 N     -0.165  1.244  3.921  0.000    24.571     7.362
 618   6 C      0.032  1.056  2.912  0.000    20.041     6.375
 619   6 C      0.204  1.086  2.710  0.000    23.673     7.968
 620   8 O     -0.361  1.756  4.605  0.000    20.912     6.131
 621   6 C     -0.134  1.043  3.092  0.000    23.136     6.858
 622   1 H      0.229  0.771  0.000  0.000     0.969     1.542
 623   1 H      0.080  0.920  0.000  0.000     1.984     2.203
 624   1 H      0.070  0.930  0.000  0.000     2.083     2.257
 625   1 H      0.084  0.916  0.000  0.000     1.939     2.177
 626   1 H      0.074  0.926  0.000  0.000     2.047     2.238
 627   7 N     -0.388  1.304  4.084  0.000    30.040     8.140
 628   6 C      0.048  1.053  2.898  0.000    19.780     6.335
 629   6 C      0.204  1.096  2.700  0.000    23.663     7.966
 630   8 O     -0.387  1.756  4.631  0.000    21.423     6.206
 631   6 C     -0.068  1.059  3.009  0.000    21.793     6.645
 632   6 C     -0.010  1.056  2.955  0.000    20.727     6.475
 633   6 C     -0.108  1.040  3.069  0.000    22.628     6.782
 634   6 C     -0.112  1.042  3.071  0.000    22.693     6.791
 635   1 H      0.170  0.830  0.000  0.000     1.270     1.765
 636   1 H      0.039  0.961  0.000  0.000     2.469     2.457
 637   1 H      0.047  0.953  0.000  0.000     2.357     2.401
 638   1 H      0.058  0.942  0.000  0.000     2.226     2.333
 639   1 H      0.024  0.976  0.000  0.000     2.673     2.557
 640   1 H      0.040  0.960  0.000  0.000     2.450     2.448
 641   1 H      0.038  0.962  0.000  0.000     2.475     2.460
 642   1 H      0.038  0.962  0.000  0.000     2.479     2.462
 643   1 H      0.043  0.957  0.000  0.000     2.410     2.428
 644   1 H      0.034  0.966  0.000  0.000     2.528     2.486
 645   1 H      0.039  0.961  0.000  0.000     2.457     2.451
 646   1 H      0.185  0.815  0.000  0.000     1.186     1.706
 647   1 H      0.057  0.943  0.000  0.000     2.230     2.335
 648   1 H      0.169  0.831  0.000  0.000     1.277     1.770
 649   1 H      0.067  0.933  0.000  0.000     2.119     2.276
 650   1 H      0.175  0.825  0.000  0.000     1.244     1.747
 651   1 H      0.072  0.928  0.000  0.000     2.059     2.244
 652   1 H      0.185  0.815  0.000  0.000     1.186     1.706
 653   1 H      0.075  0.925  0.000  0.000     2.030     2.228
 654   1 H      0.183  0.817  0.000  0.000     1.199     1.715
 655   1 H      0.085  0.915  0.000  0.000     1.927     2.171
 656   1 H      0.175  0.825  0.000  0.000     1.240     1.745
 657   1 H      0.069  0.931  0.000  0.000     2.094     2.263
 658   1 H      0.178  0.822  0.000  0.000     1.227     1.735
 659   1 H      0.070  0.930  0.000  0.000     2.082     2.256
 660   1 H      0.183  0.817  0.000  0.000     1.197     1.714
 661   1 H      0.083  0.917  0.000  0.000     1.943     2.180
 662   1 H      0.185  0.815  0.000  0.000     1.183     1.704
 663   1 H      0.077  0.923  0.000  0.000     2.006     2.215
 664   1 H      0.179  0.821  0.000  0.000     1.221     1.731
 665   1 H      0.066  0.934  0.000  0.000     2.127     2.280
 666   1 H      0.182  0.818  0.000  0.000     1.202     1.717
 667   1 H      0.089  0.911  0.000  0.000     1.885     2.147
 668   1 H      0.180  0.820  0.000  0.000     1.213     1.725
 669   1 H      0.074  0.926  0.000  0.000     2.039     2.233
 670   1 H      0.172  0.828  0.000  0.000     1.262     1.760
 671   1 H      0.078  0.922  0.000  0.000     1.998     2.210
 672   1 H      0.183  0.817  0.000  0.000     1.196     1.713
 673   1 H      0.074  0.926  0.000  0.000     2.046     2.237
 674   1 H      0.173  0.827  0.000  0.000     1.253     1.753
 675   1 H      0.072  0.928  0.000  0.000     2.066     2.248

 Mol. C6AA /au·bohr⁶  :    4100094.965582
 Mol. C8AA /au·bohr⁸  :   91557815.226905
 Mol. α(0) /au        :       3046.133847

 
molecular dipole:
                 x           y           z       tot (Debye)
 q only:      -92.796     -21.585      -4.741
   full:      -96.302     -25.691      -6.593     253.895
molecular quadrupole (traceless):
                xx          xy          yy          xz          yz          zz
 q only:    -8601.607   -2906.528    4550.059   -1012.578    -104.204    4051.548
  q+dip:    -9049.121   -3434.542    4691.345   -1191.698    -102.112    4357.776
   full:    -9045.992   -3437.277    4690.659   -1197.332    -100.066    4355.333
speedup  1.95
cpu  time for grad    1 m 24.4 s
wall time for grad    0 m 43.3 s

SCC energy    :    -995.4303518
rep           :      12.7595285
ES            :       2.4119911
AES           :      -0.0821433
AXC           :       0.3864527
disp          :      -0.9010461
XB            :       0.0000000
fix           :       0.0000000
Gborn         :       0.0000000
Gsasa         :       0.0000000
Ghb           :       0.0000000
Gshift        :       0.0000000
Gsolv         :      -0.4414594     -277.02
Etot ala COSMO:    -995.4303518
grad norm     :       0.8544883
total E       :    -982.5785608
atomizationE  :     186.0540582   116750.68
(atE without considering molecular charge,
 total energy contains solvation terms)
H-L gap (eV)  :          1.3994

------------------------------------------------------------------------
 * finished run on 2019/05/11 at 08:43:16.915     
------------------------------------------------------------------------
 total:
 * wall-time:     0 d,  0 h,  0 min, 45.702 sec
 *  cpu-time:     0 d,  0 h,  1 min, 28.520 sec
 * ratio c/w:     1.937 speedup
 SCF:
 * wall-time:     0 d,  0 h,  0 min, 45.145 sec
 *  cpu-time:     0 d,  0 h,  1 min, 27.795 sec
 * ratio c/w:     1.945 speedup

