      -----------------------------------------------------------      
     |                   =====================                   |     
     |                           x T B                           |     
     |                   =====================                   |     
     |                         S. Grimme                         |     
     |          Mulliken Center for Theoretical Chemistry        |     
     |                    University of Bonn                     |     
     |                 Version 6.0.1 (SAW181210)                 |     
      -----------------------------------------------------------      

   This program is distributed in the hope that it will be useful,
   but WITHOUT ANY WARRANTY; without even the implied warranty of
   MERCHANTABILITY or FITNESS FOR A PARTICULAR PURPOSE.
   
   FOR NON-COMMERCIAL, ACADEMIA USE ONLY.
   
   Cite this work as:
   S. Grimme, C. Bannwarth, P. Shushkov, J. Comput. Theory Chem., 2017,
   13, 1989-2009.
   C. Bannwarth, S. Ehlert and S. Grimme., ChemRxiv, 2018, preprint.
   http://doi.org/10.26434/chemrxiv.7246238.v1
   
   for sTDA-xTB:
   S. Grimme and C. Bannwarth, J. Chem. Phys., 2016, 145, 054103.
   
   in the mass-spec context:
   V. Asgeirsson, C. Bauer and S. Grimme, Chem. Sci., 2017, 8, 4879.
   
   if GBSA is used:
   P. Shushkov, F. März and S. Grimme, unpublished.
   
   for ANC optimizer:
   S. Grimme, unpublished.
   Rational Function algorithm used in ANCopt:
   F. Eckert, P. Pulay, H.-J. Werner, J. Comput. Chem., 1997, 18, 1473.
   
   with help from (in alphabetical order)
   C. Bannwarth, F. Bohle, G. Brandenburg, E. Caldeweyher, M. Checinski,
   S. Dohm, S. Ehlert, S. Ehrlich, F. März, H. Neugebauer, J. Pisarek,
   P. Pracht, P. Shushkov, and S. Spicher.
   
 * started run on 2019/05/04 at 19:50:53.471     
========================================================================
 # omp threads = 2
========================================================================
number of atoms            : 405
number of electrons        : 1088
charge                     : 2
spin                       : .0
first test random number   : .9604

########################################################################
# WARNING! Please study the warnings concerning your input carefully
#  - Process number higher than OMP_NUM_THREADS, I hope you know what you are doing.
########################################################################

           ------------------------------------------------- 
          |                 G F N 2 - x T B                 |
          | Geometry, Frequencies, Noncovalent interactions |
          |            JCTC 2018 parametrisation            |
           ------------------------------------------------- 
 
      method parameters     
 k(s)        :  1.8500
 k(p)        :  2.2300
 k(d)        :  2.2300
 k(f)        :  2.0000
 kEN (H0ij)  : -2.0000
 D4 a1       :  0.5200
 D4 a2       :  5.0000
 D4 s6       :  1.0000
 D4 s8       :  2.7000
 D4 s9       :  5.0000
 alphaj      :  2.0000

 Solvent             : h2o
 Using internal parameter file: .param_gbsa2_h2o
 Gsolv ref. state (COSMO-RS): gsolv [1 M gas/solution]
 temperature (mdtemp)       :    298.150000000000     
 dielectric constant        :    80.2000000000000     
 rho                        :    1.00000000000000     
 mass                       :    18.0000000000000     
 surface tension            :    15.5689454083859     
 probe radius               :   0.975313790000000     
 vdW radii scaling          :    1.00000000000000     
 Gshift (Eh)                :   1.857443126794793E-003
 c1                         :    1.55243817000000     
 soset                      :   0.130326360000000     
 HB correction              :  T

            Z     q(EN)     CN     RAES       Cart. coordinates
     1  N   5.0   -0.17    3.24    1.97    21.93027    46.38143    16.11180
     2  C   4.0    0.03    4.29    4.19    21.82256    43.62621    16.37825
     3  C   4.0    0.15    3.48    3.11    20.45628    42.41112    14.13326
     4  O   6.0   -0.25    1.26    1.80    19.38292    43.73015    12.50432
     5  C   4.0   -0.04    4.26    4.12    20.44495    43.04229    18.90104
     6  C   4.0   -0.05    4.16    3.92    21.82633    44.21392    21.18572
     7  C   4.0   -0.04    4.17    3.94    20.35802    43.46937    23.60835
     8  C   4.0   -0.03    4.11    3.81    21.79988    44.21203    26.03664
     9  N   5.0   -0.11    4.04    2.96    20.12369    43.77550    28.21928
    10  H   1.0    0.12    1.06    1.44    20.40715    47.35653    16.76754
    11  H   1.0    0.04    1.05    1.44    23.78031    42.96103    16.39904
    12  H   1.0    0.07    1.03    1.43    18.52309    43.77361    18.76309
    13  H   1.0    0.05    1.03    1.43    20.32589    41.01083    19.14481
    14  H   1.0    0.04    1.03    1.43    23.73496    43.44858    21.26131
    15  H   1.0    0.05    1.02    1.43    21.94350    46.25860    21.00052
    16  H   1.0    0.06    1.03    1.43    18.53065    44.41990    23.57622
    17  H   1.0    0.05    1.03    1.43    20.03676    41.43980    23.56488
    18  H   1.0    0.05    1.02    1.43    23.51008    43.08008    26.20672
    19  H   1.0    0.05    1.02    1.43    22.26664    46.21136    25.95917
    20  H   1.0    0.06    1.02    1.43    20.99108    44.42935    29.85200
    21  H   1.0    0.10    1.10    1.44    18.36247    44.73170    28.00574
    22  H   1.0    0.06    1.03    1.43    19.75142    41.88011    28.39124
    23  N   5.0   -0.11    3.67    2.24    20.52809    39.86566    13.94240
    24  C   4.0    0.04    4.58    4.64    19.59079    38.72993    11.62370
    25  C   4.0    0.16    3.43    3.09    16.82234    39.28929    11.11915
    26  O   6.0   -0.26    1.20    1.80    16.02677    39.41212     8.89494
    27  C   4.0   -0.04    4.32    4.24    19.97251    35.84999    12.13393
    28  C   4.0   -0.03    4.24    4.09    22.41404    35.85377    13.68162
    29  C   4.0   -0.01    4.32    4.24    22.04365    38.13845    15.48252
    30  H   1.0    0.07    1.04    1.43    20.70762    39.35354     9.99476
    31  H   1.0    0.05    1.03    1.43    18.39270    35.15835    13.25076
    32  H   1.0    0.05    1.02    1.43    20.08968    34.78230    10.38971
    33  H   1.0    0.06    1.02    1.43    22.67293    34.08877    14.70207
    34  H   1.0    0.07    1.02    1.43    24.03164    36.16746    12.45140
    35  H   1.0    0.04    1.02    1.43    20.95328    37.55452    17.13981
    36  H   1.0    0.05    1.02    1.43    23.82755    38.97371    16.05322
    37  N   5.0   -0.14    3.46    2.05    15.37481    39.60110    13.20540
    38  C   4.0    0.04    4.30    4.20    12.70274    40.32675    12.84258
    39  C   4.0    0.11    3.21    3.04    12.44196    42.90245    11.64449
    40  O   6.0   -0.24    1.11    1.80    10.62782    43.43346    10.21397
    41  C   4.0   -0.03    4.23    4.06    11.19663    40.03951    15.35402
    42  C   4.0    0.24    3.14    3.03    12.33802    41.45492    17.57256
    43  O   6.0   -0.34    1.40    1.80    14.70207    41.24327    17.89193
    44  O   6.0   -0.30    1.22    1.80    10.98687    42.67946    19.01064
    45  H   1.0    0.11    1.11    1.45    16.03810    40.02251    14.97041
    46  H   1.0    0.06    1.06    1.44    11.88071    38.99072    11.47064
    47  H   1.0    0.07    1.03    1.43     9.25777    40.65367    15.03088
    48  H   1.0    0.04    1.03    1.43    11.14938    38.02885    15.83968
    49  N   5.0   -0.20    3.18    1.95    37.30697    35.97093    34.10388
    50  C   4.0    0.03    4.19    3.99    35.47771    35.53441    36.15424
    51  C   4.0    0.08    3.18    3.03    36.69092    33.93759    38.26884
    52  O   6.0   -0.31    1.20    1.80    35.38134    32.75840    39.80141
    53  C   4.0   -0.03    4.32    4.23    33.08532    34.20971    35.15079
    54  C   4.0   -0.02    3.54    3.13    31.49417    35.80653    33.43681
    55  C   4.0   -0.05    3.49    3.11    30.30931    37.95326    34.37412
    56  C   4.0   -0.05    3.44    3.09    31.35055    35.31709    30.85356
    57  C   4.0   -0.03    3.43    3.09    28.90525    39.56141    32.86800
    58  C   4.0   -0.05    3.43    3.09    29.66303    36.71926    29.40225
    59  C   4.0    0.07    3.44    3.09    28.44793    38.84332    30.37734
    60  O   6.0   -0.25    2.12    1.84    26.94938    40.37966    28.99407
    61  H   1.0    0.09    1.02    1.43    37.49405    34.58954    32.79619
    62  H   1.0    0.05    1.05    1.44    35.02418    37.38634    36.95926
    63  H   1.0    0.04    1.03    1.43    33.68059    32.49762    34.16247
    64  H   1.0    0.05    1.03    1.43    31.99495    33.64468    36.81186
    65  H   1.0    0.05    1.03    1.43    30.57010    38.42380    36.34321
    66  H   1.0    0.05    1.03    1.43    32.37856    33.75806    30.04097
    67  H   1.0    0.06    1.03    1.43    28.09834    41.26217    33.63523
    68  H   1.0    0.05    1.03    1.43    29.46083    36.24683    27.42937
    69  H   1.0    0.11    1.04    1.43    26.59789    39.65401    27.34811
    70  N   5.0   -0.19    3.21    1.96    33.93003    33.59177    44.70336
    71  C   4.0    0.04    4.23    4.05    31.54897    32.16880    44.93201
    72  C   4.0    0.09    3.20    3.04    31.87590    29.33989    44.48793
    73  O   6.0   -0.29    1.13    1.80    30.02964    27.92448    44.22337
    74  C   4.0   -0.04    4.38    4.35    29.61767    33.14957    43.04985
    75  C   4.0   -0.02    4.19    3.98    29.13579    36.00495    43.23693
    76  C   4.0   -0.08    4.10    3.80    27.21961    36.74194    41.19792
    77  C   4.0   -0.07    4.10    3.80    28.20038    36.75517    45.86554
    78  H   1.0    0.12    1.08    1.44    34.70293    33.61067    42.94969
    79  H   1.0    0.05    1.05    1.44    30.92914    32.42203    46.88977
    80  H   1.0    0.05    1.03    1.43    30.32632    32.71683    41.16012
    81  H   1.0    0.05    1.03    1.43    27.86401    32.10455    43.33331
    82  H   1.0    0.05    1.06    1.44    30.91592    36.98383    42.86843
    83  H   1.0    0.05    1.00    1.43    26.96828    38.77907    41.16390
    84  H   1.0    0.04    1.00    1.43    27.86779    36.13912    39.34598
    85  H   1.0    0.04    1.00    1.43    25.40737    35.85755    41.58153
    86  H   1.0    0.05    1.00    1.43    27.70338    38.74694    45.87499
    87  H   1.0    0.05    1.00    1.43    26.55254    35.64212    46.37010
    88  H   1.0    0.05    1.00    1.43    29.67059    36.46037    47.27149
    89  N   5.0   -0.21    3.25    1.97    19.22040    22.83923    42.62844
    90  C   4.0    0.03    4.30    4.20    18.65915    23.63480    40.09054
    91  C   4.0    0.15    3.42    3.09    21.03454    23.95795    38.42191
    92  O   6.0   -0.31    1.30    1.80    20.76053    24.84423    36.29030
    93  C   4.0   -0.03    4.36    4.30    17.17572    26.11034    40.16990
    94  C   4.0   -0.01    3.57    3.15    18.46829    28.30054    41.38311
    95  C   4.0   -0.03    3.48    3.11    20.26731    29.69137    40.06219
    96  C   4.0   -0.03    3.47    3.10    17.85224    29.04887    43.82274
    97  C   4.0   -0.04    3.38    3.07    21.36524    31.80031    41.12233
    98  C   4.0   -0.03    3.38    3.07    19.01442    31.14268    44.90178
    99  C   4.0   -0.03    3.37    3.07    20.76809    32.52218    43.57141
   100  H   1.0    0.09    1.03    1.43    19.50575    24.21117    43.92290
   101  H   1.0    0.05    1.05    1.44    17.51020    22.17782    39.17402
   102  H   1.0    0.06    1.04    1.43    16.74297    26.60167    38.21026
   103  H   1.0    0.05    1.03    1.43    15.38804    25.74185    41.13744
   104  H   1.0    0.06    1.03    1.43    20.75108    29.14902    38.15546
   105  H   1.0    0.06    1.03    1.43    16.42361    28.02653    44.86209
   106  H   1.0    0.04    1.03    1.43    22.72584    32.86800    40.03762
   107  H   1.0    0.06    1.03    1.43    18.48530    31.70582    46.78961
   108  H   1.0    0.05    1.03    1.43    21.62413    34.18703    44.38021
   109  N   5.0   -0.14    3.45    2.05    23.30788    23.48740    39.37055
   110  C   4.0    0.03    4.44    4.44    25.55476    24.19227    37.95515
   111  C   4.0    0.16    3.49    3.11    25.73996    22.77876    35.46449
   112  O   6.0   -0.32    1.28    1.80    26.28798    23.94283    33.51996
   113  C   4.0   -0.03    4.35    4.28    27.91503    23.67827    39.52362
   114  C   4.0   -0.00    3.57    3.15    30.36223    24.21117    38.16679
   115  C   4.0   -0.03    3.47    3.10    31.15213    26.69805    37.78885
   116  C   4.0   -0.03    3.48    3.11    31.99117    22.28365    37.50917
   117  C   4.0   -0.03    3.40    3.08    33.61445    27.15347    37.05186
   118  C   4.0   -0.03    3.38    3.07    34.31742    22.75419    36.44148
   119  C   4.0   -0.03    3.38    3.07    35.18103    25.23351    36.29408
   120  H   1.0    0.08    1.06    1.44    23.58567    22.70884    41.10343
   121  H   1.0    0.05    1.05    1.44    25.43382    26.20672    37.46571
   122  H   1.0    0.06    1.03    1.43    27.85645    24.85557    41.22248
   123  H   1.0    0.05    1.04    1.43    27.89424    21.70350    40.10754
   124  H   1.0    0.05    1.03    1.43    29.93893    28.25140    38.31230
   125  H   1.0    0.05    1.03    1.43    31.41291    20.34857    37.81531
   126  H   1.0    0.06    1.03    1.43    34.28152    29.08099    36.98383
   127  H   1.0    0.06    1.03    1.43    35.53819    21.21973    35.87834
   128  H   1.0    0.06    1.03    1.43    37.07831    25.62279    35.65157
   129  N   5.0   -0.14    3.46    2.06    25.39792    20.23519    35.51740
   130  C   4.0    0.03    4.44    4.45    25.65492    18.80466    33.17414
   131  C   4.0    0.16    3.50    3.12    23.88236    19.76653    31.18615
   132  O   6.0   -0.33    1.30    1.80    24.48896    19.90448    28.90903
   133  C   4.0   -0.04    4.29    4.18    25.07666    16.00409    33.62956
   134  C   4.0   -0.05    4.17    3.94    27.31032    14.65294    34.84655
   135  C   4.0   -0.04    4.16    3.92    29.27752    13.77988    32.88690
   136  C   4.0   -0.03    4.12    3.84    31.97605    14.51499    33.64468
   137  N   5.0   -0.11    4.02    2.91    33.70326    14.09169    31.45449
   138  H   1.0    0.08    1.05    1.44    25.09556    19.33001    37.18414
   139  H   1.0    0.05    1.05    1.44    27.58811    19.02198    32.44848
   140  H   1.0    0.05    1.03    1.43    23.42126    15.89448    34.85033
   141  H   1.0    0.05    1.03    1.43    24.60423    15.09702    31.83999
   142  H   1.0    0.04    1.03    1.43    28.18337    15.91149    36.21849
   143  H   1.0    0.05    1.03    1.43    26.59600    13.02021    35.87834
   144  H   1.0    0.05    1.02    1.43    29.14713    11.73898    32.65068
   145  H   1.0    0.06    1.04    1.43    28.86178    14.66238    31.07276
   146  H   1.0    0.04    1.02    1.43    32.04408    16.52565    34.08310
   147  H   1.0    0.05    1.02    1.43    32.63368    13.42461    35.25851
   148  H   1.0    0.07    1.02    1.43    35.46638    14.81167    31.80031
   149  H   1.0    0.07    1.02    1.43    33.81098    12.21519    30.98206
   150  H   1.0    0.07    1.03    1.43    32.96438    15.15938    29.98050
   151  N   5.0   -0.13    3.43    2.04    21.52020    20.22763    31.97227
   152  C   4.0    0.02    4.27    4.13    19.65315    21.09312    30.16947
   153  C   4.0    0.16    3.37    3.07    20.12180    23.75197    29.20382
   154  O   6.0   -0.33    1.34    1.80    19.53977    24.43038    27.03442
   155  H   1.0    0.11    1.09    1.44    20.97218    19.90259    33.78830
   156  H   1.0    0.06    1.03    1.43    19.60591    19.83456    28.52352
   157  H   1.0    0.05    1.03    1.43    17.80311    21.05155    31.07843
   158  N   5.0   -0.13    3.54    2.11    21.24052    25.32800    30.81009
   159  C   4.0    0.04    4.40    4.38    21.77531    27.89802    30.04475
   160  C   4.0    0.16    3.50    3.11    23.85779    27.77519    28.02464
   161  O   6.0   -0.32    1.29    1.80    23.79921    29.05076    26.08578
   162  C   4.0   -0.05    4.32    4.24    22.63703    29.40036    32.41636
   163  C   4.0   -0.02    4.18    3.96    24.15070    31.84188    31.93448
   164  C   4.0   -0.07    4.12    3.83    22.62380    33.84688    30.55876
   165  C   4.0   -0.08    4.13    3.86    25.01808    32.94548    34.42325
   166  H   1.0    0.11    1.10    1.44    21.42382    24.84234    32.65824
   167  H   1.0    0.05    1.05    1.44    20.10857    28.75596    29.16603
   168  H   1.0    0.05    1.02    1.43    20.95895    29.83688    33.53130
   169  H   1.0    0.06    1.03    1.43    23.83322    28.12857    33.51429
   170  H   1.0    0.05    1.06    1.44    25.80799    31.36756    30.78742
   171  H   1.0    0.04    1.00    1.43    23.69905    35.59110    30.41514
   172  H   1.0    0.05    1.00    1.43    22.15137    33.23272    28.65580
   173  H   1.0    0.04    1.00    1.43    20.87958    34.24561    31.56976
   174  H   1.0    0.04    1.00    1.43    26.15570    34.62545    34.10766
   175  H   1.0    0.04    1.00    1.43    23.39292    33.47083    35.56653
   176  H   1.0    0.04    1.00    1.43    26.15381    31.59433    35.48149
   177  N   5.0   -0.14    3.55    2.11    25.77208    26.23129    28.52730
   178  C   4.0    0.04    4.52    4.56    27.84511    26.01964    26.76797
   179  C   4.0    0.16    3.51    3.12    26.83978    24.99352    24.25463
   180  O   6.0   -0.31    1.27    1.80    27.53898    25.78720    22.19105
   181  C   4.0   -0.02    4.25    4.11    29.94082    24.35101    27.84322
   182  C   4.0   -0.07    4.10    3.79    31.87968    23.54788    25.80799
   183  C   4.0   -0.07    4.11    3.83    31.20693    25.74941    30.02208
   184  H   1.0    0.11    1.10    1.44    25.78153    25.21272    30.15625
   185  H   1.0    0.05    1.05    1.44    28.60856    27.90747    26.34845
   186  H   1.0    0.06    1.06    1.44    29.03186    22.64270    28.58022
   187  H   1.0    0.05    1.00    1.43    33.34799    22.37436    26.63569
   188  H   1.0    0.05    1.00    1.43    30.97828    22.50286    24.28865
   189  H   1.0    0.05    1.00    1.43    32.78863    25.20139    24.98407
   190  H   1.0    0.05    1.00    1.43    32.76407    24.65525    30.79686
   191  H   1.0    0.04    1.00    1.43    31.98172    27.54654    29.38713
   192  H   1.0    0.06    1.00    1.43    29.86334    26.09334    31.53764
   193  N   5.0   -0.14    3.47    2.06    25.14658    23.09623    24.40203
   194  C   4.0    0.04    4.40    4.39    24.23763    21.98696    22.02665
   195  C   4.0    0.16    3.49    3.11    22.78254    23.88614    20.49219
   196  O   6.0   -0.31    1.29    1.80    22.88458    23.95039    18.15838
   197  C   4.0    0.05    4.17    3.93    22.37247    19.74953    22.42538
   198  O   6.0   -0.23    2.05    1.83    23.60457    17.75587    23.59512
   199  H   1.0    0.11    1.08    1.44    24.66848    22.31955    26.08956
   200  H   1.0    0.06    1.05    1.44    25.84389    21.32178    20.90037
   201  H   1.0    0.06    1.01    1.43    20.73218    20.41282    23.49496
   202  H   1.0    0.07    1.02    1.43    21.73563    19.08812    20.57534
   203  H   1.0    0.14    1.04    1.43    23.91637    18.19995    25.35067
   204  N   5.0   -0.13    3.47    2.06    21.18572    25.38658    21.79799
   205  C   4.0    0.04    4.37    4.32    19.81378    27.41047    20.50731
   206  C   4.0    0.16    3.49    3.11    21.65248    29.32666    19.36213
   207  O   6.0   -0.33    1.34    1.80    21.25564    30.17325    17.23430
   208  C   4.0   -0.03    4.27    4.13    17.94106    28.82966    22.27231
   209  C   4.0   -0.01    3.51    3.12    17.59713    31.66425    22.02665
   210  C   4.0   -0.03    3.42    3.08    16.28566    32.80186    19.95929
   211  C   4.0   -0.04    3.45    3.10    18.32467    33.25162    23.97684
   212  C   4.0   -0.04    3.38    3.07    15.84913    35.35866    19.89315
   213  C   4.0   -0.03    3.43    3.09    17.83523    35.80275    23.95984
   214  C   4.0    0.07    3.39    3.07    16.54455    36.95359    21.95106
   215  O   6.0   -0.24    2.10    1.84    16.02110    39.49338    22.24585
   216  H   1.0    0.11    1.09    1.44    20.95895    25.21839    23.69338
   217  H   1.0    0.07    1.05    1.44    18.77821    26.55821    18.92938
   218  H   1.0    0.05    1.03    1.43    16.08913    27.95283    22.01720
   219  H   1.0    0.06    1.04    1.43    18.56278    28.46116    24.20928
   220  H   1.0    0.06    1.03    1.43    15.69039    31.63968    18.39081
   221  H   1.0    0.05    1.03    1.43    19.31489    32.45037    25.57366
   222  H   1.0    0.06    1.02    1.43    14.87592    36.19770    18.29822
   223  H   1.0    0.06    1.03    1.43    18.37947    36.96493    25.53776
   224  H   1.0    0.16    1.13    1.45    15.48252    40.24171    20.62636
   225  N   5.0   -0.14    3.50    2.08    23.67260    29.96160    20.72462
   226  C   4.0    0.04    4.48    4.51    25.42437    31.87212    19.70606
   227  C   4.0    0.15    3.39    3.08    26.92293    30.86867    17.43272
   228  O   6.0   -0.28    1.21    1.80    27.92448    32.36912    15.96818
   229  C   4.0   -0.04    4.33    4.25    27.18182    32.84533    21.77342
   230  C   4.0   -0.04    4.07    3.75    25.71350    34.41380    23.58189
   231  S   6.0   -0.06    2.46    3.10    24.86879    37.57342    22.23829
   232  C   4.0   -0.06    3.87    3.42    27.94716    39.15134    22.33845
   233  H   1.0    0.11    1.09    1.44    23.92393    29.33422    22.52175
   234  H   1.0    0.06    1.07    1.44    24.27920    33.43681    18.95773
   235  H   1.0    0.05    1.03    1.43    28.01897    31.21449    22.73529
   236  H   1.0    0.05    1.04    1.43    28.71817    33.89412    20.87202
   237  H   1.0    0.05    1.07    1.44    23.91070    33.54642    24.04865
   238  H   1.0    0.04    1.06    1.44    26.75474    34.76529    25.32044
   239  H   1.0    0.05    1.04    1.43    27.62401    41.11855    21.87925
   240  H   1.0    0.04    1.03    1.43    28.80698    38.97182    24.18660
   241  H   1.0    0.05    1.03    1.43    29.18304    38.31608    20.92494
   242  N   5.0   -0.13    3.47    2.06    27.03631    28.33077    17.20029
   243  C   4.0    0.04    4.37    4.33    28.16259    27.09111    15.02143
   244  C   4.0    0.15    3.42    3.08    26.37302    26.81521    12.76132
   245  O   6.0   -0.27    1.22    1.80    27.20638    25.93082    10.75065
   246  C   4.0   -0.04    4.39    4.36    29.14902    24.40959    15.57890
   247  C   4.0   -0.02    4.16    3.93    31.48850    24.16959    17.21918
   248  C   4.0   -0.07    4.12    3.84    31.56787    21.47674    18.32089
   249  C   4.0   -0.06    4.12    3.85    33.85255    24.53809    15.62803
   250  H   1.0    0.11    1.09    1.44    26.52608    27.21583    18.67049
   251  H   1.0    0.07    1.05    1.44    29.75751    28.24573    14.35247
   252  H   1.0    0.06    1.03    1.43    27.58244    23.39292    16.47085
   253  H   1.0    0.06    1.05    1.44    29.53642    23.52520    13.75909
   254  H   1.0    0.06    1.05    1.44    31.41480    25.53587    18.76309
   255  H   1.0    0.05    1.00    1.43    33.25918    21.21217    19.45095
   256  H   1.0    0.05    1.00    1.43    29.92381    21.13281    19.50197
   257  H   1.0    0.05    1.00    1.43    31.58488    20.10290    16.79588
   258  H   1.0    0.05    1.00    1.43    35.56653    24.42471    16.75053
   259  H   1.0    0.06    1.00    1.43    33.95082    23.08867    14.17483
   260  H   1.0    0.06    1.00    1.43    33.86011    26.35223    14.66805
   261  N   5.0   -0.13    3.47    2.06    23.94094    27.44638    13.11470
   262  C   4.0    0.04    4.37    4.32    21.98696    26.54498    11.39883
   263  C   4.0    0.16    3.39    3.08    21.57311    28.22117     9.09903
   264  O   6.0   -0.32    1.35    1.80    20.15960    27.57488     7.35670
   265  C   4.0    0.05    4.14    3.89    19.45662    26.12168    12.76132
   266  O   6.0   -0.26    2.07    1.84    18.22263    28.38368    13.46808
   267  H   1.0    0.11    1.10    1.44    23.37024    28.27597    14.74553
   268  H   1.0    0.07    1.06    1.44    22.62569    24.73084    10.62215
   269  H   1.0    0.06    1.02    1.43    18.19428    25.13524    11.46308
   270  H   1.0    0.06    1.01    1.43    19.80244    24.92737    14.42050
   271  H   1.0    0.15    1.07    1.44    19.23552    29.21705    14.77955
   272  N   5.0   -0.12    3.41    2.03    22.92804    30.33955     8.93651
   273  C   4.0    0.02    4.14    3.88    22.96773    31.94960     6.71231
   274  C   4.0    0.09    3.12    3.03    25.07477    33.92436     7.01088
   275  O   6.0   -0.26    1.16    1.80    26.36735    33.95649     8.93273
   276  H   1.0    0.11    1.09    1.44    24.19983    30.82899    10.28389
   277  H   1.0    0.07    1.02    1.43    23.35890    30.78364     5.04179
   278  H   1.0    0.05    1.02    1.43    21.14792    32.90202     6.46853
   279  N   5.0   -0.20    3.15    1.95     8.57936    38.41813    32.17258
   280  C   4.0    0.01    4.16    3.91    10.18562    36.65879    30.84789
   281  C   4.0    0.15    3.31    3.06    10.38215    37.10666    28.04920
   282  O   6.0   -0.32    1.29    1.80    11.69740    35.79897    26.67348
   283  H   1.0    0.09    1.02    1.43     6.73876    37.91357    32.41258
   284  H   1.0    0.05    1.03    1.43    12.09992    36.77785    31.63023
   285  H   1.0    0.05    1.03    1.43     9.48831    34.73694    31.14079
   286  N   5.0   -0.14    3.52    2.09     8.90817    38.93780    27.06088
   287  C   4.0    0.04    4.40    4.38     9.06879    39.62566    24.41337
   288  C   4.0    0.15    3.44    3.09     9.00832    42.55285    24.40770
   289  O   6.0   -0.28    1.26    1.80     7.14505    43.67535    23.60268
   290  C   4.0   -0.02    4.27    4.15     6.82947    38.65056    22.90159
   291  C   4.0   -0.03    4.15    3.91     6.75199    35.74228    22.66159
   292  C   4.0   -0.00    4.20    4.01     8.78534    34.67458    20.92683
   293  N   5.0   -0.14    3.37    2.01     8.68329    31.93637    20.62258
   294  C   4.0    0.10    3.35    3.06     9.75666    30.31498    22.22507
   295  N   5.0   -0.18    3.27    1.97    11.18718    31.04631    24.13936
   296  N   5.0   -0.18    3.24    1.97     9.71508    27.85456    21.64114
   297  H   1.0    0.09    1.07    1.44     7.75166    40.01684    28.14747
   298  H   1.0    0.06    1.06    1.44    10.86214    38.93402    23.65559
   299  H   1.0    0.06    1.03    1.43     5.08147    39.25339    23.80677
   300  H   1.0    0.08    1.03    1.43     6.89183    39.47071    21.00997
   301  H   1.0    0.06    1.02    1.43     6.87293    34.88812    24.53809
   302  H   1.0    0.05    1.02    1.43     4.89817    35.19804    21.91893
   303  H   1.0    0.05    1.03    1.43     8.53778    35.51551    19.05600
   304  H   1.0    0.05    1.03    1.43    10.66561    35.17347    21.62035
   305  H   1.0    0.08    1.06    1.44     7.37560    31.24851    19.40560
   306  H   1.0    0.12    1.06    1.44    11.32135    32.86611    24.73651
   307  H   1.0    0.09    1.04    1.43    12.01677    29.72728    25.22784
   308  H   1.0    0.09    1.02    1.43     8.31479    27.17804    20.47896
   309  H   1.0    0.09    1.04    1.43    10.25743    26.60923    22.97718
   310  N   5.0   -0.14    3.47    2.06    10.95285    43.74149    25.54721
   311  C   4.0    0.05    4.46    4.49    10.80923    46.46836    26.03664
   312  C   4.0    0.16    3.39    3.08    12.34369    48.10108    24.15448
   313  O   6.0   -0.28    1.21    1.80    13.00698    50.23458    24.75163
   314  C   4.0   -0.02    4.33    4.25    11.32324    47.01449    28.79186
   315  C   4.0    0.17    3.25    3.04    14.06145    46.57985    29.49862
   316  O   6.0   -0.31    1.39    1.80    15.39749    45.54806    27.91125
   317  N   5.0   -0.18    3.16    1.95    14.72474    47.24126    31.82298
   318  H   1.0    0.10    1.06    1.44    12.41928    42.80229    26.33144
   319  H   1.0    0.07    1.08    1.44     8.83447    46.97859    25.63224
   320  H   1.0    0.06    1.03    1.43    10.74687    48.94579    29.22839
   321  H   1.0    0.05    1.03    1.43    10.14405    45.74082    29.91247
   322  H   1.0    0.10    1.02    1.43    16.47463    46.76127    32.47305
   323  H   1.0    0.09    1.03    1.43    13.43028    47.97258    33.03619
   324  N   5.0   -0.14    3.49    2.07    12.68762    46.96725    21.92460
   325  C   4.0    0.05    4.40    4.38    13.55878    48.17856    19.64748
   326  C   4.0    0.08    3.20    3.04    16.28755    49.16878    19.63803
   327  O   6.0   -0.29    1.16    1.80    17.42327    49.20846    17.59713
   328  C   4.0   -0.01    4.30    4.20    11.64638    50.34041    19.05033
   329  C   4.0   -0.05    4.14    3.87    12.54589    52.22258    17.19840
   330  C   4.0   -0.05    4.14    3.89     9.24454    48.94957    18.18861
   331  H   1.0    0.12    1.11    1.45    11.99220    45.20224    21.60335
   332  H   1.0    0.07    1.06    1.44    13.48697    46.78584    18.12247
   333  H   1.0    0.07    1.07    1.44    11.24576    51.31551    20.83045
   334  H   1.0    0.06    1.00    1.43    11.02655    53.52271    16.70707
   335  H   1.0    0.07    1.00    1.43    14.10114    53.33940    17.94862
   336  H   1.0    0.07    1.00    1.43    13.20163    51.32496    15.46174
   337  H   1.0    0.06    1.00    1.43     7.72709    50.27994    17.78799
   338  H   1.0    0.06    1.00    1.43     9.61682    47.89510    16.46518
   339  H   1.0    0.07    1.00    1.43     8.60392    47.62298    19.61347
   340  O   6.0   -0.31    1.99    1.83    15.87937    22.34790    24.12424
   341  H   1.0    0.16    1.03    1.43    17.14926    23.23985    25.09556
   342  H   1.0    0.13    0.97    1.43    14.28444    22.62380    24.94627
   343  O   6.0   -0.27    1.92    1.82    17.70673    29.51374     3.35048
   344  H   1.0    0.14    0.97    1.43    18.87458    30.75529     2.72687
   345  H   1.0    0.16    1.03    1.43    18.51365    28.78431     4.84526
   346  O   6.0   -0.31    1.97    1.82    19.02198    18.54010    36.35833
   347  H   1.0    0.13    0.97    1.43    19.34701    18.41349    38.16302
   348  H   1.0    0.13    0.97    1.43    17.97696    17.11525    35.94070
   349  O   6.0   -0.27    1.92    1.82    23.44205    20.01598    14.79655
   350  H   1.0    0.14    0.97    1.43    24.53053    20.70006    13.51910
   351  H   1.0    0.16    1.02    1.43    23.13025    21.39359    15.97007
   352  O   6.0   -0.26    1.92    1.82    16.82990    23.40993     6.55546
   353  H   1.0    0.16    1.00    1.43    18.12058    24.69116     6.74443
   354  H   1.0    0.14    0.97    1.43    15.29166    24.30754     6.20586
   355  O   6.0   -0.31    1.93    1.82    29.09044    17.29855    27.34622
   356  H   1.0    0.13    0.97    1.43    29.69893    17.99775    25.79287
   357  H   1.0    0.15    1.00    1.43    27.56165    18.20751    27.77708
   358  O   6.0   -0.31    1.99    1.83    13.58335    26.72450    15.80189
   359  H   1.0    0.14    1.00    1.43    15.03844    27.24040    14.79466
   360  H   1.0    0.12    0.97    1.43    12.93895    28.24006    16.56723
   361  O   6.0   -0.28    1.93    1.82    15.67717    22.64459    18.98230
   362  H   1.0    0.15    1.02    1.43    15.50709    22.61624    20.80777
   363  H   1.0    0.15    0.99    1.43    14.53388    23.88425    18.29066
   364  O   6.0   -0.28    1.92    1.82     9.05184    26.61028    13.15627
   365  H   1.0    0.15    1.01    1.43    10.62468    26.25427    14.05200
   366  H   1.0    0.13    0.97    1.43     9.37767    28.08927    12.15472
   367  O   6.0   -0.26    1.91    1.82    24.76282    27.07283     1.78579
   368  H   1.0    0.15    0.97    1.43    26.02977    27.01003     0.47621
   369  H   1.0    0.14    0.96    1.43    23.14340    26.91467     0.92408
   370  N   5.0   -0.20    3.21    1.96     2.95915    32.69837    13.49075
   371  C   4.0    0.03    4.25    4.11     4.77041    34.72063    13.89138
   372  C   4.0    0.08    3.21    3.04     3.82727    36.68131    15.69795
   373  O   6.0   -0.29    1.13    1.80     5.37188    38.19636    16.61258
   374  C   4.0   -0.03    4.26    4.11     5.51117    35.94696    11.29678
   375  C   4.0   -0.02    3.69    3.23     6.71021    33.91927     9.73776
   376  C   4.0    0.01    3.60    3.16     5.77316    32.51169     7.78945
   377  C   4.0    0.01    3.86    3.41     9.32611    33.19671     9.99665
   378  N   5.0   -0.11    3.44    2.04     7.56998    30.92223     6.78223
   379  C   4.0    0.04    3.89    3.45     9.73899    31.27377     8.16929
   380  C   4.0   -0.04    3.38    3.07    11.25135    33.76099    11.73520
   381  C   4.0   -0.03    3.40    3.08    12.06564    30.07668     7.93118
   382  C   4.0   -0.03    3.37    3.07    13.54960    32.49956    11.49331
   383  C   4.0   -0.03    3.35    3.07    13.98210    30.72023     9.59981
   384  H   1.0    0.10    1.02    1.43     1.29440    33.25802    12.69140
   385  H   1.0    0.05    1.05    1.44     6.47675    33.86640    14.70963
   386  H   1.0    0.06    1.02    1.43     3.79182    36.66905    10.41428
   387  H   1.0    0.06    1.02    1.43     6.81101    37.50294    11.66150
   388  H   1.0    0.06    1.02    1.43     3.89066    32.54679     7.00899
   389  H   1.0    0.09    1.04    1.43     7.31169    29.60937     5.41029
   390  H   1.0    0.05    1.02    1.43    10.94326    35.15865    13.19596
   391  H   1.0    0.07    1.03    1.43    12.33490    28.69490     6.45341
   392  H   1.0    0.05    1.03    1.43    15.04734    32.96590    12.80289
   393  H   1.0    0.07    1.03    1.43    15.80426    29.82095     9.45997
   394  H   1.0    0.10    1.07    1.44    23.27438    46.98205    16.96339
   395  H   1.0    0.08    1.05    1.44    13.73537    44.23772    11.98386
   396  H   1.0    0.10    1.07    1.44    36.86365    37.36388    33.23456
   397  H   1.0    0.07    1.04    1.43    38.57220    33.84185    38.41940
   398  H   1.0    0.10    1.07    1.44    33.66433    35.21581    45.13283
   399  H   1.0    0.07    1.04    1.44    33.60870    28.59051    44.40500
   400  H   1.0    0.10    1.08    1.44    17.93167    21.90587    43.22892
   401  H   1.0    0.07    1.04    1.43    25.39149    35.18316     5.63750
   402  H   1.0    0.10    1.07    1.44     9.18913    38.67473    33.73939
   403  H   1.0    0.07    1.04    1.43    17.08612    49.75342    21.24786
   404  H   1.0    0.10    1.08    1.44     3.63360    31.52879    12.45646
   405  H   1.0    0.07    1.04    1.44     1.99214    36.75086    16.14350

  Z AO/shell   Hii/eV     exponent
  1     Wed Apr 25 08:07:45 CEST 2018   EN: 2.200 GM2: 0.406  GM3: 0.0800  RAES: 1.40
     1s    -10.707211    1.230000
  6     Wed Apr 25 08:07:45 CEST 2018   EN: 2.550 GM2: 0.538  GM3: 0.1500  RAES: 3.00
     2s    -13.970922    2.096432
     2p    -10.063292    1.800000
  7     Wed Apr 25 08:07:45 CEST 2018   EN: 3.040 GM2: 0.461  GM3:-0.0640  RAES: 1.90
     2s    -16.686243    2.339881
     2p    -12.523956    2.014332
  8     Wed Apr 25 08:07:45 CEST 2018   EN: 3.440 GM2: 0.452  GM3:-0.0517  RAES: 1.80
     2s    -20.229985    2.439742
     2p    -15.503117    2.137023
 16     Tue Apr 24 11:44:34 CEST 2018   EN: 2.580 GM2: 0.340  GM3:-0.0502  RAES: 3.10
     3s    -20.029654    1.981333
     3p    -11.377694    2.025643
     3d     -0.420282    1.702555
 no old-style atom pair restraining (fixing) potential

molecular fragmentation (1/2 indicates fragments):
111111111111111111111111111111111111111111111111222222222222222222222222
222222222222222222222222222222222222222222222222222222222222222222222222
222222222222222222222222222222222222222222222222222222222222222222222222
222222222222222222222222222222222222222222222222222222222222222222222222
222222222222222222222222222222222222222222222222222222222222222222222222
222222222222222222222222222222222112222222222
# atoms in fragment 1/2:    50   355
 fragment masses (1/2) :      342.39     2411.87
CMA distance (Bohr)    :  14.530
constraining FC (au)   :  0.0500
           ------------------------------------------------- 
          |        Self-Consistent Charge Iterations        |
           ------------------------------------------------- 

 Ncao       : 987
 Nao        : 986
 Nshell     : 598
 Nel        : 1088
 T(el)      :   500.0
 intcut     :    35.0
 scfconv/Eh :  0.100E-06
   qconv/e  :  0.100E-04
 intneglect :  0.100E-08
 broydamp   :      0.400
 iter      E             dE          RMSdq      gap      omega  full diag
   1   -624.3298334 -0.624330E+03  0.465E+00    2.44       0.0  T
   2   -625.6188439 -0.128901E+01  0.226E+00    1.28       1.0  T
   3   -625.6943756 -0.755317E-01  0.121E+00    1.80       1.0  T
   4   -625.8131836 -0.118808E+00  0.285E-01    1.24       1.0  T
   5   -625.8184548 -0.527125E-02  0.134E-01    1.44       1.0  T
   6   -625.8205443 -0.208945E-02  0.562E-02    1.40       1.0  T
   7   -625.8209498 -0.405489E-03  0.278E-02    1.37       1.0  T
   8   -625.8209983 -0.485531E-04  0.141E-02    1.36       1.0  T
   9   -625.8210215 -0.231757E-04  0.576E-03    1.35       1.0  T
  10   -625.8210248 -0.331305E-05  0.305E-03    1.35       1.6  T
  11   -625.8210257 -0.838851E-06  0.148E-03    1.35       3.4  T
  12   -625.8210259 -0.219990E-06  0.683E-04    1.35       7.3  T
  13   -625.8210259 -0.435466E-07  0.315E-04    1.35      15.8  T
  14   -625.8210259 -0.639818E-08  0.151E-04    1.35      32.9  T
  15   -625.8210259 -0.238208E-08  0.689E-05    1.35      72.1  T
  16   -625.8210259 -0.481009E-09  0.334E-05    1.35     149.0  T
speedup  1.08
cpu  time for SCC   18.33 s
wall time for SCC   16.99 s

   *** convergence criteria satisfied after 16 iterations ***

          eigenvalues
 #    :         532        533        534        535        536        537        538        539
 occ. :        2.000      2.000      2.000      2.000      2.000      2.000      2.000      2.000
 eps  :       -10.593    -10.532    -10.443    -10.321    -10.230    -10.228    -10.158    -10.100
 #    :         540        541        542        543        544        545        546        547
 occ. :        2.000      2.000      2.000      2.000      2.000      0.000      0.000      0.000
 eps  :        -9.958     -9.919     -9.798     -9.726     -9.519     -8.168     -8.045     -7.988
 #    :         548        549        550        551        552        553        554        555
 occ. :        0.000      0.000      0.000      0.000      0.000      0.000      0.000      0.000
 eps  :        -7.987     -7.801     -7.691     -6.826     -6.631     -6.612     -6.498     -6.360


   #   Z            q   n(s)   n(p)   n(d)      C6AA      α(0)
   1   7 N     -0.403  1.332  4.071  0.000    30.454     8.196
   2   6 C      0.036  1.063  2.901  0.000    19.987     6.369
   3   6 C      0.258  1.058  2.685  0.000    22.661     7.796
   4   8 O     -0.532  1.778  4.754  0.000    24.512     6.638
   5   6 C     -0.071  1.059  3.012  0.000    21.846     6.654
   6   6 C     -0.067  1.054  3.013  0.000    21.784     6.646
   7   6 C     -0.095  1.061  3.034  0.000    22.316     6.726
   8   6 C     -0.046  1.057  2.989  0.000    21.503     6.620
   9   7 N     -0.165  1.242  3.924  0.000    24.565     7.361
  10   1 H      0.166  0.834  0.000  0.000     1.299     1.786
  11   1 H      0.042  0.958  0.000  0.000     2.428     2.437
  12   1 H      0.035  0.965  0.000  0.000     2.514     2.480
  13   1 H      0.052  0.948  0.000  0.000     2.298     2.371
  14   1 H      0.053  0.947  0.000  0.000     2.283     2.363
  15   1 H      0.039  0.961  0.000  0.000     2.465     2.455
  16   1 H      0.063  0.937  0.000  0.000     2.162     2.299
  17   1 H      0.090  0.910  0.000  0.000     1.875     2.141
  18   1 H      0.117  0.883  0.000  0.000     1.634     1.999
  19   1 H      0.104  0.896  0.000  0.000     1.750     2.069
  20   1 H      0.286  0.714  0.000  0.000     0.757     1.363
  21   1 H      0.298  0.702  0.000  0.000     0.719     1.328
  22   1 H      0.284  0.716  0.000  0.000     0.763     1.368
  23   7 N     -0.102  1.243  3.860  0.000    23.244     7.160
  24   6 C      0.031  1.063  2.906  0.000    20.032     6.369
  25   6 C      0.285  1.045  2.670  0.000    22.180     7.712
  26   8 O     -0.528  1.774  4.754  0.000    24.404     6.623
  27   6 C     -0.067  1.059  3.008  0.000    21.758     6.637
  28   6 C     -0.066  1.053  3.013  0.000    21.739     6.634
  29   6 C     -0.009  1.058  2.951  0.000    20.800     6.503
  30   1 H      0.048  0.952  0.000  0.000     2.344     2.394
  31   1 H      0.068  0.932  0.000  0.000     2.107     2.270
  32   1 H      0.054  0.946  0.000  0.000     2.265     2.353
  33   1 H      0.075  0.925  0.000  0.000     2.035     2.231
  34   1 H      0.056  0.944  0.000  0.000     2.249     2.345
  35   1 H      0.076  0.924  0.000  0.000     2.016     2.220
  36   1 H      0.073  0.927  0.000  0.000     2.052     2.240
  37   7 N     -0.198  1.266  3.932  0.000    25.305     7.471
  38   6 C      0.045  1.058  2.897  0.000    19.825     6.341
  39   6 C      0.209  1.086  2.706  0.000    23.578     7.952
  40   8 O     -0.395  1.770  4.625  0.000    21.577     6.228
  41   6 C     -0.088  1.066  3.021  0.000    22.174     6.705
  42   6 C      0.369  1.017  2.614  0.000    20.748     7.455
  43   8 O     -0.601  1.759  4.843  0.000    26.149     6.856
  44   8 O     -0.570  1.756  4.814  0.000    25.402     6.757
  45   1 H      0.239  0.761  0.000  0.000     0.926     1.508
  46   1 H      0.083  0.917  0.000  0.000     1.946     2.182
  47   1 H      0.052  0.948  0.000  0.000     2.300     2.372
  48   1 H      0.073  0.927  0.000  0.000     2.048     2.238
  49   7 N     -0.397  1.324  4.074  0.000    30.297     8.175
  50   6 C      0.037  1.064  2.899  0.000    19.972     6.367
  51   6 C      0.191  1.096  2.713  0.000    23.918     8.009
  52   8 O     -0.374  1.754  4.620  0.000    21.168     6.169
  53   6 C     -0.064  1.051  3.013  0.000    21.718     6.634
  54   6 C     -0.001  1.077  2.924  0.000    28.054     8.688
  55   6 C     -0.044  1.082  2.962  0.000    29.090     8.845
  56   6 C     -0.042  1.085  2.957  0.000    29.046     8.838
  57   6 C     -0.063  1.077  2.986  0.000    29.572     8.917
  58   6 C     -0.078  1.078  3.000  0.000    29.938     8.973
  59   6 C      0.143  1.043  2.814  0.000    24.889     8.176
  60   8 O     -0.404  1.700  4.704  0.000    20.920     6.175
  61   1 H      0.164  0.836  0.000  0.000     1.310     1.793
  62   1 H      0.078  0.922  0.000  0.000     2.002     2.213
  63   1 H      0.046  0.954  0.000  0.000     2.373     2.409
  64   1 H      0.058  0.942  0.000  0.000     2.218     2.329
  65   1 H      0.039  0.961  0.000  0.000     2.467     2.456
  66   1 H      0.035  0.965  0.000  0.000     2.513     2.479
  67   1 H      0.061  0.939  0.000  0.000     2.190     2.314
  68   1 H      0.036  0.964  0.000  0.000     2.503     2.474
  69   1 H      0.329  0.671  0.000  0.000     0.639     1.256
  70   7 N     -0.408  1.333  4.075  0.000    30.594     8.215
  71   6 C      0.039  1.057  2.904  0.000    19.941     6.361
  72   6 C      0.198  1.094  2.708  0.000    23.771     7.985
  73   8 O     -0.386  1.753  4.632  0.000    21.396     6.202
  74   6 C     -0.062  1.055  3.007  0.000    21.680     6.627
  75   6 C     -0.009  1.057  2.952  0.000    20.700     6.471
  76   6 C     -0.115  1.041  3.074  0.000    22.758     6.802
  77   6 C     -0.112  1.038  3.074  0.000    22.703     6.794
  78   1 H      0.179  0.821  0.000  0.000     1.220     1.730
  79   1 H      0.072  0.928  0.000  0.000     2.060     2.244
  80   1 H      0.041  0.959  0.000  0.000     2.432     2.439
  81   1 H      0.052  0.948  0.000  0.000     2.299     2.371
  82   1 H      0.025  0.975  0.000  0.000     2.659     2.550
  83   1 H      0.042  0.958  0.000  0.000     2.426     2.436
  84   1 H      0.045  0.955  0.000  0.000     2.386     2.416
  85   1 H      0.046  0.954  0.000  0.000     2.372     2.409
  86   1 H      0.040  0.960  0.000  0.000     2.449     2.447
  87   1 H      0.040  0.960  0.000  0.000     2.447     2.446
  88   1 H      0.028  0.972  0.000  0.000     2.618     2.530
  89   7 N     -0.391  1.302  4.090  0.000    30.137     8.153
  90   6 C      0.028  1.059  2.913  0.000    20.123     6.390
  91   6 C      0.265  1.051  2.684  0.000    22.530     7.773
  92   8 O     -0.492  1.736  4.757  0.000    23.615     6.515
  93   6 C     -0.073  1.051  3.022  0.000    21.886     6.658
  94   6 C      0.010  1.080  2.910  0.000    27.794     8.648
  95   6 C     -0.044  1.081  2.962  0.000    29.085     8.844
  96   6 C     -0.044  1.081  2.963  0.000    29.100     8.847
  97   6 C     -0.034  1.081  2.954  0.000    28.856     8.809
  98   6 C     -0.033  1.080  2.954  0.000    28.829     8.805
  99   6 C     -0.034  1.078  2.957  0.000    28.852     8.808
 100   1 H      0.154  0.846  0.000  0.000     1.373     1.836
 101   1 H      0.068  0.932  0.000  0.000     2.105     2.269
 102   1 H      0.063  0.937  0.000  0.000     2.163     2.300
 103   1 H      0.042  0.958  0.000  0.000     2.424     2.435
 104   1 H      0.047  0.953  0.000  0.000     2.354     2.399
 105   1 H      0.025  0.975  0.000  0.000     2.652     2.547
 106   1 H      0.042  0.958  0.000  0.000     2.417     2.431
 107   1 H      0.020  0.980  0.000  0.000     2.727     2.582
 108   1 H      0.027  0.973  0.000  0.000     2.623     2.532
 109   7 N     -0.172  1.243  3.929  0.000    24.718     7.384
 110   6 C      0.026  1.058  2.916  0.000    20.138     6.389
 111   6 C      0.269  1.048  2.683  0.000    22.461     7.761
 112   8 O     -0.478  1.741  4.737  0.000    23.294     6.471
 113   6 C     -0.086  1.056  3.029  0.000    22.122     6.694
 114   6 C      0.011  1.079  2.909  0.000    27.756     8.642
 115   6 C     -0.034  1.080  2.954  0.000    28.845     8.808
 116   6 C     -0.046  1.079  2.967  0.000    29.131     8.851
 117   6 C     -0.029  1.077  2.952  0.000    28.714     8.788
 118   6 C     -0.039  1.082  2.957  0.000    28.965     8.826
 119   6 C     -0.036  1.079  2.957  0.000    28.907     8.817
 120   1 H      0.220  0.780  0.000  0.000     1.010     1.575
 121   1 H      0.076  0.924  0.000  0.000     2.021     2.223
 122   1 H      0.077  0.923  0.000  0.000     2.005     2.214
 123   1 H      0.067  0.933  0.000  0.000     2.122     2.278
 124   1 H      0.026  0.974  0.000  0.000     2.648     2.544
 125   1 H      0.054  0.946  0.000  0.000     2.274     2.358
 126   1 H      0.021  0.979  0.000  0.000     2.712     2.575
 127   1 H      0.055  0.945  0.000  0.000     2.263     2.353
 128   1 H      0.030  0.970  0.000  0.000     2.593     2.518
 129   7 N     -0.175  1.245  3.930  0.000    24.794     7.395
 130   6 C      0.008  1.062  2.930  0.000    20.441     6.437
 131   6 C      0.269  1.045  2.685  0.000    22.451     7.760
 132   8 O     -0.517  1.745  4.772  0.000    24.169     6.591
 133   6 C     -0.087  1.060  3.028  0.000    22.158     6.700
 134   6 C     -0.082  1.051  3.030  0.000    22.059     6.687
 135   6 C     -0.105  1.059  3.046  0.000    22.503     6.754
 136   6 C     -0.051  1.063  2.988  0.000    21.580     6.631
 137   7 N     -0.150  1.230  3.920  0.000    24.237     7.312
 138   1 H      0.219  0.781  0.000  0.000     1.015     1.578
 139   1 H      0.107  0.893  0.000  0.000     1.723     2.053
 140   1 H      0.072  0.928  0.000  0.000     2.063     2.246
 141   1 H      0.078  0.922  0.000  0.000     1.999     2.211
 142   1 H      0.067  0.933  0.000  0.000     2.114     2.274
 143   1 H      0.069  0.931  0.000  0.000     2.097     2.265
 144   1 H      0.077  0.923  0.000  0.000     2.013     2.219
 145   1 H      0.094  0.906  0.000  0.000     1.837     2.120
 146   1 H      0.112  0.888  0.000  0.000     1.679     2.026
 147   1 H      0.118  0.882  0.000  0.000     1.626     1.994
 148   1 H      0.297  0.703  0.000  0.000     0.722     1.331
 149   1 H      0.296  0.704  0.000  0.000     0.725     1.334
 150   1 H      0.297  0.703  0.000  0.000     0.723     1.332
 151   7 N     -0.167  1.245  3.922  0.000    24.619     7.369
 152   6 C     -0.040  1.048  2.992  0.000    21.350     6.589
 153   6 C      0.267  1.042  2.691  0.000    22.489     7.766
 154   8 O     -0.509  1.743  4.766  0.000    23.976     6.565
 155   1 H      0.242  0.758  0.000  0.000     0.916     1.499
 156   1 H      0.100  0.900  0.000  0.000     1.788     2.091
 157   1 H      0.109  0.891  0.000  0.000     1.701     2.040
 158   7 N     -0.168  1.251  3.917  0.000    24.641     7.372
 159   6 C      0.016  1.066  2.917  0.000    20.305     6.416
 160   6 C      0.273  1.044  2.684  0.000    22.394     7.750
 161   8 O     -0.496  1.739  4.757  0.000    23.686     6.525
 162   6 C     -0.081  1.065  3.016  0.000    22.042     6.684
 163   6 C     -0.009  1.053  2.956  0.000    20.701     6.471
 164   6 C     -0.127  1.042  3.085  0.000    22.977     6.833
 165   6 C     -0.113  1.039  3.074  0.000    22.707     6.792
 166   1 H      0.237  0.763  0.000  0.000     0.935     1.515
 167   1 H      0.084  0.916  0.000  0.000     1.942     2.179
 168   1 H      0.067  0.933  0.000  0.000     2.115     2.275
 169   1 H      0.063  0.937  0.000  0.000     2.170     2.304
 170   1 H      0.025  0.975  0.000  0.000     2.664     2.553
 171   1 H      0.050  0.950  0.000  0.000     2.323     2.383
 172   1 H      0.043  0.957  0.000  0.000     2.412     2.429
 173   1 H      0.054  0.946  0.000  0.000     2.273     2.358
 174   1 H      0.044  0.956  0.000  0.000     2.400     2.423
 175   1 H      0.048  0.952  0.000  0.000     2.341     2.393
 176   1 H      0.029  0.971  0.000  0.000     2.604     2.524
 177   7 N     -0.180  1.246  3.934  0.000    24.899     7.411
 178   6 C      0.024  1.061  2.915  0.000    20.161     6.392
 179   6 C      0.275  1.047  2.678  0.000    22.344     7.741
 180   8 O     -0.495  1.751  4.744  0.000    23.668     6.523
 181   6 C     -0.023  1.064  2.959  0.000    20.954     6.511
 182   6 C     -0.121  1.041  3.080  0.000    22.877     6.821
 183   6 C     -0.121  1.040  3.081  0.000    22.882     6.820
 184   1 H      0.235  0.765  0.000  0.000     0.944     1.522
 185   1 H      0.067  0.933  0.000  0.000     2.120     2.277
 186   1 H      0.066  0.934  0.000  0.000     2.132     2.284
 187   1 H      0.070  0.930  0.000  0.000     2.081     2.256
 188   1 H      0.035  0.965  0.000  0.000     2.512     2.478
 189   1 H      0.040  0.960  0.000  0.000     2.455     2.450
 190   1 H      0.060  0.940  0.000  0.000     2.203     2.321
 191   1 H      0.036  0.964  0.000  0.000     2.497     2.471
 192   1 H      0.061  0.939  0.000  0.000     2.187     2.313
 193   7 N     -0.196  1.252  3.944  0.000    25.252     7.463
 194   6 C      0.018  1.063  2.920  0.000    20.283     6.413
 195   6 C      0.271  1.045  2.684  0.000    22.426     7.756
 196   8 O     -0.511  1.754  4.757  0.000    24.037     6.573
 197   6 C      0.071  1.038  2.891  0.000    19.592     6.337
 198   8 O     -0.456  1.714  4.743  0.000    21.971     6.328
 199   1 H      0.227  0.773  0.000  0.000     0.978     1.550
 200   1 H      0.071  0.929  0.000  0.000     2.072     2.251
 201   1 H      0.055  0.945  0.000  0.000     2.261     2.352
 202   1 H      0.061  0.939  0.000  0.000     2.189     2.314
 203   1 H      0.343  0.657  0.000  0.000     0.604     1.221
 204   7 N     -0.179  1.252  3.927  0.000    24.866     7.406
 205   6 C      0.016  1.065  2.919  0.000    20.316     6.419
 206   6 C      0.278  1.044  2.677  0.000    22.288     7.731
 207   8 O     -0.507  1.743  4.764  0.000    23.949     6.561
 208   6 C     -0.093  1.061  3.032  0.000    22.271     6.718
 209   6 C     -0.013  1.082  2.931  0.000    28.346     8.733
 210   6 C     -0.047  1.087  2.960  0.000    29.178     8.858
 211   6 C     -0.045  1.082  2.963  0.000    29.115     8.848
 212   6 C     -0.070  1.080  2.990  0.000    29.746     8.943
 213   6 C     -0.062  1.078  2.983  0.000    29.533     8.911
 214   6 C      0.139  1.056  2.805  0.000    24.958     8.187
 215   8 O     -0.441  1.717  4.724  0.000    21.653     6.282
 216   1 H      0.230  0.770  0.000  0.000     0.964     1.538
 217   1 H      0.096  0.904  0.000  0.000     1.820     2.110
 218   1 H      0.090  0.910  0.000  0.000     1.878     2.143
 219   1 H      0.084  0.916  0.000  0.000     1.935     2.175
 220   1 H      0.045  0.955  0.000  0.000     2.385     2.415
 221   1 H      0.056  0.944  0.000  0.000     2.245     2.343
 222   1 H      0.016  0.984  0.000  0.000     2.796     2.615
 223   1 H      0.069  0.931  0.000  0.000     2.093     2.263
 224   1 H      0.321  0.679  0.000  0.000     0.662     1.278
 225   7 N     -0.184  1.257  3.928  0.000    24.994     7.425
 226   6 C      0.025  1.064  2.911  0.000    20.156     6.392
 227   6 C      0.271  1.045  2.685  0.000    22.427     7.755
 228   8 O     -0.498  1.759  4.739  0.000    23.751     6.534
 229   6 C     -0.058  1.044  3.015  0.000    21.600     6.613
 230   6 C     -0.029  1.071  2.958  0.000    21.098     6.540
 231  16 S     -0.213  1.927  4.234  0.051   150.134    20.623
 232   6 C     -0.071  1.056  3.015  0.000    21.934     6.681
 233   1 H      0.240  0.760  0.000  0.000     0.923     1.505
 234   1 H      0.080  0.920  0.000  0.000     1.981     2.201
 235   1 H      0.063  0.937  0.000  0.000     2.168     2.303
 236   1 H      0.057  0.943  0.000  0.000     2.239     2.340
 237   1 H      0.085  0.915  0.000  0.000     1.931     2.173
 238   1 H      0.074  0.926  0.000  0.000     2.039     2.233
 239   1 H      0.068  0.932  0.000  0.000     2.106     2.269
 240   1 H      0.069  0.931  0.000  0.000     2.092     2.262
 241   1 H      0.039  0.961  0.000  0.000     2.460     2.453
 242   7 N     -0.188  1.248  3.941  0.000    25.080     7.438
 243   6 C      0.027  1.058  2.915  0.000    20.131     6.390
 244   6 C      0.268  1.050  2.682  0.000    22.480     7.764
 245   8 O     -0.511  1.765  4.746  0.000    24.026     6.572
 246   6 C     -0.070  1.057  3.013  0.000    21.821     6.648
 247   6 C     -0.010  1.054  2.956  0.000    20.715     6.474
 248   6 C     -0.116  1.045  3.072  0.000    22.776     6.804
 249   6 C     -0.116  1.040  3.076  0.000    22.763     6.801
 250   1 H      0.223  0.777  0.000  0.000     0.995     1.562
 251   1 H      0.069  0.931  0.000  0.000     2.099     2.266
 252   1 H      0.054  0.946  0.000  0.000     2.267     2.355
 253   1 H      0.057  0.943  0.000  0.000     2.239     2.340
 254   1 H      0.047  0.953  0.000  0.000     2.356     2.401
 255   1 H      0.058  0.942  0.000  0.000     2.227     2.334
 256   1 H      0.037  0.963  0.000  0.000     2.490     2.468
 257   1 H      0.042  0.958  0.000  0.000     2.426     2.436
 258   1 H      0.050  0.950  0.000  0.000     2.325     2.384
 259   1 H      0.038  0.962  0.000  0.000     2.471     2.458
 260   1 H      0.026  0.974  0.000  0.000     2.644     2.543
 261   7 N     -0.187  1.245  3.942  0.000    25.047     7.433
 262   6 C      0.016  1.059  2.924  0.000    20.306     6.417
 263   6 C      0.278  1.043  2.679  0.000    22.304     7.733
 264   8 O     -0.486  1.737  4.750  0.000    23.482     6.497
 265   6 C      0.064  1.038  2.898  0.000    19.722     6.362
 266   8 O     -0.471  1.714  4.758  0.000    22.287     6.373
 267   1 H      0.219  0.781  0.000  0.000     1.015     1.578
 268   1 H      0.085  0.915  0.000  0.000     1.932     2.174
 269   1 H      0.079  0.921  0.000  0.000     1.986     2.204
 270   1 H      0.062  0.938  0.000  0.000     2.170     2.304
 271   1 H      0.339  0.661  0.000  0.000     0.616     1.233
 272   7 N     -0.143  1.224  3.920  0.000    24.105     7.292
 273   6 C     -0.029  1.052  2.977  0.000    21.181     6.568
 274   6 C      0.195  1.084  2.721  0.000    23.836     7.995
 275   8 O     -0.355  1.756  4.599  0.000    20.804     6.115
 276   1 H      0.210  0.790  0.000  0.000     1.058     1.611
 277   1 H      0.126  0.874  0.000  0.000     1.566     1.957
 278   1 H      0.113  0.887  0.000  0.000     1.672     2.022
 279   7 N     -0.394  1.310  4.084  0.000    30.196     8.161
 280   6 C     -0.022  1.044  2.977  0.000    21.047     6.547
 281   6 C      0.267  1.046  2.688  0.000    22.500     7.767
 282   8 O     -0.478  1.729  4.749  0.000    23.300     6.472
 283   1 H      0.156  0.844  0.000  0.000     1.361     1.828
 284   1 H      0.088  0.912  0.000  0.000     1.898     2.155
 285   1 H      0.063  0.937  0.000  0.000     2.165     2.301
 286   7 N     -0.170  1.242  3.928  0.000    24.683     7.379
 287   6 C      0.018  1.063  2.919  0.000    20.281     6.413
 288   6 C      0.272  1.049  2.679  0.000    22.399     7.751
 289   8 O     -0.489  1.761  4.728  0.000    23.548     6.506
 290   6 C     -0.069  1.049  3.019  0.000    21.808     6.648
 291   6 C     -0.078  1.054  3.023  0.000    21.985     6.676
 292   6 C     -0.020  1.050  2.971  0.000    21.017     6.541
 293   7 N     -0.146  1.220  3.926  0.000    24.163     7.301
 294   6 C      0.227  1.021  2.753  0.000    23.233     7.892
 295   7 N     -0.236  1.230  4.005  0.000    26.166     7.597
 296   7 N     -0.258  1.262  3.996  0.000    26.700     7.674
 297   1 H      0.203  0.797  0.000  0.000     1.092     1.637
 298   1 H      0.084  0.916  0.000  0.000     1.942     2.179
 299   1 H      0.061  0.939  0.000  0.000     2.192     2.315
 300   1 H      0.059  0.941  0.000  0.000     2.210     2.325
 301   1 H      0.066  0.934  0.000  0.000     2.132     2.283
 302   1 H      0.054  0.946  0.000  0.000     2.267     2.355
 303   1 H      0.066  0.934  0.000  0.000     2.136     2.285
 304   1 H      0.083  0.917  0.000  0.000     1.946     2.182
 305   1 H      0.226  0.774  0.000  0.000     0.984     1.554
 306   1 H      0.255  0.745  0.000  0.000     0.864     1.456
 307   1 H      0.252  0.748  0.000  0.000     0.875     1.465
 308   1 H      0.243  0.757  0.000  0.000     0.912     1.496
 309   1 H      0.245  0.755  0.000  0.000     0.901     1.487
 310   7 N     -0.184  1.247  3.937  0.000    24.979     7.423
 311   6 C      0.020  1.060  2.920  0.000    20.235     6.405
 312   6 C      0.279  1.037  2.683  0.000    22.271     7.727
 313   8 O     -0.487  1.745  4.741  0.000    23.489     6.498
 314   6 C     -0.110  1.057  3.054  0.000    22.594     6.766
 315   6 C      0.287  1.032  2.680  0.000    22.131     7.703
 316   8 O     -0.468  1.726  4.742  0.000    23.086     6.442
 317   7 N     -0.266  1.263  4.003  0.000    26.896     7.702
 318   1 H      0.228  0.772  0.000  0.000     0.973     1.545
 319   1 H      0.083  0.917  0.000  0.000     1.948     2.183
 320   1 H      0.093  0.907  0.000  0.000     1.850     2.127
 321   1 H      0.100  0.900  0.000  0.000     1.785     2.089
 322   1 H      0.256  0.744  0.000  0.000     0.861     1.454
 323   1 H      0.242  0.758  0.000  0.000     0.915     1.498
 324   7 N     -0.177  1.241  3.936  0.000    24.829     7.400
 325   6 C      0.035  1.060  2.905  0.000    19.987     6.366
 326   6 C      0.201  1.085  2.714  0.000    23.718     7.975
 327   8 O     -0.375  1.767  4.608  0.000    21.190     6.172
 328   6 C     -0.006  1.059  2.947  0.000    20.655     6.464
 329   6 C     -0.109  1.032  3.077  0.000    22.633     6.783
 330   6 C     -0.112  1.041  3.071  0.000    22.688     6.790
 331   1 H      0.227  0.773  0.000  0.000     0.980     1.550
 332   1 H      0.065  0.935  0.000  0.000     2.138     2.287
 333   1 H      0.059  0.941  0.000  0.000     2.206     2.323
 334   1 H      0.054  0.946  0.000  0.000     2.273     2.358
 335   1 H      0.040  0.960  0.000  0.000     2.445     2.445
 336   1 H      0.037  0.963  0.000  0.000     2.488     2.466
 337   1 H      0.048  0.952  0.000  0.000     2.351     2.398
 338   1 H      0.027  0.973  0.000  0.000     2.626     2.534
 339   1 H      0.051  0.949  0.000  0.000     2.303     2.373
 340   8 O     -0.655  1.773  4.882  0.000    26.538     6.953
 341   1 H      0.326  0.674  0.000  0.000     0.648     1.265
 342   1 H      0.326  0.674  0.000  0.000     0.647     1.263
 343   8 O     -0.657  1.771  4.887  0.000    26.599     6.961
 344   1 H      0.300  0.700  0.000  0.000     0.722     1.335
 345   1 H      0.323  0.677  0.000  0.000     0.656     1.272
 346   8 O     -0.628  1.754  4.874  0.000    25.869     6.865
 347   1 H      0.318  0.682  0.000  0.000     0.669     1.285
 348   1 H      0.339  0.661  0.000  0.000     0.615     1.232
 349   8 O     -0.641  1.763  4.878  0.000    26.188     6.907
 350   1 H      0.296  0.704  0.000  0.000     0.734     1.346
 351   1 H      0.316  0.684  0.000  0.000     0.674     1.290
 352   8 O     -0.650  1.766  4.884  0.000    26.408     6.936
 353   1 H      0.317  0.683  0.000  0.000     0.673     1.289
 354   1 H      0.313  0.687  0.000  0.000     0.683     1.298
 355   8 O     -0.620  1.735  4.885  0.000    25.677     6.839
 356   1 H      0.298  0.702  0.000  0.000     0.728     1.340
 357   1 H      0.306  0.694  0.000  0.000     0.704     1.318
 358   8 O     -0.615  1.755  4.861  0.000    25.554     6.823
 359   1 H      0.319  0.681  0.000  0.000     0.667     1.283
 360   1 H      0.315  0.685  0.000  0.000     0.677     1.292
 361   8 O     -0.680  1.781  4.899  0.000    27.184     7.037
 362   1 H      0.325  0.675  0.000  0.000     0.651     1.267
 363   1 H      0.314  0.686  0.000  0.000     0.681     1.297
 364   8 O     -0.651  1.766  4.885  0.000    26.439     6.940
 365   1 H      0.334  0.666  0.000  0.000     0.627     1.244
 366   1 H      0.284  0.716  0.000  0.000     0.770     1.378
 367   8 O     -0.656  1.780  4.876  0.000    26.564     6.956
 368   1 H      0.333  0.667  0.000  0.000     0.629     1.246
 369   1 H      0.324  0.676  0.000  0.000     0.653     1.270
 370   7 N     -0.383  1.319  4.064  0.000    29.899     8.121
 371   6 C      0.035  1.060  2.904  0.000    19.994     6.369
 372   6 C      0.191  1.086  2.723  0.000    23.910     8.008
 373   8 O     -0.396  1.768  4.628  0.000    21.606     6.232
 374   6 C     -0.056  1.054  3.002  0.000    21.584     6.614
 375   6 C     -0.034  1.065  2.969  0.000    28.801     8.802
 376   6 C     -0.004  1.068  2.936  0.000    28.090     8.693
 377   6 C     -0.026  1.080  2.947  0.000    28.545     8.757
 378   7 N     -0.122  1.234  3.888  0.000    23.645     7.222
 379   6 C      0.043  1.064  2.893  0.000    26.922     8.503
 380   6 C     -0.050  1.080  2.970  0.000    29.248     8.868
 381   6 C     -0.055  1.074  2.981  0.000    29.362     8.885
 382   6 C     -0.047  1.079  2.968  0.000    29.162     8.855
 383   6 C     -0.038  1.080  2.958  0.000    28.953     8.824
 384   1 H      0.156  0.844  0.000  0.000     1.363     1.829
 385   1 H      0.085  0.915  0.000  0.000     1.933     2.174
 386   1 H      0.035  0.965  0.000  0.000     2.512     2.478
 387   1 H      0.040  0.960  0.000  0.000     2.448     2.447
 388   1 H      0.038  0.962  0.000  0.000     2.469     2.457
 389   1 H      0.197  0.803  0.000  0.000     1.122     1.659
 390   1 H      0.027  0.973  0.000  0.000     2.632     2.537
 391   1 H      0.030  0.970  0.000  0.000     2.584     2.514
 392   1 H      0.034  0.966  0.000  0.000     2.527     2.486
 393   1 H      0.045  0.955  0.000  0.000     2.380     2.412
 394   1 H      0.185  0.815  0.000  0.000     1.188     1.707
 395   1 H      0.056  0.944  0.000  0.000     2.247     2.344
 396   1 H      0.181  0.819  0.000  0.000     1.209     1.722
 397   1 H      0.075  0.925  0.000  0.000     2.033     2.229
 398   1 H      0.175  0.825  0.000  0.000     1.243     1.746
 399   1 H      0.070  0.930  0.000  0.000     2.085     2.258
 400   1 H      0.182  0.818  0.000  0.000     1.201     1.716
 401   1 H      0.093  0.907  0.000  0.000     1.849     2.126
 402   1 H      0.191  0.809  0.000  0.000     1.154     1.682
 403   1 H      0.091  0.909  0.000  0.000     1.871     2.139
 404   1 H      0.187  0.813  0.000  0.000     1.174     1.697
 405   1 H      0.076  0.924  0.000  0.000     2.025     2.225

 Mol. C6AA /au·bohr⁶  :    1495406.768710
 Mol. C8AA /au·bohr⁸  :   33595045.741043
 Mol. α(0) /au        :       1844.850670

 
molecular dipole:
                 x           y           z       tot (Debye)
 q only:       50.133      43.225      87.411
   full:       49.694      44.137      88.501     281.325
molecular quadrupole (traceless):
                xx          xy          yy          xz          yz          zz
 q only:     -600.871    1566.528   -1241.394    3099.117    3322.920    1842.264
  q+dip:     -667.660    1577.082   -1257.590    3092.162    3383.019    1925.249
   full:     -666.982    1577.361   -1256.761    3090.532    3378.164    1923.743
speedup  1.09
cpu  time for grad   21.56 s
wall time for grad   19.74 s

SCC energy    :    -625.8382037
rep           :       7.5463514
ES            :       1.9589707
AES           :      -0.1073895
AXC           :       0.2097613
disp          :      -0.5366060
XB            :       0.0000000
fix           :       0.0000000
Gborn         :       0.0000000
Gsasa         :       0.0000000
Ghb           :       0.0000000
Gshift        :       0.0000000
Gsolv         :      -0.5369983     -336.97
Etot ala COSMO:    -625.8382037
grad norm     :       0.5993847
total E       :    -618.2367087
atomizationE  :     111.4105276    69911.16
(atE without considering molecular charge,
 total energy contains solvation terms)
H-L gap (eV)  :          1.3506

------------------------------------------------------------------------
 * finished run on 2019/05/04 at 19:51:14.414     
------------------------------------------------------------------------
 total:
 * wall-time:     0 d,  0 h,  0 min, 20.941 sec
 *  cpu-time:     0 d,  0 h,  0 min, 22.633 sec
 * ratio c/w:     1.081 speedup
 SCF:
 * wall-time:     0 d,  0 h,  0 min, 20.311 sec
 *  cpu-time:     0 d,  0 h,  0 min, 22.242 sec
 * ratio c/w:     1.095 speedup

