      -----------------------------------------------------------      
     |                   =====================                   |     
     |                           x T B                           |     
     |                   =====================                   |     
     |                         S. Grimme                         |     
     |          Mulliken Center for Theoretical Chemistry        |     
     |                    University of Bonn                     |     
     |                 Version 6.0.1 (SAW181210)                 |     
      -----------------------------------------------------------      

   This program is distributed in the hope that it will be useful,
   but WITHOUT ANY WARRANTY; without even the implied warranty of
   MERCHANTABILITY or FITNESS FOR A PARTICULAR PURPOSE.
   
   FOR NON-COMMERCIAL, ACADEMIA USE ONLY.
   
   Cite this work as:
   S. Grimme, C. Bannwarth, P. Shushkov, J. Comput. Theory Chem., 2017,
   13, 1989-2009.
   C. Bannwarth, S. Ehlert and S. Grimme., ChemRxiv, 2018, preprint.
   http://doi.org/10.26434/chemrxiv.7246238.v1
   
   for sTDA-xTB:
   S. Grimme and C. Bannwarth, J. Chem. Phys., 2016, 145, 054103.
   
   in the mass-spec context:
   V. Asgeirsson, C. Bauer and S. Grimme, Chem. Sci., 2017, 8, 4879.
   
   if GBSA is used:
   P. Shushkov, F. März and S. Grimme, unpublished.
   
   for ANC optimizer:
   S. Grimme, unpublished.
   Rational Function algorithm used in ANCopt:
   F. Eckert, P. Pulay, H.-J. Werner, J. Comput. Chem., 1997, 18, 1473.
   
   with help from (in alphabetical order)
   C. Bannwarth, F. Bohle, G. Brandenburg, E. Caldeweyher, M. Checinski,
   S. Dohm, S. Ehlert, S. Ehrlich, F. März, H. Neugebauer, J. Pisarek,
   P. Pracht, P. Shushkov, and S. Spicher.
   
 * started run on 2019/05/11 at 09:39:34.111     
========================================================================
 # omp threads = 2
========================================================================
number of atoms            : 602
number of electrons        : 1580
charge                     : -6
spin                       : .0
first test random number   : .7007

########################################################################
# WARNING! Please study the warnings concerning your input carefully
#  - Process number higher than OMP_NUM_THREADS, I hope you know what you are doing.
########################################################################

           ------------------------------------------------- 
          |                 G F N 2 - x T B                 |
          | Geometry, Frequencies, Noncovalent interactions |
          |            JCTC 2018 parametrisation            |
           ------------------------------------------------- 
 
      method parameters     
 k(s)        :  1.8500
 k(p)        :  2.2300
 k(d)        :  2.2300
 k(f)        :  2.0000
 kEN (H0ij)  : -2.0000
 D4 a1       :  0.5200
 D4 a2       :  5.0000
 D4 s6       :  1.0000
 D4 s8       :  2.7000
 D4 s9       :  5.0000
 alphaj      :  2.0000

 Solvent             : h2o
 Using internal parameter file: .param_gbsa2_h2o
 Gsolv ref. state (COSMO-RS): gsolv [1 M gas/solution]
 temperature (mdtemp)       :    298.150000000000     
 dielectric constant        :    80.2000000000000     
 rho                        :    1.00000000000000     
 mass                       :    18.0000000000000     
 surface tension            :    15.5689454083859     
 probe radius               :   0.975313790000000     
 vdW radii scaling          :    1.00000000000000     
 Gshift (Eh)                :   1.857443126794793E-003
 c1                         :    1.55243817000000     
 soset                      :   0.130326360000000     
 HB correction              :  T

            Z     q(EN)     CN     RAES       Cart. coordinates
     1  N   5.0   -0.25    3.26    1.97    90.86850    18.96041    -5.17999
     2  C   4.0    0.02    4.33    4.25    90.18033    20.84551    -3.34721
     3  C   4.0    0.14    3.46    3.10    91.59793    20.39503    -0.90744
     4  O   6.0   -0.32    1.28    1.80    92.46102    22.17662     0.38257
     5  C   4.0   -0.05    4.33    4.25    87.31468    20.78270    -2.85372
     6  C   4.0   -0.02    3.55    3.14    86.42260    22.79905    -1.08895
     7  C   4.0   -0.06    3.45    3.10    86.16726    25.30562    -1.87710
     8  C   4.0   -0.05    3.46    3.10    85.78539    22.18913     1.39373
     9  C   4.0   -0.06    3.36    3.07    85.27476    27.12929    -0.23397
    10  C   4.0   -0.06    3.36    3.07    84.88519    24.00662     3.03721
    11  C   4.0   -0.06    3.37    3.07    84.61864    26.48852     2.22596
    12  H   1.0    0.04    1.03    1.43    89.43428    18.25730    -6.25630
    13  H   1.0    0.03    1.03    1.43    90.73694    22.75610    -4.06250
    14  H   1.0    0.01    1.03    1.43    86.38889    20.93827    -4.70436
    15  H   1.0    0.02    1.03    1.43    86.88683    18.86836    -2.16068
    16  H   1.0    0.02    1.03    1.43    86.70472    25.75410    -3.80439
    17  H   1.0    0.04    1.03    1.43    85.99888    20.22214     1.94926
    18  H   1.0    0.03    1.03    1.43    85.10047    29.05531    -0.88173
    19  H   1.0    0.03    1.03    1.43    84.37086    23.44644     4.93296
    20  H   1.0    0.03    1.03    1.43    83.89573    27.89536     3.50489
    21  N   5.0   -0.16    3.48    2.07    91.70722    17.97962    -0.17113
    22  C   4.0    0.04    4.43    4.43    93.30779    17.07783     1.84209
    23  C   4.0    0.16    3.52    3.12    95.95548    18.16269     1.78050
    24  O   6.0   -0.30    1.29    1.80    96.87428    19.37177     3.61014
    25  C   4.0   -0.05    4.32    4.24    93.50068    14.21986     1.76477
    26  C   4.0    0.14    3.27    3.05    94.91370    13.36335     4.10420
    27  O   6.0   -0.30    1.20    1.80    94.57100    14.23954     6.24411
    28  N   5.0   -0.21    3.15    1.95    96.63604    11.43304     3.71854
    29  H   1.0    0.06    1.09    1.44    91.12030    16.70234    -1.46311
    30  H   1.0    0.06    1.05    1.44    92.46267    17.67827     3.66578
    31  H   1.0    0.02    1.01    1.43    91.60982    13.32606     1.69982
    32  H   1.0    0.02    1.03    1.43    94.43088    13.68470    -0.00261
    33  H   1.0    0.07    1.04    1.43    96.95336    10.43757     5.32276
    34  H   1.0    0.05    1.04    1.43    96.30591    10.42964     2.13231
    35  N   5.0   -0.16    3.40    2.02    97.33980    17.85217    -0.41151
    36  C   4.0    0.03    4.43    4.43    99.69815    19.24166    -0.57522
    37  C   4.0    0.15    3.55    3.14    99.46733    22.06498    -0.13747
    38  O   6.0   -0.32    1.41    1.80   101.02658    23.10927     1.30003
    39  C   4.0   -0.07    4.22    4.05   101.14088    18.73390    -3.03296
    40  C   4.0   -0.06    4.17    3.95   103.64282    20.22049    -3.16638
    41  C   4.0   -0.05    4.15    3.89   105.44929    19.78966    -0.92567
    42  C   4.0   -0.05    4.10    3.80   107.91517    21.28374    -1.21737
    43  N   5.0   -0.12    4.01    2.88   109.48381    21.19658     1.12039
    44  H   1.0    0.06    1.06    1.44    96.32900    17.62567    -2.01421
    45  H   1.0    0.05    1.06    1.44   100.81451    18.50858     1.02893
    46  H   1.0    0.02    1.02    1.43   101.46626    16.70007    -3.22253
    47  H   1.0    0.02    1.02    1.43    99.89291    19.27219    -4.60957
    48  H   1.0    0.01    1.02    1.43   104.54764    19.70829    -4.94959
    49  H   1.0    0.04    1.03    1.43   103.15779    22.23148    -3.29202
    50  H   1.0    0.06    1.04    1.43   104.48547    20.43301     0.77904
    51  H   1.0    0.02    1.02    1.43   105.82396    17.77233    -0.75855
    52  H   1.0    0.01    1.02    1.43   109.03632    20.51446    -2.77173
    53  H   1.0    0.04    1.02    1.43   107.43586    23.24446    -1.64249
    54  H   1.0    0.05    1.02    1.43   111.05290    22.32789     0.89985
    55  H   1.0    0.08    1.02    1.43   108.58596    21.85441     2.74845
    56  H   1.0    0.04    1.02    1.43   110.00395    19.36897     1.54785
    57  N   5.0   -0.14    3.46    2.05    97.71279    23.49691    -1.31164
    58  C   4.0    0.04    4.56    4.62    97.87885    26.18376    -0.80626
    59  C   4.0    0.16    3.56    3.14    97.64550    26.65638     2.01975
    60  O   6.0   -0.31    1.27    1.80    98.90059    28.33053     3.06021
    61  C   4.0   -0.03    4.32    4.23    96.11364    27.91427    -2.31104
    62  C   4.0   -0.05    4.18    3.97    93.33249    27.73095    -1.56329
    63  C   4.0   -0.07    4.15    3.89    96.53116    27.41346    -5.10413
    64  C   4.0   -0.09    4.02    3.65    91.58837    29.31598    -3.22438
    65  H   1.0    0.08    1.05    1.44    96.45276    22.76901    -2.52930
    66  H   1.0    0.06    1.06    1.44    99.82217    26.77452    -1.31650
    67  H   1.0    0.04    1.06    1.44    96.77528    29.85029    -1.92091
    68  H   1.0    0.06    1.04    1.43    92.73779    25.76088    -1.68551
    69  H   1.0    0.04    1.03    1.43    93.14720    28.30092     0.41629
    70  H   1.0    0.03    1.00    1.43    95.54398    28.77961    -6.28110
    71  H   1.0    0.06    1.00    1.43    98.53246    27.51566    -5.57712
    72  H   1.0    0.03    0.99    1.43    95.88422    25.53114    -5.68100
    73  H   1.0    0.03    1.00    1.43    89.69739    29.30587    -2.42570
    74  H   1.0    0.03    1.00    1.43    92.32369    31.22545    -3.40366
    75  H   1.0    0.02    1.00    1.43    91.44880    28.49143    -5.11281
    76  N   5.0   -0.14    3.53    2.10    95.97898    25.25138     3.27845
    77  C   4.0    0.04    4.54    4.59    95.71552    25.57745     5.97904
    78  C   4.0    0.16    3.55    3.14    98.28607    25.18734     7.21779
    79  O   6.0   -0.32    1.29    1.80    99.22430    26.74419     8.66895
    80  C   4.0   -0.02    4.34    4.27    93.74760    23.76368     7.08019
    81  C   4.0   -0.05    4.18    3.96    91.08759    24.37141     6.09594
    82  C   4.0   -0.08    4.14    3.88    93.87809    23.79944     9.96438
    83  C   4.0   -0.08    4.02    3.65    90.08101    26.96362     6.84259
    84  H   1.0    0.11    1.10    1.44    94.89356    23.95693     2.37351
    85  H   1.0    0.05    1.06    1.44    95.18799    27.55067     6.36209
    86  H   1.0    0.06    1.06    1.44    94.26059    21.86379     6.43066
    87  H   1.0    0.06    1.03    1.43    91.08580    24.22104     4.03917
    88  H   1.0    0.04    1.03    1.43    89.81894    22.91768     6.82384
    89  H   1.0    0.04    1.00    1.43    92.37258    22.64762    10.75146
    90  H   1.0    0.05    1.00    1.43    95.67349    23.03307    10.60977
    91  H   1.0    0.04    1.00    1.43    93.71992    25.71531    10.68862
    92  H   1.0    0.04    1.00    1.43    88.20814    27.22393     6.04598
    93  H   1.0    0.04    1.00    1.43    89.96705    27.15101     8.88348
    94  H   1.0    0.04    1.00    1.43    91.27907    28.46775     6.11552
    95  N   5.0   -0.14    3.55    2.11    99.41442    22.99101     6.71247
    96  C   4.0    0.04    4.53    4.58   101.80850    22.41843     7.88631
    97  C   4.0    0.16    3.51    3.12   103.79996    24.41491     7.30758
    98  O   6.0   -0.31    1.36    1.80   105.14128    25.29785     9.01008
    99  C   4.0   -0.04    4.12    3.84   102.76236    19.83192     7.10934
   100  S   6.0   -0.06    2.32    3.10   100.78919    17.38223     8.54061
   101  H   1.0    0.12    1.11    1.44    98.64413    21.74189     5.47525
   102  H   1.0    0.05    1.07    1.44   101.54459    22.45892     9.95298
   103  H   1.0    0.05    1.06    1.44   102.65596    19.65783     5.06028
   104  H   1.0    0.06    1.07    1.44   104.69722    19.57911     7.76181
   105  H   1.0    0.03    0.98    1.43   102.62111    15.68426     8.82855
   106  N   5.0   -0.14    3.48    2.07   104.10637    25.06095     4.86227
   107  C   4.0    0.05    4.41    4.40   105.86678    27.04351     4.22447
   108  C   4.0    0.16    3.51    3.12   105.66368    29.29169     6.00741
   109  O   6.0   -0.31    1.29    1.80   107.55657    30.23640     7.04796
   110  C   4.0    0.03    4.15    3.90   105.53228    27.93198     1.49075
   111  O   6.0   -0.26    2.05    1.83   107.89958    28.81755     0.63055
   112  H   1.0    0.12    1.13    1.45   102.73357    24.63197     3.59603
   113  H   1.0    0.07    1.06    1.44   107.79729    26.28291     4.41126
   114  H   1.0    0.05    1.01    1.43   104.90442    26.33999     0.30916
   115  H   1.0    0.05    1.01    1.43   104.07114    29.39928     1.36917
   116  H   1.0    0.13    1.02    1.43   107.68736    30.00681    -0.73874
   117  N   5.0   -0.14    3.51    2.08   103.32941    30.20997     6.37370
   118  C   4.0    0.04    4.41    4.40   102.87118    32.31993     8.05716
   119  C   4.0    0.16    3.50    3.12   103.97367    31.75769    10.65481
   120  O   6.0   -0.33    1.30    1.80   105.27864    33.33313    11.81156
   121  C   4.0   -0.05    4.36    4.31   100.01993    32.80391     8.16914
   122  C   4.0   -0.03    4.18    3.97    99.16333    34.70995    10.16975
   123  C   4.0   -0.08    4.10    3.80   100.07833    37.37743     9.57314
   124  C   4.0   -0.08    4.10    3.81    96.28657    34.66528    10.37909
   125  H   1.0    0.11    1.09    1.44   101.84004    29.47798     5.42957
   126  H   1.0    0.05    1.05    1.44   103.87779    33.99414     7.32233
   127  H   1.0    0.04    1.03    1.43    99.43922    33.44462     6.29284
   128  H   1.0    0.06    1.04    1.43    99.11792    30.98156     8.52463
   129  H   1.0    0.04    1.06    1.44    99.95774    34.12376    11.98731
   130  H   1.0    0.03    1.00    1.43    99.39727    38.69323    10.99453
   131  H   1.0    0.04    1.00    1.43   102.13123    37.44411     9.54272
   132  H   1.0    0.04    1.00    1.43    99.41200    37.97268     7.71986
   133  H   1.0    0.04    1.00    1.43    95.65936    35.90932    11.88724
   134  H   1.0    0.04    1.00    1.43    95.45139    35.28372     8.60779
   135  H   1.0    0.04    1.00    1.43    95.62082    32.75946    10.76495
   136  N   5.0   -0.14    3.52    2.09   103.34443    29.54260    11.69427
   137  C   4.0    0.04    4.52    4.56   104.08189    29.01740    14.27017
   138  C   4.0    0.16    3.47    3.10   106.93282    28.72007    14.57118
   139  O   6.0   -0.32    1.30    1.80   108.03281    29.59991    16.42285
   140  C   4.0   -0.03    4.25    4.10   102.68651    26.77703    15.51724
   141  C   4.0   -0.08    4.15    3.90    99.95045    26.71977    14.62923
   142  C   4.0   -0.08    4.13    3.87   103.93282    24.21782    15.08054
   143  H   1.0    0.11    1.09    1.44   102.38254    28.26139    10.66283
   144  H   1.0    0.05    1.07    1.44   103.57188    30.72771    15.32539
   145  H   1.0    0.04    1.06    1.44   102.72383    27.16618    17.55222
   146  H   1.0    0.03    1.00    1.43    98.80465    25.59021    15.90225
   147  H   1.0    0.04    1.01    1.43    99.18829    28.61814    14.53774
   148  H   1.0    0.06    1.01    1.43    99.80816    25.91785    12.74576
   149  H   1.0    0.03    1.00    1.43   102.71152    22.73423    15.80547
   150  H   1.0    0.06    1.01    1.43   104.21497    23.89918    13.07149
   151  H   1.0    0.04    1.00    1.43   105.75565    24.09797    16.02201
   152  N   5.0   -0.14    3.56    2.12   108.09858    27.36419    12.81812
   153  C   4.0    0.03    4.43    4.43   110.74516    26.74503    12.98202
   154  C   4.0    0.16    3.44    3.09   112.39340    29.09479    12.75486
   155  O   6.0   -0.32    1.21    1.80   114.36376    29.35172    13.93436
   156  C   4.0   -0.04    4.28    4.16   111.45850    24.92147    10.84915
   157  C   4.0   -0.04    4.17    3.94   110.17457    22.35816    11.08389
   158  C   4.0    0.24    3.09    3.02   109.68837    21.00038     8.51218
   159  O   6.0   -0.32    1.20    1.80   109.82717    22.23154     6.49609
   160  O   6.0   -0.34    1.17    1.80   109.10883    18.72441     8.66451
   161  H   1.0    0.12    1.13    1.45   107.14498    26.76717    11.27327
   162  H   1.0    0.05    1.05    1.44   111.12170    25.87258    14.83134
   163  H   1.0    0.07    1.04    1.43   110.88398    25.77015     9.05193
   164  H   1.0    0.04    1.03    1.43   113.51102    24.71222    10.81561
   165  H   1.0    0.03    1.02    1.43   111.22109    21.07826    12.31477
   166  H   1.0    0.05    1.03    1.43   108.28868    22.58706    11.88973
   167  N   5.0   -0.13    3.53    2.10   111.49539    30.84240    11.13014
   168  C   4.0    0.04    4.44    4.45   113.08921    32.82049    10.17077
   169  C   4.0    0.14    3.41    3.08   112.43406    35.44848    11.13605
   170  O   6.0   -0.32    1.24    1.80   113.99570    37.17167    10.94340
   171  C   4.0   -0.03    4.34    4.27   112.99309    32.89097     7.27510
   172  C   4.0    0.15    3.24    3.04   114.26135    30.58499     6.16585
   173  O   6.0   -0.32    1.20    1.80   116.55937    30.30282     6.16134
   174  N   5.0   -0.19    3.19    1.95   112.66287    28.80755     5.31315
   175  H   1.0    0.11    1.10    1.44   109.97078    30.41387    10.05704
   176  H   1.0    0.07    1.06    1.44   115.04488    32.42749    10.75962
   177  H   1.0    0.06    1.03    1.43   111.03168    33.04262     6.65808
   178  H   1.0    0.05    1.04    1.43   114.00703    34.56659     6.63203
   179  H   1.0    0.09    1.03    1.43   113.35109    27.24748     4.47067
   180  H   1.0    0.11    1.05    1.44   110.78437    29.13943     5.29687
   181  N   5.0   -0.14    3.49    2.07   110.18278    35.71357    12.26543
   182  C   4.0    0.03    4.51    4.55   109.37535    38.10271    13.31676
   183  C   4.0    0.14    3.50    3.11   108.59990    37.71472    16.06339
   184  O   6.0   -0.32    1.29    1.80   109.64590    38.88000    17.76831
   185  C   4.0   -0.03    4.32    4.24   107.23440    39.36071    11.79563
   186  C   4.0   -0.04    4.19    3.97   108.22373    40.11504     9.17965
   187  C   4.0   -0.09    4.15    3.89   106.19789    41.63899    13.22426
   188  C   4.0   -0.08    4.01    3.64   106.28973    41.42199     7.49047
   189  H   1.0    0.11    1.10    1.44   108.82755    34.38487    12.00488
   190  H   1.0    0.06    1.07    1.44   111.04206    39.33470    13.32791
   191  H   1.0    0.05    1.05    1.44   105.74506    37.94165    11.55650
   192  H   1.0    0.04    1.02    1.43   109.86398    41.36033     9.37779
   193  H   1.0    0.05    1.02    1.43   108.90231    38.42307     8.18916
   194  H   1.0    0.03    1.00    1.43   104.56688    42.39106    12.23751
   195  H   1.0    0.04    1.01    1.43   105.63056    41.08803    15.11608
   196  H   1.0    0.03    1.00    1.43   107.64059    43.09405    13.34217
   197  H   1.0    0.05    1.00    1.43   107.14193    41.73672     5.64430
   198  H   1.0    0.03    1.00    1.43   104.63377    40.23893     7.19259
   199  H   1.0    0.03    1.00    1.43   105.71293    43.23045     8.26719
   200  N   5.0   -0.15    3.49    2.07   106.69545    36.11731    16.48385
   201  C   4.0    0.03    4.51    4.56   105.56714    35.99019    18.97974
   202  C   4.0    0.16    3.51    3.12   107.51802    35.12869    20.93170
   203  O   6.0   -0.32    1.30    1.80   107.87404    36.35163    22.86581
   204  C   4.0   -0.03    4.32    4.24   103.21727    34.29654    19.06478
   205  C   4.0   -0.05    4.18    3.95   101.23276    35.06164    17.08306
   206  C   4.0   -0.08    4.14    3.88   102.10709    34.28971    21.72733
   207  C   4.0   -0.09    4.01    3.64    99.85129    37.53743    17.60139
   208  H   1.0    0.10    1.09    1.44   105.98995    35.08864    15.03792
   209  H   1.0    0.04    1.06    1.44   105.04411    37.92258    19.53660
   210  H   1.0    0.04    1.06    1.44   103.85242    32.37519    18.61892
   211  H   1.0    0.04    1.03    1.43   102.14122    35.19128    15.23283
   212  H   1.0    0.03    1.03    1.43    99.83697    33.54135    16.95967
   213  H   1.0    0.03    1.00    1.43   100.34737    33.23257    21.73199
   214  H   1.0    0.04    1.00    1.43   103.41186    33.40345    23.03901
   215  H   1.0    0.03    1.00    1.43   101.75334    36.21009    22.35730
   216  H   1.0    0.03    1.00    1.43    98.62548    37.95609    16.00628
   217  H   1.0    0.03    1.00    1.43    98.68443    37.38705    19.28151
   218  H   1.0    0.03    1.00    1.43   101.16344    39.10229    17.80719
   219  N   5.0   -0.15    3.50    2.08   108.75401    32.98669    20.44679
   220  C   4.0    0.03    4.44    4.44   110.45910    31.98472    22.34471
   221  C   4.0    0.15    3.52    3.12   112.64625    33.85001    22.79640
   222  O   6.0   -0.31    1.29    1.80   113.13759    34.53662    24.96900
   223  C   4.0   -0.05    4.31    4.21   111.29365    29.29201    21.71300
   224  C   4.0   -0.04    4.05    3.72   109.14105    27.41724    22.09074
   225  S   6.0   -0.07    2.46    3.10   109.99360    24.23924    20.98156
   226  C   4.0   -0.10    3.88    3.43   111.17284    22.81555    23.84644
   227  H   1.0    0.11    1.11    1.44   108.40253    31.90538    18.89812
   228  H   1.0    0.05    1.06    1.44   109.44764    31.93211    24.16755
   229  H   1.0    0.05    1.04    1.43   111.87704    29.15325    19.74472
   230  H   1.0    0.03    1.03    1.43   112.88138    28.76553    22.91962
   231  H   1.0    0.03    1.06    1.44   108.58361    27.23320    24.06353
   232  H   1.0    0.05    1.07    1.44   107.51099    27.95137    20.95559
   233  H   1.0    0.01    1.05    1.44   112.18351    21.11149    23.31507
   234  H   1.0    0.02    1.04    1.43   112.45011    24.09747    24.81146
   235  H   1.0    0.02    1.03    1.43   109.62519    22.28353    25.09313
   236  N   5.0   -0.10    3.67    2.23   113.88314    34.78926    20.81635
   237  C   4.0    0.03    4.61    4.67   115.77357    36.75768    21.22571
   238  C   4.0    0.16    3.46    3.10   114.84255    38.98611    22.80880
   239  O   6.0   -0.30    1.25    1.80   116.24917    39.96551    24.35540
   240  C   4.0   -0.04    4.35    4.29   116.51675    37.57110    18.55272
   241  C   4.0   -0.04    4.28    4.15   116.21128    35.12535    17.06458
   242  C   4.0   -0.00    4.37    4.33   113.79632    34.01013    18.18369
   243  H   1.0    0.04    1.05    1.44   117.39043    35.93832    22.23558
   244  H   1.0    0.05    1.03    1.43   115.17706    38.95788    17.82469
   245  H   1.0    0.05    1.02    1.43   118.41557    38.33754    18.41347
   246  H   1.0    0.06    1.02    1.43   116.05395    35.43536    15.03768
   247  H   1.0    0.04    1.02    1.43   117.79479    33.85164    17.39651
   248  H   1.0    0.06    1.03    1.43   112.13572    34.78965    17.22915
   249  H   1.0    0.05    1.02    1.43   113.73039    31.96504    17.97138
   250  N   5.0   -0.14    3.46    2.05   112.56119    39.93636    22.25089
   251  C   4.0    0.04    4.44    4.44   111.49560    41.89481    23.85243
   252  C   4.0    0.16    3.52    3.13   111.50173    41.08511    26.62260
   253  O   6.0   -0.31    1.32    1.80   112.70098    42.26887    28.21002
   254  C   4.0   -0.05    4.37    4.34   108.79726    42.60566    23.10897
   255  C   4.0   -0.02    4.17    3.94   108.56078    44.12936    20.65500
   256  C   4.0   -0.09    4.12    3.84   105.79228    44.15688    19.84203
   257  C   4.0   -0.10    4.10    3.81   109.46733    46.85006    20.98179
   258  H   1.0    0.12    1.09    1.44   111.38118    39.06764    21.01518
   259  H   1.0    0.04    1.06    1.44   112.73615    43.55683    23.81025
   260  H   1.0    0.06    1.04    1.43   107.72987    40.85382    22.92516
   261  H   1.0    0.03    1.03    1.43   107.97386    43.69427    24.65682
   262  H   1.0    0.05    1.06    1.44   109.64412    43.16107    19.18823
   263  H   1.0    0.02    1.00    1.43   105.56367    45.21834    18.09989
   264  H   1.0    0.04    1.00    1.43   105.11218    42.24292    19.52625
   265  H   1.0    0.02    1.00    1.43   104.62669    45.01720    21.29980
   266  H   1.0    0.02    1.00    1.43   109.63804    47.75453    19.14776
   267  H   1.0    0.02    1.00    1.43   108.09361    47.89929    22.09228
   268  H   1.0    0.03    1.00    1.43   111.26194    46.94540    21.96664
   269  N   5.0   -0.15    3.54    2.10   109.98269    39.15645    27.18042
   270  C   4.0    0.03    4.53    4.57   109.52864    38.47322    29.78802
   271  C   4.0    0.16    3.50    3.11   112.04581    38.32980    31.22281
   272  O   6.0   -0.33    1.21    1.80   112.29486    39.33619    33.29427
   273  C   4.0   -0.03    4.32    4.24   107.97560    36.02631    29.95390
   274  C   4.0   -0.05    4.20    3.99   105.36154    36.47846    28.77311
   275  C   4.0   -0.09    4.13    3.86   107.73988    35.16361    32.69755
   276  C   4.0   -0.09    4.01    3.64   103.74690    34.09976    28.61937
   277  H   1.0    0.11    1.09    1.44   109.28300    38.03596    25.79452
   278  H   1.0    0.04    1.05    1.44   108.44679    40.00277    30.69158
   279  H   1.0    0.04    1.05    1.44   108.97041    34.56126    28.87700
   280  H   1.0    0.02    1.03    1.43   104.36140    37.89668    29.88709
   281  H   1.0    0.05    1.03    1.43   105.60190    37.19980    26.85876
   282  H   1.0    0.02    1.00    1.43   106.85373    33.31414    32.79310
   283  H   1.0    0.03    1.00    1.43   109.58397    35.00592    33.59541
   284  H   1.0    0.02    1.00    1.43   106.60007    36.49291    33.77380
   285  H   1.0    0.03    1.00    1.43   101.99265    34.50680    27.63183
   286  H   1.0    0.03    1.00    1.43   104.73791    32.61436    27.59384
   287  H   1.0    0.02    1.00    1.43   103.27950    33.37628    30.48213
   288  N   5.0   -0.14    3.42    2.03   113.87406    37.11805    29.96557
   289  C   4.0    0.01    4.23    4.06   116.31380    36.52599    31.02856
   290  C   4.0    0.15    3.31    3.05   118.07570    38.76066    31.54663
   291  O   6.0   -0.35    1.23    1.80   120.07992    38.39844    32.64543
   292  H   1.0    0.11    1.10    1.44   113.45538    36.32295    28.27520
   293  H   1.0    0.03    1.03    1.43   116.07707    35.59215    32.86180
   294  H   1.0    0.04    1.03    1.43   117.27843    35.22582    29.75259
   295  N   5.0   -0.14    3.46    2.06   117.35929    41.01323    30.66899
   296  C   4.0    0.03    4.33    4.26   118.75665    43.29204    31.20790
   297  C   4.0    0.06    3.20    3.04   117.35397    45.17023    32.90311
   298  O   6.0   -0.36    1.13    1.80   118.46970    47.02756    33.71204
   299  C   4.0   -0.05    4.28    4.15   119.52017    44.65767    28.76567
   300  C   4.0   -0.05    4.19    3.98   121.37626    43.07770    27.21769
   301  C   4.0   -0.06    4.17    3.93   122.59736    44.64490    25.11528
   302  C   4.0   -0.05    4.12    3.83   124.20478    43.03385    23.34570
   303  N   5.0   -0.14    4.02    2.92   126.51092    42.11657    24.67295
   304  H   1.0    0.12    1.11    1.45   115.74700    41.19803    29.64694
   305  H   1.0    0.05    1.07    1.44   120.44894    42.71970    32.25837
   306  H   1.0    0.05    1.03    1.43   117.80251    45.01963    27.68782
   307  H   1.0    0.03    1.03    1.43   120.36910    46.45474    29.31270
   308  H   1.0    0.03    1.03    1.43   122.79804    42.35307    28.52094
   309  H   1.0    0.06    1.03    1.43   120.34756    41.47941    26.42108
   310  H   1.0    0.03    1.03    1.43   121.10994    45.53826    24.01579
   311  H   1.0    0.01    1.02    1.43   123.72957    46.15916    25.93670
   312  H   1.0    0.04    1.02    1.43   123.12347    41.39991    22.70223
   313  H   1.0    0.02    1.02    1.43   124.80132    44.14309    21.71169
   314  H   1.0    0.02    1.02    1.43   127.61983    41.04962    23.48201
   315  H   1.0    0.02    1.02    1.43   127.55335    43.63116    25.32125
   316  H   1.0    0.03    1.02    1.43   125.99270    41.02271    26.20043
   317  N   5.0   -0.24    3.25    1.97    95.86244    22.38102    28.38161
   318  C   4.0    0.02    4.40    4.38    96.57166    24.67186    27.07776
   319  C   4.0    0.14    3.46    3.10    95.99709    24.57943    24.25006
   320  O   6.0   -0.33    1.28    1.80    95.71016    26.54835    23.05578
   321  C   4.0   -0.03    4.32    4.24    99.31067    25.52054    27.55439
   322  C   4.0   -0.05    4.20    4.01   101.16066    23.99583    25.93941
   323  C   4.0   -0.10    4.13    3.86    99.90706    25.39343    30.37303
   324  C   4.0   -0.09    4.02    3.65   103.90018    24.80554    26.28714
   325  H   1.0    0.05    1.02    1.43    97.17847    21.09321    28.88476
   326  H   1.0    0.03    1.06    1.44    95.32489    26.15544    27.83865
   327  H   1.0    0.04    1.06    1.44    99.40939    27.49079    26.92193
   328  H   1.0    0.02    1.02    1.43   100.98125    21.98060    26.36209
   329  H   1.0    0.04    1.03    1.43   100.65149    24.22825    23.94739
   330  H   1.0    0.02    1.00    1.43   101.68006    26.34358    30.77025
   331  H   1.0    0.01    1.00    1.43    98.40704    26.29264    31.44677
   332  H   1.0    0.01    1.00    1.43   100.07640    23.43721    30.98111
   333  H   1.0    0.03    1.00    1.43   105.07828    23.83955    24.90540
   334  H   1.0    0.03    1.00    1.43   104.08570    26.83510    26.02259
   335  H   1.0    0.02    1.00    1.43   104.60046    24.28342    28.14698
   336  N   5.0   -0.16    3.48    2.06    95.75318    22.30596    23.19307
   337  C   4.0    0.03    4.41    4.39    95.01206    22.09715    20.57091
   338  C   4.0    0.08    3.24    3.04    92.18928    22.76059    20.39380
   339  O   6.0   -0.32    1.13    1.80    91.40712    24.05528    18.63888
   340  C   4.0   -0.03    4.30    4.20    95.79133    19.53708    19.43568
   341  C   4.0   -0.05    4.17    3.94    96.21529    19.70170    16.57567
   342  C   4.0   -0.09    4.13    3.87    93.89194    17.46660    20.05072
   343  C   4.0   -0.09    4.01    3.64    97.49426    17.35275    15.49983
   344  H   1.0    0.06    1.07    1.44    96.24731    20.71330    24.11786
   345  H   1.0    0.05    1.06    1.44    96.00041    23.59918    19.51828
   346  H   1.0    0.02    1.06    1.44    97.59767    19.03509    20.33357
   347  H   1.0    0.04    1.03    1.43    94.39786    19.97292    15.63896
   348  H   1.0    0.03    1.03    1.43    97.40061    21.33924    16.15838
   349  H   1.0    0.02    1.00    1.43    94.67338    15.61965    19.58745
   350  H   1.0    0.02    1.00    1.43    93.43760    17.43570    22.04966
   351  H   1.0    0.03    1.00    1.43    92.14457    17.69823    18.98284
   352  H   1.0    0.04    1.00    1.43    97.87531    17.60433    13.49736
   353  H   1.0    0.02    1.00    1.43    99.26269    16.98122    16.48874
   354  H   1.0    0.03    1.00    1.43    96.31171    15.67598    15.68393
   355  N   5.0   -0.21    3.22    1.96    89.48539    26.86096    24.05085
   356  C   4.0    0.02    4.34    4.27    89.68322    29.58045    24.26791
   357  C   4.0    0.15    3.53    3.13    90.24663    30.79501    21.71232
   358  O   6.0   -0.33    1.30    1.80    89.04948    32.62705    20.94429
   359  C   4.0   -0.05    4.34    4.28    91.79461    30.31757    26.11029
   360  C   4.0   -0.02    3.62    3.18    92.48251    33.05816    25.76180
   361  C   4.0   -0.06    3.47    3.10    90.75991    34.96639    26.29473
   362  C   4.0   -0.05    3.47    3.10    94.84368    33.70379    24.82052
   363  C   4.0   -0.07    3.38    3.07    91.38640    37.46790    25.86942
   364  C   4.0   -0.06    3.38    3.07    95.48171    36.20894    24.42744
   365  C   4.0   -0.06    3.37    3.07    93.74836    38.09715    24.93788
   366  H   1.0    0.07    1.02    1.43    90.52528    25.74534    25.21632
   367  H   1.0    0.02    1.05    1.44    87.84866    30.32922    24.88244
   368  H   1.0    0.01    1.02    1.43    91.17907    29.93976    28.04090
   369  H   1.0    0.05    1.04    1.43    93.43063    29.14327    25.67370
   370  H   1.0    0.02    1.03    1.43    88.92047    34.47622    27.02643
   371  H   1.0    0.05    1.03    1.43    96.17709    32.22257    24.37337
   372  H   1.0    0.02    1.03    1.43    90.03161    38.93114    26.28050
   373  H   1.0    0.03    1.03    1.43    97.33593    36.66812    23.71355
   374  H   1.0    0.03    1.03    1.43    94.25450    40.04242    24.60455
   375  N   5.0   -0.14    3.51    2.09    92.22282    29.87853    20.45435
   376  C   4.0    0.04    4.38    4.34    92.91416    30.99498    18.06141
   377  C   4.0    0.16    3.52    3.12    90.64956    31.16596    16.29347
   378  O   6.0   -0.32    1.30    1.80    90.24331    33.04299    14.99072
   379  C   4.0   -0.08    4.14    3.88    94.97624    29.46029    16.80082
   380  H   1.0    0.11    1.09    1.44    93.22696    28.36546    21.06712
   381  H   1.0    0.05    1.05    1.44    93.58784    32.93425    18.38144
   382  H   1.0    0.04    1.00    1.43    95.48971    30.33501    15.01496
   383  H   1.0    0.04    1.00    1.43    96.61920    29.37629    18.02829
   384  H   1.0    0.05    1.00    1.43    94.32496    27.54646    16.41611
   385  N   5.0   -0.14    3.48    2.07    89.14554    29.12980    16.21525
   386  C   4.0    0.03    4.35    4.29    86.96674    29.17543    14.56654
   387  C   4.0    0.08    3.27    3.05    85.20399    31.33249    15.34056
   388  O   6.0   -0.32    1.12    1.80    84.26082    32.75943    13.76153
   389  C   4.0   -0.06    4.35    4.29    85.58315    26.65216    14.64485
   390  C   4.0   -0.03    4.19    3.98    83.30547    26.55185    12.86636
   391  C   4.0   -0.09    4.11    3.81    84.09640    26.53518    10.09468
   392  C   4.0   -0.10    4.11    3.82    81.72200    24.21501    13.42878
   393  H   1.0    0.10    1.07    1.44    89.57468    27.51012    17.13294
   394  H   1.0    0.05    1.05    1.44    87.59083    29.58329    12.62484
   395  H   1.0    0.04    1.03    1.43    86.91444    25.15721    14.13062
   396  H   1.0    0.03    1.03    1.43    84.96475    26.28635    16.58050
   397  H   1.0    0.03    1.06    1.44    82.11866    28.22000    13.18183
   398  H   1.0    0.02    1.00    1.43    82.44657    26.33168     8.87915
   399  H   1.0    0.04    1.00    1.43    85.07441    28.26455     9.57370
   400  H   1.0    0.03    1.00    1.43    85.34060    24.93964     9.70521
   401  H   1.0    0.01    1.00    1.43    80.15239    24.10753    12.10501
   402  H   1.0    0.02    1.00    1.43    82.82967    22.48998    13.19121
   403  H   1.0    0.01    1.00    1.43    80.99192    24.25222    15.34960
   404  N   5.0   -0.21    3.23    1.96    86.22030    36.81486    18.27674
   405  C   4.0    0.02    4.37    4.33    87.10134    39.25788    17.39646
   406  C   4.0    0.14    3.46    3.10    86.80051    39.47686    14.51862
   407  O   6.0   -0.33    1.27    1.80    85.78890    41.33277    13.56816
   408  C   4.0   -0.03    4.30    4.19    89.77499    39.95772    18.36072
   409  C   4.0   -0.06    4.22    4.03    90.74437    42.26094    16.88665
   410  C   4.0   -0.07    4.13    3.86    91.65040    37.78123    18.20962
   411  C   4.0   -0.10    4.02    3.65    93.20077    43.33279    17.94733
   412  H   1.0    0.11    1.05    1.44    87.49692    35.49441    18.80768
   413  H   1.0    0.02    1.06    1.44    85.75954    40.65512    18.14244
   414  H   1.0    0.02    1.05    1.44    89.60486    40.46801    20.35893
   415  H   1.0    0.04    1.03    1.43    91.04015    41.70266    14.92234
   416  H   1.0    0.03    1.03    1.43    89.29394    43.72458    16.89094
   417  H   1.0    0.03    1.00    1.43    93.48892    38.39847    18.88012
   418  H   1.0    0.06    1.01    1.43    91.06669    36.20806    19.39176
   419  H   1.0    0.05    1.00    1.43    91.85523    37.09587    16.28318
   420  H   1.0    0.01    1.00    1.43    93.66267    45.08509    16.98496
   421  H   1.0    0.02    1.00    1.43    93.02681    43.68530    19.95993
   422  H   1.0    0.03    1.00    1.43    94.76346    42.03724    17.63908
   423  N   5.0   -0.14    3.46    2.05    87.66634    37.54718    13.14517
   424  C   4.0    0.04    4.34    4.28    87.38873    37.56563    10.42472
   425  C   4.0    0.09    3.31    3.05    84.71514    38.37188     9.66969
   426  O   6.0   -0.33    1.11    1.80    84.33687    40.03403     8.10219
   427  C   4.0   -0.04    4.33    4.26    87.96302    34.94022     9.34431
   428  C   4.0   -0.02    3.57    3.15    87.79460    34.91723     6.51324
   429  C   4.0   -0.05    3.47    3.10    89.84067    35.68252     5.05784
   430  C   4.0   -0.05    3.47    3.10    85.59648    34.15340     5.30074
   431  C   4.0   -0.05    3.37    3.07    89.70080    35.66598     2.45032
   432  C   4.0   -0.06    3.37    3.07    85.44564    34.14602     2.69072
   433  C   4.0   -0.06    3.37    3.07    87.50135    34.89975     1.26009
   434  H   1.0    0.11    1.10    1.44    88.40230    35.96759    13.93699
   435  H   1.0    0.05    1.05    1.44    88.69257    38.95547     9.59124
   436  H   1.0    0.05    1.03    1.43    89.86278    34.39595     9.94313
   437  H   1.0    0.06    1.04    1.43    86.62638    33.58306    10.13825
   438  H   1.0    0.04    1.03    1.43    91.56805    36.25634     5.98374
   439  H   1.0    0.04    1.03    1.43    84.00248    33.52186     6.41609
   440  H   1.0    0.03    1.03    1.43    91.31826    36.22658     1.33948
   441  H   1.0    0.02    1.03    1.43    83.72716    33.52920     1.77531
   442  H   1.0    0.02    1.03    1.43    87.39766    34.87533    -0.77493
   443  N   5.0   -0.30    2.23    1.90    85.10289    13.01310     7.71926
   444  C   4.0    0.07    4.23    4.05    87.12053    14.18386     9.13667
   445  C   4.0    0.01    2.26    3.00    87.54349    12.96521    11.68987
   446  O   6.0   -0.31    1.07    1.80    89.64769    11.98118    12.33004
   447  C   4.0   -0.03    4.28    4.16    86.58031    17.01213     9.44214
   448  C   4.0   -0.08    4.15    3.89    88.63369    18.17237    11.08472
   449  C   4.0   -0.09    4.12    3.85    86.50285    18.29208     6.87299
   450  H   1.0    0.08    1.02    1.43    83.44613    13.95519     7.67736
   451  H   1.0    0.05    1.05    1.44    88.90697    13.93904     8.06596
   452  H   1.0    0.02    1.05    1.44    84.73905    17.17774    10.39663
   453  H   1.0    0.03    1.00    1.43    88.35224    20.18954    11.38672
   454  H   1.0    0.04    1.01    1.43    88.72299    17.23550    12.91817
   455  H   1.0    0.05    1.00    1.43    90.47206    17.90121    10.18650
   456  H   1.0    0.03    1.00    1.43    86.32645    20.32950     7.07265
   457  H   1.0    0.04    1.00    1.43    88.26139    17.92328     5.85503
   458  H   1.0    0.02    1.00    1.43    84.93556    17.56806     5.76143
   459  N   5.0   -0.28    2.20    1.90   121.84567    46.96077    -0.86599
   460  C   4.0    0.07    4.13    3.86   121.14362    48.32361     1.38829
   461  C   4.0    0.02    2.22    3.00   123.03003    48.14902     3.57995
   462  O   6.0   -0.30    1.08    1.80   124.50936    46.42167     3.94037
   463  C   4.0   -0.03    4.30    4.21   118.59528    47.41301     2.40976
   464  C   4.0   -0.03    3.67    3.22   116.34874    48.38986     1.01552
   465  C   4.0   -0.04    3.62    3.18   116.26615    49.58081    -1.27345
   466  C   4.0   -0.00    3.90    3.46   113.81053    48.27100     1.91054
   467  N   5.0   -0.15    3.49    2.07   113.82804    50.26090    -1.84349
   468  C   4.0    0.02    3.89    3.46   112.28388    49.42026     0.04423
   469  C   4.0   -0.05    3.40    3.08   112.69249    47.30835     4.10367
   470  C   4.0   -0.08    3.40    3.08   109.68840    49.64034     0.34286
   471  C   4.0   -0.05    3.37    3.07   110.11003    47.52499     4.38376
   472  C   4.0   -0.06    3.38    3.07   108.63345    48.67379     2.53463
   473  H   1.0    0.10    1.01    1.43   121.50907    45.08996    -1.00528
   474  H   1.0    0.02    1.05    1.44   121.02252    50.31156     0.80976
   475  H   1.0    0.06    1.03    1.43   118.63313    45.34251     2.39218
   476  H   1.0    0.05    1.04    1.43   118.41998    47.91324     4.40790
   477  H   1.0    0.02    1.02    1.43   117.77018    50.05849    -2.53858
   478  H   1.0    0.04    1.05    1.44   113.27067    50.78341    -3.58610
   479  H   1.0    0.05    1.02    1.43   113.83523    46.36422     5.51168
   480  H   1.0    0.02    1.03    1.43   108.53969    50.50153    -1.09898
   481  H   1.0    0.04    1.03    1.43   109.20746    46.73934     6.04261
   482  H   1.0    0.03    1.03    1.43   106.61624    48.78421     2.79878
   483  N   5.0   -0.28    2.24    1.90   123.32343    45.79602    16.12634
   484  C   4.0    0.05    4.32    4.24   123.01063    44.94380    13.51589
   485  C   4.0    0.13    3.41    3.08   120.58119    43.44303    13.37821
   486  O   6.0   -0.32    1.21    1.80   120.15743    41.60532    14.78792
   487  C   4.0   -0.03    4.31    4.22   125.43954    43.55682    12.65899
   488  C   4.0   -0.05    4.17    3.95   125.41302    43.07956     9.80584
   489  C   4.0   -0.08    4.12    3.84   125.84878    41.11597    14.13615
   490  C   4.0   -0.09    4.01    3.64   128.05649    42.63894     8.73541
   491  H   1.0    0.11    1.02    1.43   122.33170    44.78708    17.41220
   492  H   1.0    0.03    1.06    1.44   122.81710    46.62100    12.31629
   493  H   1.0    0.02    1.06    1.44   126.98500    44.88514    13.05241
   494  H   1.0    0.05    1.02    1.43   124.18362    41.47667     9.35056
   495  H   1.0    0.05    1.03    1.43   124.58549    44.69537     8.81653
   496  H   1.0    0.02    1.00    1.43   127.50333    40.14779    13.39954
   497  H   1.0    0.03    1.00    1.43   125.96494    41.55071    16.13759
   498  H   1.0    0.05    1.01    1.43   124.23098    39.87487    13.87097
   499  H   1.0    0.04    1.00    1.43   127.98603    42.82820     6.69072
   500  H   1.0    0.01    1.00    1.43   129.37125    44.04886     9.44630
   501  H   1.0    0.03    1.00    1.43   128.75472    40.76105     9.18144
   502  N   5.0   -0.15    3.50    2.08   118.71289    44.57982    11.93147
   503  C   4.0    0.03    4.40    4.38   116.56953    43.12151    11.05022
   504  C   4.0    0.14    3.46    3.10   116.89936    42.78059     8.19950
   505  O   6.0   -0.32    1.29    1.80   118.57037    43.98254     7.07902
   506  C   4.0   -0.05    4.24    4.09   114.01433    44.42808    11.60802
   507  C   4.0   -0.06    4.20    4.01   114.13765    46.33101    13.77218
   508  C   4.0   -0.05    4.18    3.96   114.85903    45.13264    16.30143
   509  C   4.0   -0.05    4.12    3.84   115.70147    47.13255    18.19815
   510  N   5.0   -0.12    4.01    2.89   116.54850    45.90995    20.58725
   511  H   1.0    0.09    1.12    1.45   119.36221    45.60184    10.44164
   512  H   1.0    0.06    1.06    1.44   116.59770    41.25212    11.94289
   513  H   1.0    0.03    1.03    1.43   113.37147    45.39526     9.89470
   514  H   1.0    0.04    1.03    1.43   112.64846    42.94243    12.03561
   515  H   1.0    0.03    1.04    1.43   115.54306    47.74251    13.24632
   516  H   1.0    0.02    1.03    1.43   112.29368    47.24266    13.90920
   517  H   1.0    0.04    1.02    1.43   113.25433    44.06493    17.04102
   518  H   1.0    0.06    1.04    1.43   116.38260    43.78479    15.96752
   519  H   1.0    0.03    1.02    1.43   117.27079    48.22999    17.42187
   520  H   1.0    0.02    1.02    1.43   114.15037    48.41629    18.63762
   521  H   1.0    0.04    1.02    1.43   117.28969    47.23758    21.80742
   522  H   1.0    0.05    1.02    1.43   115.05872    44.97435    21.47716
   523  H   1.0    0.06    1.02    1.43   117.84242    44.51512    20.18215
   524  N   5.0   -0.14    3.40    2.02   115.22658    41.26468     6.99887
   525  C   4.0    0.05    4.29    4.17   115.59262    40.76229     4.33245
   526  C   4.0    0.03    2.25    3.00   113.25744    40.93785     2.69154
   527  O   6.0   -0.30    1.11    1.80   111.21539    39.73218     3.02266
   528  C   4.0   -0.03    4.33    4.26   116.88276    38.18063     3.84114
   529  C   4.0   -0.01    3.55    3.14   119.58392    38.03437     4.60371
   530  C   4.0   -0.04    3.46    3.10   120.36931    36.55926     6.62060
   531  C   4.0   -0.04    3.48    3.10   121.38866    39.31862     3.17513
   532  C   4.0   -0.05    3.43    3.09   122.90642    36.29865     7.16600
   533  C   4.0   -0.05    3.43    3.09   123.92807    39.10160     3.72563
   534  C   4.0    0.06    3.46    3.10   124.70027    37.55180     5.69821
   535  O   6.0   -0.29    2.11    1.84   127.18976    37.16030     6.21421
   536  H   1.0    0.10    1.07    1.44   114.23540    40.01732     8.05447
   537  H   1.0    0.05    1.09    1.44   116.89553    42.24188     3.70385
   538  H   1.0    0.05    1.04    1.43   115.74524    36.74358     4.78184
   539  H   1.0    0.03    1.05    1.44   116.79646    37.81844     1.81132
   540  H   1.0    0.06    1.03    1.43   118.96413    35.57568     7.73755
   541  H   1.0    0.04    1.03    1.43   120.77093    40.46826     1.59888
   542  H   1.0    0.04    1.03    1.43   123.51240    35.07879     8.67801
   543  H   1.0    0.04    1.03    1.43   125.28138    40.11768     2.58221
   544  H   1.0    0.09    1.04    1.44   128.17444    38.11872     5.00886
   545  N   5.0   -0.26    2.24    1.90   114.05341    37.95584    -2.25414
   546  C   4.0    0.05    4.22    4.05   113.37818    35.32178    -2.73427
   547  C   4.0    0.14    3.39    3.08   110.58578    34.76487    -2.36380
   548  O   6.0   -0.31    1.25    1.80   109.46528    33.23261    -3.79816
   549  C   4.0   -0.05    4.36    4.31   115.10865    33.69151    -1.07805
   550  C   4.0   -0.03    4.16    3.93   115.80655    31.08076    -2.10249
   551  C   4.0   -0.09    4.11    3.81   118.05907    30.07159    -0.59994
   552  C   4.0   -0.08    4.10    3.80   113.59348    29.24283    -1.97458
   553  H   1.0    0.11    1.06    1.44   114.33091    38.24325    -0.37155
   554  H   1.0    0.03    1.05    1.44   113.77580    34.91233    -4.74187
   555  H   1.0    0.03    1.05    1.44   116.86052    34.77447    -0.90239
   556  H   1.0    0.05    1.02    1.43   114.26495    33.50512     0.80704
   557  H   1.0    0.02    1.05    1.44   116.34859    31.31425    -4.09243
   558  H   1.0    0.02    1.00    1.43   118.54260    28.18617    -1.24237
   559  H   1.0    0.02    1.00    1.43   119.66833    31.32381    -0.83329
   560  H   1.0    0.05    1.00    1.43   117.59486    30.00766     1.40305
   561  H   1.0    0.02    1.00    1.43   114.17553    27.37815    -2.60509
   562  H   1.0    0.05    1.00    1.43   112.84322    29.14659    -0.05824
   563  H   1.0    0.05    1.01    1.43   112.05629    29.89082    -3.17540
   564  N   5.0   -0.14    3.40    2.02   109.35727    35.88684    -0.41522
   565  C   4.0    0.05    4.31    4.22   106.58017    35.80562    -0.30746
   566  C   4.0    0.05    2.31    3.00   105.33403    36.41444    -2.80059
   567  O   6.0   -0.30    1.19    1.80   104.06793    34.76854    -4.08664
   568  C   4.0   -0.04    4.33    4.26   105.63841    37.62330     1.71926
   569  C   4.0   -0.02    3.59    3.16   102.80609    37.77915     1.67412
   570  C   4.0   -0.03    3.48    3.11   101.29746    35.62732     1.73315
   571  C   4.0   -0.05    3.47    3.10   101.62279    40.12926     1.70775
   572  C   4.0   -0.04    3.37    3.07    98.68973    35.81164     1.78263
   573  C   4.0   -0.06    3.37    3.07    99.01951    40.32382     1.77928
   574  C   4.0   -0.06    3.37    3.07    97.54014    38.16954     1.80985
   575  H   1.0    0.10    1.10    1.44   110.13172    37.44218     0.42778
   576  H   1.0    0.05    1.05    1.44   106.05906    33.84066     0.20193
   577  H   1.0    0.05    1.02    1.43   106.29289    37.01438     3.59806
   578  H   1.0    0.05    1.03    1.43   106.47313    39.48156     1.36629
   579  H   1.0    0.06    1.03    1.43   102.16284    33.76328     1.75549
   580  H   1.0    0.04    1.03    1.43   102.79504    41.79896     1.68052
   581  H   1.0    0.05    1.03    1.43    97.58315    34.08955     1.85147
   582  H   1.0    0.03    1.03    1.43    98.15654    42.16811     1.83610
   583  H   1.0    0.03    1.03    1.43    95.50876    38.30682     1.89973
   584  N   5.0   -0.26    2.23    1.90   105.98808    31.42615    -8.03888
   585  C   4.0    0.07    4.11    3.81   104.32852    29.29893    -7.86206
   586  C   4.0    0.04    2.23    3.00   101.67550    29.83586    -8.83274
   587  O   6.0   -0.33    1.09    1.80   100.40339    28.08930    -9.73767
   588  C   4.0    0.03    4.16    3.92   104.20006    28.39608    -5.11493
   589  O   6.0   -0.25    2.05    1.83   102.79524    29.98206    -3.54582
   590  H   1.0    0.15    1.04    1.43   106.35605    32.39981    -6.43742
   591  H   1.0    0.03    1.05    1.44   105.11224    27.76502    -9.03448
   592  H   1.0    0.04    1.01    1.43   103.27859    26.53794    -5.03412
   593  H   1.0    0.04    1.01    1.43   106.16070    28.17752    -4.43023
   594  H   1.0    0.16    1.09    1.44   103.44486    31.74740    -3.67361
   595  H   1.0    0.07    1.07    1.44    91.99620    19.61515    -6.27185
   596  H   1.0    0.05    1.04    1.43   115.53974    44.87479    33.34171
   597  H   1.0    0.06    1.07    1.44    95.11007    22.77600    29.85487
   598  H   1.0    0.04    1.04    1.44    90.98736    22.13590    21.71146
   599  H   1.0    0.07    1.07    1.44    87.87807    26.38405    24.33662
   600  H   1.0    0.05    1.05    1.44    84.79388    31.60939    17.16434
   601  H   1.0    0.07    1.07    1.44    85.23823    37.02629    19.64911
   602  H   1.0    0.05    1.05    1.44    83.21697    37.53575    10.46180

  Z AO/shell   Hii/eV     exponent
  1     Wed Apr 25 08:07:45 CEST 2018   EN: 2.200 GM2: 0.406  GM3: 0.0800  RAES: 1.40
     1s    -10.707211    1.230000
  6     Wed Apr 25 08:07:45 CEST 2018   EN: 2.550 GM2: 0.538  GM3: 0.1500  RAES: 3.00
     2s    -13.970922    2.096432
     2p    -10.063292    1.800000
  7     Wed Apr 25 08:07:45 CEST 2018   EN: 3.040 GM2: 0.461  GM3:-0.0640  RAES: 1.90
     2s    -16.686243    2.339881
     2p    -12.523956    2.014332
  8     Wed Apr 25 08:07:45 CEST 2018   EN: 3.440 GM2: 0.452  GM3:-0.0517  RAES: 1.80
     2s    -20.229985    2.439742
     2p    -15.503117    2.137023
 16     Tue Apr 24 11:44:34 CEST 2018   EN: 2.580 GM2: 0.340  GM3:-0.0502  RAES: 3.10
     3s    -20.029654    1.981333
     3p    -11.377694    2.025643
     3d     -0.420282    1.702555
 no old-style atom pair restraining (fixing) potential

molecular fragmentation (1/2 indicates fragments):
111111111111111111111111111111111111111111111111111111111111111111111111
111111111111111111111111111111111111111111111111111111111111111111111111
111111111111111111111111111111111111111111111111111111111111111111111111
111111111111111111111111111111111111111111111111111111111111111111111111
111111111111111111111111111122222222222222222222222222222222222222222222
222222222222222222222222222222222222222222222222222222222222222222222222
222222222222222222222222222222222222222222222222222222222222222222222222
222222222222222222222222222222222222222222222222222222222222222222222222
22222222222222222211222222
# atoms in fragment 1/2:   318   284
 fragment masses (1/2) :     2130.69     1862.39
CMA distance (Bohr)    :   5.818
constraining FC (au)   :  0.0500
           ------------------------------------------------- 
          |        Self-Consistent Charge Iterations        |
           ------------------------------------------------- 

 Ncao       : 1460
 Nao        : 1458
 Nshell     : 886
 Nel        : 1580
 T(el)      :   500.0
 intcut     :    35.0
 scfconv/Eh :  0.100E-06
   qconv/e  :  0.100E-04
 intneglect :  0.100E-08
 broydamp   :      0.400
 iter      E             dE          RMSdq      gap      omega  full diag
   1   -889.4252534 -0.889425E+03  0.441E+00    0.34       0.0  T
   2   -884.3791956  0.504606E+01  0.355E+00    0.27       1.0  T
   3   -886.5970267 -0.221783E+01  0.295E+00    0.15       1.0  T
   4   -889.2650147 -0.266799E+01  0.217E+00    0.31       1.0  T
   5   -889.6225288 -0.357514E+00  0.185E+00    0.06       1.0  T
   6   -891.5544398 -0.193191E+01  0.122E+00    0.18       1.0  T
   7   -891.9274246 -0.372985E+00  0.921E-01    0.09       1.0  T
   8   -891.8116368  0.115788E+00  0.934E-01    0.18       1.0  T
   9   -891.9408541 -0.129217E+00  0.726E-01    0.20       1.0  T
  10   -891.7558085  0.185046E+00  0.876E-01    0.04       1.0  T
  11   -891.9072298 -0.151421E+00  0.697E-01    0.01       1.0  T
  12   -891.6942775  0.212952E+00  0.866E-01    0.04       1.0  T
  13   -891.9145318 -0.220254E+00  0.668E-01    0.00       1.0  T
  14   -891.9652932 -0.507614E-01  0.619E-01    0.01       1.0  T
  15   -891.9952190 -0.299258E-01  0.573E-01    0.10       1.0  T
  16   -892.0973963 -0.102177E+00  0.442E-01    0.02       1.0  T
  17   -892.0793994  0.179969E-01  0.452E-01    0.01       1.0  T
  18   -892.1364398 -0.570404E-01  0.366E-01    0.01       1.0  T
  19   -892.1782830 -0.418432E-01  0.291E-01    0.01       1.0  T
  20   -892.2115264 -0.332434E-01  0.212E-01    0.01       1.0  T
  21   -892.0695108  0.142016E+00  0.461E-01    0.00       1.0  T
  22   -892.1809269 -0.111416E+00  0.274E-01    0.03       1.0  T
  23   -892.1957099 -0.147830E-01  0.248E-01    0.00       1.0  T
  24   -892.2319027 -0.361928E-01  0.134E-01    0.01       1.0  T
  25   -892.2366062 -0.470349E-02  0.109E-01    0.01       1.0  T
  26   -892.2352460  0.136017E-02  0.119E-01    0.03       1.0  T
  27   -892.2365761 -0.133014E-02  0.107E-01    0.02       1.0  T
  28   -892.2404057 -0.382956E-02  0.872E-02    0.01       1.0  T
  29   -892.2431688 -0.276311E-02  0.624E-02    0.01       1.0  T
  30   -892.2438538 -0.685003E-03  0.543E-02    0.01       1.0  T
  31   -892.2447599 -0.906084E-03  0.445E-02    0.02       1.0  T
  32   -892.2457360 -0.976112E-03  0.269E-02    0.01       1.0  T
  33   -892.2459042 -0.168163E-03  0.218E-02    0.01       1.0  T
  34   -892.2462682 -0.364040E-03  0.777E-03    0.01       1.0  T
  35   -892.2463029 -0.347060E-04  0.487E-03    0.01       1.0  T
  36   -892.2463013  0.166843E-05  0.478E-03    0.01       1.0  T
  37   -892.2463177 -0.163999E-04  0.208E-03    0.01       2.0  T
  38   -892.2463201 -0.247612E-05  0.936E-04    0.01       4.4  T
  39   -892.2463204 -0.279793E-06  0.754E-04    0.01       5.4  T
  40   -892.2463206 -0.232554E-06  0.473E-04    0.01       8.6  T
  41   -892.2463207 -0.622637E-07  0.395E-04    0.01      10.3  T
  42   -892.2463208 -0.799618E-07  0.248E-04    0.01      16.4  T
  43   -892.2463208 -0.391320E-07  0.123E-04    0.01      33.2  T
  44   -892.2463208 -0.550415E-08  0.932E-05    0.01      43.7  T
  45   -892.2463208 -0.397040E-08  0.597E-05    0.01      68.3  T
speedup  1.97
cpu  time for SCC    2 m 25.4 s
wall time for SCC    1 m 13.7 s

   *** convergence criteria satisfied after 45 iterations ***

          eigenvalues
 #    :         778        779        780        781        782        783        784        785
 occ. :        2.000      2.000      2.000      2.000      2.000      2.000      2.000      1.964
 eps  :        -8.554     -8.546     -8.457     -8.375     -8.276     -8.082     -7.907     -7.265
 #    :         786        787        788        789        790        791        792        793
 occ. :        1.871      1.779      1.730      1.087      1.017      0.872      0.549      0.304
 eps  :        -7.208     -7.183     -7.173     -7.100     -7.094     -7.082     -7.051     -7.019
 #    :         794        795        796        797        798        799        800        801
 occ. :        0.285      0.169      0.135      0.115      0.114      0.006      0.002      0.001
 eps  :        -7.016     -6.990     -6.980     -6.972     -6.972     -6.844     -6.791     -6.778


   #   Z            q   n(s)   n(p)   n(d)      C6AA      α(0)
   1   7 N     -0.398  1.315  4.084  0.000    30.330     8.179
   2   6 C      0.041  1.056  2.903  0.000    19.897     6.353
   3   6 C      0.256  1.047  2.696  0.000    22.688     7.800
   4   8 O     -0.542  1.771  4.771  0.000    24.730     6.667
   5   6 C     -0.076  1.062  3.014  0.000    21.936     6.667
   6   6 C      0.008  1.082  2.910  0.000    27.838     8.654
   7   6 C     -0.041  1.082  2.959  0.000    29.009     8.832
   8   6 C     -0.039  1.084  2.954  0.000    28.961     8.825
   9   6 C     -0.032  1.080  2.952  0.000    28.795     8.800
  10   6 C     -0.030  1.080  2.950  0.000    28.748     8.792
  11   6 C     -0.034  1.080  2.954  0.000    28.840     8.807
  12   1 H      0.190  0.810  0.000  0.000     1.159     1.687
  13   1 H      0.015  0.985  0.000  0.000     2.809     2.621
  14   1 H      0.071  0.929  0.000  0.000     2.072     2.251
  15   1 H      0.059  0.941  0.000  0.000     2.210     2.325
  16   1 H      0.038  0.962  0.000  0.000     2.471     2.458
  17   1 H      0.028  0.972  0.000  0.000     2.621     2.532
  18   1 H      0.037  0.963  0.000  0.000     2.488     2.467
  19   1 H      0.034  0.966  0.000  0.000     2.526     2.486
  20   1 H      0.038  0.962  0.000  0.000     2.477     2.461
  21   7 N     -0.187  1.260  3.927  0.000    25.058     7.435
  22   6 C      0.049  1.048  2.903  0.000    19.759     6.329
  23   6 C      0.246  1.044  2.711  0.000    22.881     7.834
  24   8 O     -0.543  1.772  4.770  0.000    24.748     6.670
  25   6 C     -0.112  1.066  3.046  0.000    22.638     6.772
  26   6 C      0.288  1.043  2.669  0.000    22.116     7.701
  27   8 O     -0.492  1.778  4.713  0.000    23.600     6.513
  28   7 N     -0.317  1.330  3.987  0.000    28.161     7.881
  29   1 H      0.235  0.765  0.000  0.000     0.945     1.523
  30   1 H      0.058  0.942  0.000  0.000     2.228     2.334
  31   1 H      0.099  0.901  0.000  0.000     1.793     2.094
  32   1 H      0.091  0.909  0.000  0.000     1.865     2.136
  33   1 H      0.235  0.765  0.000  0.000     0.943     1.521
  34   1 H      0.244  0.756  0.000  0.000     0.907     1.492
  35   7 N     -0.217  1.279  3.938  0.000    25.730     7.534
  36   6 C      0.035  1.056  2.909  0.000    19.990     6.366
  37   6 C      0.269  1.044  2.687  0.000    22.465     7.763
  38   8 O     -0.559  1.763  4.796  0.000    25.123     6.720
  39   6 C     -0.083  1.063  3.020  0.000    22.086     6.691
  40   6 C     -0.058  1.048  3.009  0.000    21.614     6.620
  41   6 C     -0.086  1.052  3.034  0.000    22.136     6.699
  42   6 C     -0.033  1.055  2.979  0.000    21.266     6.583
  43   7 N     -0.129  1.225  3.905  0.000    23.799     7.246
  44   1 H      0.200  0.800  0.000  0.000     1.108     1.649
  45   1 H      0.075  0.925  0.000  0.000     2.027     2.227
  46   1 H      0.106  0.894  0.000  0.000     1.734     2.059
  47   1 H      0.056  0.944  0.000  0.000     2.250     2.346
  48   1 H      0.076  0.924  0.000  0.000     2.017     2.221
  49   1 H      0.000  1.000  0.000  0.000     3.050     2.731
  50   1 H      0.051  0.949  0.000  0.000     2.313     2.378
  51   1 H      0.106  0.894  0.000  0.000     1.728     2.056
  52   1 H      0.137  0.863  0.000  0.000     1.485     1.906
  53   1 H      0.064  0.936  0.000  0.000     2.155     2.296
  54   1 H      0.276  0.724  0.000  0.000     0.788     1.391
  55   1 H      0.262  0.738  0.000  0.000     0.840     1.436
  56   1 H      0.317  0.683  0.000  0.000     0.666     1.279
  57   7 N     -0.194  1.245  3.948  0.000    25.208     7.457
  58   6 C      0.061  1.051  2.888  0.000    19.544     6.292
  59   6 C      0.297  1.039  2.664  0.000    21.967     7.676
  60   8 O     -0.568  1.764  4.803  0.000    25.340     6.749
  61   6 C      0.001  1.055  2.944  0.000    20.532     6.445
  62   6 C     -0.059  1.047  3.011  0.000    21.626     6.621
  63   6 C     -0.094  1.036  3.058  0.000    22.342     6.739
  64   6 C     -0.108  1.038  3.070  0.000    22.620     6.783
  65   1 H      0.198  0.802  0.000  0.000     1.116     1.654
  66   1 H      0.023  0.977  0.000  0.000     2.688     2.564
  67   1 H      0.002  0.998  0.000  0.000     3.030     2.722
  68   1 H      0.059  0.941  0.000  0.000     2.213     2.326
  69   1 H      0.011  0.989  0.000  0.000     2.869     2.649
  70   1 H      0.057  0.943  0.000  0.000     2.236     2.338
  71   1 H      0.014  0.986  0.000  0.000     2.828     2.630
  72   1 H      0.043  0.957  0.000  0.000     2.409     2.427
  73   1 H      0.068  0.932  0.000  0.000     2.102     2.267
  74   1 H      0.031  0.969  0.000  0.000     2.578     2.511
  75   1 H      0.052  0.948  0.000  0.000     2.291     2.367
  76   7 N     -0.193  1.254  3.939  0.000    25.185     7.453
  77   6 C      0.052  1.053  2.895  0.000    19.705     6.319
  78   6 C      0.292  1.042  2.666  0.000    22.048     7.690
  79   8 O     -0.523  1.744  4.779  0.000    24.297     6.609
  80   6 C     -0.011  1.061  2.950  0.000    20.743     6.478
  81   6 C     -0.059  1.049  3.010  0.000    21.631     6.621
  82   6 C     -0.101  1.035  3.066  0.000    22.480     6.761
  83   6 C     -0.103  1.034  3.069  0.000    22.525     6.768
  84   1 H      0.237  0.763  0.000  0.000     0.935     1.515
  85   1 H      0.040  0.960  0.000  0.000     2.445     2.445
  86   1 H      0.040  0.960  0.000  0.000     2.448     2.447
  87   1 H      0.044  0.956  0.000  0.000     2.403     2.424
  88   1 H      0.052  0.948  0.000  0.000     2.300     2.372
  89   1 H      0.063  0.937  0.000  0.000     2.169     2.303
  90   1 H      0.021  0.979  0.000  0.000     2.720     2.579
  91   1 H      0.042  0.958  0.000  0.000     2.420     2.433
  92   1 H      0.060  0.940  0.000  0.000     2.202     2.321
  93   1 H      0.046  0.954  0.000  0.000     2.377     2.411
  94   1 H      0.013  0.987  0.000  0.000     2.850     2.640
  95   7 N     -0.205  1.258  3.947  0.000    25.457     7.493
  96   6 C      0.071  1.044  2.885  0.000    19.363     6.259
  97   6 C      0.266  1.037  2.697  0.000    22.515     7.771
  98   8 O     -0.529  1.740  4.789  0.000    24.432     6.627
  99   6 C     -0.007  1.066  2.941  0.000    20.705     6.479
 100  16 S     -0.296  1.941  4.311  0.044   153.857    20.877
 101   1 H      0.233  0.767  0.000  0.000     0.952     1.528
 102   1 H      0.046  0.954  0.000  0.000     2.368     2.407
 103   1 H      0.044  0.956  0.000  0.000     2.391     2.418
 104   1 H      0.065  0.935  0.000  0.000     2.145     2.291
 105   1 H      0.229  0.771  0.000  0.000     0.961     1.533
 106   7 N     -0.235  1.271  3.964  0.000    26.138     7.593
 107   6 C      0.058  1.050  2.892  0.000    19.612     6.305
 108   6 C      0.274  1.035  2.691  0.000    22.360     7.743
 109   8 O     -0.568  1.751  4.817  0.000    25.346     6.750
 110   6 C      0.115  1.028  2.857  0.000    18.905     6.229
 111   8 O     -0.453  1.692  4.761  0.000    21.909     6.319
 112   1 H      0.226  0.774  0.000  0.000     0.980     1.551
 113   1 H      0.059  0.941  0.000  0.000     2.214     2.327
 114   1 H      0.038  0.962  0.000  0.000     2.472     2.459
 115   1 H     -0.008  1.008  0.000  0.000     3.199     2.797
 116   1 H      0.280  0.720  0.000  0.000     0.784     1.391
 117   7 N     -0.206  1.254  3.953  0.000    25.490     7.498
 118   6 C      0.073  1.046  2.880  0.000    19.363     6.266
 119   6 C      0.274  1.041  2.685  0.000    22.371     7.746
 120   8 O     -0.542  1.733  4.809  0.000    24.736     6.668
 121   6 C     -0.061  1.054  3.007  0.000    21.669     6.626
 122   6 C     -0.003  1.054  2.949  0.000    20.597     6.455
 123   6 C     -0.105  1.037  3.068  0.000    22.560     6.772
 124   6 C     -0.105  1.040  3.065  0.000    22.556     6.771
 125   1 H      0.196  0.804  0.000  0.000     1.127     1.663
 126   1 H      0.003  0.997  0.000  0.000     3.006     2.712
 127   1 H      0.024  0.976  0.000  0.000     2.673     2.557
 128   1 H      0.054  0.946  0.000  0.000     2.269     2.356
 129   1 H      0.030  0.970  0.000  0.000     2.587     2.515
 130   1 H      0.074  0.926  0.000  0.000     2.040     2.233
 131   1 H      0.014  0.986  0.000  0.000     2.819     2.625
 132   1 H      0.029  0.971  0.000  0.000     2.597     2.520
 133   1 H      0.067  0.933  0.000  0.000     2.116     2.275
 134   1 H      0.038  0.962  0.000  0.000     2.473     2.459
 135   1 H      0.032  0.968  0.000  0.000     2.558     2.501
 136   7 N     -0.182  1.245  3.937  0.000    24.937     7.417
 137   6 C      0.038  1.057  2.905  0.000    19.932     6.356
 138   6 C      0.277  1.042  2.681  0.000    22.319     7.736
 139   8 O     -0.498  1.721  4.777  0.000    23.732     6.531
 140   6 C     -0.011  1.061  2.949  0.000    20.735     6.477
 141   6 C     -0.114  1.038  3.076  0.000    22.739     6.799
 142   6 C     -0.111  1.037  3.074  0.000    22.685     6.791
 143   1 H      0.210  0.790  0.000  0.000     1.058     1.611
 144   1 H      0.064  0.936  0.000  0.000     2.151     2.293
 145   1 H      0.059  0.941  0.000  0.000     2.212     2.326
 146   1 H      0.061  0.939  0.000  0.000     2.184     2.311
 147   1 H      0.045  0.955  0.000  0.000     2.390     2.417
 148   1 H      0.036  0.964  0.000  0.000     2.508     2.477
 149   1 H      0.069  0.931  0.000  0.000     2.098     2.265
 150   1 H      0.026  0.974  0.000  0.000     2.645     2.543
 151   1 H      0.040  0.960  0.000  0.000     2.451     2.448
 152   7 N     -0.189  1.251  3.938  0.000    25.101     7.441
 153   6 C      0.039  1.057  2.903  0.000    19.914     6.354
 154   6 C      0.276  1.042  2.682  0.000    22.330     7.739
 155   8 O     -0.472  1.731  4.741  0.000    23.179     6.455
 156   6 C     -0.048  1.048  3.000  0.000    21.431     6.590
 157   6 C     -0.094  1.065  3.030  0.000    22.302     6.724
 158   6 C      0.367  1.028  2.604  0.000    20.769     7.458
 159   8 O     -0.650  1.767  4.882  0.000    27.374     7.015
 160   8 O     -0.615  1.757  4.858  0.000    26.489     6.900
 161   1 H      0.224  0.776  0.000  0.000     0.990     1.558
 162   1 H      0.077  0.923  0.000  0.000     2.014     2.219
 163   1 H      0.024  0.976  0.000  0.000     2.676     2.558
 164   1 H      0.038  0.962  0.000  0.000     2.470     2.458
 165   1 H      0.047  0.953  0.000  0.000     2.352     2.398
 166   1 H      0.033  0.967  0.000  0.000     2.543     2.494
 167   7 N     -0.211  1.257  3.954  0.000    25.605     7.515
 168   6 C      0.061  1.047  2.892  0.000    19.566     6.298
 169   6 C      0.269  1.038  2.693  0.000    22.451     7.759
 170   8 O     -0.525  1.748  4.778  0.000    24.351     6.616
 171   6 C     -0.052  1.046  3.006  0.000    21.496     6.599
 172   6 C      0.286  1.035  2.680  0.000    22.160     7.708
 173   8 O     -0.493  1.736  4.756  0.000    23.628     6.517
 174   7 N     -0.291  1.268  4.023  0.000    27.509     7.790
 175   1 H      0.194  0.806  0.000  0.000     1.138     1.671
 176   1 H      0.065  0.935  0.000  0.000     2.140     2.288
 177   1 H      0.011  0.989  0.000  0.000     2.867     2.648
 178   1 H      0.027  0.973  0.000  0.000     2.633     2.537
 179   1 H      0.224  0.776  0.000  0.000     0.991     1.560
 180   1 H      0.200  0.800  0.000  0.000     1.107     1.648
 181   7 N     -0.199  1.254  3.945  0.000    25.332     7.475
 182   6 C      0.038  1.059  2.903  0.000    19.931     6.356
 183   6 C      0.269  1.043  2.689  0.000    22.463     7.762
 184   8 O     -0.455  1.711  4.744  0.000    22.806     6.403
 185   6 C     -0.014  1.063  2.951  0.000    20.798     6.486
 186   6 C     -0.020  1.038  2.982  0.000    20.925     6.513
 187   6 C     -0.123  1.040  3.083  0.000    22.922     6.826
 188   6 C     -0.089  1.032  3.058  0.000    22.269     6.730
 189   1 H      0.197  0.803  0.000  0.000     1.119     1.657
 190   1 H      0.065  0.935  0.000  0.000     2.144     2.290
 191   1 H      0.026  0.974  0.000  0.000     2.644     2.543
 192   1 H      0.020  0.980  0.000  0.000     2.739     2.588
 193   1 H     -0.038  1.038  0.000  0.000     3.800     3.048
 194   1 H      0.069  0.931  0.000  0.000     2.100     2.266
 195   1 H      0.065  0.935  0.000  0.000     2.143     2.289
 196   1 H      0.065  0.935  0.000  0.000     2.138     2.287
 197   1 H      0.012  0.988  0.000  0.000     2.853     2.642
 198   1 H      0.020  0.980  0.000  0.000     2.732     2.585
 199   1 H      0.070  0.930  0.000  0.000     2.086     2.259
 200   7 N     -0.189  1.249  3.940  0.000    25.102     7.441
 201   6 C      0.028  1.063  2.909  0.000    20.102     6.383
 202   6 C      0.277  1.042  2.682  0.000    22.318     7.737
 203   8 O     -0.464  1.715  4.748  0.000    22.995     6.429
 204   6 C     -0.019  1.063  2.956  0.000    20.872     6.498
 205   6 C     -0.055  1.048  3.008  0.000    21.564     6.612
 206   6 C     -0.116  1.038  3.078  0.000    22.781     6.805
 207   6 C     -0.110  1.035  3.075  0.000    22.661     6.789
 208   1 H      0.196  0.804  0.000  0.000     1.129     1.664
 209   1 H      0.079  0.921  0.000  0.000     1.986     2.204
 210   1 H      0.018  0.982  0.000  0.000     2.765     2.600
 211   1 H      0.008  0.992  0.000  0.000     2.916     2.670
 212   1 H      0.031  0.969  0.000  0.000     2.566     2.505
 213   1 H      0.061  0.939  0.000  0.000     2.182     2.310
 214   1 H      0.053  0.947  0.000  0.000     2.283     2.363
 215   1 H      0.070  0.930  0.000  0.000     2.089     2.260
 216   1 H      0.035  0.965  0.000  0.000     2.511     2.478
 217   1 H      0.065  0.935  0.000  0.000     2.144     2.290
 218   1 H      0.048  0.952  0.000  0.000     2.343     2.394
 219   7 N     -0.196  1.256  3.940  0.000    25.253     7.464
 220   6 C      0.030  1.063  2.907  0.000    20.069     6.378
 221   6 C      0.259  1.047  2.694  0.000    22.633     7.791
 222   8 O     -0.480  1.726  4.754  0.000    23.340     6.477
 223   6 C     -0.063  1.049  3.014  0.000    21.686     6.626
 224   6 C     -0.006  1.065  2.941  0.000    20.700     6.479
 225  16 S     -0.270  1.934  4.274  0.061   152.667    20.796
 226   6 C     -0.066  1.055  3.011  0.000    21.830     6.665
 227   1 H      0.211  0.789  0.000  0.000     1.052     1.607
 228   1 H      0.081  0.919  0.000  0.000     1.971     2.195
 229   1 H      0.039  0.961  0.000  0.000     2.457     2.451
 230   1 H      0.069  0.931  0.000  0.000     2.092     2.262
 231   1 H      0.075  0.925  0.000  0.000     2.027     2.226
 232   1 H      0.037  0.963  0.000  0.000     2.493     2.469
 233   1 H      0.082  0.918  0.000  0.000     1.960     2.189
 234   1 H      0.077  0.923  0.000  0.000     2.014     2.219
 235   1 H      0.078  0.922  0.000  0.000     2.001     2.212
 236   7 N     -0.083  1.235  3.848  0.000    22.861     7.101
 237   6 C      0.012  1.072  2.916  0.000    20.344     6.417
 238   6 C      0.267  1.041  2.692  0.000    22.498     7.767
 239   8 O     -0.445  1.718  4.727  0.000    22.598     6.373
 240   6 C     -0.068  1.054  3.014  0.000    21.771     6.638
 241   6 C     -0.054  1.045  3.009  0.000    21.515     6.599
 242   6 C      0.014  1.042  2.945  0.000    20.381     6.433
 243   1 H      0.093  0.907  0.000  0.000     1.852     2.128
 244   1 H      0.053  0.947  0.000  0.000     2.284     2.364
 245   1 H      0.091  0.909  0.000  0.000     1.873     2.140
 246   1 H      0.014  0.986  0.000  0.000     2.820     2.626
 247   1 H      0.060  0.940  0.000  0.000     2.205     2.322
 248   1 H      0.015  0.985  0.000  0.000     2.809     2.621
 249   1 H      0.048  0.952  0.000  0.000     2.347     2.396
 250   7 N     -0.182  1.248  3.934  0.000    24.944     7.418
 251   6 C      0.014  1.066  2.920  0.000    20.338     6.421
 252   6 C      0.274  1.040  2.686  0.000    22.372     7.746
 253   8 O     -0.469  1.732  4.737  0.000    23.106     6.445
 254   6 C     -0.086  1.061  3.025  0.000    22.137     6.697
 255   6 C     -0.021  1.057  2.964  0.000    20.911     6.504
 256   6 C     -0.111  1.042  3.070  0.000    22.681     6.790
 257   6 C     -0.138  1.046  3.091  0.000    23.202     6.868
 258   1 H      0.206  0.794  0.000  0.000     1.074     1.624
 259   1 H      0.082  0.918  0.000  0.000     1.964     2.191
 260   1 H      0.058  0.942  0.000  0.000     2.226     2.333
 261   1 H      0.073  0.927  0.000  0.000     2.057     2.243
 262   1 H      0.038  0.962  0.000  0.000     2.477     2.461
 263   1 H      0.041  0.959  0.000  0.000     2.438     2.442
 264   1 H      0.009  0.991  0.000  0.000     2.910     2.668
 265   1 H      0.057  0.943  0.000  0.000     2.240     2.341
 266   1 H      0.053  0.947  0.000  0.000     2.281     2.362
 267   1 H      0.065  0.935  0.000  0.000     2.142     2.289
 268   1 H      0.059  0.941  0.000  0.000     2.211     2.325
 269   7 N     -0.185  1.250  3.935  0.000    25.008     7.427
 270   6 C      0.014  1.069  2.917  0.000    20.343     6.421
 271   6 C      0.284  1.038  2.678  0.000    22.182     7.712
 272   8 O     -0.487  1.745  4.743  0.000    23.506     6.500
 273   6 C     -0.022  1.066  2.956  0.000    20.928     6.507
 274   6 C     -0.070  1.053  3.017  0.000    21.834     6.652
 275   6 C     -0.117  1.039  3.078  0.000    22.796     6.808
 276   6 C     -0.107  1.036  3.071  0.000    22.607     6.781
 277   1 H      0.220  0.780  0.000  0.000     1.007     1.572
 278   1 H      0.073  0.927  0.000  0.000     2.048     2.238
 279   1 H      0.036  0.964  0.000  0.000     2.510     2.477
 280   1 H      0.051  0.949  0.000  0.000     2.302     2.373
 281   1 H      0.043  0.957  0.000  0.000     2.414     2.430
 282   1 H      0.059  0.941  0.000  0.000     2.211     2.325
 283   1 H      0.038  0.962  0.000  0.000     2.477     2.461
 284   1 H      0.056  0.944  0.000  0.000     2.246     2.343
 285   1 H      0.040  0.960  0.000  0.000     2.447     2.446
 286   1 H      0.020  0.980  0.000  0.000     2.727     2.582
 287   1 H      0.054  0.946  0.000  0.000     2.266     2.354
 288   7 N     -0.179  1.239  3.940  0.000    24.882     7.408
 289   6 C     -0.030  1.051  2.979  0.000    21.179     6.566
 290   6 C      0.277  1.038  2.685  0.000    22.312     7.735
 291   8 O     -0.502  1.739  4.763  0.000    23.829     6.545
 292   1 H      0.211  0.789  0.000  0.000     1.052     1.606
 293   1 H      0.081  0.919  0.000  0.000     1.966     2.193
 294   1 H      0.087  0.913  0.000  0.000     1.909     2.160
 295   7 N     -0.165  1.239  3.926  0.000    24.577     7.363
 296   6 C      0.019  1.061  2.920  0.000    20.254     6.409
 297   6 C      0.186  1.076  2.738  0.000    24.004     8.024
 298   8 O     -0.404  1.749  4.655  0.000    21.754     6.253
 299   6 C     -0.080  1.058  3.022  0.000    22.013     6.679
 300   6 C     -0.089  1.055  3.035  0.000    22.203     6.708
 301   6 C     -0.098  1.055  3.043  0.000    22.364     6.733
 302   6 C     -0.049  1.058  2.992  0.000    21.558     6.628
 303   7 N     -0.145  1.229  3.916  0.000    24.135     7.297
 304   1 H      0.215  0.785  0.000  0.000     1.032     1.591
 305   1 H      0.102  0.898  0.000  0.000     1.767     2.079
 306   1 H      0.060  0.940  0.000  0.000     2.198     2.318
 307   1 H      0.083  0.917  0.000  0.000     1.949     2.183
 308   1 H      0.064  0.936  0.000  0.000     2.150     2.293
 309   1 H      0.066  0.934  0.000  0.000     2.129     2.282
 310   1 H      0.077  0.923  0.000  0.000     2.014     2.219
 311   1 H      0.097  0.903  0.000  0.000     1.815     2.107
 312   1 H      0.101  0.899  0.000  0.000     1.778     2.085
 313   1 H      0.115  0.885  0.000  0.000     1.658     2.013
 314   1 H      0.295  0.705  0.000  0.000     0.729     1.338
 315   1 H      0.306  0.694  0.000  0.000     0.694     1.305
 316   1 H      0.294  0.706  0.000  0.000     0.732     1.340
 317   7 N     -0.396  1.308  4.088  0.000    30.268     8.171
 318   6 C      0.028  1.061  2.911  0.000    20.121     6.389
 319   6 C      0.266  1.049  2.685  0.000    22.506     7.769
 320   8 O     -0.512  1.749  4.763  0.000    24.051     6.575
 321   6 C     -0.021  1.064  2.958  0.000    20.920     6.505
 322   6 C     -0.055  1.048  3.008  0.000    21.569     6.612
 323   6 C     -0.116  1.039  3.077  0.000    22.775     6.805
 324   6 C     -0.107  1.036  3.070  0.000    22.602     6.780
 325   1 H      0.165  0.835  0.000  0.000     1.305     1.789
 326   1 H      0.046  0.954  0.000  0.000     2.372     2.408
 327   1 H      0.031  0.969  0.000  0.000     2.576     2.510
 328   1 H      0.037  0.963  0.000  0.000     2.484     2.465
 329   1 H      0.008  0.992  0.000  0.000     2.921     2.673
 330   1 H      0.054  0.946  0.000  0.000     2.265     2.353
 331   1 H      0.049  0.951  0.000  0.000     2.339     2.391
 332   1 H      0.051  0.949  0.000  0.000     2.304     2.373
 333   1 H      0.032  0.968  0.000  0.000     2.554     2.499
 334   1 H      0.030  0.970  0.000  0.000     2.589     2.516
 335   1 H      0.057  0.943  0.000  0.000     2.233     2.337
 336   7 N     -0.174  1.246  3.928  0.000    24.769     7.392
 337   6 C      0.026  1.065  2.909  0.000    20.133     6.389
 338   6 C      0.166  1.064  2.771  0.000    24.417     8.092
 339   8 O     -0.466  1.759  4.706  0.000    23.039     6.435
 340   6 C     -0.022  1.069  2.953  0.000    20.925     6.506
 341   6 C     -0.047  1.046  3.000  0.000    21.409     6.587
 342   6 C     -0.116  1.038  3.078  0.000    22.782     6.806
 343   6 C     -0.105  1.037  3.068  0.000    22.573     6.776
 344   1 H      0.217  0.783  0.000  0.000     1.024     1.585
 345   1 H      0.048  0.952  0.000  0.000     2.341     2.393
 346   1 H      0.054  0.946  0.000  0.000     2.276     2.359
 347   1 H      0.023  0.977  0.000  0.000     2.695     2.567
 348   1 H      0.015  0.985  0.000  0.000     2.818     2.625
 349   1 H      0.054  0.946  0.000  0.000     2.270     2.356
 350   1 H      0.061  0.939  0.000  0.000     2.182     2.310
 351   1 H      0.030  0.970  0.000  0.000     2.590     2.517
 352   1 H      0.024  0.976  0.000  0.000     2.673     2.557
 353   1 H      0.047  0.953  0.000  0.000     2.355     2.400
 354   1 H      0.044  0.956  0.000  0.000     2.400     2.423
 355   7 N     -0.398  1.319  4.079  0.000    30.325     8.179
 356   6 C      0.043  1.057  2.900  0.000    19.867     6.348
 357   6 C      0.275  1.047  2.677  0.000    22.348     7.742
 358   8 O     -0.515  1.749  4.766  0.000    24.114     6.584
 359   6 C     -0.079  1.058  3.021  0.000    21.988     6.674
 360   6 C      0.008  1.085  2.907  0.000    27.842     8.655
 361   6 C     -0.037  1.079  2.958  0.000    28.923     8.819
 362   6 C     -0.042  1.082  2.961  0.000    29.051     8.839
 363   6 C     -0.032  1.079  2.953  0.000    28.797     8.800
 364   6 C     -0.036  1.080  2.956  0.000    28.885     8.813
 365   6 C     -0.035  1.079  2.956  0.000    28.875     8.812
 366   1 H      0.157  0.843  0.000  0.000     1.354     1.823
 367   1 H      0.035  0.965  0.000  0.000     2.516     2.481
 368   1 H      0.060  0.940  0.000  0.000     2.200     2.320
 369   1 H      0.060  0.940  0.000  0.000     2.199     2.319
 370   1 H      0.036  0.964  0.000  0.000     2.506     2.475
 371   1 H      0.025  0.975  0.000  0.000     2.653     2.547
 372   1 H      0.042  0.958  0.000  0.000     2.427     2.436
 373   1 H      0.032  0.968  0.000  0.000     2.558     2.501
 374   1 H      0.041  0.959  0.000  0.000     2.429     2.437
 375   7 N     -0.178  1.248  3.930  0.000    24.859     7.405
 376   6 C      0.037  1.050  2.913  0.000    19.949     6.359
 377   6 C      0.282  1.042  2.676  0.000    22.219     7.720
 378   8 O     -0.494  1.741  4.754  0.000    23.663     6.522
 379   6 C     -0.115  1.040  3.075  0.000    22.758     6.801
 380   1 H      0.231  0.769  0.000  0.000     0.960     1.535
 381   1 H      0.062  0.938  0.000  0.000     2.172     2.305
 382   1 H      0.036  0.964  0.000  0.000     2.509     2.477
 383   1 H      0.068  0.932  0.000  0.000     2.108     2.270
 384   1 H      0.057  0.943  0.000  0.000     2.238     2.339
 385   7 N     -0.183  1.248  3.936  0.000    24.973     7.422
 386   6 C      0.039  1.055  2.905  0.000    19.913     6.354
 387   6 C      0.181  1.066  2.753  0.000    24.120     8.043
 388   8 O     -0.428  1.757  4.672  0.000    22.254     6.325
 389   6 C     -0.070  1.058  3.012  0.000    21.829     6.650
 390   6 C     -0.008  1.054  2.954  0.000    20.678     6.468
 391   6 C     -0.105  1.039  3.066  0.000    22.570     6.774
 392   6 C     -0.116  1.043  3.072  0.000    22.764     6.802
 393   1 H      0.213  0.787  0.000  0.000     1.043     1.600
 394   1 H      0.049  0.951  0.000  0.000     2.327     2.386
 395   1 H      0.044  0.956  0.000  0.000     2.401     2.423
 396   1 H      0.055  0.945  0.000  0.000     2.257     2.349
 397   1 H      0.038  0.962  0.000  0.000     2.482     2.464
 398   1 H      0.049  0.951  0.000  0.000     2.339     2.391
 399   1 H      0.028  0.972  0.000  0.000     2.615     2.529
 400   1 H      0.028  0.972  0.000  0.000     2.616     2.529
 401   1 H      0.053  0.947  0.000  0.000     2.278     2.360
 402   1 H      0.034  0.966  0.000  0.000     2.524     2.484
 403   1 H      0.049  0.951  0.000  0.000     2.332     2.388
 404   7 N     -0.404  1.318  4.086  0.000    30.477     8.199
 405   6 C      0.032  1.065  2.902  0.000    20.044     6.377
 406   6 C      0.278  1.048  2.674  0.000    22.301     7.733
 407   8 O     -0.516  1.751  4.765  0.000    24.136     6.587
 408   6 C     -0.021  1.069  2.952  0.000    20.909     6.504
 409   6 C     -0.055  1.049  3.007  0.000    21.568     6.612
 410   6 C     -0.107  1.034  3.072  0.000    22.597     6.778
 411   6 C     -0.111  1.038  3.073  0.000    22.686     6.792
 412   1 H      0.168  0.832  0.000  0.000     1.286     1.776
 413   1 H      0.039  0.961  0.000  0.000     2.459     2.452
 414   1 H      0.042  0.958  0.000  0.000     2.425     2.435
 415   1 H      0.010  0.990  0.000  0.000     2.893     2.660
 416   1 H      0.035  0.965  0.000  0.000     2.519     2.482
 417   1 H      0.043  0.957  0.000  0.000     2.406     2.426
 418   1 H      0.042  0.958  0.000  0.000     2.422     2.434
 419   1 H      0.026  0.974  0.000  0.000     2.646     2.544
 420   1 H      0.045  0.955  0.000  0.000     2.385     2.415
 421   1 H      0.054  0.946  0.000  0.000     2.269     2.356
 422   1 H      0.036  0.964  0.000  0.000     2.505     2.475
 423   7 N     -0.180  1.252  3.927  0.000    24.888     7.409
 424   6 C      0.046  1.056  2.897  0.000    19.798     6.336
 425   6 C      0.200  1.070  2.730  0.000    23.736     7.979
 426   8 O     -0.422  1.752  4.671  0.000    22.133     6.308
 427   6 C     -0.070  1.053  3.017  0.000    21.823     6.649
 428   6 C      0.013  1.083  2.904  0.000    27.730     8.638
 429   6 C     -0.037  1.078  2.959  0.000    28.931     8.821
 430   6 C     -0.039  1.082  2.957  0.000    28.965     8.826
 431   6 C     -0.031  1.078  2.953  0.000    28.773     8.796
 432   6 C     -0.032  1.080  2.952  0.000    28.795     8.800
 433   6 C     -0.036  1.079  2.957  0.000    28.890     8.814
 434   1 H      0.227  0.773  0.000  0.000     0.979     1.550
 435   1 H      0.045  0.955  0.000  0.000     2.380     2.412
 436   1 H      0.044  0.956  0.000  0.000     2.393     2.419
 437   1 H      0.068  0.932  0.000  0.000     2.109     2.271
 438   1 H      0.010  0.990  0.000  0.000     2.887     2.657
 439   1 H      0.043  0.957  0.000  0.000     2.408     2.427
 440   1 H      0.012  0.988  0.000  0.000     2.856     2.643
 441   1 H      0.056  0.944  0.000  0.000     2.241     2.341
 442   1 H      0.042  0.958  0.000  0.000     2.428     2.437
 443   7 N     -0.605  1.549  4.056  0.000    37.895     9.116
 444   6 C      0.099  1.062  2.839  0.000    18.959     6.201
 445   6 C     -0.004  1.379  2.625  0.000    31.277     9.035
 446   8 O     -0.513  1.814  4.700  0.000    24.082     6.579
 447   6 C      0.003  1.062  2.934  0.000    20.485     6.437
 448   6 C     -0.083  1.037  3.046  0.000    22.129     6.707
 449   6 C     -0.083  1.037  3.046  0.000    22.136     6.708
 450   1 H      0.069  0.931  0.000  0.000     2.112     2.277
 451   1 H     -0.033  1.033  0.000  0.000     3.691     3.004
 452   1 H      0.013  0.987  0.000  0.000     2.842     2.636
 453   1 H      0.019  0.981  0.000  0.000     2.756     2.596
 454   1 H      0.019  0.981  0.000  0.000     2.754     2.595
 455   1 H      0.008  0.992  0.000  0.000     2.918     2.672
 456   1 H      0.028  0.972  0.000  0.000     2.613     2.528
 457   1 H      0.008  0.992  0.000  0.000     2.916     2.670
 458   1 H      0.043  0.957  0.000  0.000     2.405     2.425
 459   7 N     -0.566  1.513  4.053  0.000    36.531     8.950
 460   6 C      0.084  1.072  2.844  0.000    19.206     6.243
 461   6 C      0.030  1.345  2.625  0.000    30.394     8.906
 462   8 O     -0.427  1.781  4.646  0.000    22.225     6.321
 463   6 C     -0.012  1.041  2.971  0.000    20.785     6.489
 464   6 C     -0.027  1.077  2.951  0.000    28.631     8.775
 465   6 C     -0.006  1.067  2.939  0.000    28.134     8.700
 466   6 C     -0.019  1.079  2.941  0.000    28.323     8.717
 467   7 N     -0.125  1.233  3.892  0.000    23.713     7.232
 468   6 C      0.047  1.061  2.892  0.000    26.836     8.491
 469   6 C     -0.029  1.074  2.955  0.000    28.735     8.790
 470   6 C     -0.062  1.073  2.989  0.000    29.551     8.914
 471   6 C     -0.044  1.073  2.970  0.000    29.085     8.844
 472   6 C     -0.045  1.077  2.969  0.000    29.128     8.851
 473   1 H      0.020  0.980  0.000  0.000     2.752     2.599
 474   1 H      0.014  0.986  0.000  0.000     2.834     2.633
 475   1 H     -0.023  1.023  0.000  0.000     3.496     2.924
 476   1 H     -0.001  1.001  0.000  0.000     3.067     2.739
 477   1 H      0.044  0.956  0.000  0.000     2.391     2.418
 478   1 H      0.210  0.790  0.000  0.000     1.058     1.611
 479   1 H     -0.029  1.029  0.000  0.000     3.606     2.970
 480   1 H      0.052  0.948  0.000  0.000     2.297     2.370
 481   1 H      0.007  0.993  0.000  0.000     2.937     2.680
 482   1 H      0.039  0.961  0.000  0.000     2.469     2.457
 483   7 N     -0.603  1.536  4.067  0.000    37.812     9.106
 484   6 C      0.068  1.055  2.877  0.000    19.463     6.283
 485   6 C      0.265  1.077  2.658  0.000    22.532     7.773
 486   8 O     -0.511  1.748  4.763  0.000    24.032     6.573
 487   6 C     -0.015  1.074  2.941  0.000    20.814     6.489
 488   6 C     -0.033  1.042  2.992  0.000    21.168     6.550
 489   6 C     -0.104  1.037  3.066  0.000    22.536     6.769
 490   6 C     -0.100  1.038  3.061  0.000    22.464     6.759
 491   1 H      0.070  0.930  0.000  0.000     2.099     2.270
 492   1 H     -0.041  1.041  0.000  0.000     3.888     3.084
 493   1 H      0.042  0.958  0.000  0.000     2.417     2.431
 494   1 H     -0.030  1.030  0.000  0.000     3.629     2.979
 495   1 H     -0.012  1.012  0.000  0.000     3.283     2.834
 496   1 H      0.039  0.961  0.000  0.000     2.459     2.452
 497   1 H      0.075  0.925  0.000  0.000     2.028     2.227
 498   1 H      0.010  0.990  0.000  0.000     2.893     2.660
 499   1 H      0.013  0.987  0.000  0.000     2.838     2.634
 500   1 H      0.054  0.946  0.000  0.000     2.274     2.358
 501   1 H      0.049  0.951  0.000  0.000     2.331     2.388
 502   7 N     -0.218  1.289  3.929  0.000    25.762     7.538
 503   6 C      0.049  1.050  2.901  0.000    19.758     6.331
 504   6 C      0.272  1.051  2.677  0.000    22.401     7.751
 505   8 O     -0.527  1.765  4.763  0.000    24.398     6.622
 506   6 C     -0.048  1.049  2.999  0.000    21.436     6.592
 507   6 C     -0.068  1.050  3.018  0.000    21.798     6.647
 508   6 C     -0.087  1.050  3.037  0.000    22.155     6.701
 509   6 C     -0.054  1.063  2.990  0.000    21.633     6.639
 510   7 N     -0.117  1.221  3.896  0.000    23.544     7.207
 511   1 H      0.171  0.829  0.000  0.000     1.269     1.765
 512   1 H      0.039  0.961  0.000  0.000     2.469     2.457
 513   1 H      0.008  0.992  0.000  0.000     2.918     2.671
 514   1 H      0.022  0.978  0.000  0.000     2.708     2.574
 515   1 H      0.067  0.933  0.000  0.000     2.124     2.279
 516   1 H      0.072  0.928  0.000  0.000     2.069     2.249
 517   1 H      0.069  0.931  0.000  0.000     2.100     2.266
 518   1 H      0.063  0.937  0.000  0.000     2.162     2.299
 519   1 H      0.127  0.873  0.000  0.000     1.560     1.954
 520   1 H      0.139  0.861  0.000  0.000     1.466     1.893
 521   1 H      0.317  0.683  0.000  0.000     0.665     1.277
 522   1 H      0.267  0.733  0.000  0.000     0.822     1.420
 523   1 H      0.272  0.728  0.000  0.000     0.804     1.404
 524   7 N     -0.215  1.278  3.937  0.000    25.678     7.526
 525   6 C      0.077  1.068  2.855  0.000    19.298     6.255
 526   6 C     -0.052  1.363  2.689  0.000    32.571     9.220
 527   8 O     -0.586  1.810  4.775  0.000    25.766     6.806
 528   6 C     -0.011  1.039  2.972  0.000    20.759     6.485
 529   6 C     -0.004  1.084  2.920  0.000    28.119     8.698
 530   6 C     -0.036  1.077  2.959  0.000    28.884     8.813
 531   6 C     -0.024  1.075  2.948  0.000    28.598     8.770
 532   6 C     -0.062  1.073  2.989  0.000    29.535     8.912
 533   6 C     -0.066  1.075  2.991  0.000    29.632     8.926
 534   6 C      0.143  1.043  2.814  0.000    24.885     8.176
 535   8 O     -0.399  1.699  4.700  0.000    20.829     6.161
 536   1 H      0.167  0.833  0.000  0.000     1.292     1.781
 537   1 H      0.008  0.992  0.000  0.000     2.927     2.675
 538   1 H     -0.033  1.033  0.000  0.000     3.691     3.004
 539   1 H     -0.000  1.000  0.000  0.000     3.063     2.737
 540   1 H     -0.002  1.002  0.000  0.000     3.085     2.746
 541   1 H     -0.018  1.018  0.000  0.000     3.396     2.882
 542   1 H      0.068  0.932  0.000  0.000     2.108     2.270
 543   1 H      0.044  0.956  0.000  0.000     2.401     2.423
 544   1 H      0.354  0.646  0.000  0.000     0.579     1.195
 545   7 N     -0.702  1.567  4.134  0.000    41.534     9.543
 546   6 C      0.090  1.056  2.854  0.000    19.106     6.227
 547   6 C      0.272  1.069  2.659  0.000    22.406     7.751
 548   8 O     -0.592  1.778  4.814  0.000    25.918     6.826
 549   6 C     -0.013  1.055  2.957  0.000    20.794     6.491
 550   6 C     -0.007  1.062  2.945  0.000    20.663     6.466
 551   6 C     -0.111  1.044  3.067  0.000    22.671     6.788
 552   6 C     -0.097  1.036  3.060  0.000    22.400     6.748
 553   1 H      0.025  0.975  0.000  0.000     2.679     2.564
 554   1 H     -0.040  1.040  0.000  0.000     3.853     3.070
 555   1 H      0.007  0.993  0.000  0.000     2.942     2.683
 556   1 H     -0.053  1.053  0.000  0.000     4.156     3.188
 557   1 H      0.021  0.979  0.000  0.000     2.721     2.580
 558   1 H      0.072  0.928  0.000  0.000     2.059     2.244
 559   1 H      0.039  0.961  0.000  0.000     2.462     2.454
 560   1 H      0.027  0.973  0.000  0.000     2.624     2.533
 561   1 H      0.062  0.938  0.000  0.000     2.175     2.306
 562   1 H      0.008  0.992  0.000  0.000     2.923     2.674
 563   1 H      0.012  0.988  0.000  0.000     2.854     2.642
 564   7 N     -0.249  1.307  3.942  0.000    26.491     7.644
 565   6 C      0.110  1.058  2.832  0.000    18.784     6.172
 566   6 C     -0.093  1.387  2.705  0.000    33.717     9.381
 567   8 O     -0.588  1.820  4.768  0.000    25.822     6.813
 568   6 C     -0.028  1.047  2.981  0.000    21.059     6.532
 569   6 C      0.019  1.089  2.892  0.000    27.578     8.614
 570   6 C     -0.014  1.069  2.945  0.000    28.363     8.734
 571   6 C     -0.040  1.083  2.957  0.000    28.995     8.831
 572   6 C     -0.026  1.075  2.951  0.000    28.659     8.779
 573   6 C     -0.035  1.081  2.954  0.000    28.877     8.812
 574   6 C     -0.037  1.078  2.960  0.000    28.929     8.820
 575   1 H      0.189  0.811  0.000  0.000     1.163     1.689
 576   1 H     -0.079  1.079  0.000  0.000     4.877     3.454
 577   1 H     -0.013  1.013  0.000  0.000     3.290     2.837
 578   1 H      0.026  0.974  0.000  0.000     2.651     2.546
 579   1 H     -0.048  1.048  0.000  0.000     4.033     3.141
 580   1 H      0.040  0.960  0.000  0.000     2.445     2.445
 581   1 H      0.013  0.987  0.000  0.000     2.842     2.636
 582   1 H      0.084  0.916  0.000  0.000     1.936     2.176
 583   1 H      0.066  0.934  0.000  0.000     2.135     2.285
 584   7 N     -0.618  1.528  4.090  0.000    38.367     9.172
 585   6 C      0.093  1.065  2.842  0.000    19.061     6.219
 586   6 C     -0.022  1.399  2.624  0.000    31.754     9.104
 587   8 O     -0.488  1.771  4.716  0.000    23.513     6.501
 588   6 C      0.158  1.027  2.816  0.000    18.244     6.118
 589   8 O     -0.527  1.720  4.807  0.000    23.474     6.540
 590   1 H      0.050  0.950  0.000  0.000     2.336     2.394
 591   1 H     -0.035  1.035  0.000  0.000     3.750     3.029
 592   1 H     -0.027  1.027  0.000  0.000     3.577     2.958
 593   1 H     -0.052  1.052  0.000  0.000     4.140     3.182
 594   1 H      0.292  0.708  0.000  0.000     0.748     1.359
 595   1 H      0.177  0.823  0.000  0.000     1.231     1.738
 596   1 H      0.047  0.953  0.000  0.000     2.363     2.404
 597   1 H      0.191  0.809  0.000  0.000     1.151     1.680
 598   1 H      0.045  0.955  0.000  0.000     2.382     2.413
 599   1 H      0.186  0.814  0.000  0.000     1.178     1.700
 600   1 H      0.044  0.956  0.000  0.000     2.396     2.420
 601   1 H      0.183  0.817  0.000  0.000     1.194     1.712
 602   1 H      0.049  0.951  0.000  0.000     2.329     2.387

 Mol. C6AA /au·bohr⁶  :    3446884.671595
 Mol. C8AA /au·bohr⁸  :   77600946.924256
 Mol. α(0) /au        :       2800.705254

 
molecular dipole:
                 x           y           z       tot (Debye)
 q only:     -625.245    -197.485      -4.635
   full:     -626.363    -202.024      -9.477    1673.025
molecular quadrupole (traceless):
                xx          xy          yy          xz          yz          zz
 q only:   -62419.285  -31404.005   26078.749      -5.642     266.798   36340.536
  q+dip:   -62478.136  -32244.353   25914.625    -882.859     -87.863   36563.510
   full:   -62480.379  -32245.013   25915.422    -883.024     -84.686   36564.957
speedup  1.97
cpu  time for grad    2 m 41.8 s
wall time for grad    1 m 22.0 s

SCC energy    :    -892.2792439
rep           :      11.0129180
ES            :       4.0847366
AES           :      -0.2867833
AXC           :       0.3369403
disp          :      -0.8725663
XB            :       0.0000000
fix           :       0.0000000
Gborn         :       0.0000000
Gsasa         :       0.0000000
Ghb           :       0.0000000
Gshift        :       0.0000000
Gsolv         :      -1.9867758    -1246.72
Etot ala COSMO:    -892.2792439
grad norm     :       0.4802880
total E       :    -881.1671183
atomizationE  :     170.3857732   106918.69
(atE without considering molecular charge,
 total energy contains solvation terms)
H-L gap (eV)  :          0.0126

------------------------------------------------------------------------
 * finished run on 2019/05/11 at 09:40:58.230     
------------------------------------------------------------------------
 total:
 * wall-time:     0 d,  0 h,  1 min, 24.117 sec
 *  cpu-time:     0 d,  0 h,  2 min, 45.668 sec
 * ratio c/w:     1.969 speedup
 SCF:
 * wall-time:     0 d,  0 h,  1 min, 23.722 sec
 *  cpu-time:     0 d,  0 h,  2 min, 45.045 sec
 * ratio c/w:     1.971 speedup

