      -----------------------------------------------------------      
     |                   =====================                   |     
     |                           x T B                           |     
     |                   =====================                   |     
     |                         S. Grimme                         |     
     |          Mulliken Center for Theoretical Chemistry        |     
     |                    University of Bonn                     |     
     |                 Version 6.0.1 (SAW181210)                 |     
      -----------------------------------------------------------      

   This program is distributed in the hope that it will be useful,
   but WITHOUT ANY WARRANTY; without even the implied warranty of
   MERCHANTABILITY or FITNESS FOR A PARTICULAR PURPOSE.
   
   FOR NON-COMMERCIAL, ACADEMIA USE ONLY.
   
   Cite this work as:
   S. Grimme, C. Bannwarth, P. Shushkov, J. Comput. Theory Chem., 2017,
   13, 1989-2009.
   C. Bannwarth, S. Ehlert and S. Grimme., ChemRxiv, 2018, preprint.
   http://doi.org/10.26434/chemrxiv.7246238.v1
   
   for sTDA-xTB:
   S. Grimme and C. Bannwarth, J. Chem. Phys., 2016, 145, 054103.
   
   in the mass-spec context:
   V. Asgeirsson, C. Bauer and S. Grimme, Chem. Sci., 2017, 8, 4879.
   
   if GBSA is used:
   P. Shushkov, F. März and S. Grimme, unpublished.
   
   for ANC optimizer:
   S. Grimme, unpublished.
   Rational Function algorithm used in ANCopt:
   F. Eckert, P. Pulay, H.-J. Werner, J. Comput. Chem., 1997, 18, 1473.
   
   with help from (in alphabetical order)
   C. Bannwarth, F. Bohle, G. Brandenburg, E. Caldeweyher, M. Checinski,
   S. Dohm, S. Ehlert, S. Ehrlich, F. März, H. Neugebauer, J. Pisarek,
   P. Pracht, P. Shushkov, and S. Spicher.
   
 * started run on 2019/05/04 at 19:50:17.412     
========================================================================
 # omp threads = 2
========================================================================
number of atoms            : 391
number of electrons        : 1062
charge                     : -2
spin                       : .0
first test random number   : .2752

########################################################################
# WARNING! Please study the warnings concerning your input carefully
#  - Process number higher than OMP_NUM_THREADS, I hope you know what you are doing.
########################################################################

           ------------------------------------------------- 
          |                 G F N 2 - x T B                 |
          | Geometry, Frequencies, Noncovalent interactions |
          |            JCTC 2018 parametrisation            |
           ------------------------------------------------- 
 
      method parameters     
 k(s)        :  1.8500
 k(p)        :  2.2300
 k(d)        :  2.2300
 k(f)        :  2.0000
 kEN (H0ij)  : -2.0000
 D4 a1       :  0.5200
 D4 a2       :  5.0000
 D4 s6       :  1.0000
 D4 s8       :  2.7000
 D4 s9       :  5.0000
 alphaj      :  2.0000

 Solvent             : h2o
 Using internal parameter file: .param_gbsa2_h2o
 Gsolv ref. state (COSMO-RS): gsolv [1 M gas/solution]
 temperature (mdtemp)       :    298.150000000000     
 dielectric constant        :    80.2000000000000     
 rho                        :    1.00000000000000     
 mass                       :    18.0000000000000     
 surface tension            :    15.5689454083859     
 probe radius               :   0.975313790000000     
 vdW radii scaling          :    1.00000000000000     
 Gshift (Eh)                :   1.857443126794793E-003
 c1                         :    1.55243817000000     
 soset                      :   0.130326360000000     
 HB correction              :  T

            Z     q(EN)     CN     RAES       Cart. coordinates
     1  N   5.0   -0.21    3.24    1.96    35.92369    42.67190     4.20275
     2  C   4.0    0.02    4.25    4.09    37.49027    40.50817     4.79801
     3  C   4.0    0.07    3.20    3.04    35.76684    38.36711     5.75233
     4  O   6.0   -0.31    1.13    1.80    33.81287    38.81686     6.91451
     5  C   4.0   -0.03    4.21    4.03    39.47449    41.17524     6.92396
     6  C   4.0   -0.08    4.13    3.86    41.48704    42.82119     5.83169
     7  C   4.0   -0.08    4.06    3.73    38.29719    42.53206     9.30501
     8  H   1.0    0.09    1.02    1.43    34.55553    43.17457     5.44241
     9  H   1.0    0.03    1.05    1.44    38.48994    39.91290     3.09537
    10  H   1.0    0.04    1.05    1.44    40.27951    39.37055     7.53245
    11  H   1.0    0.05    1.01    1.43    42.82686    43.37110     7.27733
    12  H   1.0    0.04    1.00    1.43    42.52639    41.83286     4.36149
    13  H   1.0    0.03    1.01    1.43    40.65745    44.50683     5.00021
    14  H   1.0    0.04    1.00    1.43    39.56519    42.32608    10.89805
    15  H   1.0    0.03    1.00    1.43    37.97971    44.51627     8.88927
    16  H   1.0    0.05    1.00    1.43    36.48494    41.68546     9.76988
    17  N   5.0   -0.14    3.48    2.06    38.06286    33.49161    10.54278
    18  C   4.0    0.03    4.50    4.54    40.40423    32.92092    11.85047
    19  C   4.0    0.14    3.51    3.12    40.36077    30.22806    12.74809
    20  O   6.0   -0.29    1.25    1.80    38.36522    29.03753    12.97675
    21  C   4.0   -0.04    4.31    4.23    40.47415    34.75206    14.12003
    22  C   4.0   -0.04    4.26    4.12    37.74539    35.67614    14.34869
    23  C   4.0   -0.01    4.26    4.12    36.61911    35.49661    11.70685
    24  H   1.0    0.04    1.05    1.44    41.98593    33.22327    10.55601
    25  H   1.0    0.05    1.02    1.43    41.10343    33.79775    15.82834
    26  H   1.0    0.05    1.02    1.43    41.76861    36.30353    13.71941
    27  H   1.0    0.04    1.03    1.43    36.70604    34.42136    15.61103
    28  H   1.0    0.04    1.02    1.43    37.64712    37.58287    15.11025
    29  H   1.0    0.05    1.02    1.43    34.61033    35.02796    11.74843
    30  H   1.0    0.04    1.02    1.43    36.86855    37.26162    10.65427
    31  N   5.0   -0.10    3.67    2.23    42.63978    29.21894    13.35658
    32  C   4.0    0.04    4.56    4.61    42.73237    26.64514    14.34302
    33  C   4.0    0.15    3.47    3.10    41.41145    26.43160    16.88848
    34  O   6.0   -0.31    1.30    1.80    41.48704    28.15881    18.44750
    35  C   4.0   -0.03    4.36    4.31    45.57074    26.26152    14.89860
    36  C   4.0   -0.03    4.24    4.08    46.92001    28.15125    13.15438
    37  C   4.0   -0.01    4.34    4.27    45.09453    30.39435    13.04100
    38  H   1.0    0.05    1.04    1.43    41.99727    25.29776    12.96730
    39  H   1.0    0.06    1.03    1.43    45.98270    26.73395    16.86391
    40  H   1.0    0.06    1.02    1.43    46.19813    24.34156    14.52821
    41  H   1.0    0.05    1.02    1.43    48.78328    28.68037    13.83279
    42  H   1.0    0.05    1.02    1.43    47.15055    27.31410    11.28544
    43  H   1.0    0.05    1.02    1.43    45.47059    31.74929    14.56034
    44  H   1.0    0.05    1.02    1.43    45.26272    31.38835    11.24387
    45  N   5.0   -0.15    3.45    2.04    40.64612    24.09779    17.51398
    46  C   4.0    0.03    4.43    4.43    39.58409    23.63291    20.01409
    47  C   4.0    0.16    3.50    3.11    41.26217    24.44927    22.20050
    48  O   6.0   -0.32    1.29    1.80    40.27573    25.45272    24.07511
    49  C   4.0   -0.04    4.31    4.22    38.93780    20.78699    20.21062
    50  C   4.0   -0.03    4.25    4.10    37.77751    20.18227    22.69183
    51  C   4.0    0.15    3.22    3.04    36.67013    17.47997    22.68616
    52  O   6.0   -0.31    1.22    1.80    35.90101    16.54266    20.70762
    53  N   5.0   -0.18    3.17    1.95    36.54541    16.31022    24.90281
    54  H   1.0    0.10    1.09    1.44    40.49305    22.71829    16.18739
    55  H   1.0    0.05    1.05    1.44    37.83420    24.74029    20.22574
    56  H   1.0    0.05    1.03    1.43    37.64901    20.32778    18.67049
    57  H   1.0    0.06    1.03    1.43    40.68202    19.71740    19.93472
    58  H   1.0    0.06    1.03    1.43    39.14945    20.33534    24.22440
    59  H   1.0    0.04    1.03    1.43    36.22605    21.48618    23.10379
    60  H   1.0    0.12    1.06    1.44    37.35799    17.07178    26.46939
    61  H   1.0    0.09    1.03    1.43    36.05597    14.47152    24.91037
    62  N   5.0   -0.14    3.47    2.06    43.71314    23.88614    22.04176
    63  C   4.0    0.04    4.38    4.34    45.40067    24.66848    24.03542
    64  C   4.0    0.16    3.47    3.10    45.23059    27.48228    24.60234
    65  O   6.0   -0.32    1.28    1.80    45.45736    28.26463    26.81521
    66  C   4.0    0.04    4.15    3.90    48.18234    24.04865    23.27198
    67  O   6.0   -0.27    2.13    1.84    49.01571    25.29965    21.08556
    68  H   1.0    0.10    1.09    1.44    44.38966    22.90348    20.53943
    69  H   1.0    0.06    1.05    1.44    44.96414    23.61779    25.77019
    70  H   1.0    0.05    1.01    1.43    49.38988    24.61935    24.85368
    71  H   1.0    0.05    1.01    1.43    48.32407    22.00208    23.04332
    72  H   1.0    0.14    1.07    1.44    49.49759    24.04676    19.79677
    73  N   5.0   -0.13    3.50    2.08    44.95847    29.03186    22.62758
    74  C   4.0    0.03    4.40    4.38    44.95469    31.75118    23.03198
    75  C   4.0    0.15    3.44    3.09    42.54151    32.55620    24.47195
    76  O   6.0   -0.32    1.27    1.80    42.50183    34.22672    26.09145
    77  C   4.0   -0.04    4.27    4.13    45.16067    33.10044    20.46006
    78  C   4.0   -0.03    4.23    4.05    45.24949    35.97660    20.80777
    79  C   4.0    0.15    3.22    3.04    45.42523    37.31453    18.27554
    80  O   6.0   -0.31    1.31    1.80    46.80473    36.48305    16.59557
    81  N   5.0   -0.19    3.18    1.95    43.97581    39.34598    17.96373
    82  H   1.0    0.10    1.09    1.44    44.55785    28.36668    20.88903
    83  H   1.0    0.06    1.05    1.44    46.59119    32.22739    24.21306
    84  H   1.0    0.06    1.03    1.43    46.87276    32.45793    19.50953
    85  H   1.0    0.06    1.02    1.43    43.54118    32.55998    19.29977
    86  H   1.0    0.05    1.03    1.43    43.60165    36.63045    21.85279
    87  H   1.0    0.05    1.03    1.43    46.94646    36.46415    21.87925
    88  H   1.0    0.08    1.03    1.43    42.84009    40.02062    19.33379
    89  H   1.0    0.11    1.06    1.44    44.06652    40.30219    16.29700
    90  N   5.0   -0.14    3.50    2.08    40.38911    31.45638    23.66882
    91  C   4.0    0.04    4.43    4.44    38.05719    31.96849    24.97273
    92  C   4.0    0.15    3.43    3.09    38.14790    31.06520    27.72795
    93  O   6.0   -0.31    1.23    1.80    37.09721    32.36534    29.37768
    94  C   4.0   -0.05    4.36    4.31    35.82542    30.70238    23.56488
    95  C   4.0   -0.02    4.18    3.96    35.33976    32.00062    21.02509
    96  C   4.0   -0.08    4.08    3.76    33.69948    30.25829    19.38292
    97  C   4.0   -0.08    4.10    3.80    34.24372    34.62356    21.55043
    98  H   1.0    0.10    1.07    1.44    40.46281    30.05231    22.38191
    99  H   1.0    0.05    1.06    1.44    37.79452    34.02074    25.05777
   100  H   1.0    0.05    1.03    1.43    36.32809    28.71817    23.28709
   101  H   1.0    0.04    1.03    1.43    34.13979    30.79686    24.74596
   102  H   1.0    0.05    1.06    1.44    37.15012    32.22172    20.04054
   103  H   1.0    0.04    1.00    1.43    33.12312    31.20315    17.65004
   104  H   1.0    0.05    1.00    1.43    34.79552    28.60856    18.85002
   105  H   1.0    0.03    1.00    1.43    32.01196    29.65736    20.39203
   106  H   1.0    0.03    1.00    1.43    33.52374    35.43614    19.80244
   107  H   1.0    0.04    1.00    1.43    32.71872    34.48939    22.91860
   108  H   1.0    0.04    1.00    1.43    35.69314    35.88023    22.27042
   109  N   5.0   -0.14    3.46    2.05    39.26851    28.82777    28.19471
   110  C   4.0    0.04    4.42    4.41    39.53307    27.97172    30.85356
   111  C   4.0    0.16    3.44    3.09    41.06941    29.78208    32.41069
   112  O   6.0   -0.31    1.28    1.80    40.58186    30.18081    34.66702
   113  C   4.0   -0.03    4.26    4.12    40.60643    25.21272    30.94993
   114  C   4.0   -0.03    4.23    4.07    38.64868    23.51953    29.71972
   115  C   4.0    0.25    3.14    3.03    39.65590    20.82856    29.50429
   116  O   6.0   -0.33    1.38    1.80    41.98215    20.59990    29.20949
   117  O   6.0   -0.31    1.20    1.80    38.09310    19.06167    29.44382
   118  H   1.0    0.11    1.09    1.44    39.98471    27.73173    26.79631
   119  H   1.0    0.06    1.06    1.44    37.62822    27.96039    31.67937
   120  H   1.0    0.07    1.03    1.43    42.39222    25.12580    29.93137
   121  H   1.0    0.06    1.02    1.43    40.93524    24.67604    32.90580
   122  H   1.0    0.05    1.03    1.43    36.89501    23.52520    30.80442
   123  H   1.0    0.06    1.04    1.43    38.23483    24.14881    27.79976
   124  N   5.0   -0.13    3.49    2.07    43.03095    30.85545    31.21827
   125  C   4.0    0.04    4.42    4.41    44.59186    32.63557    32.62045
   126  C   4.0    0.16    3.41    3.08    43.14055    35.15268    33.09477
   127  O   6.0   -0.32    1.29    1.80    43.25772    36.21849    35.15457
   128  C   4.0   -0.05    4.28    4.16    47.09953    33.03430    31.23339
   129  C   4.0   -0.03    4.21    4.02    48.94012    34.64624    32.67525
   130  C   4.0    0.15    3.20    3.04    51.49314    35.08087    31.35622
   131  O   6.0   -0.29    1.19    1.80    52.82918    36.88745    31.89857
   132  N   5.0   -0.19    3.19    1.95    52.26226    33.26296    29.72917
   133  H   1.0    0.11    1.08    1.44    43.55251    30.31309    29.46083
   134  H   1.0    0.06    1.06    1.44    44.97170    31.82110    34.49128
   135  H   1.0    0.05    1.04    1.43    47.87243    31.14646    30.92914
   136  H   1.0    0.05    1.03    1.43    46.68757    33.86011    29.38146
   137  H   1.0    0.06    1.03    1.43    48.15211    36.50384    33.09288
   138  H   1.0    0.05    1.03    1.43    49.38421    33.75995    34.48939
   139  H   1.0    0.09    1.03    1.43    51.04717    32.01007    28.98084
   140  H   1.0    0.10    1.03    1.43    53.85530    33.58421    28.73706
   141  N   5.0   -0.14    3.45    2.05    41.77617    35.99550    31.20882
   142  C   4.0    0.04    4.42    4.41    40.18502    38.35955    31.52252
   143  C   4.0    0.16    3.46    3.10    38.48805    38.18002    33.82609
   144  O   6.0   -0.30    1.22    1.80    38.16113    39.97526    35.26985
   145  C   4.0   -0.04    4.29    4.18    38.62600    38.73182    29.12824
   146  C   4.0    0.05    3.76    3.29    37.04997    41.05808    29.26430
   147  N   5.0   -0.19    2.61    1.91    37.98160    43.39945    28.53486
   148  C   4.0   -0.01    3.56    3.15    34.58954    41.32075    30.07121
   149  C   4.0    0.06    3.60    3.17    36.14479    45.01705    28.97139
   150  N   5.0   -0.12    3.44    2.04    34.07554    43.87944    29.85389
   151  H   1.0    0.11    1.09    1.44    41.80074    35.20181    29.46272
   152  H   1.0    0.06    1.05    1.44    41.46059    39.96392    31.81354
   153  H   1.0    0.05    1.03    1.43    39.92235    38.86599    27.53142
   154  H   1.0    0.06    1.03    1.43    37.40146    37.08587    28.88635
   155  H   1.0    0.06    1.03    1.43    33.27996    39.99794    30.83088
   156  H   1.0    0.04    1.02    1.43    36.28085    47.00882    28.61801
   157  H   1.0    0.07    1.05    1.44    32.49384    44.73737    30.49073
   158  N   5.0   -0.14    3.51    2.08    37.30697    35.97093    34.10388
   159  C   4.0    0.04    4.39    4.36    35.47771    35.53441    36.15424
   160  C   4.0    0.15    3.41    3.08    36.69092    33.93759    38.26884
   161  O   6.0   -0.30    1.26    1.80    35.38134    32.75840    39.80141
   162  C   4.0   -0.03    4.32    4.23    33.08532    34.20971    35.15079
   163  C   4.0   -0.02    3.54    3.13    31.49417    35.80653    33.43681
   164  C   4.0   -0.05    3.49    3.11    30.30931    37.95326    34.37412
   165  C   4.0   -0.05    3.44    3.09    31.35055    35.31709    30.85356
   166  C   4.0   -0.05    3.43    3.09    28.90525    39.56141    32.86800
   167  C   4.0   -0.05    3.43    3.09    29.66303    36.71926    29.40225
   168  C   4.0    0.06    3.45    3.09    28.44793    38.84332    30.37734
   169  O   6.0   -0.26    2.12    1.84    26.94938    40.37966    28.99407
   170  H   1.0    0.11    1.08    1.44    37.49405    34.58954    32.79619
   171  H   1.0    0.06    1.06    1.44    35.02418    37.38634    36.95926
   172  H   1.0    0.05    1.03    1.43    33.68059    32.49762    34.16247
   173  H   1.0    0.05    1.03    1.43    31.99495    33.64468    36.81186
   174  H   1.0    0.05    1.03    1.43    30.57010    38.42380    36.34321
   175  H   1.0    0.06    1.03    1.43    32.37856    33.75806    30.04097
   176  H   1.0    0.05    1.03    1.43    28.09834    41.26217    33.63523
   177  H   1.0    0.04    1.03    1.43    29.46083    36.24683    27.42937
   178  H   1.0    0.11    1.03    1.43    26.59789    39.65401    27.34811
   179  N   5.0   -0.13    3.46    2.05    39.18725    34.20215    38.54852
   180  C   4.0    0.05    4.26    4.12    40.53084    32.75084    40.43447
   181  C   4.0    0.09    3.25    3.04    39.34976    33.15902    43.09709
   182  O   6.0   -0.29    1.11    1.80    39.30630    31.37323    44.58241
   183  C   4.0   -0.07    4.12    3.84    43.27661    33.50106    40.60643
   184  H   1.0    0.11    1.10    1.44    40.27573    35.11111    37.25784
   185  H   1.0    0.06    1.05    1.44    40.33053    30.72316    40.04707
   186  H   1.0    0.04    1.00    1.43    44.24604    32.22550    41.88767
   187  H   1.0    0.06    1.00    1.43    44.15912    33.39335    38.75639
   188  H   1.0    0.05    1.00    1.43    43.44102    35.42291    41.31697
   189  N   5.0   -0.23    3.16    1.95    27.03631    28.33077    17.20029
   190  C   4.0    0.03    4.20    3.99    28.16259    27.09111    15.02143
   191  C   4.0    0.06    3.21    3.04    26.37302    26.81521    12.76132
   192  O   6.0   -0.30    1.13    1.80    27.20638    25.93082    10.75065
   193  C   4.0   -0.05    4.39    4.35    29.14902    24.40959    15.57890
   194  C   4.0   -0.03    4.16    3.93    31.48850    24.16959    17.21918
   195  C   4.0   -0.08    4.12    3.84    31.56787    21.47674    18.32089
   196  C   4.0   -0.07    4.13    3.85    33.85255    24.53809    15.62803
   197  H   1.0    0.07    1.02    1.43    26.52608    27.21583    18.67049
   198  H   1.0    0.04    1.05    1.44    29.75751    28.24573    14.35247
   199  H   1.0    0.03    1.03    1.43    27.58244    23.39292    16.47085
   200  H   1.0    0.05    1.05    1.44    29.53642    23.52520    13.75909
   201  H   1.0    0.03    1.05    1.44    31.41480    25.53587    18.76309
   202  H   1.0    0.04    1.00    1.43    33.25918    21.21217    19.45095
   203  H   1.0    0.04    1.00    1.43    29.92381    21.13281    19.50197
   204  H   1.0    0.04    1.00    1.43    31.58488    20.10290    16.79588
   205  H   1.0    0.05    1.00    1.43    35.56653    24.42471    16.75053
   206  H   1.0    0.04    1.00    1.43    33.95082    23.08867    14.17483
   207  H   1.0    0.05    1.00    1.43    33.86011    26.35223    14.66805
   208  N   5.0   -0.22    3.23    1.96    51.75392    46.82363    25.25997
   209  C   4.0    0.03    4.33    4.25    50.91489    44.27628    24.63636
   210  C   4.0    0.14    3.46    3.10    49.87365    44.17234    21.99641
   211  O   6.0   -0.29    1.23    1.80    50.47080    42.39222    20.60746
   212  C   4.0   -0.05    4.38    4.34    48.82863    43.45425    26.45616
   213  C   4.0   -0.02    4.19    3.98    47.71369    40.80485    25.94783
   214  C   4.0   -0.07    4.13    3.86    49.73759    38.82442    26.19538
   215  C   4.0   -0.07    4.10    3.80    45.54051    40.26628    27.78464
   216  H   1.0    0.07    1.03    1.43    50.81284    47.68912    26.67915
   217  H   1.0    0.05    1.05    1.44    52.54950    43.00827    24.72517
   218  H   1.0    0.04    1.03    1.43    49.59208    43.48826    28.37424
   219  H   1.0    0.04    1.03    1.43    47.31685    44.85454    26.34089
   220  H   1.0    0.05    1.05    1.44    46.96158    40.78973    24.01653
   221  H   1.0    0.05    1.00    1.43    48.90233    36.94414    26.13491
   222  H   1.0    0.06    1.00    1.43    51.09441    38.97560    24.65714
   223  H   1.0    0.06    1.00    1.43    50.75048    39.03418    27.97172
   224  H   1.0    0.05    1.00    1.43    44.69391    38.44647    27.35378
   225  H   1.0    0.05    1.00    1.43    46.24537    40.22660    29.71594
   226  H   1.0    0.04    1.00    1.43    44.09676    41.72137    27.64480
   227  N   5.0   -0.15    3.42    2.03    48.32596    46.02805    21.23674
   228  C   4.0    0.04    4.31    4.22    47.02394    45.80318    18.76876
   229  C   4.0    0.07    3.20    3.04    48.37698    47.00693    16.53132
   230  O   6.0   -0.31    1.18    1.80    47.78739    46.34364    14.37515
   231  C   4.0   -0.04    4.29    4.18    44.43691    47.14110    18.98419
   232  C   4.0   -0.02    3.67    3.21    42.59820    45.64255    20.55833
   233  C   4.0   -0.02    3.60    3.17    42.42057    45.59531    23.11135
   234  C   4.0   -0.00    3.88    3.43    40.50817    44.14589    19.61347
   235  N   5.0   -0.13    3.51    2.08    40.42124    44.11565    23.85968
   236  C   4.0    0.03    3.91    3.48    39.22315    43.24449    21.75075
   237  C   4.0   -0.05    3.42    3.08    39.51606    43.63377    17.24375
   238  C   4.0   -0.05    3.40    3.08    36.99516    41.82719    21.57500
   239  C   4.0   -0.05    3.37    3.07    37.27673    42.29396    17.03210
   240  C   4.0   -0.05    3.38    3.07    36.07109    41.37744    19.18639
   241  H   1.0    0.07    1.06    1.44    47.84219    47.44346    22.42160
   242  H   1.0    0.07    1.06    1.44    46.78584    43.78684    18.36436
   243  H   1.0    0.03    1.03    1.43    44.73737    48.99303    19.84023
   244  H   1.0    0.04    1.03    1.43    43.64700    47.42456    17.10202
   245  H   1.0    0.04    1.02    1.43    43.56385    46.55151    24.47951
   246  H   1.0    0.09    1.12    1.45    39.78440    43.87755    25.67382
   247  H   1.0    0.05    1.03    1.43    40.41179    44.38966    15.56945
   248  H   1.0    0.05    1.02    1.43    36.04085    41.16768    23.25119
   249  H   1.0    0.04    1.03    1.43    36.45281    41.97648    15.19151
   250  H   1.0    0.04    1.03    1.43    34.34199    40.31541    18.96718
   251  O   6.0   -0.30    1.93    1.82    50.90355    33.61067    17.09635
   252  H   1.0    0.14    0.97    1.43    51.46291    33.28941    15.40127
   253  H   1.0    0.17    1.04    1.43    49.44468    34.73316    16.89793
   254  O   6.0   -0.30    1.93    1.82    51.35330    29.46461    22.73718
   255  H   1.0    0.13    0.97    1.43    51.75392    30.53797    21.33123
   256  H   1.0    0.15    1.04    1.43    50.55773    27.98684    22.00208
   257  O   6.0   -0.33    2.06    1.83    50.37065    21.60713    17.81067
   258  H   1.0    0.15    1.04    1.44    51.81440    20.92116    18.73096
   259  H   1.0    0.15    0.99    1.43    50.94323    21.97373    16.03810
   260  O   6.0   -0.28    1.97    1.82    43.51283    17.13981    26.17648
   261  H   1.0    0.14    0.98    1.43    45.29295    16.99620    26.48262
   262  H   1.0    0.17    1.09    1.44    42.92512    18.46073    27.34622
   263  O   6.0   -0.31    1.96    1.82    42.54907    26.58844    37.78318
   264  H   1.0    0.12    0.96    1.43    42.83442    26.72828    39.59732
   265  H   1.0    0.16    1.01    1.43    41.55885    28.00574    37.18603
   266  O   6.0   -0.31    1.95    1.82    47.30551    20.19550    30.33955
   267  H   1.0    0.15    1.00    1.43    47.73826    21.94350    30.65135
   268  H   1.0    0.15    1.00    1.43    45.48381    20.17660    30.23184
   269  O   6.0   -0.33    2.04    1.83    44.54840    42.32230    13.26777
   270  H   1.0    0.16    1.01    1.43    45.63310    43.76038    13.71941
   271  H   1.0    0.12    0.97    1.43    43.13677    42.98749    12.34558
   272  O   6.0   -0.32    2.00    1.83    48.16533    25.49996    30.65891
   273  H   1.0    0.13    0.97    1.43    49.93034    25.88547    30.47561
   274  H   1.0    0.15    1.00    1.43    47.24693    26.46183    29.39469
   275  O   6.0   -0.31    1.92    1.82    48.18990    42.12010     5.42162
   276  H   1.0    0.12    0.97    1.43    49.35586    42.08420     4.03079
   277  H   1.0    0.13    0.97    1.43    47.67212    40.41746     5.77311
   278  O   6.0   -0.32    1.96    1.82    45.87310    41.38689    35.69314
   279  H   1.0    0.13    0.97    1.43    45.93357    41.72326    37.47705
   280  H   1.0    0.15    0.98    1.43    44.97170    39.80708    35.53252
   281  O   6.0   -0.33    2.04    1.83    39.52551    20.29188    13.74398
   282  H   1.0    0.12    0.97    1.43    38.72048    20.97407    12.26999
   283  H   1.0    0.12    0.95    1.42    38.39734    18.91994    14.36759
   284  O   6.0   -0.33    2.05    1.83    45.51216    20.10668    18.43050
   285  H   1.0    0.15    1.03    1.43    47.29984    20.51864    18.24341
   286  H   1.0    0.15    1.04    1.43    45.04540    19.45662    16.77321
   287  O   6.0   -0.28    1.92    1.82    51.80495    42.18057    12.00921
   288  H   1.0    0.13    0.96    1.43    52.82918    42.26750    13.53800
   289  H   1.0    0.14    0.98    1.43    50.16655    41.71003    12.61959
   290  O   6.0   -0.29    1.94    1.82    46.94457    38.34443    11.27977
   291  H   1.0    0.14    0.97    1.43    48.66044    38.86788    10.99632
   292  H   1.0    0.16    1.04    1.43    46.07341    39.73338    12.07724
   293  O   6.0   -0.30    1.92    1.82    51.10197    41.68357    35.22260
   294  H   1.0    0.12    0.97    1.43    51.92778    42.52828    33.82609
   295  H   1.0    0.14    1.00    1.43    49.31618    41.62499    34.85222
   296  O   6.0   -0.33    2.04    1.83    53.43956    19.75708    21.16115
   297  H   1.0    0.15    1.04    1.43    54.14443    20.80399    22.51231
   298  H   1.0    0.15    1.01    1.43    52.50793    18.43995    22.02476
   299  O   6.0   -0.30    1.92    1.82    47.40755    27.25174    35.59677
   300  H   1.0    0.15    1.01    1.43    47.47747    26.32199    34.02452
   301  H   1.0    0.15    1.00    1.43    45.75404    26.87946    36.31108
   302  O   6.0   -0.31    1.92    1.82    56.48580    42.32608    28.32132
   303  H   1.0    0.12    0.97    1.43    58.18088    42.91001    28.58022
   304  H   1.0    0.12    0.96    1.43    55.43700    43.20480    29.54964
   305  O   6.0   -0.30    1.98    1.82    46.84474    21.35935    10.30090
   306  H   1.0    0.15    1.01    1.43    46.04810    20.76631    11.82779
   307  H   1.0    0.17    1.05    1.44    47.43682    19.83116     9.46942
   308  O   6.0   -0.31    1.99    1.83    50.49882    16.28131    23.86913
   309  H   1.0    0.15    1.02    1.43    48.73867    16.56341    23.43638
   310  H   1.0    0.12    0.97    1.43    50.66768    14.46949    24.03920
   311  O   6.0   -0.32    1.92    1.82    58.10244    22.57184    19.54921
   312  H   1.0    0.14    0.98    1.43    57.20782    22.82124    21.11769
   313  H   1.0    0.12    0.97    1.43    57.73948    20.86102    19.06733
   314  O   6.0   -0.32    1.98    1.82    44.54733    13.38418    18.37758
   315  H   1.0    0.13    0.97    1.43    43.28346    14.65108    18.07523
   316  H   1.0    0.12    0.97    1.43    43.96477    11.87608    17.51587
   317  O   6.0   -0.33    2.06    1.83    44.21206    18.56069    13.79311
   318  H   1.0    0.15    1.04    1.43    42.49906    19.25624    13.67595
   319  H   1.0    0.13    0.97    1.43    44.09427    16.79940    13.37359
   320  O   6.0   -0.31    2.05    1.83    45.67557    16.67588    22.10979
   321  H   1.0    0.15    1.03    1.43    45.42714    18.09262    20.97974
   322  H   1.0    0.15    1.02    1.43    45.52307    15.18258    21.08367
   323  O   6.0   -0.31    1.92    1.82    45.47603    25.43078     6.82947
   324  H   1.0    0.13    0.97    1.43    44.50533    24.60631     5.53501
   325  H   1.0    0.15    0.99    1.43    45.92187    24.11055     8.02378
   326  O   6.0   -0.32    2.01    1.83    55.47262    22.44786    24.91226
   327  H   1.0    0.13    0.97    1.43    54.73213    24.03656    25.36768
   328  H   1.0    0.13    0.95    1.42    55.62869    21.45566    26.48451
   329  O   6.0   -0.29    1.94    1.82    51.51162    16.96861    28.65769
   330  H   1.0    0.15    0.99    1.43    50.04079    17.91745    29.16792
   331  H   1.0    0.12    0.97    1.43    51.14119    15.19892    28.91092
   332  N   5.0   -0.15    3.44    2.04    57.35701    26.21757    14.31278
   333  C   4.0    0.03    4.45    4.47    54.81567    25.22602    14.91372
   334  C   4.0    0.13    3.41    3.08    53.28357    24.45929    12.63660
   335  O   6.0   -0.31    1.28    1.80    51.66615    22.74429    12.73486
   336  C   4.0   -0.03    4.34    4.28    53.53406    27.42314    16.31400
   337  C   4.0   -0.04    4.27    4.14    55.68433    28.96355    17.34579
   338  C   4.0   -0.01    4.28    4.15    57.83198    28.67168    15.43906
   339  H   1.0    0.05    1.05    1.44    55.04196    23.57173    16.14393
   340  H   1.0    0.05    1.03    1.43    52.45471    28.52163    14.93450
   341  H   1.0    0.05    1.02    1.43    52.20420    26.77100    17.73697
   342  H   1.0    0.05    1.02    1.43    55.13649    30.92533    17.62547
   343  H   1.0    0.05    1.03    1.43    56.27687    28.17534    19.15615
   344  H   1.0    0.06    1.02    1.43    57.70881    30.11711    13.96319
   345  H   1.0    0.04    1.02    1.43    59.67260    28.74152    16.36314
   346  N   5.0   -0.15    3.53    2.10    53.82228    25.65405    10.45774
   347  C   4.0    0.04    4.37    4.32    52.38778    25.02441     8.23165
   348  C   4.0    0.08    3.24    3.04    53.22608    22.52552     7.03545
   349  O   6.0   -0.29    1.12    1.80    52.15359    21.66192     5.15328
   350  C   4.0   -0.04    4.32    4.23    52.83909    27.05463     6.21342
   351  C   4.0   -0.03    4.20    4.01    51.75607    29.55407     7.07324
   352  C   4.0    0.23    3.15    3.03    53.29270    30.93657     9.13494
   353  O   6.0   -0.32    1.28    1.80    55.59114    30.20589     9.42595
   354  O   6.0   -0.29    1.15    1.80    52.19658    32.69527    10.26877
   355  H   1.0    0.11    1.16    1.46    54.88955    27.26745    10.38026
   356  H   1.0    0.07    1.05    1.44    50.37085    24.85932     8.68140
   357  H   1.0    0.05    1.03    1.43    54.86161    27.22513     5.86004
   358  H   1.0    0.05    1.03    1.43    51.89866    26.43094     4.48810
   359  H   1.0    0.04    1.03    1.43    51.66374    30.86674     5.47832
   360  H   1.0    0.05    1.03    1.43    49.82781    29.32234     7.78000
   361  N   5.0   -0.19    3.26    1.97    53.17445    17.22165     9.87760
   362  C   4.0    0.03    4.25    4.10    51.60958    15.18132    10.76766
   363  C   4.0    0.08    3.21    3.04    49.30985    15.04497     8.99510
   364  O   6.0   -0.30    1.23    1.80    48.04018    16.93041     8.47164
   365  C   4.0   -0.04    4.32    4.24    50.82257    15.58449    13.48886
   366  C   4.0   -0.03    4.19    3.98    52.85969    14.42581    15.25198
   367  C   4.0   -0.08    4.08    3.76    55.30105    16.02517    15.42961
   368  C   4.0   -0.07    4.12    3.83    51.83885    13.85825    17.80689
   369  H   1.0    0.11    1.03    1.43    52.69662    18.99037    10.40861
   370  H   1.0    0.03    1.06    1.44    52.66818    13.42714    10.51255
   371  H   1.0    0.06    1.02    1.43    50.54712    17.59225    13.86303
   372  H   1.0    0.04    1.03    1.43    49.03682    14.61458    13.82335
   373  H   1.0    0.03    1.06    1.44    53.39936    12.61424    14.38648
   374  H   1.0    0.03    1.00    1.43    56.69231    15.04784    16.58046
   375  H   1.0    0.03    1.00    1.43    56.09608    16.34889    13.56445
   376  H   1.0    0.05    1.00    1.43    54.87810    17.83866    16.29700
   377  H   1.0    0.04    1.00    1.43    53.27251    12.99269    18.99930
   378  H   1.0    0.05    1.00    1.43    51.19905    15.57491    18.74230
   379  H   1.0    0.04    1.00    1.43    50.24793    12.56223    17.68406
   380  H   1.0    0.08    1.08    1.44    36.90096    44.05537     4.04943
   381  H   1.0    0.04    1.04    1.43    36.23195    36.56438     5.42842
   382  H   1.0    0.08    1.13    1.45    38.40431    33.94883     8.94062
   383  H   1.0    0.05    1.04    1.43    38.64605    34.84793    43.56978
   384  H   1.0    0.08    1.07    1.44    28.13590    29.45748    17.84371
   385  H   1.0    0.04    1.04    1.43    24.56526    27.34310    12.91757
   386  H   1.0    0.09    1.07    1.44    53.38755    46.78381    25.73140
   387  H   1.0    0.05    1.04    1.43    49.71512    48.30851    16.82520
   388  H   1.0    0.09    1.14    1.45    58.53681    25.24246    15.05426
   389  H   1.0    0.05    1.05    1.44    54.66947    21.55908     7.77956
   390  H   1.0    0.08    1.08    1.44    54.76678    16.99950    10.43230
   391  H   1.0    0.04    1.04    1.43    48.80412    13.39327     8.22882

  Z AO/shell   Hii/eV     exponent
  1     Wed Apr 25 08:07:45 CEST 2018   EN: 2.200 GM2: 0.406  GM3: 0.0800  RAES: 1.40
     1s    -10.707211    1.230000
  6     Wed Apr 25 08:07:45 CEST 2018   EN: 2.550 GM2: 0.538  GM3: 0.1500  RAES: 3.00
     2s    -13.970922    2.096432
     2p    -10.063292    1.800000
  7     Wed Apr 25 08:07:45 CEST 2018   EN: 3.040 GM2: 0.461  GM3:-0.0640  RAES: 1.90
     2s    -16.686243    2.339881
     2p    -12.523956    2.014332
  8     Wed Apr 25 08:07:45 CEST 2018   EN: 3.440 GM2: 0.452  GM3:-0.0517  RAES: 1.80
     2s    -20.229985    2.439742
     2p    -15.503117    2.137023
 no old-style atom pair restraining (fixing) potential

molecular fragmentation (1/2 indicates fragments):
111111111111111122222222222222222222222222222222222222222222222222222222
222222222222222222222222222222222222222222222222222222222222222222222222
222222222222222222222222222222222222222222222222222222222222222222222222
222222222222222222222222222222222222222222222222222222222222222222222222
222222222222222222222222222222222222222222222222222222222222222222222222
2222222222222222222112222222222
# atoms in fragment 1/2:    18   373
 fragment masses (1/2) :      101.15     2525.77
CMA distance (Bohr)    :  20.061
constraining FC (au)   :  0.0500
           ------------------------------------------------- 
          |        Self-Consistent Charge Iterations        |
           ------------------------------------------------- 

 Ncao       : 928
 Nao        : 928
 Nshell     : 570
 Nel        : 1062
 T(el)      :   500.0
 intcut     :    35.0
 scfconv/Eh :  0.100E-06
   qconv/e  :  0.100E-04
 intneglect :  0.100E-08
 broydamp   :      0.400
 iter      E             dE          RMSdq      gap      omega  full diag
   1   -620.2234632 -0.620223E+03  0.488E+00    2.88       0.0  T
   2   -621.5977813 -0.137432E+01  0.235E+00    1.56       1.0  T
   3   -621.6948896 -0.971084E-01  0.121E+00    1.65       1.0  T
   4   -621.8186401 -0.123750E+00  0.306E-01    1.09       1.0  T
   5   -621.8225573 -0.391718E-02  0.134E-01    1.26       1.0  T
   6   -621.8247490 -0.219169E-02  0.525E-02    1.25       1.0  T
   7   -621.8251512 -0.402259E-03  0.265E-02    1.23       1.0  T
   8   -621.8251937 -0.425049E-04  0.118E-02    1.24       1.0  T
   9   -621.8252084 -0.146901E-04  0.423E-03    1.24       1.2  T
  10   -621.8252105 -0.209835E-05  0.203E-03    1.24       2.5  T
  11   -621.8252108 -0.260218E-06  0.907E-04    1.25       5.6  T
  12   -621.8252109 -0.920587E-07  0.421E-04    1.25      12.0  T
  13   -621.8252109 -0.160450E-07  0.183E-04    1.25      27.7  T
  14   -621.8252109 -0.209570E-08  0.962E-05    1.25      52.6  T
  15   -621.8252109 -0.950195E-09  0.403E-05    1.25     125.5  T
speedup  1.08
cpu  time for SCC   12.11 s
wall time for SCC   11.24 s

   *** convergence criteria satisfied after 15 iterations ***

          eigenvalues
 #    :         519        520        521        522        523        524        525        526
 occ. :        2.000      2.000      2.000      2.000      2.000      2.000      2.000      2.000
 eps  :       -10.456    -10.349    -10.270    -10.165    -10.042    -10.033     -9.904     -9.895
 #    :         527        528        529        530        531        532        533        534
 occ. :        2.000      2.000      2.000      2.000      2.000      0.000      0.000      0.000
 eps  :        -9.788     -9.776     -9.645     -9.387     -9.299     -8.053     -7.917     -7.734
 #    :         535        536        537        538        539        540        541        542
 occ. :        0.000      0.000      0.000      0.000      0.000      0.000      0.000      0.000
 eps  :        -7.707     -7.654     -7.584     -6.822     -6.695     -6.580     -6.476     -6.453


   #   Z            q   n(s)   n(p)   n(d)      C6AA      α(0)
   1   7 N     -0.381  1.312  4.070  0.000    29.861     8.116
   2   6 C      0.030  1.067  2.903  0.000    20.086     6.385
   3   6 C      0.200  1.086  2.715  0.000    23.750     7.981
   4   8 O     -0.373  1.755  4.618  0.000    21.150     6.166
   5   6 C     -0.014  1.068  2.946  0.000    20.799     6.488
   6   6 C     -0.114  1.036  3.079  0.000    22.738     6.798
   7   6 C     -0.111  1.041  3.070  0.000    22.687     6.794
   8   1 H      0.167  0.833  0.000  0.000     1.293     1.781
   9   1 H      0.060  0.940  0.000  0.000     2.201     2.320
  10   1 H      0.020  0.980  0.000  0.000     2.727     2.582
  11   1 H      0.059  0.941  0.000  0.000     2.216     2.328
  12   1 H      0.042  0.958  0.000  0.000     2.418     2.432
  13   1 H      0.048  0.952  0.000  0.000     2.341     2.393
  14   1 H      0.042  0.958  0.000  0.000     2.423     2.434
  15   1 H      0.055  0.945  0.000  0.000     2.258     2.350
  16   1 H      0.039  0.961  0.000  0.000     2.459     2.452
  17   7 N     -0.287  1.294  3.993  0.000    27.396     7.774
  18   6 C      0.040  1.055  2.906  0.000    19.901     6.350
  19   6 C      0.256  1.051  2.692  0.000    22.692     7.801
  20   8 O     -0.494  1.746  4.747  0.000    23.645     6.519
  21   6 C     -0.053  1.052  3.001  0.000    21.509     6.600
  22   6 C     -0.060  1.050  3.011  0.000    21.638     6.619
  23   6 C      0.021  1.042  2.937  0.000    20.276     6.421
  24   1 H      0.014  0.986  0.000  0.000     2.822     2.627
  25   1 H      0.021  0.979  0.000  0.000     2.723     2.580
  26   1 H      0.047  0.953  0.000  0.000     2.359     2.402
  27   1 H      0.042  0.958  0.000  0.000     2.418     2.432
  28   1 H      0.053  0.947  0.000  0.000     2.283     2.363
  29   1 H      0.041  0.959  0.000  0.000     2.437     2.441
  30   1 H      0.014  0.986  0.000  0.000     2.823     2.627
  31   7 N     -0.090  1.232  3.858  0.000    22.993     7.122
  32   6 C      0.023  1.064  2.913  0.000    20.176     6.393
  33   6 C      0.281  1.046  2.673  0.000    22.242     7.724
  34   8 O     -0.512  1.742  4.770  0.000    24.055     6.576
  35   6 C     -0.068  1.057  3.011  0.000    21.776     6.639
  36   6 C     -0.054  1.046  3.008  0.000    21.524     6.602
  37   6 C      0.003  1.047  2.949  0.000    20.573     6.467
  38   1 H      0.070  0.930  0.000  0.000     2.083     2.257
  39   1 H      0.051  0.949  0.000  0.000     2.310     2.377
  40   1 H      0.085  0.915  0.000  0.000     1.925     2.170
  41   1 H      0.042  0.958  0.000  0.000     2.418     2.432
  42   1 H      0.054  0.946  0.000  0.000     2.275     2.359
  43   1 H      0.057  0.943  0.000  0.000     2.239     2.340
  44   1 H      0.049  0.951  0.000  0.000     2.335     2.390
  45   7 N     -0.198  1.263  3.935  0.000    25.299     7.470
  46   6 C      0.031  1.061  2.908  0.000    20.052     6.376
  47   6 C      0.279  1.042  2.679  0.000    22.279     7.730
  48   8 O     -0.521  1.746  4.775  0.000    24.252     6.603
  49   6 C     -0.071  1.052  3.019  0.000    21.856     6.655
  50   6 C     -0.078  1.047  3.032  0.000    21.987     6.675
  51   6 C      0.287  1.041  2.672  0.000    22.142     7.705
  52   8 O     -0.499  1.737  4.762  0.000    23.771     6.537
  53   7 N     -0.287  1.276  4.011  0.000    27.396     7.774
  54   1 H      0.243  0.757  0.000  0.000     0.913     1.496
  55   1 H      0.057  0.943  0.000  0.000     2.238     2.339
  56   1 H      0.087  0.913  0.000  0.000     1.906     2.159
  57   1 H      0.075  0.925  0.000  0.000     2.030     2.228
  58   1 H      0.039  0.961  0.000  0.000     2.456     2.451
  59   1 H      0.051  0.949  0.000  0.000     2.306     2.375
  60   1 H      0.223  0.777  0.000  0.000     0.997     1.564
  61   1 H      0.234  0.766  0.000  0.000     0.946     1.524
  62   7 N     -0.180  1.247  3.933  0.000    24.901     7.411
  63   6 C      0.021  1.058  2.921  0.000    20.228     6.404
  64   6 C      0.277  1.044  2.678  0.000    22.309     7.735
  65   8 O     -0.515  1.742  4.773  0.000    24.125     6.585
  66   6 C      0.061  1.040  2.898  0.000    19.770     6.370
  67   8 O     -0.490  1.717  4.773  0.000    22.676     6.428
  68   1 H      0.245  0.755  0.000  0.000     0.902     1.488
  69   1 H      0.079  0.921  0.000  0.000     1.986     2.204
  70   1 H      0.061  0.939  0.000  0.000     2.187     2.313
  71   1 H      0.082  0.918  0.000  0.000     1.963     2.191
  72   1 H      0.357  0.643  0.000  0.000     0.573     1.190
  73   7 N     -0.161  1.242  3.919  0.000    24.475     7.348
  74   6 C      0.024  1.065  2.911  0.000    20.170     6.395
  75   6 C      0.267  1.052  2.682  0.000    22.499     7.768
  76   8 O     -0.481  1.733  4.748  0.000    23.363     6.481
  77   6 C     -0.064  1.053  3.011  0.000    21.718     6.635
  78   6 C     -0.096  1.055  3.041  0.000    22.321     6.726
  79   6 C      0.288  1.036  2.676  0.000    22.113     7.700
  80   8 O     -0.494  1.754  4.740  0.000    23.654     6.521
  81   7 N     -0.271  1.261  4.009  0.000    27.003     7.718
  82   1 H      0.215  0.785  0.000  0.000     1.030     1.590
  83   1 H      0.085  0.915  0.000  0.000     1.930     2.172
  84   1 H      0.082  0.918  0.000  0.000     1.961     2.190
  85   1 H      0.053  0.947  0.000  0.000     2.286     2.364
  86   1 H      0.059  0.941  0.000  0.000     2.216     2.328
  87   1 H      0.081  0.919  0.000  0.000     1.970     2.195
  88   1 H      0.213  0.787  0.000  0.000     1.044     1.600
  89   1 H      0.240  0.760  0.000  0.000     0.922     1.504
  90   7 N     -0.173  1.246  3.927  0.000    24.751     7.389
  91   6 C      0.026  1.062  2.912  0.000    20.147     6.391
  92   6 C      0.266  1.051  2.682  0.000    22.507     7.769
  93   8 O     -0.501  1.745  4.756  0.000    23.817     6.543
  94   6 C     -0.070  1.062  3.008  0.000    21.827     6.650
  95   6 C     -0.011  1.057  2.954  0.000    20.735     6.477
  96   6 C     -0.108  1.040  3.068  0.000    22.625     6.783
  97   6 C     -0.120  1.042  3.078  0.000    22.858     6.817
  98   1 H      0.207  0.793  0.000  0.000     1.069     1.620
  99   1 H      0.088  0.912  0.000  0.000     1.901     2.156
 100   1 H      0.043  0.957  0.000  0.000     2.405     2.425
 101   1 H      0.059  0.941  0.000  0.000     2.215     2.328
 102   1 H      0.031  0.969  0.000  0.000     2.573     2.508
 103   1 H      0.045  0.955  0.000  0.000     2.386     2.416
 104   1 H      0.038  0.962  0.000  0.000     2.472     2.459
 105   1 H      0.042  0.958  0.000  0.000     2.420     2.433
 106   1 H      0.054  0.946  0.000  0.000     2.265     2.354
 107   1 H      0.050  0.950  0.000  0.000     2.317     2.380
 108   1 H      0.043  0.957  0.000  0.000     2.407     2.426
 109   7 N     -0.196  1.261  3.935  0.000    25.266     7.465
 110   6 C      0.027  1.068  2.905  0.000    20.124     6.388
 111   6 C      0.275  1.041  2.684  0.000    22.346     7.741
 112   8 O     -0.502  1.745  4.757  0.000    23.832     6.545
 113   6 C     -0.052  1.054  2.999  0.000    21.514     6.604
 114   6 C     -0.092  1.059  3.033  0.000    22.256     6.716
 115   6 C      0.373  1.021  2.606  0.000    20.677     7.442
 116   8 O     -0.609  1.756  4.853  0.000    26.343     6.881
 117   8 O     -0.622  1.765  4.857  0.000    26.659     6.923
 118   1 H      0.224  0.776  0.000  0.000     0.993     1.561
 119   1 H      0.065  0.935  0.000  0.000     2.144     2.290
 120   1 H      0.060  0.940  0.000  0.000     2.196     2.317
 121   1 H      0.053  0.947  0.000  0.000     2.289     2.366
 122   1 H      0.027  0.973  0.000  0.000     2.632     2.537
 123   1 H      0.052  0.948  0.000  0.000     2.295     2.369
 124   7 N     -0.179  1.249  3.930  0.000    24.870     7.407
 125   6 C      0.021  1.066  2.913  0.000    20.225     6.403
 126   6 C      0.275  1.043  2.683  0.000    22.357     7.742
 127   8 O     -0.500  1.738  4.762  0.000    23.784     6.539
 128   6 C     -0.072  1.050  3.022  0.000    21.876     6.658
 129   6 C     -0.097  1.052  3.044  0.000    22.344     6.729
 130   6 C      0.288  1.042  2.669  0.000    22.110     7.699
 131   8 O     -0.479  1.749  4.730  0.000    23.316     6.474
 132   7 N     -0.289  1.270  4.019  0.000    27.456     7.782
 133   1 H      0.214  0.786  0.000  0.000     1.037     1.595
 134   1 H      0.088  0.912  0.000  0.000     1.901     2.156
 135   1 H      0.072  0.928  0.000  0.000     2.064     2.247
 136   1 H      0.055  0.945  0.000  0.000     2.263     2.353
 137   1 H      0.074  0.926  0.000  0.000     2.045     2.236
 138   1 H      0.085  0.915  0.000  0.000     1.927     2.171
 139   1 H      0.208  0.792  0.000  0.000     1.067     1.618
 140   1 H      0.227  0.773  0.000  0.000     0.978     1.549
 141   7 N     -0.184  1.263  3.920  0.000    24.982     7.423
 142   6 C      0.022  1.074  2.904  0.000    20.214     6.402
 143   6 C      0.284  1.036  2.680  0.000    22.193     7.714
 144   8 O     -0.487  1.746  4.741  0.000    23.499     6.499
 145   6 C     -0.076  1.048  3.028  0.000    21.951     6.669
 146   6 C      0.053  1.067  2.880  0.000    26.527     8.421
 147   7 N     -0.289  1.473  3.817  0.000    28.348     7.894
 148   6 C     -0.031  1.070  2.960  0.000    28.751     8.796
 149   6 C      0.087  1.062  2.851  0.000    25.974     8.354
 150   7 N     -0.085  1.241  3.844  0.000    22.899     7.107
 151   1 H      0.227  0.773  0.000  0.000     0.979     1.550
 152   1 H      0.091  0.909  0.000  0.000     1.865     2.136
 153   1 H      0.081  0.919  0.000  0.000     1.973     2.197
 154   1 H      0.057  0.943  0.000  0.000     2.236     2.339
 155   1 H      0.045  0.955  0.000  0.000     2.386     2.415
 156   1 H      0.068  0.932  0.000  0.000     2.105     2.269
 157   1 H      0.213  0.787  0.000  0.000     1.043     1.600
 158   7 N     -0.182  1.247  3.935  0.000    24.933     7.416
 159   6 C      0.021  1.070  2.909  0.000    20.226     6.405
 160   6 C      0.270  1.048  2.683  0.000    22.448     7.759
 161   8 O     -0.499  1.755  4.744  0.000    23.768     6.536
 162   6 C     -0.069  1.050  3.019  0.000    21.817     6.649
 163   6 C     -0.001  1.078  2.923  0.000    28.039     8.686
 164   6 C     -0.042  1.082  2.960  0.000    29.052     8.839
 165   6 C     -0.041  1.086  2.955  0.000    29.007     8.832
 166   6 C     -0.063  1.074  2.989  0.000    29.561     8.916
 167   6 C     -0.077  1.077  3.000  0.000    29.921     8.970
 168   6 C      0.146  1.043  2.811  0.000    24.814     8.164
 169   8 O     -0.424  1.712  4.712  0.000    21.322     6.233
 170   1 H      0.204  0.796  0.000  0.000     1.087     1.633
 171   1 H      0.093  0.907  0.000  0.000     1.854     2.129
 172   1 H      0.043  0.957  0.000  0.000     2.408     2.427
 173   1 H      0.074  0.926  0.000  0.000     2.046     2.237
 174   1 H      0.039  0.961  0.000  0.000     2.459     2.452
 175   1 H      0.037  0.963  0.000  0.000     2.491     2.468
 176   1 H      0.061  0.939  0.000  0.000     2.191     2.315
 177   1 H      0.044  0.956  0.000  0.000     2.394     2.420
 178   1 H      0.354  0.646  0.000  0.000     0.580     1.196
 179   7 N     -0.170  1.247  3.922  0.000    24.673     7.377
 180   6 C      0.038  1.055  2.907  0.000    19.937     6.359
 181   6 C      0.208  1.090  2.702  0.000    23.588     7.954
 182   8 O     -0.369  1.754  4.615  0.000    21.079     6.156
 183   6 C     -0.131  1.040  3.091  0.000    23.073     6.848
 184   1 H      0.216  0.784  0.000  0.000     1.030     1.590
 185   1 H      0.073  0.927  0.000  0.000     2.051     2.239
 186   1 H      0.076  0.924  0.000  0.000     2.016     2.220
 187   1 H      0.083  0.917  0.000  0.000     1.950     2.184
 188   1 H      0.074  0.926  0.000  0.000     2.042     2.235
 189   7 N     -0.387  1.313  4.073  0.000    30.003     8.135
 190   6 C      0.037  1.056  2.906  0.000    19.966     6.366
 191   6 C      0.193  1.097  2.709  0.000    23.869     8.001
 192   8 O     -0.395  1.768  4.627  0.000    21.588     6.229
 193   6 C     -0.071  1.061  3.010  0.000    21.847     6.652
 194   6 C     -0.009  1.054  2.955  0.000    20.707     6.473
 195   6 C     -0.117  1.044  3.072  0.000    22.779     6.804
 196   6 C     -0.114  1.039  3.075  0.000    22.725     6.796
 197   1 H      0.166  0.834  0.000  0.000     1.295     1.783
 198   1 H      0.066  0.934  0.000  0.000     2.126     2.280
 199   1 H      0.043  0.957  0.000  0.000     2.405     2.425
 200   1 H      0.056  0.944  0.000  0.000     2.245     2.343
 201   1 H      0.032  0.968  0.000  0.000     2.563     2.503
 202   1 H      0.039  0.961  0.000  0.000     2.468     2.457
 203   1 H      0.034  0.966  0.000  0.000     2.530     2.488
 204   1 H      0.047  0.953  0.000  0.000     2.362     2.403
 205   1 H      0.029  0.971  0.000  0.000     2.595     2.519
 206   1 H      0.042  0.958  0.000  0.000     2.417     2.431
 207   1 H      0.043  0.957  0.000  0.000     2.411     2.428
 208   7 N     -0.401  1.321  4.080  0.000    30.393     8.188
 209   6 C      0.031  1.054  2.915  0.000    20.060     6.379
 210   6 C      0.273  1.047  2.680  0.000    22.394     7.750
 211   8 O     -0.525  1.766  4.759  0.000    24.346     6.615
 212   6 C     -0.076  1.066  3.010  0.000    21.936     6.666
 213   6 C     -0.007  1.054  2.953  0.000    20.661     6.465
 214   6 C     -0.108  1.035  3.073  0.000    22.613     6.779
 215   6 C     -0.122  1.043  3.078  0.000    22.888     6.821
 216   1 H      0.171  0.829  0.000  0.000     1.269     1.764
 217   1 H      0.048  0.952  0.000  0.000     2.351     2.398
 218   1 H      0.048  0.952  0.000  0.000     2.347     2.396
 219   1 H      0.049  0.951  0.000  0.000     2.335     2.390
 220   1 H      0.020  0.980  0.000  0.000     2.731     2.584
 221   1 H      0.023  0.977  0.000  0.000     2.688     2.564
 222   1 H      0.034  0.966  0.000  0.000     2.534     2.490
 223   1 H      0.045  0.955  0.000  0.000     2.380     2.412
 224   1 H      0.040  0.960  0.000  0.000     2.444     2.445
 225   1 H      0.039  0.961  0.000  0.000     2.458     2.452
 226   1 H      0.052  0.948  0.000  0.000     2.298     2.370
 227   7 N     -0.174  1.246  3.928  0.000    24.757     7.390
 228   6 C      0.022  1.066  2.912  0.000    20.208     6.402
 229   6 C      0.199  1.089  2.712  0.000    23.765     7.984
 230   8 O     -0.369  1.754  4.615  0.000    21.074     6.155
 231   6 C     -0.072  1.056  3.016  0.000    21.866     6.656
 232   6 C     -0.041  1.065  2.977  0.000    28.973     8.827
 233   6 C     -0.006  1.069  2.936  0.000    28.133     8.700
 234   6 C     -0.028  1.072  2.956  0.000    28.556     8.756
 235   7 N     -0.122  1.240  3.882  0.000    23.645     7.222
 236   6 C      0.041  1.064  2.896  0.000    26.966     8.510
 237   6 C     -0.046  1.079  2.967  0.000    29.142     8.852
 238   6 C     -0.059  1.073  2.986  0.000    29.469     8.901
 239   6 C     -0.050  1.076  2.974  0.000    29.243     8.868
 240   6 C     -0.041  1.077  2.964  0.000    29.017     8.834
 241   1 H      0.222  0.778  0.000  0.000     0.999     1.566
 242   1 H      0.100  0.900  0.000  0.000     1.790     2.092
 243   1 H      0.073  0.927  0.000  0.000     2.051     2.240
 244   1 H      0.075  0.925  0.000  0.000     2.032     2.229
 245   1 H      0.047  0.953  0.000  0.000     2.362     2.403
 246   1 H      0.204  0.796  0.000  0.000     1.088     1.634
 247   1 H      0.033  0.967  0.000  0.000     2.551     2.498
 248   1 H      0.028  0.972  0.000  0.000     2.616     2.529
 249   1 H      0.027  0.973  0.000  0.000     2.632     2.537
 250   1 H      0.027  0.973  0.000  0.000     2.629     2.535
 251   8 O     -0.645  1.751  4.894  0.000    26.292     6.920
 252   1 H      0.278  0.722  0.000  0.000     0.792     1.397
 253   1 H      0.324  0.676  0.000  0.000     0.652     1.269
 254   8 O     -0.648  1.752  4.896  0.000    26.360     6.929
 255   1 H      0.293  0.707  0.000  0.000     0.743     1.354
 256   1 H      0.319  0.681  0.000  0.000     0.668     1.284
 257   8 O     -0.653  1.761  4.892  0.000    26.498     6.947
 258   1 H      0.336  0.664  0.000  0.000     0.621     1.238
 259   1 H      0.312  0.688  0.000  0.000     0.686     1.302
 260   8 O     -0.661  1.769  4.892  0.000    26.688     6.972
 261   1 H      0.298  0.702  0.000  0.000     0.728     1.340
 262   1 H      0.298  0.702  0.000  0.000     0.727     1.339
 263   8 O     -0.640  1.762  4.878  0.000    26.171     6.904
 264   1 H      0.330  0.670  0.000  0.000     0.638     1.254
 265   1 H      0.315  0.685  0.000  0.000     0.677     1.293
 266   8 O     -0.643  1.749  4.894  0.000    26.228     6.912
 267   1 H      0.316  0.684  0.000  0.000     0.674     1.290
 268   1 H      0.305  0.695  0.000  0.000     0.708     1.321
 269   8 O     -0.622  1.757  4.865  0.000    25.713     6.844
 270   1 H      0.334  0.666  0.000  0.000     0.628     1.245
 271   1 H      0.312  0.688  0.000  0.000     0.687     1.302
 272   8 O     -0.627  1.757  4.871  0.000    25.852     6.862
 273   1 H      0.334  0.666  0.000  0.000     0.626     1.243
 274   1 H      0.316  0.684  0.000  0.000     0.674     1.290
 275   8 O     -0.638  1.760  4.879  0.000    26.125     6.899
 276   1 H      0.331  0.669  0.000  0.000     0.635     1.252
 277   1 H      0.308  0.692  0.000  0.000     0.698     1.313
 278   8 O     -0.626  1.755  4.872  0.000    25.819     6.858
 279   1 H      0.338  0.662  0.000  0.000     0.616     1.233
 280   1 H      0.303  0.697  0.000  0.000     0.712     1.325
 281   8 O     -0.615  1.760  4.855  0.000    25.550     6.822
 282   1 H      0.342  0.658  0.000  0.000     0.607     1.224
 283   1 H      0.346  0.654  0.000  0.000     0.598     1.215
 284   8 O     -0.665  1.765  4.900  0.000    26.806     6.988
 285   1 H      0.325  0.675  0.000  0.000     0.650     1.267
 286   1 H      0.330  0.670  0.000  0.000     0.638     1.255
 287   8 O     -0.633  1.771  4.862  0.000    25.985     6.880
 288   1 H      0.325  0.675  0.000  0.000     0.651     1.267
 289   1 H      0.306  0.694  0.000  0.000     0.702     1.316
 290   8 O     -0.652  1.766  4.885  0.000    26.457     6.942
 291   1 H      0.292  0.708  0.000  0.000     0.747     1.357
 292   1 H      0.323  0.677  0.000  0.000     0.655     1.271
 293   8 O     -0.640  1.766  4.874  0.000    26.162     6.903
 294   1 H      0.300  0.700  0.000  0.000     0.721     1.334
 295   1 H      0.316  0.684  0.000  0.000     0.676     1.292
 296   8 O     -0.658  1.757  4.901  0.000    26.614     6.963
 297   1 H      0.323  0.677  0.000  0.000     0.655     1.272
 298   1 H      0.322  0.678  0.000  0.000     0.658     1.274
 299   8 O     -0.658  1.762  4.895  0.000    26.609     6.962
 300   1 H      0.307  0.693  0.000  0.000     0.702     1.316
 301   1 H      0.302  0.698  0.000  0.000     0.715     1.328
 302   8 O     -0.643  1.777  4.866  0.000    26.248     6.915
 303   1 H      0.337  0.663  0.000  0.000     0.619     1.236
 304   1 H      0.307  0.693  0.000  0.000     0.701     1.316
 305   8 O     -0.674  1.768  4.907  0.000    27.036     7.018
 306   1 H      0.311  0.689  0.000  0.000     0.689     1.304
 307   1 H      0.320  0.680  0.000  0.000     0.665     1.281
 308   8 O     -0.636  1.760  4.876  0.000    26.066     6.891
 309   1 H      0.316  0.684  0.000  0.000     0.674     1.290
 310   1 H      0.307  0.693  0.000  0.000     0.702     1.316
 311   8 O     -0.635  1.762  4.873  0.000    26.031     6.886
 312   1 H      0.320  0.680  0.000  0.000     0.664     1.280
 313   1 H      0.311  0.689  0.000  0.000     0.688     1.303
 314   8 O     -0.635  1.765  4.870  0.000    26.046     6.888
 315   1 H      0.317  0.683  0.000  0.000     0.672     1.288
 316   1 H      0.337  0.663  0.000  0.000     0.620     1.237
 317   8 O     -0.640  1.765  4.875  0.000    26.165     6.904
 318   1 H      0.339  0.661  0.000  0.000     0.615     1.231
 319   1 H      0.323  0.677  0.000  0.000     0.655     1.271
 320   8 O     -0.657  1.771  4.886  0.000    26.603     6.961
 321   1 H      0.316  0.684  0.000  0.000     0.676     1.291
 322   1 H      0.324  0.676  0.000  0.000     0.654     1.270
 323   8 O     -0.659  1.774  4.884  0.000    26.632     6.965
 324   1 H      0.329  0.671  0.000  0.000     0.639     1.255
 325   1 H      0.312  0.688  0.000  0.000     0.686     1.301
 326   8 O     -0.625  1.759  4.867  0.000    25.803     6.856
 327   1 H      0.324  0.676  0.000  0.000     0.654     1.270
 328   1 H      0.347  0.653  0.000  0.000     0.596     1.213
 329   8 O     -0.636  1.757  4.879  0.000    26.061     6.890
 330   1 H      0.311  0.689  0.000  0.000     0.689     1.304
 331   1 H      0.312  0.688  0.000  0.000     0.686     1.301
 332   7 N     -0.315  1.330  3.985  0.000    28.090     7.872
 333   6 C      0.025  1.064  2.910  0.000    20.145     6.389
 334   6 C      0.258  1.055  2.687  0.000    22.654     7.795
 335   8 O     -0.512  1.748  4.765  0.000    24.059     6.576
 336   6 C     -0.050  1.048  3.002  0.000    21.447     6.590
 337   6 C     -0.062  1.048  3.014  0.000    21.665     6.623
 338   6 C      0.016  1.043  2.941  0.000    20.364     6.435
 339   1 H      0.057  0.943  0.000  0.000     2.240     2.341
 340   1 H      0.013  0.987  0.000  0.000     2.846     2.638
 341   1 H      0.056  0.944  0.000  0.000     2.244     2.342
 342   1 H      0.034  0.966  0.000  0.000     2.524     2.485
 343   1 H      0.051  0.949  0.000  0.000     2.312     2.378
 344   1 H      0.024  0.976  0.000  0.000     2.668     2.554
 345   1 H      0.030  0.970  0.000  0.000     2.589     2.516
 346   7 N     -0.201  1.270  3.931  0.000    25.376     7.482
 347   6 C      0.040  1.054  2.906  0.000    19.906     6.352
 348   6 C      0.202  1.090  2.709  0.000    23.712     7.975
 349   8 O     -0.370  1.753  4.617  0.000    21.098     6.158
 350   6 C     -0.055  1.051  3.004  0.000    21.547     6.607
 351   6 C     -0.092  1.062  3.030  0.000    22.249     6.715
 352   6 C      0.362  1.031  2.607  0.000    20.860     7.474
 353   8 O     -0.634  1.782  4.852  0.000    26.974     6.963
 354   8 O     -0.623  1.778  4.846  0.000    26.703     6.928
 355   1 H      0.242  0.758  0.000  0.000     0.914     1.498
 356   1 H      0.095  0.905  0.000  0.000     1.827     2.114
 357   1 H      0.052  0.948  0.000  0.000     2.289     2.366
 358   1 H      0.059  0.941  0.000  0.000     2.205     2.322
 359   1 H      0.036  0.964  0.000  0.000     2.506     2.475
 360   1 H      0.034  0.966  0.000  0.000     2.526     2.485
 361   7 N     -0.383  1.309  4.074  0.000    29.903     8.121
 362   6 C      0.043  1.055  2.902  0.000    19.869     6.349
 363   6 C      0.195  1.098  2.707  0.000    23.840     7.996
 364   8 O     -0.364  1.755  4.609  0.000    20.974     6.140
 365   6 C     -0.077  1.060  3.016  0.000    21.956     6.670
 366   6 C     -0.009  1.059  2.949  0.000    20.700     6.471
 367   6 C     -0.116  1.042  3.074  0.000    22.781     6.806
 368   6 C     -0.124  1.038  3.086  0.000    22.919     6.825
 369   1 H      0.155  0.845  0.000  0.000     1.370     1.834
 370   1 H      0.056  0.944  0.000  0.000     2.251     2.346
 371   1 H      0.068  0.932  0.000  0.000     2.104     2.268
 372   1 H      0.047  0.953  0.000  0.000     2.351     2.398
 373   1 H      0.029  0.971  0.000  0.000     2.604     2.523
 374   1 H      0.042  0.958  0.000  0.000     2.424     2.435
 375   1 H      0.029  0.971  0.000  0.000     2.597     2.520
 376   1 H      0.041  0.959  0.000  0.000     2.432     2.439
 377   1 H      0.041  0.959  0.000  0.000     2.437     2.441
 378   1 H      0.059  0.941  0.000  0.000     2.211     2.325
 379   1 H      0.043  0.957  0.000  0.000     2.406     2.426
 380   1 H      0.186  0.814  0.000  0.000     1.181     1.702
 381   1 H      0.051  0.949  0.000  0.000     2.306     2.374
 382   1 H      0.160  0.840  0.000  0.000     1.336     1.810
 383   1 H      0.078  0.922  0.000  0.000     1.996     2.209
 384   1 H      0.179  0.821  0.000  0.000     1.222     1.731
 385   1 H      0.083  0.917  0.000  0.000     1.949     2.183
 386   1 H      0.181  0.819  0.000  0.000     1.209     1.723
 387   1 H      0.091  0.909  0.000  0.000     1.873     2.140
 388   1 H      0.190  0.810  0.000  0.000     1.159     1.686
 389   1 H      0.076  0.924  0.000  0.000     2.021     2.223
 390   1 H      0.178  0.822  0.000  0.000     1.224     1.733
 391   1 H      0.082  0.918  0.000  0.000     1.953     2.185

 Mol. C6AA /au·bohr⁶  :    1294981.342821
 Mol. C8AA /au·bohr⁸  :   28001452.522849
 Mol. α(0) /au        :       1692.226528

 
molecular dipole:
                 x           y           z       tot (Debye)
 q only:      -93.960     -53.385     -45.023
   full:      -94.177     -54.757     -45.354     299.939
molecular quadrupole (traceless):
                xx          xy          yy          xz          yz          zz
 q only:    -3163.735   -3905.707    1644.888   -2966.600   -1680.198    1518.847
  q+dip:    -3143.831   -3990.420    1610.678   -3008.309   -1729.230    1533.153
   full:    -3141.016   -3989.379    1611.397   -3008.516   -1732.008    1529.619
speedup  1.05
cpu  time for grad   13.91 s
wall time for grad   13.22 s

SCC energy    :    -621.8347892
rep           :       6.7722088
ES            :       2.3725072
AES           :      -0.1199460
AXC           :       0.1494847
disp          :      -0.4870306
XB            :       0.0000000
fix           :       0.0000000
Gborn         :       0.0000000
Gsasa         :       0.0000000
Ghb           :       0.0000000
Gshift        :       0.0000000
Gsolv         :      -0.4500642     -282.42
Etot ala COSMO:    -621.8347892
grad norm     :       0.5867153
total E       :    -615.0091711
atomizationE  :     103.5909538    65004.30
(atE without considering molecular charge,
 total energy contains solvation terms)
H-L gap (eV)  :          1.2462

------------------------------------------------------------------------
 * finished run on 2019/05/04 at 19:50:31.943     
------------------------------------------------------------------------
 total:
 * wall-time:     0 d,  0 h,  0 min, 14.529 sec
 *  cpu-time:     0 d,  0 h,  0 min, 14.988 sec
 * ratio c/w:     1.032 speedup
 SCF:
 * wall-time:     0 d,  0 h,  0 min, 14.059 sec
 *  cpu-time:     0 d,  0 h,  0 min, 14.654 sec
 * ratio c/w:     1.042 speedup

