      -----------------------------------------------------------      
     |                   =====================                   |     
     |                           x T B                           |     
     |                   =====================                   |     
     |                         S. Grimme                         |     
     |          Mulliken Center for Theoretical Chemistry        |     
     |                    University of Bonn                     |     
     |                 Version 6.0.1 (SAW181210)                 |     
      -----------------------------------------------------------      

   This program is distributed in the hope that it will be useful,
   but WITHOUT ANY WARRANTY; without even the implied warranty of
   MERCHANTABILITY or FITNESS FOR A PARTICULAR PURPOSE.
   
   FOR NON-COMMERCIAL, ACADEMIA USE ONLY.
   
   Cite this work as:
   S. Grimme, C. Bannwarth, P. Shushkov, J. Comput. Theory Chem., 2017,
   13, 1989-2009.
   C. Bannwarth, S. Ehlert and S. Grimme., ChemRxiv, 2018, preprint.
   http://doi.org/10.26434/chemrxiv.7246238.v1
   
   for sTDA-xTB:
   S. Grimme and C. Bannwarth, J. Chem. Phys., 2016, 145, 054103.
   
   in the mass-spec context:
   V. Asgeirsson, C. Bauer and S. Grimme, Chem. Sci., 2017, 8, 4879.
   
   if GBSA is used:
   P. Shushkov, F. März and S. Grimme, unpublished.
   
   for ANC optimizer:
   S. Grimme, unpublished.
   Rational Function algorithm used in ANCopt:
   F. Eckert, P. Pulay, H.-J. Werner, J. Comput. Chem., 1997, 18, 1473.
   
   with help from (in alphabetical order)
   C. Bannwarth, F. Bohle, G. Brandenburg, E. Caldeweyher, M. Checinski,
   S. Dohm, S. Ehlert, S. Ehrlich, F. März, H. Neugebauer, J. Pisarek,
   P. Pracht, P. Shushkov, and S. Spicher.
   
 * started run on 2019/05/12 at 13:11:33.960     
========================================================================
 # omp threads = 2
========================================================================
number of atoms            : 711
number of electrons        : 1866
charge                     : 2
spin                       : .0
first test random number   : .3264

########################################################################
# WARNING! Please study the warnings concerning your input carefully
#  - Process number higher than OMP_NUM_THREADS, I hope you know what you are doing.
########################################################################

           ------------------------------------------------- 
          |                 G F N 2 - x T B                 |
          | Geometry, Frequencies, Noncovalent interactions |
          |            JCTC 2018 parametrisation            |
           ------------------------------------------------- 
 
      method parameters     
 k(s)        :  1.8500
 k(p)        :  2.2300
 k(d)        :  2.2300
 k(f)        :  2.0000
 kEN (H0ij)  : -2.0000
 D4 a1       :  0.5200
 D4 a2       :  5.0000
 D4 s6       :  1.0000
 D4 s8       :  2.7000
 D4 s9       :  5.0000
 alphaj      :  2.0000

 Solvent             : h2o
 Using internal parameter file: .param_gbsa2_h2o
 Gsolv ref. state (COSMO-RS): gsolv [1 M gas/solution]
 temperature (mdtemp)       :    298.150000000000     
 dielectric constant        :    80.2000000000000     
 rho                        :    1.00000000000000     
 mass                       :    18.0000000000000     
 surface tension            :    15.5689454083859     
 probe radius               :   0.975313790000000     
 vdW radii scaling          :    1.00000000000000     
 Gshift (Eh)                :   1.857443126794793E-003
 c1                         :    1.55243817000000     
 soset                      :   0.130326360000000     
 HB correction              :  T

            Z     q(EN)     CN     RAES       Cart. coordinates
     1  N   5.0   -0.21    3.23    1.96   120.25365    94.95206   379.91347
     2  C   4.0    0.03    4.32    4.23   119.69648    95.17403   377.17142
     3  C   4.0    0.15    3.38    3.07   119.17111    97.82524   376.42035
     4  O   6.0   -0.30    1.20    1.80   120.39758    99.01669   374.71991
     5  C   4.0   -0.07    4.21    4.03   117.72847    93.35005   376.39823
     6  H   1.0    0.10    1.06    1.44   119.31977    93.63459   380.69824
     7  H   1.0    0.06    1.09    1.44   121.40720    94.67983   376.24354
     8  H   1.0    0.06    1.04    1.43   117.47242    93.44005   374.47013
     9  H   1.0    0.05    1.03    1.43   118.26571    91.50888   376.81912
    10  H   1.0    0.05    1.05    1.44   116.09146    93.74111   377.28819
    11  N   5.0   -0.15    3.45    2.05   117.19867    98.86932   377.82053
    12  C   4.0    0.03    4.38    4.34   116.41162   101.54001   377.75741
    13  C   4.0    0.08    3.26    3.05   118.68668   103.32870   378.04506
    14  O   6.0   -0.31    1.12    1.80   119.43882   104.85373   376.33682
    15  C   4.0   -0.06    4.50    4.54   114.39418   102.14749   379.37905
    16  C   4.0   -0.05    4.25    4.10   113.55302   104.76830   379.21596
    17  S   6.0   -0.06    2.62    3.10   111.19088   105.66526   381.59728
    18  C   4.0   -0.08    4.00    3.62   113.32259   105.93015   384.04898
    19  H   1.0    0.08    1.09    1.44   116.25212    97.94520   379.05716
    20  H   1.0    0.05    1.10    1.44   115.81808   101.74270   375.84137
    21  H   1.0    0.04    1.09    1.44   112.85614   100.98193   379.10824
    22  H   1.0    0.04    1.10    1.44   114.98074   101.88317   381.24300
    23  H   1.0    0.04    1.13    1.45   114.99180   106.00483   379.34026
    24  H   1.0    0.04    1.12    1.45   112.63887   105.04483   377.48782
    25  H   1.0    0.04    1.08    1.44   112.31742   106.42143   385.70337
    26  H   1.0    0.04    1.09    1.44   114.08821   104.17037   384.44307
    27  H   1.0    0.04    1.10    1.44   114.66449   107.20460   383.75477
    28  N   5.0   -0.20    3.32    1.99   123.99311   102.59727   372.66172
    29  C   4.0    0.04    4.39    4.36   123.01269   103.77483   370.57895
    30  C   4.0    0.15    3.46    3.10   123.18432   106.75515   370.65405
    31  O   6.0   -0.28    1.25    1.80   123.99441   108.06295   368.93378
    32  C   4.0   -0.04    4.52    4.56   120.43787   103.02269   370.14488
    33  C   4.0   -0.03    4.32    4.23   118.87452   104.38790   368.05555
    34  C   4.0   -0.07    4.25    4.09   119.84648   104.16702   365.52723
    35  C   4.0   -0.08    4.22    4.04   116.14835   103.50702   368.12339
    36  H   1.0    0.13    1.10    1.44   123.01608   101.31204   373.38129
    37  H   1.0    0.05    1.10    1.44   124.15620   103.34457   369.00601
    38  H   1.0    0.05    1.09    1.44   120.36188   101.16031   369.70244
    39  H   1.0    0.06    1.09    1.44   119.42416   103.34161   371.77908
    40  H   1.0    0.05    1.13    1.45   119.07132   106.29179   368.39812
    41  H   1.0    0.05    1.05    1.44   118.86592   105.06914   364.20501
    42  H   1.0    0.06    1.03    1.43   121.75227   104.71863   365.41622
    43  H   1.0    0.05    1.03    1.43   119.92422   102.21632   365.01131
    44  H   1.0    0.04    1.04    1.43   115.14339   104.46900   366.78414
    45  H   1.0    0.05    1.05    1.44   116.05828   101.63461   367.81560
    46  H   1.0    0.04    1.04    1.43   115.40772   103.93671   369.87130
    47  N   5.0   -0.15    3.55    2.12   122.24391   107.88572   372.67818
    48  C   4.0    0.04    4.46    4.47   122.37647   110.57655   372.97926
    49  C   4.0    0.09    3.25    3.04   124.97238   111.66678   373.05213
    50  O   6.0   -0.28    1.14    1.80   125.19224   113.82996   372.08111
    51  C   4.0   -0.05    4.52    4.56   120.76862   111.27098   375.06368
    52  C   4.0   -0.03    4.30    4.20   117.92721   110.79093   375.12143
    53  C   4.0   -0.08    4.24    4.07   116.83645   111.08278   377.74690
    54  C   4.0   -0.09    4.26    4.12   116.44979   112.55266   373.54728
    55  H   1.0    0.11    1.12    1.45   121.62112   106.96079   374.13553
    56  H   1.0    0.06    1.13    1.45   121.54325   111.29423   371.35086
    57  H   1.0    0.05    1.08    1.44   121.51694   110.52592   376.73163
    58  H   1.0    0.04    1.07    1.44   120.97466   113.27216   375.34404
    59  H   1.0    0.05    1.12    1.45   117.79767   109.00779   374.43496
    60  H   1.0    0.04    1.04    1.43   114.94703   110.71916   377.71105
    61  H   1.0    0.04    1.03    1.43   117.66407   109.73119   378.94095
    62  H   1.0    0.04    1.04    1.43   117.18994   112.80388   378.48280
    63  H   1.0    0.04    1.05    1.44   114.64025   112.16088   373.60119
    64  H   1.0    0.04    1.04    1.43   116.84776   114.37976   374.09442
    65  H   1.0    0.04    1.03    1.43   117.13637   112.39609   371.68685
    66  N   5.0   -0.19    3.23    1.96   125.68018   119.24258   370.09516
    67  C   4.0    0.03    4.39    4.36   123.82948   120.69617   371.67865
    68  C   4.0    0.08    3.30    3.05   124.77619   121.11874   374.25308
    69  O   6.0   -0.26    1.11    1.80   125.26721   123.37513   375.00114
    70  C   4.0   -0.05    4.66    4.73   121.45732   119.41657   371.80814
    71  C   4.0   -0.03    4.40    4.39   119.63367   120.42693   370.03572
    72  C   4.0   -0.08    4.27    4.14   120.32427   119.40729   367.37362
    73  C   4.0   -0.08    4.34    4.27   117.19440   119.54791   370.62915
    74  H   1.0    0.11    1.06    1.44   125.28145   117.52020   369.89348
    75  H   1.0    0.06    1.12    1.45   123.75471   122.40089   370.73590
    76  H   1.0    0.05    1.10    1.44   121.66746   117.50792   371.44666
    77  H   1.0    0.04    1.12    1.45   120.72136   119.62377   373.57895
    78  H   1.0    0.05    1.12    1.45   119.55970   122.35160   369.88772
    79  H   1.0    0.05    1.02    1.43   119.08077   120.09865   366.00970
    80  H   1.0    0.05    1.03    1.43   122.09363   120.07674   366.88392
    81  H   1.0    0.05    1.04    1.43   120.30850   117.51404   367.32627
    82  H   1.0    0.04    1.03    1.43   115.76734   120.23080   369.41387
    83  H   1.0    0.04    1.04    1.44   117.02753   117.61078   370.58776
    84  H   1.0    0.04    1.04    1.43   116.64766   120.13941   372.41936
    85  N   5.0   -0.21    3.25    1.97   121.29489   119.75502   388.76357
    86  C   4.0    0.03    4.36    4.32   118.75701   118.86210   388.29043
    87  C   4.0    0.09    3.30    3.05   117.09695   119.53148   390.41063
    88  O   6.0   -0.32    1.19    1.80   114.87043   119.22610   390.29235
    89  C   4.0   -0.04    4.72    4.78   118.66981   116.08821   387.71621
    90  C   4.0   -0.04    4.54    4.59   116.30016   114.99750   387.28556
    91  C   4.0   -0.06    4.74    4.79   116.45590   112.96005   385.66908
    92  C   4.0   -0.04    4.76    4.81   115.49892   113.57896   389.26078
    93  H   1.0    0.10    1.06    1.44   122.45598   118.44542   389.16670
    94  H   1.0    0.04    1.11    1.45   118.07942   119.76867   386.69327
    95  H   1.0    0.04    1.10    1.44   119.80914   115.72746   386.16866
    96  H   1.0    0.04    1.10    1.44   119.55826   115.17227   389.23833
    97  H   1.0    0.05    1.16    1.45   115.05242   116.37436   386.83580
    98  H   1.0    0.03    1.06    1.44   114.77728   112.05785   385.30586
    99  H   1.0    0.03    1.04    1.43   117.03501   113.64722   383.84342
   100  H   1.0    0.03    1.07    1.44   117.78739   111.65658   386.13825
   101  H   1.0    0.03    1.06    1.44   113.69542   112.87403   389.05536
   102  H   1.0    0.04    1.08    1.44   116.68303   112.26849   389.87979
   103  H   1.0    0.05    1.03    1.43   115.25024   114.86203   390.88372
   104  N   5.0   -0.22    3.28    1.97   109.82140   126.19155   382.40845
   105  C   4.0    0.03    4.50    4.54   107.69991   124.45472   382.30572
   106  C   4.0    0.15    3.43    3.09   106.35264   124.73559   379.81453
   107  O   6.0   -0.32    1.26    1.80   105.84988   122.82066   378.61684
   108  C   4.0   -0.04    4.46    4.48   105.96946   124.63031   384.48046
   109  C   4.0   -0.03    3.76    3.30   107.03614   123.99272   386.78985
   110  C   4.0   -0.01    3.81    3.35   109.23791   122.99403   387.18680
   111  C   4.0    0.02    4.20    4.00   106.11190   124.55020   389.33250
   112  N   5.0   -0.12    3.62    2.18   109.70362   122.65591   389.82904
   113  C   4.0    0.04    4.09    3.78   107.94838   123.63261   391.08947
   114  C   4.0   -0.04    3.59    3.16   103.91436   125.62039   390.26948
   115  C   4.0   -0.05    3.56    3.14   107.44961   123.44746   393.49673
   116  C   4.0   -0.03    3.57    3.15   103.49711   125.54283   392.46102
   117  C   4.0   -0.02    3.71    3.25   105.22458   124.36977   394.06449
   118  H   1.0    0.09    1.05    1.44   109.59014   127.50775   383.64921
   119  H   1.0    0.04    1.13    1.45   108.43314   122.66008   382.34126
   120  H   1.0    0.05    1.06    1.44   105.39668   126.60757   384.56631
   121  H   1.0    0.05    1.09    1.44   104.35878   123.67264   384.18212
   122  H   1.0    0.05    1.06    1.44   110.49201   122.46169   385.84788
   123  H   1.0    0.10    1.08    1.44   111.20316   121.82793   390.42548
   124  H   1.0    0.06    1.10    1.44   102.62304   126.36344   389.05441
   125  H   1.0    0.06    1.08    1.44   108.64574   122.82914   394.79648
   126  H   1.0    0.07    1.09    1.44   101.89691   126.28821   393.22436
   127  H   1.0    0.06    1.04    1.43   104.80339   124.54649   396.07455
   128  N   5.0   -0.15    3.44    2.04   105.69183   127.09848   379.08397
   129  C   4.0    0.04    4.44    4.45   104.38405   127.58058   376.65592
   130  C   4.0    0.15    3.44    3.09   105.93499   126.68458   374.33545
   131  O   6.0   -0.30    1.25    1.80   104.95351   125.05568   372.98093
   132  C   4.0   -0.04    4.27    4.14   103.53669   130.34337   376.51883
   133  C   4.0    0.23    3.08    3.02   100.93561   130.75183   377.75282
   134  O   6.0   -0.25    1.09    1.80    99.59124   128.60144   378.52294
   135  O   6.0   -0.24    1.10    1.80   100.11080   133.08372   377.94507
   136  H   1.0    0.09    1.10    1.44   105.96566   128.57018   380.00242
   137  H   1.0    0.08    1.11    1.44   102.76682   126.44715   376.65445
   138  H   1.0    0.05    1.08    1.44   104.80573   131.41539   377.38403
   139  H   1.0    0.06    1.07    1.44   103.36602   130.79384   374.63572
   140  N   5.0   -0.10    3.66    2.22   108.29786   127.59898   373.96313
   141  C   4.0    0.04    4.72    4.78   110.08755   126.44105   372.30841
   142  C   4.0    0.16    3.48    3.11   110.13593   123.54590   371.91785
   143  O   6.0   -0.31    1.30    1.80   110.00601   122.57764   369.78058
   144  C   4.0   -0.05    4.52    4.56   112.60646   127.39545   373.17948
   145  C   4.0   -0.04    4.45    4.46   112.04014   129.91189   374.05800
   146  C   4.0   -0.01    4.50    4.53   109.46757   129.74837   375.16070
   147  H   1.0    0.06    1.08    1.44   109.53632   127.19446   370.49624
   148  H   1.0    0.04    1.09    1.44   113.34725   126.28553   374.48490
   149  H   1.0    0.05    1.06    1.44   113.85356   127.54687   371.63603
   150  H   1.0    0.05    1.07    1.44   113.36019   130.49840   375.39314
   151  H   1.0    0.05    1.07    1.44   112.02861   131.26091   372.65595
   152  H   1.0    0.05    1.04    1.43   109.60551   129.53570   377.17933
   153  H   1.0    0.05    1.05    1.44   108.43202   131.39714   374.95247
   154  N   5.0   -0.14    3.60    2.15   110.41340   122.27725   373.82467
   155  C   4.0    0.03    4.67    4.73   110.33019   119.63748   374.00020
   156  C   4.0    0.16    3.59    3.16   107.98852   118.68398   372.82605
   157  O   6.0   -0.31    1.32    1.80   107.99860   117.09922   371.18421
   158  C   4.0   -0.03    4.49    4.53   110.76546   118.46120   376.70956
   159  C   4.0   -0.06    4.38    4.35   113.30830   118.94596   377.51828
   160  C   4.0   -0.08    4.32    4.23   110.09189   115.80593   376.62163
   161  C   4.0   -0.08    4.18    3.97   113.54795   119.15639   380.26925
   162  H   1.0    0.08    1.09    1.44   110.60105   123.06619   375.59801
   163  H   1.0    0.05    1.12    1.45   111.84184   118.99349   372.94379
   164  H   1.0    0.05    1.11    1.45   109.51619   119.41143   377.92163
   165  H   1.0    0.03    1.10    1.44   114.51501   117.58252   376.95458
   166  H   1.0    0.04    1.09    1.44   113.98571   120.68493   376.85615
   167  H   1.0    0.04    1.04    1.43   110.47672   115.01439   378.40083
   168  H   1.0    0.05    1.05    1.44   108.21553   115.52244   376.28788
   169  H   1.0    0.04    1.05    1.44   111.15499   114.87560   375.33604
   170  H   1.0    0.04    1.03    1.43   115.38791   119.48751   380.83351
   171  H   1.0    0.04    1.04    1.43   112.43960   120.56170   380.98663
   172  H   1.0    0.04    1.04    1.43   112.99621   117.46861   381.08948
   173  N   5.0   -0.14    3.55    2.11   105.77977   119.43343   373.77485
   174  C   4.0    0.03    4.55    4.60   103.33746   118.61258   373.02029
   175  C   4.0    0.15    3.45    3.10   103.09409   118.78770   369.99270
   176  O   6.0   -0.31    1.26    1.80   102.63306   116.90524   368.50178
   177  C   4.0    0.05    4.41    4.39   101.24386   119.92748   374.26025
   178  O   6.0   -0.25    2.23    1.86   101.25574   119.93786   376.87971
   179  C   4.0   -0.06    4.36    4.30    98.95494   118.66603   373.66446
   180  H   1.0    0.11    1.12    1.45   105.65467   120.68142   375.10994
   181  H   1.0    0.05    1.11    1.44   103.19495   116.67752   373.35335
   182  H   1.0    0.06    1.10    1.44   101.19832   121.76412   373.60279
   183  H   1.0    0.14    1.07    1.44   102.88518   120.61377   377.34292
   184  H   1.0    0.05    1.03    1.43    97.37007   119.54738   374.48714
   185  H   1.0    0.05    1.03    1.43    98.51387   118.73846   371.71373
   186  H   1.0    0.05    1.07    1.44    98.88478   116.82958   374.16188
   187  N   5.0   -0.14    3.51    2.08   103.46723   121.15089   369.14536
   188  C   4.0    0.04    4.39    4.37   103.85251   121.73542   366.60366
   189  C   4.0    0.15    3.44    3.09   105.30747   119.70735   365.06900
   190  O   6.0   -0.30    1.18    1.80   104.28836   118.63088   363.05395
   191  C   4.0   -0.06    4.24    4.07   105.09893   124.21397   366.36920
   192  H   1.0    0.11    1.13    1.45   103.70392   122.58569   370.24380
   193  H   1.0    0.06    1.09    1.44   102.01238   121.76519   365.77195
   194  H   1.0    0.05    1.01    1.43   105.03358   124.83301   364.41249
   195  H   1.0    0.06    1.02    1.43   103.96224   125.64478   367.22092
   196  H   1.0    0.07    1.05    1.44   106.82482   124.30004   366.96330
   197  N   5.0   -0.14    3.54    2.11   107.73856   119.32290   365.87223
   198  C   4.0    0.04    4.42    4.41   109.55649   117.92375   364.53953
   199  C   4.0    0.15    3.49    3.11   108.80183   115.13576   364.49931
   200  O   6.0   -0.31    1.26    1.80   108.80215   113.90140   362.44072
   201  C   4.0   -0.07    4.25    4.10   112.04526   118.56488   365.35944
   202  H   1.0    0.12    1.12    1.45   108.28514   120.03284   367.45749
   203  H   1.0    0.06    1.11    1.45   109.38607   118.49750   362.62337
   204  H   1.0    0.04    1.04    1.43   113.35549   117.42918   364.38311
   205  H   1.0    0.05    1.05    1.44   112.51432   120.36484   365.16336
   206  H   1.0    0.05    1.04    1.43   112.23340   118.00665   367.24665
   207  N   5.0   -0.14    3.57    2.13   108.14186   114.00520   366.57061
   208  C   4.0    0.04    4.55    4.60   107.27724   111.50648   366.65983
   209  C   4.0    0.16    3.45    3.10   104.76621   111.12134   365.25638
   210  O   6.0   -0.32    1.26    1.80   104.28834   109.08892   364.33921
   211  C   4.0   -0.05    4.54    4.59   107.06524   110.60033   369.26079
   212  C   4.0   -0.03    4.31    4.21   109.42739   110.18303   370.77515
   213  C   4.0   -0.09    4.19    3.97   108.87461   109.76544   373.53302
   214  C   4.0   -0.09    4.22    4.05   110.91801   108.09622   369.52703
   215  H   1.0    0.11    1.13    1.45   108.08773   114.91803   368.19263
   216  H   1.0    0.05    1.14    1.45   108.55898   110.41115   365.77008
   217  H   1.0    0.05    1.07    1.44   105.93689   111.90830   370.29617
   218  H   1.0    0.04    1.08    1.44   106.01741   108.93979   369.32154
   219  H   1.0    0.04    1.11    1.45   110.52600   111.77589   370.71601
   220  H   1.0    0.04    1.04    1.43   110.49693   109.47690   374.52289
   221  H   1.0    0.04    1.04    1.43   107.89253   111.24324   374.28668
   222  H   1.0    0.04    1.03    1.43   107.75860   108.15297   373.72509
   223  H   1.0    0.04    1.04    1.43   112.49315   107.74551   370.57059
   224  H   1.0    0.04    1.04    1.43   109.80772   106.48278   369.54500
   225  H   1.0    0.04    1.04    1.44   111.35147   108.56993   367.74316
   226  N   5.0   -0.14    3.51    2.08   103.10851   113.03397   365.08161
   227  C   4.0    0.04    4.48    4.51   100.94045   113.05786   363.44808
   228  C   4.0    0.15    3.46    3.10   101.63216   112.69063   360.69947
   229  O   6.0   -0.31    1.25    1.80   100.75240   110.83039   359.38778
   230  C   4.0    0.04    4.30    4.20    99.32219   115.37245   363.70933
   231  O   6.0   -0.25    2.12    1.84    98.04700   115.34591   365.90311
   232  H   1.0    0.12    1.13    1.45   103.34747   114.66683   365.89300
   233  H   1.0    0.06    1.11    1.45    99.87078   111.51041   363.99542
   234  H   1.0    0.07    1.07    1.44   100.40390   116.93958   363.51013
   235  H   1.0    0.05    1.06    1.44    97.93606   115.36522   362.32891
   236  H   1.0    0.14    1.07    1.44    99.27022   115.16392   367.23233
   237  N   5.0   -0.15    3.46    2.05   103.08899   114.41860   359.67940
   238  C   4.0    0.03    4.47    4.49   104.24425   114.09867   357.08910
   239  C   4.0    0.16    3.49    3.11   105.17972   111.37380   356.62637
   240  O   6.0   -0.32    1.38    1.80   104.42092   110.08035   354.88067
   241  C   4.0   -0.05    4.43    4.43   106.23892   115.91781   356.61840
   242  C   4.0   -0.03    4.31    4.22   105.41211   118.51500   356.45707
   243  C   4.0    0.14    3.22    3.04   104.35123   119.13429   353.80845
   244  O   6.0   -0.28    1.12    1.80   105.98092   119.60684   351.99546
   245  N   5.0   -0.22    3.12    1.94   101.66084   119.19697   353.64115
   246  H   1.0    0.11    1.12    1.45   103.67972   115.87700   360.49669
   247  H   1.0    0.05    1.11    1.45   102.78633   114.43497   355.84146
   248  H   1.0    0.06    1.07    1.44   107.53606   115.85412   358.16082
   249  H   1.0    0.05    1.09    1.44   107.26408   115.48167   355.05470
   250  H   1.0    0.05    1.08    1.44   104.13160   118.99424   357.78663
   251  H   1.0    0.06    1.05    1.44   106.95994   119.79531   356.68444
   252  H   1.0    0.09    1.05    1.44   100.75250   118.96221   355.13396
   253  H   1.0    0.11    1.05    1.44   100.96540   119.59114   352.10525
   254  N   5.0   -0.14    3.55    2.12   106.85787   110.39169   358.28271
   255  C   4.0    0.04    4.54    4.59   107.74499   107.95783   358.08350
   256  C   4.0    0.17    3.51    3.12   105.56382   106.01359   357.77137
   257  O   6.0   -0.30    1.26    1.80   105.64945   104.42193   356.07754
   258  C   4.0   -0.05    4.47    4.49   109.42927   107.26857   360.15086
   259  C   4.0   -0.05    4.37    4.32   110.94615   104.97510   359.90714
   260  C   4.0   -0.00    4.41    4.40   111.65366   103.84070   362.33133
   261  N   5.0   -0.15    3.44    2.04   112.85020   101.49577   362.38275
   262  C   4.0    0.09    3.42    3.09   115.10167   101.17114   361.27743
   263  N   5.0   -0.22    3.26    1.97   116.31147   103.14759   359.98862
   264  N   5.0   -0.20    3.24    1.96   116.05347    98.82436   361.13629
   265  H   1.0    0.11    1.12    1.45   107.35067   111.31271   359.76074
   266  H   1.0    0.05    1.12    1.45   108.76014   107.80169   356.42778
   267  H   1.0    0.05    1.09    1.44   110.65990   108.70192   360.50933
   268  H   1.0    0.06    1.08    1.44   108.33398   107.04513   361.80715
   269  H   1.0    0.06    1.08    1.44   109.80402   103.57239   359.02585
   270  H   1.0    0.04    1.10    1.44   112.45700   105.24761   358.80988
   271  H   1.0    0.04    1.07    1.44   112.94414   105.15407   363.17137
   272  H   1.0    0.05    1.08    1.44   110.13843   103.81494   363.55095
   273  H   1.0    0.12    1.13    1.45   111.97209   100.07513   362.97040
   274  H   1.0    0.09    1.08    1.44   115.56950   104.68730   360.04941
   275  H   1.0    0.10    1.06    1.44   117.91804   102.78130   359.35594
   276  H   1.0    0.10    1.05    1.44   115.17301    97.42978   361.86923
   277  H   1.0    0.10    1.05    1.44   117.66072    98.49926   360.43773
   278  N   5.0   -0.13    3.46    2.05   103.61683   106.12070   359.27685
   279  C   4.0    0.04    4.34    4.28   101.36198   104.55820   358.93712
   280  C   4.0    0.16    3.40    3.08   100.15224   104.81035   356.16982
   281  O   6.0   -0.29    1.24    1.80    99.29639   102.98305   354.92462
   282  C   4.0   -0.08    4.16    3.91    99.34728   104.87758   360.93468
   283  H   1.0    0.11    1.11    1.45   103.35172   107.38287   360.54392
   284  H   1.0    0.07    1.10    1.44   102.03387   102.69054   359.07021
   285  H   1.0    0.04    1.04    1.43    97.93938   103.64274   360.67434
   286  H   1.0    0.05    1.04    1.43   100.17398   104.65082   362.66996
   287  H   1.0    0.06    1.04    1.43    98.70567   106.70172   360.78784
   288  N   5.0   -0.14    3.56    2.12   100.03703   107.06463   355.23965
   289  C   4.0    0.04    4.63    4.69    99.02346   107.51638   352.80803
   290  C   4.0    0.16    3.49    3.11   100.67619   106.80978   350.68559
   291  O   6.0   -0.26    1.22    1.80   100.02409   105.08885   349.20431
   292  C   4.0   -0.04    4.69    4.75    98.15646   110.21125   352.45372
   293  C   4.0   -0.05    4.28    4.17    95.95215   110.59312   354.24445
   294  S   6.0   -0.02    2.84    3.11    94.49037   113.15042   353.19885
   295  C   4.0   -0.07    4.05    3.71    97.07698   115.22783   354.18191
   296  H   1.0    0.12    1.13    1.45   100.76867   108.52518   356.04649
   297  H   1.0    0.07    1.12    1.45    97.42831   106.30268   352.73412
   298  H   1.0    0.05    1.11    1.45    99.48073   111.39852   353.02908
   299  H   1.0    0.05    1.13    1.45    97.52896   110.50561   350.68857
   300  H   1.0    0.05    1.14    1.45    94.64397   109.06349   354.01817
   301  H   1.0    0.05    1.14    1.45    96.44305   110.64865   356.05763
   302  H   1.0    0.05    1.06    1.44    96.55085   117.13117   353.91966
   303  H   1.0    0.05    1.08    1.44    97.36432   115.00098   356.07358
   304  H   1.0    0.05    1.08    1.44    98.64760   114.90352   353.17889
   305  N   5.0   -0.15    3.56    2.12   102.82831   108.04253   350.45142
   306  C   4.0    0.04    4.59    4.65   104.66734   107.79012   348.54483
   307  C   4.0    0.15    3.40    3.08   105.81924   105.01905   348.10588
   308  O   6.0   -0.26    1.19    1.80   105.93701   103.96601   345.94231
   309  C   4.0   -0.03    4.53    4.58   106.69025   109.67136   348.64106
   310  C   4.0   -0.04    4.42    4.41   105.56565   112.18936   348.43962
   311  C   4.0   -0.07    4.33    4.26   108.67764   109.17738   346.81202
   312  C   4.0   -0.07    4.14    3.88   107.29543   114.34895   349.03353
   313  H   1.0    0.12    1.18    1.46   103.56530   108.87353   351.90321
   314  H   1.0    0.07    1.11    1.45   103.59922   108.01455   346.86162
   315  H   1.0    0.05    1.14    1.45   107.58892   109.57432   350.35723
   316  H   1.0    0.05    1.07    1.44   105.05201   112.50710   346.52720
   317  H   1.0    0.05    1.09    1.44   104.00076   112.36613   349.48802
   318  H   1.0    0.05    1.04    1.43   110.06924   110.54038   346.83992
   319  H   1.0    0.05    1.05    1.44   109.52313   107.45282   347.07360
   320  H   1.0    0.06    1.04    1.43   107.94572   109.17388   344.97939
   321  H   1.0    0.07    1.04    1.43   106.41145   116.03495   348.82702
   322  H   1.0    0.05    1.04    1.43   107.83144   114.13946   350.90107
   323  H   1.0    0.05    1.04    1.43   108.87314   114.28162   347.93453
   324  N   5.0   -0.15    3.55    2.11   106.70764   103.85591   350.12511
   325  C   4.0    0.04    4.57    4.63   107.92947   101.38774   350.09435
   326  C   4.0    0.17    3.51    3.12   106.29067    99.39891   351.13925
   327  O   6.0   -0.29    1.32    1.80   107.09666    97.30954   351.27184
   328  C   4.0   -0.04    4.61    4.67   110.42100   101.37555   351.48434
   329  C   4.0   -0.03    4.44    4.44   111.98468   103.65751   350.77888
   330  C   4.0   -0.08    4.34    4.28   113.86227   104.33690   352.54149
   331  C   4.0   -0.06    4.46    4.47   113.04224   103.06756   348.48995
   332  H   1.0    0.10    1.09    1.44   106.63175   104.62714   351.79611
   333  H   1.0    0.07    1.13    1.45   108.32907   101.07820   348.24621
   334  H   1.0    0.05    1.07    1.44   110.01950   101.55297   353.43600
   335  H   1.0    0.05    1.09    1.44   111.36888    99.80325   351.18330
   336  H   1.0    0.04    1.15    1.45   110.89644   105.27943   350.63318
   337  H   1.0    0.04    1.04    1.43   115.00060   105.79566   352.01384
   338  H   1.0    0.04    1.03    1.43   113.09464   104.81010   354.30760
   339  H   1.0    0.04    1.04    1.43   115.05590   102.79079   352.93644
   340  H   1.0    0.05    1.04    1.43   114.25102   104.47372   347.77175
   341  H   1.0    0.05    1.05    1.44   114.15467   101.44308   348.55073
   342  H   1.0    0.05    1.05    1.44   111.73287   102.75908   347.05612
   343  N   5.0   -0.13    3.53    2.10   104.10890   100.04219   352.11141
   344  C   4.0    0.03    4.39    4.36   102.29972    98.24575   352.98270
   345  C   4.0    0.16    3.36    3.07   103.15378    96.83399   355.22191
   346  O   6.0   -0.29    1.21    1.80   102.18750    94.71895   355.72953
   347  H   1.0    0.11    1.11    1.44   103.42753   101.72612   352.17996
   348  H   1.0    0.07    1.07    1.44   100.56367    99.07498   353.38156
   349  H   1.0    0.07    1.07    1.44   101.90739    96.92569   351.55934
   350  N   5.0   -0.14    3.50    2.07   104.92583    97.95299   356.58824
   351  C   4.0    0.03    4.45    4.46   105.84188    97.03436   359.12828
   352  C   4.0    0.15    3.38    3.07   104.74918    98.66229   361.32420
   353  O   6.0   -0.29    1.21    1.80   105.28226   100.98908   361.39586
   354  C   4.0   -0.04    4.38    4.34   108.58973    96.94567   359.16280
   355  C   4.0   -0.05    4.34    4.27   109.63154    94.62013   357.88334
   356  C   4.0   -0.05    4.28    4.16   112.03385    95.16524   356.33307
   357  C   4.0   -0.03    4.24    4.08   112.76326    93.00940   354.81000
   358  N   5.0   -0.14    4.10    3.14   112.88668    90.58374   356.35339
   359  H   1.0    0.11    1.11    1.45   105.63691    99.53174   356.19793
   360  H   1.0    0.06    1.11    1.45   105.13369    95.22238   359.30332
   361  H   1.0    0.05    1.08    1.44   109.32307    98.53273   358.23516
   362  H   1.0    0.06    1.08    1.44   109.25228    96.99728   360.97542
   363  H   1.0    0.05    1.08    1.44   110.06635    93.29441   359.17837
   364  H   1.0    0.06    1.09    1.44   108.36039    93.97114   356.60341
   365  H   1.0    0.05    1.07    1.44   111.82612    96.78123   355.29807
   366  H   1.0    0.04    1.06    1.44   113.52124    95.52955   357.62346
   367  H   1.0    0.06    1.06    1.44   111.40716    92.80369   353.38622
   368  H   1.0    0.05    1.06    1.44   114.45854    93.33759   353.89797
   369  H   1.0    0.07    1.05    1.44   113.31884    89.22308   355.18005
   370  H   1.0    0.07    1.06    1.44   114.22148    90.76260   357.52845
   371  H   1.0    0.07    1.07    1.44   111.31401    90.27536   357.08230
   372  N   5.0   -0.15    3.52    2.09   103.23760    97.40049   362.90207
   373  C   4.0    0.04    4.44    4.45   101.59858    98.53911   364.60665
   374  C   4.0    0.16    3.46    3.10   102.13701    97.67838   367.30562
   375  O   6.0   -0.31    1.24    1.80   100.96108    98.56976   369.15131
   376  C   4.0    0.02    4.20    3.99    98.74699    98.18136   363.99006
   377  O   6.0   -0.27    2.09    1.84    98.04242    95.59565   364.40671
   378  H   1.0    0.09    1.12    1.45   103.03782    95.59484   362.84559
   379  H   1.0    0.05    1.11    1.45   101.89399   100.47860   364.61834
   380  H   1.0    0.04    1.05    1.44    97.71399    99.28429   365.20371
   381  H   1.0    0.04    1.05    1.44    98.47997    98.74881   362.18591
   382  H   1.0    0.12    1.07    1.44    96.47507    95.42326   363.64915
   383  N   5.0   -0.15    3.43    2.03   103.86936    95.86119   367.55908
   384  C   4.0    0.02    4.34    4.28   104.31941    94.79719   370.04201
   385  C   4.0    0.16    3.39    3.07   105.40379    96.61974   371.94160
   386  O   6.0   -0.29    1.27    1.80   104.65376    96.72115   374.12012
   387  H   1.0    0.09    1.10    1.44   104.85108    95.14715   366.27169
   388  H   1.0    0.06    1.06    1.44   102.64329    94.06561   370.77032
   389  H   1.0    0.05    1.06    1.44   105.52281    93.23987   369.88035
   390  N   5.0   -0.14    3.55    2.11   107.22832    98.10108   371.19688
   391  C   4.0    0.03    4.44    4.44   108.33040    99.99104   372.73293
   392  C   4.0    0.16    3.48    3.11   106.42582   102.08841   373.40734
   393  O   6.0   -0.31    1.38    1.80   106.08432   102.75748   375.51550
   394  C   4.0   -0.06    4.29    4.17   110.81889   100.96044   371.44538
   395  C   4.0   -0.04    4.22    4.04   112.87933    99.00799   370.65499
   396  C   4.0    0.23    3.15    3.03   112.42512    97.90578   368.07888
   397  O   6.0   -0.30    1.21    1.80   111.03806    98.84388   366.33337
   398  O   6.0   -0.28    1.21    1.80   113.41604    95.79756   367.80901
   399  H   1.0    0.10    1.11    1.45   107.95065    97.99783   369.50093
   400  H   1.0    0.06    1.11    1.44   108.86928    99.20519   374.41990
   401  H   1.0    0.05    1.06    1.44   110.26943   102.00124   369.90783
   402  H   1.0    0.04    1.06    1.44   111.62388   102.21302   372.73673
   403  H   1.0    0.04    1.09    1.44   114.53177    99.82884   370.69642
   404  H   1.0    0.05    1.07    1.44   112.71805    97.56106   371.95502
   405  N   5.0   -0.15    3.59    2.15   105.04172   103.08567   371.69283
   406  C   4.0    0.04    4.51    4.55   103.00222   104.65675   372.15248
   407  C   4.0    0.16    3.51    3.12   101.21406   103.59720   374.16547
   408  O   6.0   -0.31    1.25    1.80   100.29212   105.06899   375.73887
   409  C   4.0   -0.05    4.49    4.52   101.44608   105.34910   369.80012
   410  C   4.0   -0.02    4.31    4.22    99.27741   107.15967   369.99672
   411  C   4.0   -0.08    4.25    4.09    99.95877   109.75858   370.51934
   412  C   4.0   -0.08    4.24    4.08    97.86649   106.95137   367.50943
   413  H   1.0    0.10    1.14    1.45   105.14966   102.52975   369.89281
   414  H   1.0    0.05    1.12    1.45   103.75846   106.29245   372.88057
   415  H   1.0    0.05    1.08    1.44   102.71256   106.13099   368.55058
   416  H   1.0    0.05    1.09    1.44   100.79289   103.68259   369.08238
   417  H   1.0    0.05    1.11    1.45    98.16308   106.62558   371.50927
   418  H   1.0    0.05    1.04    1.43    98.42186   110.91160   370.57704
   419  H   1.0    0.04    1.04    1.43   100.95968   109.90397   372.15264
   420  H   1.0    0.05    1.04    1.43   101.12477   110.40628   369.05394
   421  H   1.0    0.04    1.02    1.43    96.28084   108.19346   367.61656
   422  H   1.0    0.05    1.05    1.44    98.90779   107.43332   366.05183
   423  H   1.0    0.04    1.03    1.43    97.08005   105.18176   367.32809
   424  N   5.0   -0.14    3.51    2.08   100.64835   101.13631   374.19454
   425  C   4.0    0.04    4.46    4.48    98.96474   100.02949   376.02884
   426  C   4.0    0.16    3.38    3.07   100.02846   100.21754   378.80957
   427  O   6.0   -0.26    1.16    1.80    98.63625   100.97935   380.63213
   428  C   4.0   -0.04    4.37    4.34    98.24721    97.49227   375.36251
   429  C   4.0   -0.05    4.22    4.04    96.21423    97.18378   373.35815
   430  C   4.0   -0.05    4.21    4.02    96.26182    94.55080   371.93801
   431  C   4.0   -0.03    4.24    4.08    93.70086    93.46021   371.46790
   432  N   5.0   -0.13    4.12    3.19    93.60361    91.51120   369.57380
   433  H   1.0    0.11    1.12    1.45   101.31455    99.98436   373.00335
   434  H   1.0    0.07    1.11    1.45    97.33599   101.13639   376.09170
   435  H   1.0    0.06    1.08    1.44    99.85605    96.53734   374.69086
   436  H   1.0    0.06    1.08    1.44    97.67217    96.48778   376.93813
   437  H   1.0    0.05    1.07    1.44    94.48629    97.37187   374.17872
   438  H   1.0    0.05    1.07    1.44    96.46694    98.53049   372.01409
   439  H   1.0    0.05    1.07    1.44    97.23054    94.69843   370.32510
   440  H   1.0    0.05    1.06    1.44    97.21563    93.28420   373.13840
   441  H   1.0    0.05    1.06    1.44    92.94288    92.75764   373.12176
   442  H   1.0    0.05    1.07    1.44    92.52963    94.94618   370.91476
   443  H   1.0    0.07    1.06    1.44    91.89620    90.96094   369.25617
   444  H   1.0    0.07    1.07    1.44    94.25776    92.16624   367.98160
   445  H   1.0    0.07    1.07    1.44    94.61075    90.09654   370.05107
   446  N   5.0   -0.13    3.46    2.05   102.45969    99.57916   379.02462
   447  C   4.0    0.04    4.49    4.52   104.05023    99.91050   381.18063
   448  C   4.0    0.15    3.49    3.11   103.96197   102.67033   382.15260
   449  O   6.0   -0.30    1.29    1.80   103.50328   103.28033   384.50934
   450  C   4.0    0.05    4.31    4.22   106.77966    99.03902   380.85962
   451  O   6.0   -0.25    2.15    1.85   107.09886    96.61840   379.68137
   452  C   4.0   -0.07    4.25    4.10   108.00517    98.83774   383.28896
   453  H   1.0    0.12    1.11    1.44   103.45283    98.84649   377.63413
   454  H   1.0    0.07    1.09    1.44   103.18143    98.76964   382.58433
   455  H   1.0    0.05    1.10    1.44   107.55938   100.42421   379.75907
   456  H   1.0    0.13    1.07    1.44   108.70032    96.26430   379.48415
   457  H   1.0    0.04    1.03    1.43   109.90200    98.32781   383.09902
   458  H   1.0    0.05    1.03    1.43   108.04146   100.53565   384.28160
   459  H   1.0    0.06    1.04    1.43   107.20277    97.53053   384.46305
   460  N   5.0   -0.15    3.57    2.13   104.48220   104.40820   380.54256
   461  C   4.0    0.04    4.63    4.70   104.57361   106.98826   381.23208
   462  C   4.0    0.17    3.59    3.16   102.17063   107.98002   382.35208
   463  O   6.0   -0.31    1.30    1.80   102.23880   109.44627   384.18192
   464  C   4.0   -0.04    4.50    4.54   105.33931   108.60561   379.19036
   465  C   4.0   -0.02    3.88    3.43   104.98120   111.30981   379.59766
   466  C   4.0   -0.00    3.76    3.29   103.62744   113.01250   378.15587
   467  C   4.0    0.02    4.07    3.75   106.08681   112.77146   381.41894
   468  N   5.0   -0.13    3.59    2.15   104.03563   115.32967   378.88503
   469  C   4.0    0.04    4.07    3.75   105.48167   115.30429   380.99416
   470  C   4.0   -0.05    3.54    3.13   107.83832   112.28870   383.26233
   471  C   4.0   -0.06    3.48    3.11   106.27347   117.22847   382.52660
   472  C   4.0   -0.05    3.45    3.09   108.76403   114.15162   384.72912
   473  C   4.0   -0.05    3.49    3.11   107.83707   116.61912   384.40577
   474  H   1.0    0.11    1.13    1.45   104.82745   104.08917   378.78461
   475  H   1.0    0.05    1.12    1.45   105.95227   107.14874   382.65359
   476  H   1.0    0.04    1.09    1.44   107.19726   108.32557   378.68236
   477  H   1.0    0.05    1.09    1.44   104.26086   108.14397   377.58709
   478  H   1.0    0.05    1.05    1.44   102.46547   112.49044   376.70870
   479  H   1.0    0.09    1.10    1.44   103.13041   116.79279   378.31848
   480  H   1.0    0.05    1.07    1.44   108.48646   110.47934   383.54711
   481  H   1.0    0.06    1.08    1.44   105.69964   119.01161   382.31924
   482  H   1.0    0.04    1.07    1.44   109.99005   113.78693   386.13849
   483  H   1.0    0.05    1.07    1.44   108.51351   117.96877   385.60620
   484  N   5.0   -0.14    3.40    2.02   100.03834   107.20117   381.23749
   485  C   4.0    0.03    4.19    3.99    97.62463   107.84625   382.10835
   486  C   4.0    0.11    3.09    3.02    97.04282   106.91888   384.91207
   487  O   6.0   -0.26    1.09    1.80    96.05987   108.44169   386.45700
   488  H   1.0    0.11    1.10    1.44   100.00673   106.11686   379.76960
   489  H   1.0    0.06    1.07    1.44    97.36709   109.73938   382.15299
   490  H   1.0    0.06    1.06    1.44    96.20293   107.03824   381.04410
   491  N   5.0   -0.20    3.35    2.00   101.97970   105.56085   388.87832
   492  C   4.0    0.04    4.66    4.72   103.76826   106.84543   390.46434
   493  C   4.0    0.16    3.54    3.14   102.94687   109.41208   391.14983
   494  O   6.0   -0.31    1.27    1.80   103.06844   110.07428   393.29453
   495  C   4.0   -0.02    4.50    4.54   106.27329   106.76797   389.36360
   496  C   4.0   -0.08    4.36    4.30   107.90303   108.59953   390.73002
   497  C   4.0   -0.07    4.33    4.25   107.25595   104.22414   389.54167
   498  H   1.0    0.13    1.11    1.44   102.48683   105.02453   387.26241
   499  H   1.0    0.06    1.13    1.45   103.76768   105.80040   392.14579
   500  H   1.0    0.05    1.12    1.45   106.33910   107.27366   387.49165
   501  H   1.0    0.04    1.03    1.43   109.78609   108.42420   390.12322
   502  H   1.0    0.05    1.06    1.44   107.34265   110.38026   390.42461
   503  H   1.0    0.05    1.04    1.43   107.90733   108.19171   392.62560
   504  H   1.0    0.04    1.03    1.43   109.01391   104.03818   388.62628
   505  H   1.0    0.05    1.04    1.44   107.49030   103.62362   391.34397
   506  H   1.0    0.06    1.04    1.43   106.07742   102.95308   388.61010
   507  N   5.0   -0.15    3.51    2.09   102.14141   110.87852   389.18417
   508  C   4.0    0.04    4.36    4.31   101.37754   113.45347   389.43460
   509  C   4.0    0.09    3.30    3.05    99.25767   113.73738   391.23816
   510  O   6.0   -0.28    1.10    1.80    99.11046   115.53858   392.83410
   511  C   4.0   -0.05    4.47    4.49   100.89528   114.85312   387.03990
   512  C   4.0   -0.03    4.38    4.34    99.94270   117.68331   387.26919
   513  C   4.0   -0.06    4.49    4.53   101.55418   119.41354   388.29565
   514  C   4.0   -0.06    4.51    4.54    99.76034   118.67803   384.82096
   515  H   1.0    0.12    1.15    1.45   102.10452   110.34668   387.44405
   516  H   1.0    0.05    1.10    1.44   102.96477   114.45105   390.23319
   517  H   1.0    0.05    1.07    1.44   102.41931   114.85660   385.88292
   518  H   1.0    0.06    1.07    1.44    99.43850   113.87813   386.12492
   519  H   1.0    0.06    1.13    1.45    98.35922   117.44526   388.31120
   520  H   1.0    0.05    1.07    1.44   100.83359   121.12476   388.42064
   521  H   1.0    0.05    1.03    1.43   101.93062   118.80631   390.23037
   522  H   1.0    0.04    1.06    1.44   103.30765   119.38494   387.48682
   523  H   1.0    0.05    1.06    1.44    99.07748   120.51632   384.86161
   524  H   1.0    0.04    1.06    1.44   101.26357   118.55467   383.71528
   525  H   1.0    0.05    1.01    1.43    98.25043   117.70799   383.78482
   526  N   5.0   -0.19    3.24    1.97   102.40164   113.63262   397.83178
   527  C   4.0    0.04    4.31    4.22   103.49040   116.04716   398.16005
   528  C   4.0    0.09    3.16    3.03   101.53687   118.19207   398.91612
   529  O   6.0   -0.25    1.07    1.80   101.93893   119.60936   400.89081
   530  C   4.0   -0.04    4.56    4.62   105.02290   116.98348   396.04194
   531  C   4.0   -0.03    4.39    4.36   106.96282   115.07866   395.12548
   532  C   4.0   -0.08    4.25    4.09   108.10512   116.06454   392.67686
   533  C   4.0   -0.07    4.38    4.34   108.77541   114.92888   397.02019
   534  H   1.0    0.12    1.08    1.44   102.94923   112.79424   396.33477
   535  H   1.0    0.06    1.11    1.45   104.62163   115.89459   399.75119
   536  H   1.0    0.05    1.07    1.44   103.77971   117.26937   394.51089
   537  H   1.0    0.05    1.08    1.44   105.87801   118.63414   396.41472
   538  H   1.0    0.05    1.12    1.45   106.25885   113.34051   394.76363
   539  H   1.0    0.04    1.04    1.43   109.42448   114.82240   392.03033
   540  H   1.0    0.04    1.04    1.43   106.70403   116.25121   391.35354
   541  H   1.0    0.05    1.04    1.43   108.92077   117.78465   392.98085
   542  H   1.0    0.05    1.04    1.43   110.26842   113.74829   396.48074
   543  H   1.0    0.05    1.05    1.44   109.55357   116.64073   397.46180
   544  H   1.0    0.05    1.05    1.44   108.03679   114.15417   398.64561
   545  O   6.0   -0.31    2.01    1.83   106.13605   102.58017   366.49403
   546  H   1.0    0.12    0.99    1.43   107.28355   103.83269   366.91098
   547  H   1.0    0.15    1.00    1.43   105.28735   103.27636   365.12807
   548  O   6.0   -0.31    1.98    1.82   103.24885    91.69343   362.40563
   549  H   1.0    0.13    1.00    1.43   104.70875    92.10170   363.24771
   550  H   1.0    0.13    0.99    1.43   102.11610    91.47580   363.75055
   551  N   5.0   -0.20    3.23    1.96    85.24884   119.43343   356.31273
   552  C   4.0    0.03    4.37    4.32    87.69115   118.61258   357.06729
   553  C   4.0    0.07    3.17    3.03    87.93452   118.78770   360.09488
   554  O   6.0   -0.31    1.15    1.80    88.39556   116.90524   361.58580
   555  C   4.0    0.05    4.39    4.37    89.78475   119.92748   355.82733
   556  O   6.0   -0.25    2.23    1.86    89.77288   119.93786   353.20787
   557  C   4.0   -0.06    4.36    4.30    92.07367   118.66603   356.42312
   558  H   1.0    0.09    1.07    1.44    85.37394   120.68142   354.97764
   559  H   1.0    0.05    1.10    1.44    87.83366   116.67752   356.73422
   560  H   1.0    0.05    1.10    1.44    89.83029   121.76412   356.48479
   561  H   1.0    0.12    1.05    1.44    88.14343   120.61377   352.74466
   562  H   1.0    0.05    1.03    1.43    93.65854   119.54738   355.60044
   563  H   1.0    0.05    1.03    1.43    92.51474   118.73846   358.37385
   564  H   1.0    0.05    1.07    1.44    92.14383   116.82958   355.92570
   565  N   5.0   -0.21    3.24    1.97    87.92011   113.03397   365.00597
   566  C   4.0    0.03    4.29    4.18    90.08816   113.05786   366.63950
   567  C   4.0    0.07    3.23    3.04    89.39645   112.69063   369.38811
   568  O   6.0   -0.31    1.12    1.80    90.27621   110.83039   370.69980
   569  C   4.0    0.04    4.28    4.17    91.70642   115.37245   366.37825
   570  O   6.0   -0.25    2.12    1.84    92.98162   115.34591   364.18447
   571  H   1.0    0.12    1.10    1.44    87.68114   114.66683   364.19458
   572  H   1.0    0.05    1.11    1.45    91.15784   111.51041   366.09216
   573  H   1.0    0.05    1.06    1.44    90.62471   116.93958   366.57745
   574  H   1.0    0.05    1.06    1.44    93.09255   115.36522   367.75867
   575  H   1.0    0.13    1.07    1.44    91.75840   115.16392   362.85525
   576  N   5.0   -0.20    3.19    1.95    87.41178   106.12070   370.81073
   577  C   4.0    0.03    4.23    4.06    89.66663   104.55820   371.15045
   578  C   4.0    0.15    3.38    3.07    90.87637   104.81035   373.91776
   579  O   6.0   -0.28    1.23    1.80    91.73222   102.98305   375.16296
   580  C   4.0   -0.08    4.16    3.91    91.68133   104.87758   369.15290
   581  H   1.0    0.10    1.06    1.44    87.67689   107.38287   369.54366
   582  H   1.0    0.05    1.09    1.44    88.99475   102.69054   371.01737
   583  H   1.0    0.04    1.04    1.43    93.08924   103.64274   369.41324
   584  H   1.0    0.04    1.04    1.43    90.85463   104.65082   367.41762
   585  H   1.0    0.05    1.04    1.43    92.32294   106.70172   369.29974
   586  N   5.0   -0.14    3.53    2.10    90.99158   107.06463   374.84793
   587  C   4.0    0.04    4.52    4.56    92.00515   107.51638   377.27955
   588  C   4.0    0.09    3.28    3.05    90.35242   106.80978   379.40199
   589  O   6.0   -0.24    1.12    1.80    91.00452   105.08885   380.88327
   590  C   4.0   -0.04    4.66    4.73    92.87215   110.21125   377.63386
   591  C   4.0   -0.05    4.28    4.17    95.07647   110.59312   375.84313
   592  S   6.0   -0.03    2.84    3.11    96.53824   113.15042   376.88873
   593  C   4.0   -0.07    4.05    3.70    93.95163   115.22783   375.90567
   594  H   1.0    0.11    1.12    1.45    90.25994   108.52518   374.04109
   595  H   1.0    0.07    1.12    1.45    93.60031   106.30268   377.35346
   596  H   1.0    0.05    1.11    1.45    91.54788   111.39852   377.05850
   597  H   1.0    0.05    1.13    1.45    93.49965   110.50561   379.39901
   598  H   1.0    0.05    1.14    1.45    96.38464   109.06349   376.06941
   599  H   1.0    0.05    1.14    1.45    94.58557   110.64865   374.02995
   600  H   1.0    0.05    1.06    1.44    94.47776   117.13117   376.16792
   601  H   1.0    0.05    1.08    1.44    93.66429   115.00098   374.01400
   602  H   1.0    0.05    1.08    1.44    92.38101   114.90352   376.90869
   603  N   5.0   -0.21    3.24    1.97    87.79102    97.40049   367.18551
   604  C   4.0    0.04    4.26    4.12    89.43003    98.53911   365.48093
   605  C   4.0    0.08    3.23    3.04    88.89160    97.67838   362.78196
   606  O   6.0   -0.31    1.13    1.80    90.06753    98.56976   360.93627
   607  C   4.0    0.02    4.20    3.99    92.28162    98.18136   366.09752
   608  O   6.0   -0.26    2.09    1.84    92.98619    95.59565   365.68087
   609  H   1.0    0.10    1.06    1.44    87.99080    95.59484   367.24199
   610  H   1.0    0.04    1.10    1.44    89.13462   100.47860   365.46924
   611  H   1.0    0.04    1.05    1.44    93.31462    99.28429   364.88387
   612  H   1.0    0.03    1.05    1.44    92.54865    98.74881   367.90167
   613  H   1.0    0.12    1.07    1.44    94.55354    95.42326   366.43843
   614  N   5.0   -0.20    3.26    1.97    85.98689   103.08567   358.39475
   615  C   4.0    0.03    4.37    4.32    88.02639   104.65675   357.93510
   616  C   4.0    0.15    3.44    3.09    89.81455   103.59720   355.92211
   617  O   6.0   -0.31    1.25    1.80    90.73650   105.06899   354.34871
   618  C   4.0   -0.05    4.49    4.52    89.58253   105.34910   360.28746
   619  C   4.0   -0.02    4.31    4.22    91.75120   107.15967   360.09086
   620  C   4.0   -0.08    4.25    4.09    91.06984   109.75858   359.56824
   621  C   4.0   -0.09    4.24    4.08    93.16212   106.95137   362.57815
   622  H   1.0    0.09    1.05    1.44    85.87895   102.52975   360.19477
   623  H   1.0    0.04    1.11    1.45    87.27015   106.29245   357.20701
   624  H   1.0    0.04    1.08    1.44    88.31605   106.13099   361.53700
   625  H   1.0    0.05    1.09    1.44    90.23572   103.68259   361.00520
   626  H   1.0    0.05    1.11    1.45    92.86553   106.62558   358.57831
   627  H   1.0    0.04    1.04    1.43    92.60675   110.91160   359.51054
   628  H   1.0    0.05    1.04    1.43    90.06893   109.90397   357.93494
   629  H   1.0    0.04    1.04    1.43    89.90384   110.40628   361.03364
   630  H   1.0    0.04    1.02    1.43    94.74777   108.19346   362.47102
   631  H   1.0    0.04    1.05    1.44    92.12082   107.43332   364.03575
   632  H   1.0    0.04    1.03    1.43    93.94857   105.18176   362.75949
   633  N   5.0   -0.15    3.47    2.06    90.38026   101.13631   355.89304
   634  C   4.0    0.04    4.37    4.32    92.06387   100.02949   354.05874
   635  C   4.0    0.09    3.18    3.03    91.00015   100.21754   351.27801
   636  O   6.0   -0.26    1.08    1.80    92.39236   100.97935   349.45545
   637  C   4.0   -0.04    4.37    4.32    92.78140    97.49227   354.72507
   638  C   4.0   -0.04    4.22    4.04    94.81438    97.18378   356.72943
   639  C   4.0   -0.05    4.21    4.02    94.76679    94.55080   358.14957
   640  C   4.0   -0.02    4.24    4.09    97.32776    93.46021   358.61968
   641  N   5.0   -0.13    4.12    3.19    97.42501    91.51120   360.51378
   642  H   1.0    0.11    1.11    1.45    89.71406    99.98436   357.08423
   643  H   1.0    0.07    1.11    1.45    93.69262   101.13639   353.99588
   644  H   1.0    0.05    1.08    1.44    91.17256    96.53734   355.39672
   645  H   1.0    0.06    1.08    1.44    93.35644    96.48778   353.14945
   646  H   1.0    0.05    1.07    1.44    96.54232    97.37187   355.90886
   647  H   1.0    0.06    1.07    1.44    94.56167    98.53049   358.07349
   648  H   1.0    0.06    1.07    1.44    93.79807    94.69843   359.76248
   649  H   1.0    0.05    1.06    1.44    93.81298    93.28420   356.94918
   650  H   1.0    0.07    1.07    1.44    98.08573    92.75764   356.96582
   651  H   1.0    0.06    1.07    1.44    98.49898    94.94618   359.17282
   652  H   1.0    0.08    1.06    1.44    99.13241    90.96094   360.83141
   653  H   1.0    0.07    1.07    1.44    96.77085    92.16624   362.10598
   654  H   1.0    0.07    1.07    1.44    96.41786    90.09654   360.03651
   655  N   5.0   -0.20    3.29    1.98    86.54641   104.40820   349.54502
   656  C   4.0    0.04    4.48    4.51    86.45500   106.98826   348.85550
   657  C   4.0    0.16    3.55    3.14    88.85798   107.98002   347.73550
   658  O   6.0   -0.27    1.23    1.80    88.78982   109.44627   345.90566
   659  C   4.0   -0.04    4.50    4.53    85.68930   108.60561   350.89722
   660  C   4.0   -0.01    3.88    3.43    86.04741   111.30981   350.48992
   661  C   4.0    0.00    3.76    3.29    87.40117   113.01250   351.93171
   662  C   4.0    0.03    4.07    3.74    84.94180   112.77146   348.66864
   663  N   5.0   -0.13    3.58    2.14    86.99298   115.32967   351.20255
   664  C   4.0    0.05    4.07    3.75    85.54694   115.30429   349.09342
   665  C   4.0   -0.03    3.54    3.13    83.19029   112.28870   346.82525
   666  C   4.0   -0.04    3.48    3.11    84.75514   117.22847   347.56098
   667  C   4.0   -0.03    3.45    3.09    82.26458   114.15162   345.35846
   668  C   4.0   -0.02    3.49    3.11    83.19154   116.61912   345.68181
   669  H   1.0    0.10    1.06    1.44    86.20116   104.08917   351.30297
   670  H   1.0    0.05    1.11    1.45    85.07634   107.14874   347.43399
   671  H   1.0    0.05    1.08    1.44    83.83136   108.32557   351.40522
   672  H   1.0    0.05    1.09    1.44    86.76776   108.14397   352.50049
   673  H   1.0    0.05    1.05    1.44    88.56314   112.49044   353.37888
   674  H   1.0    0.09    1.10    1.44    87.89820   116.79279   351.76910
   675  H   1.0    0.06    1.07    1.44    82.54215   110.47934   346.54047
   676  H   1.0    0.06    1.08    1.44    85.32897   119.01161   347.76834
   677  H   1.0    0.07    1.07    1.44    81.03856   113.78693   343.94909
   678  H   1.0    0.07    1.07    1.44    82.51511   117.96877   344.48138
   679  N   5.0   -0.14    3.40    2.02    90.99027   107.20117   348.85009
   680  C   4.0    0.03    4.19    3.99    93.40399   107.84625   347.97923
   681  C   4.0    0.11    3.09    3.02    93.98580   106.91888   345.17551
   682  O   6.0   -0.24    1.09    1.80    94.96874   108.44169   343.63058
   683  H   1.0    0.11    1.10    1.44    91.02188   106.11686   350.31798
   684  H   1.0    0.06    1.07    1.44    93.66153   109.73938   347.93459
   685  H   1.0    0.06    1.06    1.44    94.82568   107.03824   349.04348
   686  H   1.0    0.11    1.07    1.44   121.90806    94.62376   380.13187
   687  H   1.0    0.06    1.04    1.43   119.68029   103.34271   379.65242
   688  H   1.0    0.11    1.10    1.44   125.47951   101.87557   372.25881
   689  H   1.0    0.07    1.04    1.43   126.38681   110.68760   373.83419
   690  H   1.0    0.10    1.07    1.44   125.74981   119.92078   368.53703
   691  H   1.0    0.06    1.05    1.44   125.03637   119.65264   375.41666
   692  H   1.0    0.10    1.08    1.44   121.88539   120.54707   387.37918
   693  H   1.0    0.06    1.06    1.44   117.83138   120.25896   391.99254
   694  H   1.0    0.09    1.07    1.44   111.23563   125.33710   382.81148
   695  H   1.0    0.08    1.03    1.43    97.45714   105.14843   385.42679
   696  H   1.0    0.11    1.08    1.44   101.45338   104.14017   389.65112
   697  H   1.0    0.08    1.05    1.44    97.84721   112.47976   391.24400
   698  H   1.0    0.11    1.08    1.44   102.81384   112.64001   399.14988
   699  H   1.0    0.08    1.03    1.43    99.98344   118.46486   397.87521
   700  H   1.0    0.10    1.08    1.44    84.35408   118.10412   355.74274
   701  H   1.0    0.06    1.04    1.43    87.72474   120.45204   360.96496
   702  H   1.0    0.09    1.08    1.44    88.13164   111.85455   363.79900
   703  H   1.0    0.06    1.04    1.43    88.22719   113.90723   370.23887
   704  H   1.0    0.10    1.07    1.44    86.10736   105.13899   370.33396
   705  H   1.0    0.07    1.05    1.44    88.70873   107.70615   379.65864
   706  H   1.0    0.10    1.09    1.44    88.08317    98.00856   368.74674
   707  H   1.0    0.06    1.05    1.44    87.56916    96.36896   362.45386
   708  H   1.0    0.10    1.09    1.44    84.54402   103.90363   358.01846
   709  H   1.0    0.06    1.04    1.43    89.20863    99.73661   350.91715
   710  H   1.0    0.10    1.08    1.44    85.39276   103.53930   348.64688
   711  H   1.0    0.08    1.03    1.43    93.57147   105.14843   344.66079

  Z AO/shell   Hii/eV     exponent
  1     Wed Apr 25 08:07:45 CEST 2018   EN: 2.200 GM2: 0.406  GM3: 0.0800  RAES: 1.40
     1s    -10.707211    1.230000
  6     Wed Apr 25 08:07:45 CEST 2018   EN: 2.550 GM2: 0.538  GM3: 0.1500  RAES: 3.00
     2s    -13.970922    2.096432
     2p    -10.063292    1.800000
  7     Wed Apr 25 08:07:45 CEST 2018   EN: 3.040 GM2: 0.461  GM3:-0.0640  RAES: 1.90
     2s    -16.686243    2.339881
     2p    -12.523956    2.014332
  8     Wed Apr 25 08:07:45 CEST 2018   EN: 3.440 GM2: 0.452  GM3:-0.0517  RAES: 1.80
     2s    -20.229985    2.439742
     2p    -15.503117    2.137023
 16     Tue Apr 24 11:44:34 CEST 2018   EN: 2.580 GM2: 0.340  GM3:-0.0502  RAES: 3.10
     3s    -20.029654    1.981333
     3p    -11.377694    2.025643
     3d     -0.420282    1.702555
 no old-style atom pair restraining (fixing) potential

molecular fragmentation (1/2 indicates fragments):
111111111111111111111111111222222222222222222222222222222222222222222222
222222222222222222222222222222222222222222222222222222222222222222222222
222222222222222222222222222222222222222222222222222222222222222222222222
222222222222222222222222222222222222222222222222222222222222222222222222
222222222222222222222222222222222222222222222222222222222222222222222222
222222222222222222222222222222222222222222222222222222222222222222222222
222222222222222222222222222222222222222222222222222222222222222222222222
222222222222222222222222222222222222222222222222222222222222222222222222
222222222222222222222222222222222222222222222222222222222222222222222222
222222222222222222222222222222222222211222222222222222222222222
# atoms in fragment 1/2:    29   682
 fragment masses (1/2) :      204.29     4514.60
CMA distance (Bohr)    :  18.741
constraining FC (au)   :  0.0500
           ------------------------------------------------- 
          |        Self-Consistent Charge Iterations        |
           ------------------------------------------------- 

 Ncao       : 1713
 Nao        : 1710
 Nshell     : 1042
 Nel        : 1866
 T(el)      :   500.0
 intcut     :    35.0
 scfconv/Eh :  0.100E-06
   qconv/e  :  0.100E-04
 intneglect :  0.100E-08
 broydamp   :      0.400
 iter      E             dE          RMSdq      gap      omega  full diag
   1  -1064.6529318 -0.106465E+04  0.455E+00    1.90       0.0  T
   2  -1067.0763689 -0.242344E+01  0.218E+00    0.83       1.0  T
   3  -1067.2133855 -0.137017E+00  0.132E+00    1.24       1.0  T
   4  -1067.4682453 -0.254860E+00  0.298E-01    0.27       1.0  T
   5  -1067.4904199 -0.221746E-01  0.158E-01    0.98       1.0  T
   6  -1067.4948442 -0.442434E-02  0.742E-02    0.69       1.0  T
   7  -1067.4958242 -0.979970E-03  0.343E-02    0.59       1.0  T
   8  -1067.4959576 -0.133367E-03  0.176E-02    0.52       1.0  T
   9  -1067.4959906 -0.329985E-04  0.943E-03    0.56       1.0  T
  10  -1067.4960082 -0.176653E-04  0.405E-03    0.55       1.0  T
  11  -1067.4960100 -0.182482E-05  0.231E-03    0.55       1.6  T
  12  -1067.4960108 -0.795699E-06  0.106E-03    0.55       3.6  T
  13  -1067.4960110 -0.148440E-06  0.548E-04    0.56       6.8  T
