      -----------------------------------------------------------      
     |                   =====================                   |     
     |                           x T B                           |     
     |                   =====================                   |     
     |                         S. Grimme                         |     
     |          Mulliken Center for Theoretical Chemistry        |     
     |                    University of Bonn                     |     
     |                 Version 6.0.1 (SAW181210)                 |     
      -----------------------------------------------------------      

   This program is distributed in the hope that it will be useful,
   but WITHOUT ANY WARRANTY; without even the implied warranty of
   MERCHANTABILITY or FITNESS FOR A PARTICULAR PURPOSE.
   
   FOR NON-COMMERCIAL, ACADEMIA USE ONLY.
   
   Cite this work as:
   S. Grimme, C. Bannwarth, P. Shushkov, J. Comput. Theory Chem., 2017,
   13, 1989-2009.
   C. Bannwarth, S. Ehlert and S. Grimme., ChemRxiv, 2018, preprint.
   http://doi.org/10.26434/chemrxiv.7246238.v1
   
   for sTDA-xTB:
   S. Grimme and C. Bannwarth, J. Chem. Phys., 2016, 145, 054103.
   
   in the mass-spec context:
   V. Asgeirsson, C. Bauer and S. Grimme, Chem. Sci., 2017, 8, 4879.
   
   if GBSA is used:
   P. Shushkov, F. März and S. Grimme, unpublished.
   
   for ANC optimizer:
   S. Grimme, unpublished.
   Rational Function algorithm used in ANCopt:
   F. Eckert, P. Pulay, H.-J. Werner, J. Comput. Chem., 1997, 18, 1473.
   
   with help from (in alphabetical order)
   C. Bannwarth, F. Bohle, G. Brandenburg, E. Caldeweyher, M. Checinski,
   S. Dohm, S. Ehlert, S. Ehrlich, F. März, H. Neugebauer, J. Pisarek,
   P. Pracht, P. Shushkov, and S. Spicher.
   
 * started run on 2019/05/04 at 17:08:22.333     
========================================================================
 # omp threads = 2
========================================================================
number of atoms            : 428
number of electrons        : 1136
charge                     : 6
spin                       : .0
first test random number   : .7421

########################################################################
# WARNING! Please study the warnings concerning your input carefully
#  - Process number higher than OMP_NUM_THREADS, I hope you know what you are doing.
########################################################################

           ------------------------------------------------- 
          |                 G F N 2 - x T B                 |
          | Geometry, Frequencies, Noncovalent interactions |
          |            JCTC 2018 parametrisation            |
           ------------------------------------------------- 
 
      method parameters     
 k(s)        :  1.8500
 k(p)        :  2.2300
 k(d)        :  2.2300
 k(f)        :  2.0000
 kEN (H0ij)  : -2.0000
 D4 a1       :  0.5200
 D4 a2       :  5.0000
 D4 s6       :  1.0000
 D4 s8       :  2.7000
 D4 s9       :  5.0000
 alphaj      :  2.0000

 Solvent             : h2o
 Using internal parameter file: .param_gbsa2_h2o
 Gsolv ref. state (COSMO-RS): gsolv [1 M gas/solution]
 temperature (mdtemp)       :    298.150000000000     
 dielectric constant        :    80.2000000000000     
 rho                        :    1.00000000000000     
 mass                       :    18.0000000000000     
 surface tension            :    15.5689454083859     
 probe radius               :   0.975313790000000     
 vdW radii scaling          :    1.00000000000000     
 Gshift (Eh)                :   1.857443126794793E-003
 c1                         :    1.55243817000000     
 soset                      :   0.130326360000000     
 HB correction              :  T

            Z     q(EN)     CN     RAES       Cart. coordinates
     1  N   5.0   -0.20    3.23    1.96    21.86413   101.52931   210.37563
     2  C   4.0    0.03    4.26    4.12    22.44805   102.07544   207.75836
     3  C   4.0    0.16    3.46    3.10    24.68171   100.51830   206.82673
     4  O   6.0   -0.30    1.33    1.80    24.99729   100.19705   204.58173
     5  C   4.0   -0.04    4.11    3.83    22.88458   104.87223   207.35963
     6  H   1.0    0.11    1.03    1.43    22.13436   102.98440   211.60962
     7  H   1.0    0.05    1.06    1.44    20.81911   101.59356   206.59240
     8  H   1.0    0.07    1.00    1.43    23.31733   105.20671   205.37353
     9  H   1.0    0.07    1.00    1.43    21.18005   105.89835   207.88875
    10  H   1.0    0.07    1.00    1.43    24.46439   105.47883   208.53504
    11  N   5.0   -0.14    3.53    2.10    26.24640    99.54320   208.51047
    12  C   4.0    0.04    4.47    4.50    28.12479    97.74985   207.62986
    13  C   4.0    0.17    3.51    3.12    26.63191    95.55399   206.52059
    14  O   6.0   -0.30    1.29    1.80    26.94749    94.82645   204.33607
    15  C   4.0   -0.04    4.31    4.21    29.76507    96.72184   209.79549
    16  C   4.0   -0.03    4.19    3.98    31.34110    98.62291   211.25624
    17  C   4.0   -0.04    4.20    4.00    32.99839   100.14792   209.51014
    18  C   4.0   -0.01    4.13    3.86    33.29319   102.86534   210.45878
    19  N   5.0   -0.10    3.99    2.84    33.92058   104.64924   208.36307
    20  H   1.0    0.09    1.06    1.44    26.26341    99.93438   210.39831
    21  H   1.0    0.06    1.06    1.44    29.40414    98.66259   206.29760
    22  H   1.0    0.06    1.04    1.43    28.51785    95.80722   211.15609
    23  H   1.0    0.06    1.03    1.43    31.07465    95.34423   209.00180
    24  H   1.0    0.06    1.04    1.43    30.09389    99.91737   212.26347
    25  H   1.0    0.07    1.03    1.43    32.55053    97.62702   212.59417
    26  H   1.0    0.07    1.03    1.43    34.86733    99.28620   209.41376
    27  H   1.0    0.05    1.05    1.44    32.14991   100.20272   207.63364
    28  H   1.0    0.06    1.03    1.43    31.52630   103.47950   211.32049
    29  H   1.0    0.08    1.02    1.43    34.81442   102.93904   211.84584
    30  H   1.0    0.10    1.01    1.43    34.10766   106.47472   209.06794
    31  H   1.0    0.09    1.01    1.43    35.61000   104.11823   207.51081
    32  H   1.0    0.08    1.01    1.43    32.49195   104.63035   207.01381
    33  N   5.0   -0.14    3.50    2.08    24.97651    94.51086   208.08717
    34  C   4.0    0.04    4.43    4.43    23.60646    92.20918   207.47868
    35  C   4.0    0.16    3.54    3.13    21.97562    92.44161   205.11463
    36  O   6.0   -0.30    1.36    1.80    22.13814    90.84480   203.43278
    37  C   4.0   -0.03    4.37    4.32    22.01342    91.39849   209.72557
    38  C   4.0   -0.00    3.62    3.18    19.81189    89.76387   209.03771
    39  C   4.0   -0.02    3.49    3.11    19.97818    87.16928   209.17377
    40  C   4.0   -0.03    3.54    3.13    17.55366    90.82212   208.27426
    41  C   4.0   -0.02    3.45    3.09    17.94484    85.66128   208.56716
    42  C   4.0   -0.03    3.46    3.10    15.51087    89.34057   207.65443
    43  C   4.0    0.08    3.47    3.10    15.70929    86.75921   207.80938
    44  O   6.0   -0.20    2.10    1.84    13.66461    85.27955   207.19900
    45  H   1.0    0.08    1.07    1.44    24.53431    95.22518   209.82194
    46  H   1.0    0.06    1.06    1.44    25.00674    90.75031   207.08373
    47  H   1.0    0.06    1.04    1.43    23.20206    90.33457   211.02948
    48  H   1.0    0.06    1.04    1.43    21.27831    93.08223   210.65720
    49  H   1.0    0.07    1.03    1.43    21.72996    86.30378   209.76525
    50  H   1.0    0.05    1.04    1.43    17.38737    92.85357   208.16087
    51  H   1.0    0.08    1.03    1.43    18.10168    83.62982   208.68433
    52  H   1.0    0.06    1.03    1.43    13.76287    90.20229   207.04971
    53  H   1.0    0.14    1.03    1.43    12.23409    86.34725   206.70389
    54  N   5.0   -0.14    3.50    2.08    20.38258    94.38803   204.98802
    55  C   4.0    0.03    4.43    4.43    19.02387    94.90204   202.64476
    56  C   4.0    0.16    3.52    3.13    21.02509    95.00786   200.58307
    57  O   6.0   -0.29    1.40    1.80    21.55799    93.12381   199.34341
    58  C   4.0   -0.05    4.30    4.20    17.53099    97.37758   202.79027
    59  C   4.0   -0.05    4.18    3.97    15.62614    97.47962   204.96913
    60  C   4.0   -0.04    4.18    3.97    14.17483    99.97406   204.99369
    61  C   4.0   -0.02    4.13    3.87    12.35314   100.10634   207.21034
    62  N   5.0   -0.10    4.01    2.89    10.64861   102.31354   206.90609
    63  H   1.0    0.07    1.06    1.44    20.00653    95.60502   206.43366
    64  H   1.0    0.05    1.05    1.44    17.61603    93.45262   202.24603
    65  H   1.0    0.05    1.04    1.43    18.85569    98.93282   203.04349
    66  H   1.0    0.05    1.03    1.43    16.48597    97.62135   201.03283
    67  H   1.0    0.04    1.03    1.43    14.26932    95.94328   204.76126
    68  H   1.0    0.04    1.03    1.43    16.62770    97.29632   206.75870
    69  H   1.0    0.05    1.03    1.43    15.50709   101.53686   205.15432
    70  H   1.0    0.05    1.03    1.43    13.09013   100.14981   203.25136
    71  H   1.0    0.06    1.02    1.43    11.21363    98.39236   207.27837
    72  H   1.0    0.06    1.02    1.43    13.40761   100.31988   208.96590
    73  H   1.0    0.10    1.01    1.43     9.39761   102.41181   208.41976
    74  H   1.0    0.09    1.02    1.43    11.70118   103.97272   206.83995
    75  H   1.0    0.08    1.02    1.43     9.62059   102.14536   205.23936
    76  N   5.0   -0.13    3.47    2.06    22.19105    97.19994   200.28827
    77  C   4.0    0.04    4.41    4.39    24.29054    97.53065   198.53461
    78  C   4.0    0.17    3.50    3.11    25.60012    95.10424   197.57841
    79  O   6.0   -0.31    1.29    1.80    25.63980    94.60724   195.33152
    80  C   4.0   -0.02    4.33    4.26    26.20672    99.33155   199.70057
    81  C   4.0    0.05    3.71    3.25    28.27786   100.07989   197.94501
    82  N   5.0   -0.12    2.58    1.90    28.11156   102.15858   196.37843
    83  C   4.0    0.00    3.61    3.17    30.57577    99.04054   197.51605
    84  C   4.0    0.09    3.56    3.14    30.20916   102.35890   195.05373
    85  N   5.0   -0.09    3.47    2.06    31.74551   100.48996   195.70002
    86  H   1.0    0.09    1.07    1.44    21.72618    98.80621   201.24448
    87  H   1.0    0.06    1.07    1.44    23.47418    98.31677   196.81496
    88  H   1.0    0.07    1.04    1.43    25.22973   101.04743   200.28827
    89  H   1.0    0.08    1.05    1.44    27.06654    98.41693   201.33329
    90  H   1.0    0.05    1.01    1.43    31.34677    97.38514   198.42689
    91  H   1.0    0.09    1.01    1.43    30.60978   103.80454   193.67045
    92  H   1.0    0.10    1.04    1.43    33.50295   100.17815   194.97247
    93  N   5.0   -0.13    3.50    2.07    26.67159    93.56789   199.22625
    94  C   4.0    0.04    4.44    4.44    28.07755    91.38904   198.27194
    95  C   4.0    0.17    3.48    3.11    26.43916    89.12137   197.47069
    96  O   6.0   -0.31    1.30    1.80    27.18560    87.61903   195.83986
    97  C   4.0    0.04    4.18    3.96    29.95216    90.47630   200.22591
    98  O   6.0   -0.24    2.12    1.84    28.89580    88.38815   201.47313
    99  H   1.0    0.12    1.10    1.44    26.61301    93.75686   201.14432
   100  H   1.0    0.05    1.07    1.44    29.06587    92.05800   196.59197
   101  H   1.0    0.04    1.01    1.43    31.70393    89.91505   199.29806
   102  H   1.0    0.06    1.02    1.43    30.32443    91.97863   201.58463
   103  H   1.0    0.12    1.01    1.43    30.07310    87.75320   202.75437
   104  N   5.0   -0.12    3.52    2.09    24.26219    88.82657   198.68957
   105  C   4.0    0.03    4.51    4.55    22.40837    86.88960   197.99226
   106  C   4.0    0.16    3.58    3.16    21.99452    86.98786   195.16901
   107  O   6.0   -0.31    1.24    1.80    22.07389    85.07546   193.83864
   108  C   4.0   -0.02    4.32    4.23    19.84401    87.42250   199.28861
   109  C   4.0   -0.07    4.16    3.92    17.62547    86.49654   197.68801
   110  C   4.0   -0.06    4.11    3.83    19.77787    86.27544   201.92478
   111  H   1.0    0.13    1.11    1.44    23.71039    89.90560   200.18812
   112  H   1.0    0.05    1.05    1.44    23.13025    85.05468   198.58374
   113  H   1.0    0.07    1.07    1.44    19.63614    89.46341   199.47947
   114  H   1.0    0.04    1.00    1.43    15.86614    86.91228   198.67634
   115  H   1.0    0.05    1.02    1.43    17.65760    87.46786   195.87198
   116  H   1.0    0.05    1.00    1.43    17.80689    84.46508   197.40077
   117  H   1.0    0.05    1.00    1.43    17.95240    86.68173   202.78649
   118  H   1.0    0.04    1.00    1.43    20.04810    84.23831   201.77738
   119  H   1.0    0.07    1.02    1.43    21.28776    87.10314   203.05483
   120  N   5.0   -0.14    3.59    2.15    21.49752    89.28955   194.32052
   121  C   4.0    0.03    4.59    4.66    21.39548    89.95473   191.69002
   122  C   4.0    0.16    3.64    3.19    23.74441    89.11003   190.32186
   123  O   6.0   -0.31    1.31    1.80    23.65937    87.41872   188.71559
   124  C   4.0   -0.02    4.47    4.49    21.41815    92.76854   191.46703
   125  C   4.0   -0.06    4.24    4.08    22.07956    93.51687   188.80630
   126  C   4.0   -0.07    4.14    3.87    18.90104    93.84190   192.30985
   127  H   1.0    0.09    1.08    1.44    21.14414    90.78999   195.47703
   128  H   1.0    0.05    1.06    1.44    19.72874    89.04578   190.89067
   129  H   1.0    0.07    1.09    1.44    22.85624    93.57167   192.70291
   130  H   1.0    0.06    1.00    1.43    22.09090    95.57289   188.67024
   131  H   1.0    0.06    1.05    1.44    23.94472    92.77232   188.34332
   132  H   1.0    0.05    1.00    1.43    20.67360    92.73452   187.52129
   133  H   1.0    0.06    1.00    1.43    18.95395    95.89414   192.13411
   134  H   1.0    0.05    1.00    1.43    17.41005    93.07278   191.11554
   135  H   1.0    0.05    1.00    1.43    18.57034    93.31278   194.27328
   136  N   5.0   -0.14    3.57    2.13    25.84956    90.32323   190.97381
   137  C   4.0    0.04    4.41    4.39    28.27975    89.79978   189.79652
   138  C   4.0    0.16    3.49    3.11    28.78053    86.98031   189.40156
   139  O   6.0   -0.30    1.25    1.80    29.86523    86.26221   187.49105
   140  C   4.0   -0.04    4.31    4.22    30.37545    91.03755   191.30830
   141  C   4.0   -0.04    4.19    3.99    33.01918    90.01710   190.85287
   142  C   4.0   -0.04    4.18    3.97    34.85222    91.43250   192.60843
   143  C   4.0   -0.03    4.10    3.80    37.11044    89.86781   193.48148
   144  N   5.0   -0.11    3.99    2.83    38.18947    90.96952   195.87765
   145  H   1.0    0.10    1.08    1.44    25.92893    91.69328   192.32686
   146  H   1.0    0.06    1.06    1.44    28.26085    90.61236   187.90301
   147  H   1.0    0.05    1.03    1.43    30.40758    93.04444   190.84342
   148  H   1.0    0.05    1.04    1.43    29.96160    90.78621   193.30952
   149  H   1.0    0.05    1.03    1.43    33.08721    88.00454   191.28562
   150  H   1.0    0.06    1.02    1.43    33.57476    90.33646   188.89512
   151  H   1.0    0.06    1.03    1.43    35.58543    93.07656   191.60876
   152  H   1.0    0.04    1.04    1.43    33.82420    92.03154   194.29028
   153  H   1.0    0.05    1.02    1.43    36.51140    87.93273   193.85376
   154  H   1.0    0.07    1.02    1.43    38.57120    89.88670   192.02828
   155  H   1.0    0.08    1.01    1.43    39.72960    89.90371   196.47292
   156  H   1.0    0.08    1.01    1.43    38.77718    92.81767   195.56207
   157  H   1.0    0.06    1.01    1.43    36.82509    90.96574   197.29306
   158  N   5.0   -0.13    3.48    2.06    27.95661    85.36837   191.14578
   159  C   4.0    0.04    4.46    4.48    28.18904    82.64905   190.68847
   160  C   4.0    0.16    3.46    3.10    26.32388    81.66073   188.72504
   161  O   6.0   -0.30    1.29    1.80    27.09111    80.57036   186.81642
   162  C   4.0   -0.05    4.29    4.18    27.95850    81.12782   193.12432
   163  C   4.0   -0.05    4.19    3.98    30.46427    80.67051   194.41690
   164  C   4.0   -0.05    4.18    3.97    32.31998    79.28156   192.68024
   165  C   4.0   -0.04    4.12    3.84    35.00150    79.42707   193.75171
   166  N   5.0   -0.11    3.99    2.82    36.86288    77.82458   192.36276
   167  H   1.0    0.12    1.09    1.44    27.15158    85.85781   192.82764
   168  H   1.0    0.06    1.09    1.44    30.08822    82.37315   189.94013
   169  H   1.0    0.05    1.03    1.43    26.74718    82.15395   194.43768
   170  H   1.0    0.04    1.04    1.43    27.12891    79.29479   192.68780
   171  H   1.0    0.05    1.03    1.43    31.29953    82.47898   194.94224
   172  H   1.0    0.04    1.03    1.43    30.16381    79.51778   196.09686
   173  H   1.0    0.05    1.03    1.43    31.77763    77.29924   192.53284
   174  H   1.0    0.05    1.04    1.43    32.30864    80.15651   190.81508
   175  H   1.0    0.05    1.02    1.43    35.65346    81.37916   193.64967
   176  H   1.0    0.04    1.02    1.43    34.96938    78.79590   195.71325
   177  H   1.0    0.07    1.01    1.43    38.64301    78.00222   193.17724
   178  H   1.0    0.06    1.01    1.43    36.31297    75.93864   192.43646
   179  H   1.0    0.07    1.01    1.43    36.96304    78.38583   190.48249
   180  N   5.0   -0.14    3.55    2.11    23.88614    82.03867   189.20692
   181  C   4.0    0.04    4.57    4.63    21.92460    81.11271   187.52506
   182  C   4.0    0.16    3.52    3.12    22.40459    81.92340   184.82276
   183  O   6.0   -0.31    1.29    1.80    21.63736    80.68941   183.01429
   184  C   4.0   -0.03    4.19    3.98    19.37914    82.06513   188.40190
   185  S   6.0   -0.03    2.53    3.10    18.16783    80.14517   190.82453
   186  H   1.0    0.11    1.08    1.44    23.21150    82.97976   190.74894
   187  H   1.0    0.05    1.09    1.44    21.89625    79.05480   187.58176
   188  H   1.0    0.06    1.08    1.44    19.57756    83.98320   189.12377
   189  H   1.0    0.05    1.09    1.44    18.05633    82.03867   186.82209
   190  N   5.0   -0.13    3.60    2.16    23.72173    84.00777   184.53741
   191  C   4.0    0.05    4.65    4.71    24.35290    84.81279   182.03541
   192  C   4.0    0.16    3.58    3.15    26.36168    83.07613   180.94504
   193  O   6.0   -0.30    1.33    1.80    25.99885    81.98387   178.92870
   194  C   4.0   -0.03    4.21    4.01    25.30343    87.49242   182.11100
   195  S   6.0    0.02    2.65    3.10    26.15570    88.43162   179.11578
   196  H   1.0    0.11    1.11    1.44    24.35479    85.13971   185.96415
   197  H   1.0    0.06    1.08    1.44    22.68238    84.75610   180.83355
   198  H   1.0    0.06    1.09    1.44    23.81622    88.73964   182.80264
   199  H   1.0    0.06    1.09    1.44    26.95127    87.61147   183.34121
   200  N   5.0   -0.13    3.48    2.07    28.46116    82.80401   182.29997
   201  C   4.0    0.04    4.40    4.38    30.58144    81.29790   181.38912
   202  C   4.0    0.17    3.53    3.13    29.68948    78.72598   180.38568
   203  O   6.0   -0.31    1.35    1.80    30.12034    78.07781   178.20116
   204  C   4.0   -0.03    4.29    4.18    32.61289    80.98799   183.44893
   205  C   4.0   -0.01    3.51    3.12    34.98450    79.60282   182.56075
   206  C   4.0   -0.03    3.47    3.10    35.06764    76.96854   182.44926
   207  C   4.0   -0.02    3.44    3.09    37.14256    80.91995   181.84266
   208  C   4.0   -0.02    3.54    3.13    37.22571    75.68730   181.62912
   209  C   4.0   -0.01    3.42    3.08    39.31764    79.65384   181.00929
   210  C   4.0    0.09    3.43    3.09    39.34031    77.03657   180.90724
   211  O   6.0   -0.18    2.09    1.84    41.47759    75.76667   180.08710
   212  H   1.0    0.11    1.07    1.44    28.75218    83.59959   184.03096
   213  H   1.0    0.06    1.06    1.44    31.46583    82.31646   179.83199
   214  H   1.0    0.06    1.03    1.43    33.18548    82.85692   184.09899
   215  H   1.0    0.06    1.03    1.43    31.80976    79.91462   185.01173
   216  H   1.0    0.07    1.03    1.43    33.42547    75.89517   183.01051
   217  H   1.0    0.07    1.03    1.43    37.14445    82.95897   181.92770
   218  H   1.0    0.08    1.05    1.44    37.24083    73.64829   181.55920
   219  H   1.0    0.09    1.03    1.43    40.96926    80.71397   180.44993
   220  H   1.0    0.16    1.02    1.43    42.80418    76.97988   179.64491
   221  N   5.0   -0.13    3.59    2.15    28.43849    77.25011   181.96549
   222  C   4.0    0.05    4.53    4.58    27.62212    74.77835   181.12834
   223  C   4.0    0.16    3.55    3.14    26.04231    75.12983   178.79075
   224  O   6.0   -0.25    1.25    1.80    26.28231    73.74656   176.95394
   225  C   4.0   -0.03    4.34    4.27    26.05554    73.51979   183.15980
   226  C   4.0    0.25    3.17    3.03    27.41047    73.42152   185.66180
   227  O   6.0   -0.28    1.23    1.80    29.68004    74.09615   185.78463
   228  O   6.0   -0.31    1.28    1.80    26.18782    72.66185   187.52129
   229  H   1.0    0.11    1.08    1.44    27.97550    77.69797   183.78152
   230  H   1.0    0.07    1.06    1.44    29.24351    73.56514   180.75040
   231  H   1.0    0.05    1.03    1.43    24.30754    74.57992   183.41869
   232  H   1.0    0.06    1.03    1.43    25.63035    71.58849   182.58532
   233  N   5.0   -0.13    3.48    2.07    24.41904    77.02145   178.88146
   234  C   4.0    0.04    4.31    4.21    22.76553    77.59215   176.78386
   235  C   4.0    0.18    3.38    3.07    24.17337    77.95497   174.34045
   236  O   6.0   -0.22    1.25    1.80    23.27009    77.20286   172.36757
   237  H   1.0    0.11    1.07    1.44    24.20172    78.20253   180.38946
   238  H   1.0    0.07    1.06    1.44    21.42760    76.04635   176.53442
   239  H   1.0    0.07    1.03    1.43    21.72429    79.32125   177.19204
   240  N   5.0   -0.12    3.51    2.09    26.39191    79.10204   174.45383
   241  C   4.0    0.05    4.36    4.31    27.88291    79.46676   172.16915
   242  C   4.0    0.18    3.40    3.08    29.29264    77.04413   171.41515
   243  O   6.0   -0.20    1.24    1.80    29.22650    76.27879   169.21551
   244  C   4.0   -0.04    4.11    3.82    29.71972    81.64561   172.51686
   245  H   1.0    0.12    1.10    1.44    27.19883    79.78990   176.06388
   246  H   1.0    0.09    1.06    1.44    26.60734    79.95808   170.62714
   247  H   1.0    0.09    1.00    1.43    30.81387    81.88372   170.78776
   248  H   1.0    0.07    1.00    1.43    28.65580    83.36337   172.91559
   249  H   1.0    0.07    1.00    1.43    30.97828    81.21664   174.09100
   250  N   5.0   -0.12    3.44    2.04    30.53986    75.84982   173.25574
   251  C   4.0    0.06    4.39    4.35    32.07054    73.59160   172.81733
   252  C   4.0    0.14    3.25    3.04    30.93859    71.76612   170.88414
   253  O   6.0   -0.18    1.12    1.80    28.80320    70.89496   171.20728
   254  C   4.0   -0.01    4.10    3.81    32.58454    72.21966   175.31177
   255  S   6.0    0.03    2.41    3.10    35.57409    72.98878   176.67048
   256  H   1.0    0.11    1.10    1.44    30.52474    76.41296   175.10012
   257  H   1.0    0.07    1.08    1.44    33.86389    74.23221   172.03498
   258  H   1.0    0.07    1.08    1.44    31.12190    72.73555   176.66859
   259  H   1.0    0.09    1.08    1.44    32.54675    70.18820   174.97351
   260  H   1.0    0.06    1.05    1.44    35.20937    74.28324   178.72650
   261  N   5.0   -0.18    3.23    1.96     6.53278    88.66972   192.34387
   262  C   4.0    0.04    4.32    4.23     9.04612    89.75253   192.30796
   263  C   4.0    0.16    3.41    3.08    10.84136    88.07068   190.80185
   264  O   6.0   -0.29    1.24    1.80    11.94874    88.89460   188.94992
   265  C   4.0   -0.04    4.29    4.17     9.98909    90.07946   195.02161
   266  C   4.0   -0.04    4.15    3.89    10.85648    92.75342   195.70569
   267  C   4.0   -0.01    4.20    4.00    12.20385    92.82901   198.28327
   268  N   5.0   -0.14    3.37    2.01    10.47853    92.95751   200.44890
   269  C   4.0    0.10    3.34    3.06     9.45808    95.08912   201.32195
   270  N   5.0   -0.17    3.26    1.97     9.96830    97.27931   200.19001
   271  N   5.0   -0.16    3.22    1.96     7.91606    95.04188   203.31561
   272  H   1.0    0.11    1.03    1.43     5.54635    89.11003   193.94068
   273  H   1.0    0.07    1.06    1.44     9.00832    91.60258   191.40278
   274  H   1.0    0.06    1.04    1.43     8.45841    89.58057   196.30662
   275  H   1.0    0.04    1.04    1.43    11.59158    88.81901   195.31074
   276  H   1.0    0.05    1.03    1.43    12.17172    93.42805   194.27139
   277  H   1.0    0.07    1.03    1.43     9.21619    93.99686   195.80017
   278  H   1.0    0.04    1.03    1.43    13.33958    91.12259   198.48737
   279  H   1.0    0.04    1.03    1.43    13.41516    94.49386   198.34942
   280  H   1.0    0.09    1.06    1.44    10.03067    91.30967   201.34463
   281  H   1.0    0.09    1.03    1.43    11.13804    97.32278   198.65933
   282  H   1.0    0.10    1.02    1.43     9.18974    98.91204   200.85519
   283  H   1.0    0.11    1.02    1.43     7.51166    93.36758   204.18111
   284  H   1.0    0.11    1.02    1.43     7.14127    96.68027   203.97324
   285  N   5.0   -0.14    3.46    2.06    11.07568    85.69718   191.58987
   286  C   4.0    0.04    4.42    4.41    12.73675    83.89060   190.35965
   287  C   4.0    0.11    3.32    3.06    11.78811    83.20463   187.74616
   288  O   6.0   -0.31    1.24    1.80    13.21296    83.23298   185.89423
   289  C   4.0   -0.03    4.24    4.08    12.89171    81.49632   191.93002
   290  S   6.0    0.01    2.39    3.10    14.55656    78.91874   190.42957
   291  H   1.0    0.09    1.06    1.44    10.12704    84.96019   193.09598
   292  H   1.0    0.05    1.06    1.44    14.60380    84.74665   190.19903
   293  H   1.0    0.05    1.08    1.44    13.87248    81.92907   193.68935
   294  H   1.0    0.06    1.07    1.44    10.97742    80.85004   192.33064
   295  N   5.0   -0.17    3.23    1.96    12.80478    88.84736   182.94815
   296  C   4.0    0.04    4.29    4.19    15.55622    88.90972   182.84988
   297  C   4.0    0.16    3.48    3.10    16.48030    86.87448   181.10189
   298  O   6.0   -0.27    1.26    1.80    17.57256    87.39605   179.13279
   299  C   4.0   -0.06    4.17    3.95    16.61825    88.47508   185.45015
   300  H   1.0    0.12    1.04    1.43    12.09803    89.38782   184.65835
   301  H   1.0    0.07    1.06    1.44    16.19873    90.74464   182.16769
   302  H   1.0    0.05    1.00    1.43    18.67427    88.52610   185.35188
   303  H   1.0    0.06    1.00    1.43    15.93795    89.95662   186.70870
   304  H   1.0    0.06    1.01    1.43    15.99464    86.63449   186.13045
   305  N   5.0   -0.14    3.53    2.10    16.02677    84.53500   181.86912
   306  C   4.0    0.04    4.37    4.32    16.89037    82.36182   180.45371
   307  C   4.0    0.11    3.33    3.06    16.23275    82.66228   177.68715
   308  O   6.0   -0.26    1.12    1.80    17.87492    82.57724   176.05254
   309  C   4.0   -0.02    4.37    4.32    15.66205    79.96564   181.45904
   310  C   4.0   -0.00    3.59    3.16    16.46140    77.63561   180.07577
   311  C   4.0   -0.03    3.48    3.11    18.35869    76.10115   181.02819
   312  C   4.0   -0.01    3.49    3.11    15.33702    76.99310   177.79865
   313  C   4.0   -0.02    3.40    3.08    19.11080    73.96009   179.74506
   314  C   4.0    0.00    3.38    3.07    16.07590    74.85771   176.50418
   315  C   4.0   -0.00    3.40    3.08    17.97507    73.34215   177.47361
   316  H   1.0    0.12    1.15    1.45    15.05923    84.08525   183.47349
   317  H   1.0    0.08    1.08    1.44    18.93127    82.19930   180.67859
   318  H   1.0    0.06    1.04    1.43    16.17794    79.73321   183.43948
   319  H   1.0    0.07    1.04    1.43    13.61737    80.13950   181.27763
   320  H   1.0    0.06    1.03    1.43    19.25820    76.58681   182.79508
   321  H   1.0    0.08    1.03    1.43    13.86492    78.17985   177.02953
   322  H   1.0    0.07    1.03    1.43    20.58101    72.77146   180.51229
   323  H   1.0    0.10    1.03    1.43    15.17639    74.36828   174.73918
   324  H   1.0    0.09    1.03    1.43    18.57034    71.67542   176.45505
   325  N   5.0   -0.16    3.26    1.97    19.31111    88.36359   172.97229
   326  C   4.0    0.05    4.34    4.27    21.86980    87.82690   172.15592
   327  C   4.0    0.12    3.21    3.04    22.03798    85.64616   170.29076
   328  O   6.0   -0.19    1.12    1.80    23.33623    85.80490   168.39159
   329  C   4.0   -0.03    4.26    4.11    23.48551    87.22597   174.44816
   330  S   6.0    0.04    2.43    3.10    23.68205    89.81867   176.54954
   331  H   1.0    0.12    1.04    1.43    18.94639    87.90249   174.80721
   332  H   1.0    0.09    1.07    1.44    22.57089    89.51065   171.19783
   333  H   1.0    0.07    1.08    1.44    22.65781    85.63482   175.46105
   334  H   1.0    0.06    1.08    1.44    25.39225    86.75165   173.82833
   335  N   5.0   -0.10    4.07    3.07    24.37746    64.71333   192.15489
   336  C   4.0    0.00    4.29    4.17    23.48362    67.30225   192.55363
   337  C   4.0    0.09    3.23    3.04    21.47485    67.61028   194.62477
   338  O   6.0   -0.30    1.16    1.80    21.79043    69.13717   196.34820
   339  C   4.0   -0.03    4.32    4.24    22.50664    68.50412   190.09509
   340  C   4.0   -0.01    4.24    4.08    21.54666    71.20264   190.59776
   341  C   4.0   -0.06    4.18    3.96    23.53843    72.69931   192.04529
   342  C   4.0   -0.06    4.10    3.80    20.73596    72.66907   188.26017
   343  H   1.0    0.09    1.03    1.43    23.99952    64.16719   190.30485
   344  H   1.0    0.08    1.02    1.43    26.31443    64.63207   192.47993
   345  H   1.0    0.09    1.02    1.43    23.45339    63.50201   193.39644
   346  H   1.0    0.05    1.07    1.44    25.14469    68.33215   193.20369
   347  H   1.0    0.07    1.03    1.43    24.03542    68.59293   188.71748
   348  H   1.0    0.06    1.02    1.43    20.95139    67.37784   189.34865
   349  H   1.0    0.06    1.07    1.44    19.83078    70.99099   191.71837
   350  H   1.0    0.04    1.01    1.43    22.83167    74.60415   192.38544
   351  H   1.0    0.05    1.02    1.43    23.91259    71.75822   193.83864
   352  H   1.0    0.08    1.04    1.43    25.26375    72.78057   190.92279
   353  H   1.0    0.05    1.00    1.43    20.09346    74.53990   188.83276
   354  H   1.0    0.07    1.02    1.43    22.34412    72.83726   186.98271
   355  H   1.0    0.06    1.00    1.43    19.20340    71.65429   187.33042
   356  N   5.0   -0.17    3.23    1.96    25.61335    67.68020   200.08229
   357  C   4.0    0.04    4.29    4.19    27.58811    69.58693   200.38843
   358  C   4.0    0.16    3.41    3.08    26.45427    72.11538   201.14621
   359  O   6.0   -0.30    1.27    1.80    27.72984    73.65173   202.28193
   360  C   4.0   -0.04    4.21    4.02    29.22461    69.87984   197.99415
   361  C   4.0   -0.03    4.10    3.80    32.09322    69.28835   198.36264
   362  C   4.0   -0.04    4.07    3.74    33.86578    71.04391   196.78850
   363  C   4.0   -0.02    4.04    3.70    36.56809    71.32548   197.98092
   364  N   5.0   -0.11    3.94    2.71    38.17246    73.57047   197.11731
   365  H   1.0    0.10    1.03    1.43    25.60768    66.85061   198.34186
   366  H   1.0    0.07    1.06    1.44    28.88068    68.95009   201.86053
   367  H   1.0    0.05    1.03    1.43    28.50841    68.59293   196.55418
   368  H   1.0    0.05    1.04    1.43    29.07532    71.82625   197.33652
   369  H   1.0    0.06    1.03    1.43    32.57321    69.52835   200.35063
   370  H   1.0    0.07    1.02    1.43    32.45226    67.34571   197.78061
   371  H   1.0    0.06    1.02    1.43    34.08499    70.25400   194.89878
   372  H   1.0    0.04    1.02    1.43    33.02296    72.92041   196.67512
   373  H   1.0    0.07    1.02    1.43    36.34510    71.50311   200.02182
   374  H   1.0    0.07    1.02    1.43    37.63767    69.62283   197.53494
   375  H   1.0    0.09    1.01    1.43    39.90912    73.54968   198.03761
   376  H   1.0    0.07    1.01    1.43    38.47671    73.47221   195.17845
   377  H   1.0    0.06    1.01    1.43    37.25028    75.25611   197.53494
   378  N   5.0   -0.14    3.49    2.07    24.06188    72.55947   200.54528
   379  C   4.0    0.03    4.49    4.52    22.81466    74.86871   201.40888
   380  C   4.0    0.10    3.30    3.05    22.02098    74.66651   204.14520
   381  O   6.0   -0.29    1.19    1.80    21.91704    76.52600   205.53415
   382  C   4.0   -0.02    4.41    4.40    20.41849    75.42051   199.91789
   383  C   4.0   -0.04    4.26    4.12    20.99108    75.47531   197.10409
   384  C   4.0   -0.06    4.18    3.96    19.33568    77.93196   200.74559
   385  C   4.0   -0.08    4.09    3.78    23.03009    77.30268   196.43323
   386  H   1.0    0.11    1.08    1.44    22.95261    71.39162   199.48703
   387  H   1.0    0.05    1.08    1.44    24.19983    76.36915   201.13298
   388  H   1.0    0.06    1.06    1.44    19.04466    73.92952   200.28072
   389  H   1.0    0.06    1.04    1.43    21.59768    73.59882   196.50882
   390  H   1.0    0.05    1.03    1.43    19.28654    76.02145   196.08552
   391  H   1.0    0.05    1.00    1.43    17.62169    78.31179   199.66844
   392  H   1.0    0.07    1.02    1.43    18.89726    77.84314   202.75626
   393  H   1.0    0.04    1.00    1.43    20.72651    79.40972   200.39599
   394  H   1.0    0.04    1.01    1.43    23.34001    77.24410   194.39800
   395  H   1.0    0.04    1.00    1.43    22.44805    79.19619   197.00015
   396  H   1.0    0.04    1.01    1.43    24.75730    76.77356   197.42345
   397  N   5.0   -0.16    3.24    1.97    26.47695    76.38049   208.57283
   398  C   4.0    0.04    4.33    4.25    26.71695    79.10548   208.50291
   399  C   4.0    0.11    3.29    3.05    24.87824    80.16561   210.38508
   400  O   6.0   -0.22    1.12    1.80    25.58500    81.58669   212.08772
   401  C   4.0   -0.02    4.39    4.37    26.05176    80.16561   205.88186
   402  C   4.0   -0.04    4.24    4.08    28.00385    79.32091   203.94867
   403  C   4.0   -0.07    4.15    3.90    25.91192    83.04556   205.90643
   404  C   4.0   -0.07    4.05    3.72    27.36323    80.08436   201.30873
   405  H   1.0    0.12    1.05    1.44    25.54154    75.60760   207.07617
   406  H   1.0    0.07    1.05    1.44    28.66525    79.61381   208.93944
   407  H   1.0    0.07    1.09    1.44    24.19794    79.42673   205.37164
   408  H   1.0    0.05    1.03    1.43    29.82177    80.16183   204.42677
   409  H   1.0    0.07    1.05    1.44    28.14369    77.26677   203.99781
   410  H   1.0    0.04    1.00    1.43    25.43760    83.71074   204.01481
   411  H   1.0    0.05    1.01    1.43    24.45872    83.63515   207.24247
   412  H   1.0    0.06    1.00    1.43    27.74118    83.80145   206.47902
   413  H   1.0    0.05    1.00    1.43    28.84289    79.41728   200.04072
   414  H   1.0    0.04    1.01    1.43    25.55665    79.24343   200.78716
   415  H   1.0    0.05    1.01    1.43    27.23473    82.13849   201.21802
   416  H   1.0    0.11    1.07    1.44    20.22805   101.08510   210.51154
   417  H   1.0    0.11    1.04    1.43    31.93163    71.27632   169.35278
   418  H   1.0    0.13    1.07    1.44     5.64610    89.24872   191.01303
   419  H   1.0    0.08    1.05    1.44     9.97960    82.71746   187.49516
   420  H   1.0    0.13    1.07    1.44    12.17070    89.90021   181.77256
   421  H   1.0    0.08    1.05    1.44    14.43657    82.93502   177.16714
   422  H   1.0    0.13    1.07    1.44    19.00040    90.02773   172.80910
   423  H   1.0    0.09    1.05    1.44    21.07586    84.05174   170.61202
   424  H   1.0    0.08    1.04    1.43    19.90029    66.56647   194.57661
   425  H   1.0    0.13    1.07    1.44    25.83192    66.44673   201.23266
   426  H   1.0    0.08    1.05    1.44    21.56156    72.98457   204.87394
   427  H   1.0    0.12    1.07    1.44    28.02417    75.67474   208.59718
   428  H   1.0    0.08    1.05    1.44    23.04528    79.72082   210.26905

  Z AO/shell   Hii/eV     exponent
  1     Wed Apr 25 08:07:45 CEST 2018   EN: 2.200 GM2: 0.406  GM3: 0.0800  RAES: 1.40
     1s    -10.707211    1.230000
  6     Wed Apr 25 08:07:45 CEST 2018   EN: 2.550 GM2: 0.538  GM3: 0.1500  RAES: 3.00
     2s    -13.970922    2.096432
     2p    -10.063292    1.800000
  7     Wed Apr 25 08:07:45 CEST 2018   EN: 3.040 GM2: 0.461  GM3:-0.0640  RAES: 1.90
     2s    -16.686243    2.339881
     2p    -12.523956    2.014332
  8     Wed Apr 25 08:07:45 CEST 2018   EN: 3.440 GM2: 0.452  GM3:-0.0517  RAES: 1.80
     2s    -20.229985    2.439742
     2p    -15.503117    2.137023
 16     Tue Apr 24 11:44:34 CEST 2018   EN: 2.580 GM2: 0.340  GM3:-0.0502  RAES: 3.10
     3s    -20.029654    1.981333
     3p    -11.377694    2.025643
     3d     -0.420282    1.702555
 no old-style atom pair restraining (fixing) potential

molecular fragmentation (1/2 indicates fragments):
111111111111111111111111111111111111111111111111111111111111111111111111
111111111111111111111111111111111111111111111111111111111111111111111111
111111111111111111111111111111111111111111111111111111111111111111111111
111111111111111111111111111111111111111111111111111111111111111111111111
111111222222222222222222222222222222111111111122222222222222222222222222
22222222222222222222222222222222222222222222222222222221111221122222
# atoms in fragment 1/2:   310   118
 fragment masses (1/2) :     2253.75      695.98
CMA distance (Bohr)    :  11.148
constraining FC (au)   :  0.0500
           ------------------------------------------------- 
          |        Self-Consistent Charge Iterations        |
           ------------------------------------------------- 

 Ncao       : 1064
 Nao        : 1059
 Nshell     : 635
 Nel        : 1136
 T(el)      :   500.0
 intcut     :    35.0
 scfconv/Eh :  0.100E-06
   qconv/e  :  0.100E-04
 intneglect :  0.100E-08
 broydamp   :      0.400
 iter      E             dE          RMSdq      gap      omega  full diag
   1   -645.8914864 -0.645891E+03  0.457E+00    2.11       0.0  T
   2   -647.1461467 -0.125466E+01  0.222E+00    1.79       1.0  T
   3   -647.2148866 -0.687399E-01  0.118E+00    1.64       1.0  T
   4   -647.3255279 -0.110641E+00  0.310E-01    0.98       1.0  T
   5   -647.3312419 -0.571400E-02  0.151E-01    1.15       1.0  T
   6   -647.3330633 -0.182143E-02  0.732E-02    1.08       1.0  T
   7   -647.3334679 -0.404650E-03  0.389E-02    1.04       1.0  T
   8   -647.3335489 -0.809677E-04  0.199E-02    1.03       1.0  T
   9   -647.3335796 -0.307307E-04  0.110E-02    1.02       1.0  T
  10   -647.3335865 -0.686913E-05  0.618E-03    1.02       1.0  T
  11   -647.3335885 -0.198758E-05  0.321E-03    1.02       1.5  T
  12   -647.3335891 -0.598875E-06  0.162E-03    1.02       3.0  T
  13   -647.3335893 -0.164077E-06  0.859E-04    1.02       5.6  T
  14   -647.3335893 -0.529839E-07  0.348E-04    1.02      13.9  T
  15   -647.3335893 -0.106575E-07  0.176E-04    1.02      27.4  T
  16   -647.3335893 -0.216403E-08  0.903E-05    1.02      53.5  T
  17   -647.3335893 -0.494083E-09  0.487E-05    1.02      99.3  T
speedup  1.10
cpu  time for SCC   28.54 s
wall time for SCC   25.99 s

   *** convergence criteria satisfied after 17 iterations ***

          eigenvalues
 #    :         556        557        558        559        560        561        562        563
 occ. :        2.000      2.000      2.000      2.000      2.000      2.000      2.000      2.000
 eps  :       -10.447    -10.446    -10.368    -10.364    -10.262    -10.226    -10.206    -10.196
 #    :         564        565        566        567        568        569        570        571
 occ. :        2.000      2.000      2.000      2.000      2.000      0.000      0.000      0.000
 eps  :        -9.990     -9.941     -9.831     -9.808     -9.626     -8.604     -8.404     -8.216
 #    :         572        573        574        575        576        577        578        579
 occ. :        0.000      0.000      0.000      0.000      0.000      0.000      0.000      0.000
 eps  :        -8.038     -8.021     -7.617     -7.362     -7.342     -7.110     -6.657     -6.467


   #   Z            q   n(s)   n(p)   n(d)      C6AA      α(0)
   1   7 N     -0.398  1.316  4.082  0.000    30.316     8.177
   2   6 C      0.026  1.053  2.921  0.000    20.155     6.394
   3   6 C      0.263  1.042  2.695  0.000    22.575     7.781
   4   8 O     -0.483  1.743  4.740  0.000    23.410     6.487
   5   6 C     -0.123  1.044  3.079  0.000    22.912     6.825
   6   1 H      0.156  0.844  0.000  0.000     1.364     1.829
   7   1 H      0.053  0.947  0.000  0.000     2.287     2.365
   8   1 H      0.052  0.948  0.000  0.000     2.293     2.368
   9   1 H      0.052  0.948  0.000  0.000     2.295     2.369
  10   1 H      0.045  0.955  0.000  0.000     2.381     2.413
  11   7 N     -0.173  1.237  3.936  0.000    24.745     7.388
  12   6 C      0.005  1.065  2.930  0.000    20.482     6.442
  13   6 C      0.281  1.038  2.682  0.000    22.249     7.725
  14   8 O     -0.476  1.734  4.741  0.000    23.252     6.465
  15   6 C     -0.091  1.057  3.035  0.000    22.234     6.712
  16   6 C     -0.078  1.049  3.029  0.000    21.985     6.675
  17   6 C     -0.099  1.053  3.046  0.000    22.391     6.736
  18   6 C     -0.053  1.064  2.989  0.000    21.618     6.637
  19   7 N     -0.151  1.237  3.914  0.000    24.250     7.314
  20   1 H      0.217  0.783  0.000  0.000     1.025     1.586
  21   1 H      0.095  0.905  0.000  0.000     1.833     2.117
  22   1 H      0.060  0.940  0.000  0.000     2.203     2.321
  23   1 H      0.074  0.926  0.000  0.000     2.038     2.233
  24   1 H      0.058  0.942  0.000  0.000     2.222     2.331
  25   1 H      0.065  0.935  0.000  0.000     2.147     2.291
  26   1 H      0.081  0.919  0.000  0.000     1.972     2.196
  27   1 H      0.084  0.916  0.000  0.000     1.934     2.175
  28   1 H      0.113  0.887  0.000  0.000     1.673     2.023
  29   1 H      0.110  0.890  0.000  0.000     1.693     2.035
  30   1 H      0.295  0.705  0.000  0.000     0.729     1.338
  31   1 H      0.299  0.701  0.000  0.000     0.717     1.326
  32   1 H      0.300  0.700  0.000  0.000     0.713     1.323
  33   7 N     -0.176  1.244  3.932  0.000    24.812     7.398
  34   6 C      0.016  1.060  2.925  0.000    20.312     6.417
  35   6 C      0.274  1.038  2.687  0.000    22.365     7.745
  36   8 O     -0.455  1.746  4.709  0.000    22.817     6.404
  37   6 C     -0.088  1.055  3.033  0.000    22.156     6.699
  38   6 C     -0.003  1.070  2.933  0.000    28.106     8.696
  39   6 C     -0.034  1.080  2.954  0.000    28.857     8.810
  40   6 C     -0.054  1.083  2.971  0.000    29.343     8.884
  41   6 C     -0.053  1.071  2.981  0.000    29.310     8.878
  42   6 C     -0.080  1.076  3.004  0.000    29.997     8.982
  43   6 C      0.147  1.044  2.809  0.000    24.806     8.163
  44   8 O     -0.461  1.744  4.718  0.000    22.075     6.343
  45   1 H      0.214  0.786  0.000  0.000     1.037     1.595
  46   1 H      0.081  0.919  0.000  0.000     1.969     2.194
  47   1 H      0.063  0.937  0.000  0.000     2.161     2.299
  48   1 H      0.073  0.927  0.000  0.000     2.057     2.243
  49   1 H      0.027  0.973  0.000  0.000     2.629     2.535
  50   1 H      0.072  0.928  0.000  0.000     2.068     2.249
  51   1 H      0.029  0.971  0.000  0.000     2.601     2.522
  52   1 H      0.070  0.930  0.000  0.000     2.087     2.259
  53   1 H      0.354  0.646  0.000  0.000     0.579     1.195
  54   7 N     -0.167  1.236  3.930  0.000    24.604     7.367
  55   6 C      0.001  1.064  2.936  0.000    20.571     6.458
  56   6 C      0.273  1.034  2.693  0.000    22.391     7.749
  57   8 O     -0.480  1.747  4.733  0.000    23.343     6.478
  58   6 C     -0.104  1.062  3.042  0.000    22.480     6.750
  59   6 C     -0.087  1.054  3.033  0.000    22.163     6.702
  60   6 C     -0.106  1.056  3.050  0.000    22.523     6.756
  61   6 C     -0.061  1.059  3.001  0.000    21.762     6.658
  62   7 N     -0.145  1.232  3.912  0.000    24.126     7.295
  63   1 H      0.212  0.788  0.000  0.000     1.045     1.601
  64   1 H      0.096  0.904  0.000  0.000     1.822     2.111
  65   1 H      0.061  0.939  0.000  0.000     2.184     2.311
  66   1 H      0.084  0.916  0.000  0.000     1.939     2.178
  67   1 H      0.081  0.919  0.000  0.000     1.968     2.194
  68   1 H      0.061  0.939  0.000  0.000     2.190     2.314
  69   1 H      0.079  0.921  0.000  0.000     1.986     2.204
  70   1 H      0.090  0.910  0.000  0.000     1.880     2.144
  71   1 H      0.128  0.872  0.000  0.000     1.548     1.945
  72   1 H      0.118  0.882  0.000  0.000     1.627     1.994
  73   1 H      0.297  0.703  0.000  0.000     0.723     1.332
  74   1 H      0.295  0.705  0.000  0.000     0.730     1.338
  75   1 H      0.291  0.709  0.000  0.000     0.740     1.347
  76   7 N     -0.169  1.248  3.921  0.000    24.647     7.373
  77   6 C      0.017  1.062  2.921  0.000    20.292     6.415
  78   6 C      0.289  1.037  2.674  0.000    22.105     7.699
  79   8 O     -0.514  1.739  4.776  0.000    24.101     6.582
  80   6 C     -0.090  1.054  3.035  0.000    22.206     6.708
  81   6 C      0.056  1.066  2.878  0.000    26.644     8.461
  82   7 N     -0.330  1.489  3.841  0.000    29.370     8.037
  83   6 C     -0.037  1.062  2.975  0.000    28.877     8.813
  84   6 C      0.090  1.057  2.853  0.000    25.967     8.358
  85   7 N     -0.093  1.242  3.850  0.000    23.044     7.130
  86   1 H      0.224  0.776  0.000  0.000     0.989     1.558
  87   1 H      0.065  0.935  0.000  0.000     2.146     2.291
  88   1 H      0.090  0.910  0.000  0.000     1.880     2.144
  89   1 H      0.093  0.907  0.000  0.000     1.846     2.124
  90   1 H      0.059  0.941  0.000  0.000     2.209     2.324
  91   1 H      0.023  0.977  0.000  0.000     2.687     2.563
  92   1 H      0.206  0.794  0.000  0.000     1.078     1.627
  93   7 N     -0.181  1.250  3.931  0.000    24.926     7.415
  94   6 C      0.013  1.062  2.926  0.000    20.360     6.424
  95   6 C      0.279  1.042  2.679  0.000    22.275     7.728
  96   8 O     -0.500  1.737  4.763  0.000    23.787     6.539
  97   6 C      0.066  1.038  2.896  0.000    19.663     6.348
  98   8 O     -0.479  1.730  4.749  0.000    22.445     6.395
  99   1 H      0.241  0.759  0.000  0.000     0.920     1.503
 100   1 H      0.077  0.923  0.000  0.000     2.012     2.218
 101   1 H      0.064  0.936  0.000  0.000     2.153     2.294
 102   1 H      0.058  0.942  0.000  0.000     2.217     2.329
 103   1 H      0.342  0.658  0.000  0.000     0.608     1.225
 104   7 N     -0.165  1.251  3.914  0.000    24.572     7.362
 105   6 C      0.012  1.067  2.921  0.000    20.377     6.427
 106   6 C      0.289  1.036  2.676  0.000    22.109     7.700
 107   8 O     -0.498  1.746  4.752  0.000    23.751     6.534
 108   6 C     -0.036  1.067  2.969  0.000    21.176     6.545
 109   6 C     -0.127  1.045  3.082  0.000    23.005     6.839
 110   6 C     -0.124  1.045  3.079  0.000    22.943     6.830
 111   1 H      0.251  0.749  0.000  0.000     0.881     1.470
 112   1 H      0.077  0.923  0.000  0.000     2.015     2.220
 113   1 H      0.082  0.918  0.000  0.000     1.955     2.186
 114   1 H      0.062  0.938  0.000  0.000     2.172     2.305
 115   1 H      0.030  0.970  0.000  0.000     2.588     2.516
 116   1 H      0.045  0.955  0.000  0.000     2.382     2.413
 117   1 H      0.049  0.951  0.000  0.000     2.330     2.387
 118   1 H      0.037  0.963  0.000  0.000     2.486     2.466
 119   1 H      0.073  0.927  0.000  0.000     2.055     2.242
 120   7 N     -0.186  1.240  3.946  0.000    25.032     7.431
 121   6 C      0.025  1.050  2.925  0.000    20.136     6.386
 122   6 C      0.285  1.039  2.676  0.000    22.168     7.712
 123   8 O     -0.523  1.752  4.771  0.000    24.310     6.611
 124   6 C     -0.040  1.057  2.983  0.000    21.238     6.552
 125   6 C     -0.125  1.041  3.084  0.000    22.937     6.827
 126   6 C     -0.128  1.044  3.084  0.000    23.003     6.837
 127   1 H      0.225  0.775  0.000  0.000     0.986     1.555
 128   1 H      0.052  0.948  0.000  0.000     2.294     2.369
 129   1 H      0.082  0.918  0.000  0.000     1.955     2.186
 130   1 H      0.058  0.942  0.000  0.000     2.223     2.332
 131   1 H      0.037  0.963  0.000  0.000     2.487     2.466
 132   1 H      0.028  0.972  0.000  0.000     2.620     2.531
 133   1 H      0.062  0.938  0.000  0.000     2.171     2.304
 134   1 H      0.042  0.958  0.000  0.000     2.417     2.431
 135   1 H      0.063  0.937  0.000  0.000     2.162     2.299
 136   7 N     -0.183  1.251  3.933  0.000    24.975     7.422
 137   6 C      0.019  1.057  2.924  0.000    20.268     6.411
 138   6 C      0.277  1.039  2.684  0.000    22.311     7.735
 139   8 O     -0.514  1.747  4.767  0.000    24.106     6.583
 140   6 C     -0.086  1.056  3.030  0.000    22.135     6.697
 141   6 C     -0.076  1.051  3.025  0.000    21.961     6.672
 142   6 C     -0.101  1.059  3.042  0.000    22.421     6.741
 143   6 C     -0.059  1.068  2.991  0.000    21.733     6.655
 144   7 N     -0.151  1.239  3.912  0.000    24.246     7.313
 145   1 H      0.233  0.767  0.000  0.000     0.952     1.528
 146   1 H      0.050  0.950  0.000  0.000     2.314     2.379
 147   1 H      0.064  0.936  0.000  0.000     2.158     2.297
 148   1 H      0.080  0.920  0.000  0.000     1.977     2.199
 149   1 H      0.070  0.930  0.000  0.000     2.089     2.260
 150   1 H      0.055  0.945  0.000  0.000     2.260     2.351
 151   1 H      0.075  0.925  0.000  0.000     2.027     2.226
 152   1 H      0.080  0.920  0.000  0.000     1.975     2.198
 153   1 H      0.134  0.866  0.000  0.000     1.503     1.917
 154   1 H      0.122  0.878  0.000  0.000     1.599     1.978
 155   1 H      0.310  0.690  0.000  0.000     0.685     1.296
 156   1 H      0.294  0.706  0.000  0.000     0.730     1.339
 157   1 H      0.295  0.705  0.000  0.000     0.728     1.336
 158   7 N     -0.176  1.251  3.925  0.000    24.805     7.397
 159   6 C      0.005  1.064  2.931  0.000    20.499     6.446
 160   6 C      0.275  1.043  2.682  0.000    22.345     7.741
 161   8 O     -0.515  1.760  4.755  0.000    24.114     6.584
 162   6 C     -0.088  1.053  3.036  0.000    22.179     6.704
 163   6 C     -0.089  1.055  3.034  0.000    22.188     6.706
 164   6 C     -0.105  1.058  3.047  0.000    22.501     6.754
 165   6 C     -0.070  1.068  3.002  0.000    21.940     6.686
 166   7 N     -0.146  1.233  3.913  0.000    24.151     7.299
 167   1 H      0.240  0.760  0.000  0.000     0.924     1.506
 168   1 H      0.105  0.895  0.000  0.000     1.741     2.063
 169   1 H      0.080  0.920  0.000  0.000     1.979     2.200
 170   1 H      0.060  0.940  0.000  0.000     2.194     2.316
 171   1 H      0.086  0.914  0.000  0.000     1.917     2.165
 172   1 H      0.086  0.914  0.000  0.000     1.921     2.168
 173   1 H      0.082  0.918  0.000  0.000     1.956     2.187
 174   1 H      0.061  0.939  0.000  0.000     2.190     2.314
 175   1 H      0.136  0.864  0.000  0.000     1.487     1.907
 176   1 H      0.136  0.864  0.000  0.000     1.489     1.908
 177   1 H      0.311  0.689  0.000  0.000     0.681     1.293
 178   1 H      0.285  0.715  0.000  0.000     0.761     1.366
 179   1 H      0.292  0.708  0.000  0.000     0.738     1.346
 180   7 N     -0.184  1.248  3.936  0.000    24.996     7.425
 181   6 C      0.036  1.049  2.915  0.000    19.928     6.348
 182   6 C      0.284  1.032  2.684  0.000    22.190     7.715
 183   8 O     -0.518  1.757  4.761  0.000    24.187     6.594
 184   6 C     -0.023  1.059  2.964  0.000    20.976     6.520
 185  16 S     -0.073  1.901  4.080  0.092   144.083    20.203
 186   1 H      0.247  0.753  0.000  0.000     0.896     1.483
 187   1 H      0.069  0.931  0.000  0.000     2.099     2.266
 188   1 H      0.078  0.922  0.000  0.000     1.998     2.210
 189   1 H      0.042  0.958  0.000  0.000     2.422     2.434
 190   7 N     -0.187  1.246  3.941  0.000    25.044     7.433
 191   6 C      0.049  1.043  2.908  0.000    19.698     6.308
 192   6 C      0.279  1.036  2.685  0.000    22.279     7.730
 193   8 O     -0.511  1.760  4.751  0.000    24.027     6.572
 194   6 C     -0.027  1.058  2.970  0.000    21.051     6.531
 195  16 S     -0.115  1.895  4.110  0.110   145.864    20.327
 196   1 H      0.242  0.758  0.000  0.000     0.916     1.499
 197   1 H      0.040  0.960  0.000  0.000     2.453     2.449
 198   1 H      0.079  0.921  0.000  0.000     1.986     2.204
 199   1 H      0.118  0.882  0.000  0.000     1.629     1.996
 200   7 N     -0.166  1.247  3.919  0.000    24.598     7.366
 201   6 C      0.021  1.062  2.917  0.000    20.233     6.405
 202   6 C      0.290  1.038  2.672  0.000    22.078     7.695
 203   8 O     -0.520  1.747  4.773  0.000    24.228     6.599
 204   6 C     -0.095  1.060  3.035  0.000    22.306     6.724
 205   6 C     -0.000  1.078  2.922  0.000    28.029     8.684
 206   6 C     -0.046  1.087  2.959  0.000    29.147     8.854
 207   6 C     -0.043  1.088  2.955  0.000    29.076     8.843
 208   6 C     -0.065  1.077  2.988  0.000    29.616     8.924
 209   6 C     -0.071  1.081  2.990  0.000    29.776     8.948
 210   6 C      0.150  1.047  2.803  0.000    24.733     8.150
 211   8 O     -0.447  1.738  4.709  0.000    21.786     6.301
 212   1 H      0.242  0.758  0.000  0.000     0.913     1.497
 213   1 H      0.070  0.930  0.000  0.000     2.088     2.260
 214   1 H      0.102  0.898  0.000  0.000     1.765     2.077
 215   1 H      0.092  0.908  0.000  0.000     1.863     2.134
 216   1 H      0.047  0.953  0.000  0.000     2.361     2.403
 217   1 H      0.067  0.933  0.000  0.000     2.120     2.277
 218   1 H      0.067  0.933  0.000  0.000     2.116     2.275
 219   1 H      0.054  0.946  0.000  0.000     2.269     2.355
 220   1 H      0.345  0.655  0.000  0.000     0.601     1.218
 221   7 N     -0.164  1.241  3.923  0.000    24.544     7.358
 222   6 C      0.048  1.046  2.906  0.000    19.753     6.326
 223   6 C      0.287  1.032  2.681  0.000    22.133     7.705
 224   8 O     -0.525  1.761  4.763  0.000    24.335     6.614
 225   6 C     -0.087  1.057  3.031  0.000    22.154     6.699
 226   6 C      0.358  1.018  2.624  0.000    20.919     7.485
 227   8 O     -0.615  1.759  4.856  0.000    26.494     6.901
 228   8 O     -0.574  1.740  4.834  0.000    25.495     6.770
 229   1 H      0.231  0.769  0.000  0.000     0.959     1.534
 230   1 H      0.053  0.947  0.000  0.000     2.284     2.363
 231   1 H      0.024  0.976  0.000  0.000     2.680     2.560
 232   1 H      0.031  0.969  0.000  0.000     2.574     2.509
 233   7 N     -0.166  1.234  3.932  0.000    24.600     7.366
 234   6 C     -0.009  1.042  2.968  0.000    20.804     6.504
 235   6 C      0.296  1.028  2.675  0.000    21.972     7.676
 236   8 O     -0.529  1.754  4.775  0.000    24.429     6.627
 237   1 H      0.208  0.792  0.000  0.000     1.065     1.617
 238   1 H      0.066  0.934  0.000  0.000     2.126     2.280
 239   1 H      0.071  0.929  0.000  0.000     2.073     2.252
 240   7 N     -0.188  1.249  3.939  0.000    25.070     7.436
 241   6 C      0.035  1.054  2.911  0.000    19.995     6.367
 242   6 C      0.282  1.044  2.674  0.000    22.222     7.719
 243   8 O     -0.513  1.762  4.751  0.000    24.067     6.577
 244   6 C     -0.126  1.045  3.081  0.000    22.966     6.833
 245   1 H      0.235  0.765  0.000  0.000     0.942     1.521
 246   1 H      0.054  0.946  0.000  0.000     2.269     2.356
 247   1 H      0.069  0.931  0.000  0.000     2.092     2.262
 248   1 H      0.059  0.941  0.000  0.000     2.208     2.324
 249   1 H      0.080  0.920  0.000  0.000     1.983     2.202
 250   7 N     -0.175  1.252  3.923  0.000    24.797     7.396
 251   6 C      0.039  1.054  2.907  0.000    19.904     6.349
 252   6 C      0.207  1.083  2.710  0.000    23.613     7.958
 253   8 O     -0.376  1.767  4.610  0.000    21.215     6.175
 254   6 C      0.007  1.057  2.936  0.000    20.460     6.440
 255  16 S     -0.321  1.912  4.365  0.044   155.017    20.955
 256   1 H      0.243  0.757  0.000  0.000     0.913     1.497
 257   1 H      0.071  0.929  0.000  0.000     2.076     2.253
 258   1 H      0.071  0.929  0.000  0.000     2.075     2.253
 259   1 H      0.057  0.943  0.000  0.000     2.233     2.337
 260   1 H      0.229  0.771  0.000  0.000     0.963     1.535
 261   7 N     -0.401  1.331  4.070  0.000    30.396     8.188
 262   6 C      0.026  1.055  2.919  0.000    20.145     6.393
 263   6 C      0.273  1.045  2.682  0.000    22.380     7.747
 264   8 O     -0.498  1.756  4.742  0.000    23.737     6.532
 265   6 C     -0.095  1.064  3.032  0.000    22.315     6.725
 266   6 C     -0.090  1.057  3.033  0.000    22.213     6.711
 267   6 C     -0.037  1.061  2.976  0.000    21.317     6.589
 268   7 N     -0.139  1.210  3.929  0.000    24.016     7.278
 269   6 C      0.220  1.021  2.759  0.000    23.364     7.914
 270   7 N     -0.236  1.225  4.011  0.000    26.185     7.600
 271   7 N     -0.249  1.235  4.013  0.000    26.474     7.642
 272   1 H      0.182  0.818  0.000  0.000     1.203     1.718
 273   1 H      0.036  0.964  0.000  0.000     2.501     2.473
 274   1 H      0.079  0.921  0.000  0.000     1.986     2.204
 275   1 H      0.062  0.938  0.000  0.000     2.175     2.306
 276   1 H      0.063  0.937  0.000  0.000     2.165     2.301
 277   1 H      0.074  0.926  0.000  0.000     2.043     2.235
 278   1 H      0.097  0.903  0.000  0.000     1.816     2.107
 279   1 H      0.096  0.904  0.000  0.000     1.825     2.113
 280   1 H      0.231  0.769  0.000  0.000     0.962     1.537
 281   1 H      0.244  0.756  0.000  0.000     0.908     1.492
 282   1 H      0.250  0.750  0.000  0.000     0.883     1.472
 283   1 H      0.247  0.753  0.000  0.000     0.895     1.482
 284   1 H      0.258  0.742  0.000  0.000     0.855     1.448
 285   7 N     -0.170  1.241  3.929  0.000    24.684     7.379
 286   6 C      0.028  1.051  2.921  0.000    20.088     6.379
 287   6 C      0.207  1.089  2.704  0.000    23.606     7.957
 288   8 O     -0.367  1.751  4.616  0.000    21.037     6.149
 289   6 C     -0.054  1.075  2.979  0.000    21.538     6.606
 290  16 S     -0.087  1.940  4.059  0.088   144.692    20.245
 291   1 H      0.237  0.763  0.000  0.000     0.935     1.515
 292   1 H      0.089  0.911  0.000  0.000     1.888     2.149
 293   1 H      0.122  0.878  0.000  0.000     1.597     1.976
 294   1 H      0.103  0.897  0.000  0.000     1.761     2.075
 295   7 N     -0.405  1.333  4.072  0.000    30.526     8.206
 296   6 C      0.042  1.046  2.912  0.000    19.871     6.348
 297   6 C      0.279  1.040  2.682  0.000    22.286     7.731
 298   8 O     -0.533  1.760  4.774  0.000    24.535     6.641
 299   6 C     -0.120  1.044  3.076  0.000    22.844     6.813
 300   1 H      0.187  0.813  0.000  0.000     1.175     1.698
 301   1 H      0.018  0.982  0.000  0.000     2.757     2.597
 302   1 H      0.034  0.966  0.000  0.000     2.531     2.488
 303   1 H      0.081  0.919  0.000  0.000     1.971     2.195
 304   1 H      0.063  0.937  0.000  0.000     2.161     2.299
 305   7 N     -0.199  1.257  3.942  0.000    25.320     7.473
 306   6 C      0.040  1.050  2.910  0.000    19.903     6.352
 307   6 C      0.215  1.080  2.705  0.000    23.448     7.931
 308   8 O     -0.396  1.767  4.629  0.000    21.603     6.232
 309   6 C     -0.074  1.054  3.020  0.000    21.897     6.660
 310   6 C      0.010  1.077  2.913  0.000    27.780     8.646
 311   6 C     -0.036  1.080  2.956  0.000    28.895     8.815
 312   6 C     -0.041  1.080  2.962  0.000    29.031     8.836
 313   6 C     -0.030  1.078  2.952  0.000    28.753     8.793
 314   6 C     -0.031  1.080  2.951  0.000    28.765     8.795
 315   6 C     -0.033  1.080  2.953  0.000    28.816     8.803
 316   1 H      0.259  0.741  0.000  0.000     0.849     1.443
 317   1 H      0.075  0.925  0.000  0.000     2.033     2.230
 318   1 H      0.076  0.924  0.000  0.000     2.016     2.220
 319   1 H      0.072  0.928  0.000  0.000     2.067     2.248
 320   1 H      0.056  0.944  0.000  0.000     2.249     2.345
 321   1 H      0.029  0.971  0.000  0.000     2.598     2.521
 322   1 H      0.035  0.965  0.000  0.000     2.518     2.482
 323   1 H      0.030  0.970  0.000  0.000     2.593     2.518
 324   1 H      0.026  0.974  0.000  0.000     2.645     2.543
 325   7 N     -0.390  1.320  4.070  0.000    30.097     8.148
 326   6 C      0.048  1.048  2.904  0.000    19.740     6.321
 327   6 C      0.204  1.087  2.709  0.000    23.667     7.967
 328   8 O     -0.363  1.754  4.609  0.000    20.957     6.138
 329   6 C      0.007  1.057  2.935  0.000    20.442     6.435
 330  16 S     -0.093  1.922  4.074  0.097   144.917    20.261
 331   1 H      0.169  0.831  0.000  0.000     1.276     1.770
 332   1 H      0.060  0.940  0.000  0.000     2.204     2.322
 333   1 H      0.038  0.962  0.000  0.000     2.476     2.461
 334   1 H      0.034  0.966  0.000  0.000     2.524     2.485
 335   7 N     -0.149  1.233  3.916  0.000    24.215     7.309
 336   6 C     -0.018  1.064  2.954  0.000    20.909     6.514
 337   6 C      0.189  1.082  2.729  0.000    23.959     8.016
 338   8 O     -0.312  1.748  4.564  0.000    20.001     5.996
 339   6 C     -0.091  1.064  3.027  0.000    22.236     6.713
 340   6 C     -0.007  1.055  2.952  0.000    20.664     6.466
 341   6 C     -0.157  1.053  3.104  0.000    23.604     6.927
 342   6 C     -0.110  1.040  3.070  0.000    22.670     6.789
 343   1 H      0.301  0.699  0.000  0.000     0.709     1.320
 344   1 H      0.315  0.685  0.000  0.000     0.670     1.283
 345   1 H      0.301  0.699  0.000  0.000     0.710     1.320
 346   1 H      0.143  0.857  0.000  0.000     1.439     1.876
 347   1 H      0.089  0.911  0.000  0.000     1.886     2.148
 348   1 H      0.061  0.939  0.000  0.000     2.186     2.312
 349   1 H      0.029  0.971  0.000  0.000     2.597     2.520
 350   1 H      0.049  0.951  0.000  0.000     2.326     2.385
 351   1 H      0.062  0.938  0.000  0.000     2.178     2.308
 352   1 H      0.097  0.903  0.000  0.000     1.809     2.103
 353   1 H      0.027  0.973  0.000  0.000     2.627     2.535
 354   1 H      0.048  0.952  0.000  0.000     2.347     2.396
 355   1 H      0.011  0.989  0.000  0.000     2.870     2.649
 356   7 N     -0.399  1.333  4.066  0.000    30.333     8.180
 357   6 C      0.020  1.061  2.918  0.000    20.247     6.409
 358   6 C      0.270  1.043  2.687  0.000    22.441     7.758
 359   8 O     -0.492  1.734  4.758  0.000    23.609     6.515
 360   6 C     -0.082  1.068  3.014  0.000    22.061     6.688
 361   6 C     -0.078  1.062  3.016  0.000    21.990     6.678
 362   6 C     -0.099  1.067  3.031  0.000    22.394     6.739
 363   6 C     -0.060  1.073  2.986  0.000    21.769     6.664
 364   7 N     -0.146  1.239  3.907  0.000    24.148     7.298
 365   1 H      0.156  0.844  0.000  0.000     1.361     1.827
 366   1 H      0.042  0.958  0.000  0.000     2.420     2.433
 367   1 H      0.051  0.949  0.000  0.000     2.307     2.375
 368   1 H      0.071  0.929  0.000  0.000     2.074     2.252
 369   1 H      0.053  0.947  0.000  0.000     2.288     2.365
 370   1 H      0.049  0.951  0.000  0.000     2.338     2.391
 371   1 H      0.080  0.920  0.000  0.000     1.977     2.199
 372   1 H      0.095  0.905  0.000  0.000     1.834     2.118
 373   1 H      0.115  0.885  0.000  0.000     1.652     2.010
 374   1 H      0.109  0.891  0.000  0.000     1.709     2.044
 375   1 H      0.307  0.693  0.000  0.000     0.694     1.305
 376   1 H      0.289  0.711  0.000  0.000     0.746     1.353
 377   1 H      0.301  0.699  0.000  0.000     0.710     1.320
 378   7 N     -0.176  1.243  3.932  0.000    24.807     7.397
 379   6 C      0.015  1.061  2.923  0.000    20.319     6.417
 380   6 C      0.200  1.082  2.718  0.000    23.739     7.980
 381   8 O     -0.369  1.755  4.614  0.000    21.066     6.154
 382   6 C     -0.019  1.059  2.960  0.000    20.877     6.497
 383   6 C     -0.079  1.049  3.030  0.000    21.998     6.676
 384   6 C     -0.120  1.040  3.080  0.000    22.841     6.813
 385   6 C     -0.128  1.041  3.087  0.000    23.018     6.841
 386   1 H      0.225  0.775  0.000  0.000     0.989     1.557
 387   1 H      0.120  0.880  0.000  0.000     1.613     1.986
 388   1 H      0.035  0.965  0.000  0.000     2.512     2.479
 389   1 H      0.063  0.937  0.000  0.000     2.167     2.302
 390   1 H      0.049  0.951  0.000  0.000     2.338     2.391
 391   1 H      0.054  0.946  0.000  0.000     2.271     2.357
 392   1 H      0.039  0.961  0.000  0.000     2.457     2.451
 393   1 H      0.062  0.938  0.000  0.000     2.176     2.307
 394   1 H      0.047  0.953  0.000  0.000     2.352     2.398
 395   1 H      0.053  0.947  0.000  0.000     2.288     2.365
 396   1 H      0.059  0.941  0.000  0.000     2.209     2.324
 397   7 N     -0.399  1.328  4.071  0.000    30.356     8.183
 398   6 C      0.041  1.053  2.906  0.000    19.893     6.352
 399   6 C      0.211  1.088  2.701  0.000    23.527     7.944
 400   8 O     -0.407  1.760  4.647  0.000    21.826     6.264
 401   6 C     -0.039  1.069  2.970  0.000    21.222     6.551
 402   6 C     -0.073  1.046  3.027  0.000    21.888     6.659
 403   6 C     -0.117  1.043  3.074  0.000    22.804     6.809
 404   6 C     -0.121  1.042  3.079  0.000    22.879     6.821
 405   1 H      0.158  0.842  0.000  0.000     1.349     1.820
 406   1 H      0.046  0.954  0.000  0.000     2.365     2.405
 407   1 H      0.065  0.935  0.000  0.000     2.142     2.289
 408   1 H      0.039  0.961  0.000  0.000     2.460     2.453
 409   1 H      0.056  0.944  0.000  0.000     2.242     2.342
 410   1 H      0.069  0.931  0.000  0.000     2.095     2.263
 411   1 H      0.020  0.980  0.000  0.000     2.740     2.588
 412   1 H      0.044  0.956  0.000  0.000     2.399     2.422
 413   1 H      0.061  0.939  0.000  0.000     2.189     2.314
 414   1 H      0.037  0.963  0.000  0.000     2.487     2.466
 415   1 H      0.053  0.947  0.000  0.000     2.288     2.366
 416   1 H      0.185  0.815  0.000  0.000     1.184     1.704
 417   1 H      0.080  0.920  0.000  0.000     1.979     2.200
 418   1 H      0.164  0.836  0.000  0.000     1.309     1.792
 419   1 H      0.091  0.909  0.000  0.000     1.869     2.138
 420   1 H      0.170  0.830  0.000  0.000     1.275     1.769
 421   1 H      0.066  0.934  0.000  0.000     2.125     2.279
 422   1 H      0.196  0.804  0.000  0.000     1.127     1.663
 423   1 H      0.065  0.935  0.000  0.000     2.140     2.288
 424   1 H      0.098  0.902  0.000  0.000     1.801     2.099
 425   1 H      0.171  0.829  0.000  0.000     1.269     1.765
 426   1 H      0.055  0.945  0.000  0.000     2.262     2.352
 427   1 H      0.183  0.817  0.000  0.000     1.194     1.712
 428   1 H      0.061  0.939  0.000  0.000     2.187     2.312

 Mol. C6AA /au·bohr⁶  :    1714246.173640
 Mol. C8AA /au·bohr⁸  :   39867583.324855
 Mol. α(0) /au        :       1978.476463

 
molecular dipole:
                 x           y           z       tot (Debye)
 q only:      160.750     546.762    1236.747
   full:      158.198     548.071    1236.182    3460.541
molecular quadrupole (traceless):
                xx          xy          yy          xz          yz          zz
 q only:  -147011.030   21353.814  -78752.754   49234.371  169131.549  225763.784
  q+dip:  -147164.062   21078.747  -78318.922   48509.291  169472.858  225482.984
   full:  -147164.570   21078.805  -78321.400   48511.076  169468.381  225485.970
speedup  1.12
cpu  time for grad   36.40 s
wall time for grad   32.62 s

SCC energy    :    -647.3591324
rep           :       8.0057714
ES            :       3.1044895
AES           :      -0.1730919
AXC           :       0.2658852
disp          :      -0.5712288
XB            :       0.0000000
fix           :       0.0000000
Gborn         :       0.0000000
Gsasa         :       0.0000000
Ghb           :       0.0000000
Gshift        :       0.0000000
Gsolv         :      -1.7748213    -1113.72
Etot ala COSMO:    -647.3591324
grad norm     :       0.6203540
total E       :    -639.2944519
atomizationE  :     115.8258752    72681.83
(atE without considering molecular charge,
 total energy contains solvation terms)
H-L gap (eV)  :          1.0217

------------------------------------------------------------------------
 * finished run on 2019/05/04 at 17:08:56.391     
------------------------------------------------------------------------
 total:
 * wall-time:     0 d,  0 h,  0 min, 34.055 sec
 *  cpu-time:     0 d,  0 h,  0 min, 37.620 sec
 * ratio c/w:     1.105 speedup
 SCF:
 * wall-time:     0 d,  0 h,  0 min, 33.543 sec
 *  cpu-time:     0 d,  0 h,  0 min, 37.326 sec
 * ratio c/w:     1.113 speedup

