      -----------------------------------------------------------      
     |                   =====================                   |     
     |                           x T B                           |     
     |                   =====================                   |     
     |                         S. Grimme                         |     
     |          Mulliken Center for Theoretical Chemistry        |     
     |                    University of Bonn                     |     
     |                 Version 6.0.1 (SAW181210)                 |     
      -----------------------------------------------------------      

   This program is distributed in the hope that it will be useful,
   but WITHOUT ANY WARRANTY; without even the implied warranty of
   MERCHANTABILITY or FITNESS FOR A PARTICULAR PURPOSE.
   
   FOR NON-COMMERCIAL, ACADEMIA USE ONLY.
   
   Cite this work as:
   S. Grimme, C. Bannwarth, P. Shushkov, J. Comput. Theory Chem., 2017,
   13, 1989-2009.
   C. Bannwarth, S. Ehlert and S. Grimme., ChemRxiv, 2018, preprint.
   http://doi.org/10.26434/chemrxiv.7246238.v1
   
   for sTDA-xTB:
   S. Grimme and C. Bannwarth, J. Chem. Phys., 2016, 145, 054103.
   
   in the mass-spec context:
   V. Asgeirsson, C. Bauer and S. Grimme, Chem. Sci., 2017, 8, 4879.
   
   if GBSA is used:
   P. Shushkov, F. März and S. Grimme, unpublished.
   
   for ANC optimizer:
   S. Grimme, unpublished.
   Rational Function algorithm used in ANCopt:
   F. Eckert, P. Pulay, H.-J. Werner, J. Comput. Chem., 1997, 18, 1473.
   
   with help from (in alphabetical order)
   C. Bannwarth, F. Bohle, G. Brandenburg, E. Caldeweyher, M. Checinski,
   S. Dohm, S. Ehlert, S. Ehrlich, F. März, H. Neugebauer, J. Pisarek,
   P. Pracht, P. Shushkov, and S. Spicher.
   
 * started run on 2019/05/05 at 17:06:57.187     
========================================================================
 # omp threads = 2
========================================================================
number of atoms            : 449
number of electrons        : 1198
charge                     : 2
spin                       : .0
first test random number   : .4941

########################################################################
# WARNING! Please study the warnings concerning your input carefully
#  - Process number higher than OMP_NUM_THREADS, I hope you know what you are doing.
########################################################################

           ------------------------------------------------- 
          |                 G F N 2 - x T B                 |
          | Geometry, Frequencies, Noncovalent interactions |
          |            JCTC 2018 parametrisation            |
           ------------------------------------------------- 
 
      method parameters     
 k(s)        :  1.8500
 k(p)        :  2.2300
 k(d)        :  2.2300
 k(f)        :  2.0000
 kEN (H0ij)  : -2.0000
 D4 a1       :  0.5200
 D4 a2       :  5.0000
 D4 s6       :  1.0000
 D4 s8       :  2.7000
 D4 s9       :  5.0000
 alphaj      :  2.0000

 Solvent             : h2o
 Using internal parameter file: .param_gbsa2_h2o
 Gsolv ref. state (COSMO-RS): gsolv [1 M gas/solution]
 temperature (mdtemp)       :    298.150000000000     
 dielectric constant        :    80.2000000000000     
 rho                        :    1.00000000000000     
 mass                       :    18.0000000000000     
 surface tension            :    15.5689454083859     
 probe radius               :   0.975313790000000     
 vdW radii scaling          :    1.00000000000000     
 Gshift (Eh)                :   1.857443126794793E-003
 c1                         :    1.55243817000000     
 soset                      :   0.130326360000000     
 HB correction              :  T

            Z     q(EN)     CN     RAES       Cart. coordinates
     1  N   5.0   -0.18    3.23    1.96    40.75182    66.65473    26.89326
     2  C   4.0    0.04    4.28    4.17    39.30333    64.46664    27.72618
     3  C   4.0    0.09    3.22    3.04    39.07209    62.55287    25.59028
     4  O   6.0   -0.27    1.14    1.80    39.13598    63.24575    23.36595
     5  C   4.0    0.05    4.22    4.04    36.70400    65.34306    28.73700
     6  O   6.0   -0.26    2.10    1.84    35.67803    63.29937    30.15474
     7  C   4.0   -0.07    4.11    3.82    35.06283    66.19964    26.57689
     8  H   1.0    0.10    1.02    1.43    40.40631    67.37421    25.14770
     9  H   1.0    0.06    1.05    1.44    40.32145    63.61471    29.31155
    10  H   1.0    0.04    1.04    1.43    37.07965    66.95080    30.00723
    11  H   1.0    0.14    1.05    1.44    33.87462    63.59000    30.51175
    12  H   1.0    0.05    1.00    1.43    33.31585    67.01529    27.29999
    13  H   1.0    0.05    1.01    1.43    36.05654    67.61454    25.47241
    14  H   1.0    0.05    1.01    1.43    34.58679    64.60390    25.37391
    15  N   5.0   -0.18    3.25    1.97    34.04007    58.10837    22.02574
    16  C   4.0    0.03    4.32    4.23    31.32654    57.74417    21.58452
    17  C   4.0    0.09    3.30    3.05    31.19489    55.70141    19.60198
    18  O   6.0   -0.26    1.16    1.80    32.54054    55.84563    17.72170
    19  C   4.0   -0.02    4.33    4.25    30.05064    60.07179    20.48626
    20  C   4.0   -0.05    4.13    3.86    30.43585    62.53249    22.06678
    21  C   4.0   -0.07    4.10    3.81    27.18275    59.54935    20.08486
    22  C   4.0   -0.07    4.01    3.64    29.34085    62.21380    24.77300
    23  H   1.0    0.12    1.03    1.43    35.16612    58.29004    20.48557
    24  H   1.0    0.06    1.06    1.44    30.45310    57.15067    23.35155
    25  H   1.0    0.06    1.06    1.44    30.91596    60.42505    18.63443
    26  H   1.0    0.05    1.02    1.43    32.45204    62.94004    22.18353
    27  H   1.0    0.05    1.02    1.43    29.48867    64.08713    21.10892
    28  H   1.0    0.04    1.00    1.43    26.22596    61.29424    19.58887
    29  H   1.0    0.05    1.00    1.43    26.90818    58.17483    18.58338
    30  H   1.0    0.05    1.00    1.43    26.37313    58.77640    21.80405
    31  H   1.0    0.04    1.00    1.43    29.44999    64.00153    25.77630
    32  H   1.0    0.04    1.00    1.43    27.37885    61.64030    24.68931
    33  H   1.0    0.04    1.00    1.43    30.42848    60.82750    25.81828
    34  N   5.0   -0.20    3.19    1.95    21.79247    72.92379    14.84721
    35  C   4.0    0.03    4.20    3.99    24.24155    73.76714    15.77096
    36  C   4.0    0.09    3.19    3.03    25.28149    75.91502    14.09915
    37  O   6.0   -0.25    1.10    1.80    26.38088    77.79513    14.91187
    38  C   4.0   -0.03    4.31    4.22    26.15252    71.55327    15.82719
    39  C   4.0   -0.01    3.54    3.13    25.70278    69.81372    18.01931
    40  C   4.0   -0.04    3.44    3.09    23.90681    67.87932    17.84534
    41  C   4.0   -0.04    3.44    3.09    26.93829    70.28263    20.28179
    42  C   4.0   -0.05    3.35    3.06    23.31037    66.45395    19.97129
    43  C   4.0   -0.05    3.35    3.07    26.36307    68.82152    22.41189
    44  C   4.0   -0.05    3.35    3.07    24.53089    66.93705    22.25924
    45  H   1.0    0.09    1.02    1.43    21.76585    71.36238    13.74144
    46  H   1.0    0.05    1.05    1.44    23.96711    74.54978    17.67064
    47  H   1.0    0.05    1.03    1.43    26.00961    70.56447    14.01999
    48  H   1.0    0.06    1.03    1.43    28.04782    72.36233    15.92949
    49  H   1.0    0.05    1.03    1.43    22.96752    67.53057    16.06979
    50  H   1.0    0.05    1.03    1.43    28.34068    71.75738    20.38835
    51  H   1.0    0.04    1.03    1.43    21.91149    64.98225    19.83794
    52  H   1.0    0.05    1.03    1.43    27.35692    69.17234    24.15234
    53  H   1.0    0.05    1.03    1.43    24.05837    65.84883    23.91458
    54  N   5.0   -0.21    3.21    1.96    35.44938    76.42145    32.14693
    55  C   4.0    0.02    4.36    4.31    34.13475    74.74646    30.32239
    56  C   4.0    0.14    3.46    3.10    33.48716    72.21798    31.54957
    57  O   6.0   -0.32    1.33    1.80    31.70169    70.89040    30.73171
    58  C   4.0   -0.02    4.23    4.06    35.71842    74.46497    27.88663
    59  C   4.0   -0.07    4.10    3.81    38.19500    73.09857    28.45923
    60  C   4.0   -0.07    4.09    3.78    34.02837    73.14512    25.89141
    61  H   1.0    0.09    1.02    1.43    37.05938    77.27208    31.57225
    62  H   1.0    0.04    1.05    1.44    32.32348    75.63330    29.83306
    63  H   1.0    0.05    1.05    1.44    36.15484    76.36798    27.21632
    64  H   1.0    0.05    1.00    1.43    39.25105    72.82011    26.72003
    65  H   1.0    0.05    1.00    1.43    39.34280    74.20794    29.74259
    66  H   1.0    0.04    1.00    1.43    37.84804    71.25435    29.29711
    67  H   1.0    0.05    1.00    1.43    35.15038    72.68662    24.23275
    68  H   1.0    0.05    1.01    1.43    33.23002    71.42422    26.65822
    69  H   1.0    0.05    1.00    1.43    32.50514    74.39986    25.33783
    70  N   5.0   -0.15    3.46    2.05    34.87671    71.34526    33.46113
    71  C   4.0    0.03    4.50    4.54    34.11601    68.92126    34.53276
    72  C   4.0    0.16    3.49    3.11    31.51927    69.21207    35.80907
    73  O   6.0   -0.32    1.28    1.80    29.80785    67.73960    35.22258
    74  C   4.0   -0.03    4.23    4.07    36.10220    67.97897    36.53861
    75  C   4.0   -0.06    4.13    3.85    35.07624    65.73955    38.00714
    76  C   4.0   -0.07    4.10    3.80    38.55034    67.21791    35.16807
    77  H   1.0    0.08    1.05    1.44    36.32279    72.31898    34.26724
    78  H   1.0    0.06    1.05    1.44    33.91110    67.53820    33.01600
    79  H   1.0    0.04    1.05    1.44    36.50713    69.55697    37.80117
    80  H   1.0    0.05    1.00    1.43    36.50169    65.05131    39.31456
    81  H   1.0    0.05    1.01    1.43    33.37712    66.24349    39.04108
    82  H   1.0    0.06    1.00    1.43    34.59603    64.19820    36.73357
    83  H   1.0    0.05    1.00    1.43    39.97648    66.65582    36.53131
    84  H   1.0    0.05    1.00    1.43    38.21310    65.62275    33.92150
    85  H   1.0    0.05    1.00    1.43    39.30147    68.77911    34.06918
    86  N   5.0   -0.15    3.46    2.05    31.31884    70.98853    37.60785
    87  C   4.0    0.03    4.48    4.50    28.90678    71.21485    38.93149
    88  C   4.0    0.16    3.48    3.10    26.77434    72.12215    37.25542
    89  O   6.0   -0.31    1.29    1.80    24.65812    71.13144    37.44597
    90  C   4.0   -0.04    4.27    4.13    29.13351    72.96157    41.23401
    91  C   4.0   -0.05    4.25    4.09    30.88879    71.76462    43.17932
    92  C   4.0   -0.04    4.17    3.94    29.82188    69.41663    44.52055
    93  C   4.0   -0.03    4.12    3.84    31.81828    67.37269    44.82760
    94  N   5.0   -0.11    4.06    3.04    34.24946    68.58787    45.52009
    95  H   1.0    0.07    1.05    1.44    32.77947    72.15100    38.06936
    96  H   1.0    0.06    1.06    1.44    28.36412    69.31089    39.54940
    97  H   1.0    0.05    1.03    1.43    29.86614    74.78213    40.62372
    98  H   1.0    0.06    1.03    1.43    27.25350    73.25768    42.02245
    99  H   1.0    0.04    1.05    1.44    32.58417    71.28778    42.12555
   100  H   1.0    0.05    1.03    1.43    31.36106    73.20404    44.56404
   101  H   1.0    0.06    1.03    1.43    29.12308    69.98178    46.37243
   102  H   1.0    0.05    1.03    1.43    28.21106    68.65702    43.49345
   103  H   1.0    0.06    1.02    1.43    31.26755    66.03427    46.28900
   104  H   1.0    0.05    1.02    1.43    32.08878    66.30180    43.08918
   105  H   1.0    0.07    1.01    1.43    35.65484    67.34643    46.11733
   106  H   1.0    0.06    1.03    1.43    35.02975    69.47958    43.98398
   107  H   1.0    0.07    1.01    1.43    33.96976    70.01585    46.86363
   108  N   5.0   -0.14    3.52    2.09    27.33855    73.97580    35.70890
   109  C   4.0    0.04    4.49    4.52    25.39902    74.97311    34.04065
   110  C   4.0    0.15    3.47    3.10    24.68195    72.99075    32.05966
   111  O   6.0   -0.32    1.30    1.80    22.47634    72.77947    31.31152
   112  C   4.0    0.05    4.21    4.01    26.23366    77.50193    32.88441
   113  O   6.0   -0.24    2.10    1.84    26.35736    79.30361    34.88886
   114  C   4.0   -0.06    4.09    3.78    24.37343    78.43017    30.89779
   115  H   1.0    0.08    1.07    1.44    29.05545    74.81664    35.71350
   116  H   1.0    0.07    1.06    1.44    23.69253    75.31272    35.17611
   117  H   1.0    0.04    1.03    1.43    28.12786    77.25876    32.06274
   118  H   1.0    0.12    1.00    1.43    27.65991    78.91628    36.13828
   119  H   1.0    0.06    1.00    1.43    24.91699    80.31709    30.30999
   120  H   1.0    0.05    1.00    1.43    24.38325    77.15708    29.29300
   121  H   1.0    0.06    1.00    1.43    22.48490    78.49145    31.69737
   122  N   5.0   -0.13    3.42    2.03    26.53645    71.45088    31.30419
   123  C   4.0    0.02    4.27    4.14    25.88110    69.44960    29.53077
   124  C   4.0    0.16    3.37    3.07    24.03624    67.55421    30.71508
   125  O   6.0   -0.32    1.29    1.80    22.28211    66.61020    29.47039
   126  H   1.0    0.11    1.09    1.44    28.41243    71.70489    31.60766
   127  H   1.0    0.05    1.02    1.43    24.98581    70.22310    27.83659
   128  H   1.0    0.05    1.03    1.43    27.62055    68.46947    29.01999
   129  N   5.0   -0.14    3.50    2.08    24.41330    67.00481    33.14888
   130  C   4.0    0.04    4.45    4.46    22.63398    65.25836    34.35944
   131  C   4.0    0.16    3.45    3.10    20.01152    66.43577    34.50305
   132  O   6.0   -0.31    1.29    1.80    18.08023    65.13541    34.35996
   133  C   4.0   -0.04    4.25    4.10    23.60293    64.70026    37.07995
   134  C   4.0   -0.04    4.22    4.03    25.94623    63.03647    36.89045
   135  C   4.0   -0.00    4.21    4.03    25.50275    60.22452    36.63501
   136  N   5.0   -0.13    3.40    2.02    24.71050    59.15631    39.04830
   137  C   4.0    0.10    3.35    3.06    24.63893    56.69691    39.54390
   138  N   5.0   -0.17    3.27    1.97    25.71053    55.00908    38.03497
   139  N   5.0   -0.17    3.24    1.97    23.38557    55.89564    41.58835
   140  H   1.0    0.11    1.07    1.44    25.96215    67.59835    34.10348
   141  H   1.0    0.05    1.05    1.44    22.50155    63.52691    33.23934
   142  H   1.0    0.06    1.03    1.43    24.03222    66.49505    37.98282
   143  H   1.0    0.06    1.03    1.43    22.10209    63.77000    38.13459
   144  H   1.0    0.06    1.04    1.43    27.08069    63.64817    35.29033
   145  H   1.0    0.06    1.03    1.43    27.11091    63.32566    38.56822
   146  H   1.0    0.05    1.02    1.43    24.05808    59.82554    35.20932
   147  H   1.0    0.07    1.04    1.43    27.27360    59.34916    36.05392
   148  H   1.0    0.08    1.07    1.44    23.65367    60.31919    40.13599
   149  H   1.0    0.12    1.06    1.44    26.68473    55.45756    36.44803
   150  H   1.0    0.10    1.03    1.43    25.69603    53.17330    38.53525
   151  H   1.0    0.10    1.03    1.43    22.73521    57.14996    42.86175
   152  H   1.0    0.10    1.03    1.43    23.48258    54.07279    42.12616
   153  N   5.0   -0.13    3.48    2.06    19.96321    68.90099    35.04635
   154  C   4.0    0.04    4.48    4.50    17.55614    70.27227    34.99393
   155  C   4.0    0.15    3.44    3.09    16.22653    70.22918    32.41270
   156  O   6.0   -0.32    1.28    1.80    13.94198    69.91207    32.35879
   157  C   4.0    0.05    4.24    4.08    17.93146    72.99592    35.87818
   158  O   6.0   -0.23    2.14    1.85    18.91411    72.91689    38.35929
   159  C   4.0   -0.06    4.08    3.77    15.55126    74.59584    35.65669
   160  H   1.0    0.11    1.08    1.44    21.55535    69.89708    35.42472
   161  H   1.0    0.07    1.06    1.44    16.25845    69.31493    36.30671
   162  H   1.0    0.06    1.05    1.44    19.42289    73.84061    34.70820
   163  H   1.0    0.14    1.08    1.44    17.60474    72.38809    39.54966
   164  H   1.0    0.06    1.00    1.43    15.88465    76.44821    36.47303
   165  H   1.0    0.05    1.01    1.43    15.03306    74.83073    33.68905
   166  H   1.0    0.06    1.00    1.43    13.98790    73.72085    36.66026
   167  N   5.0   -0.14    3.45    2.05    17.70613    70.56021    30.37972
   168  C   4.0    0.03    4.45    4.47    16.59958    70.35312    27.78905
   169  C   4.0    0.15    3.47    3.10    15.60208    67.67483    27.31090
   170  O   6.0   -0.32    1.29    1.80    13.58959    67.28163    26.16264
   171  C   4.0   -0.02    4.34    4.27    18.56461    71.17741    25.85924
   172  C   4.0   -0.04    4.17    3.94    18.92661    74.09011    25.96654
   173  C   4.0   -0.07    4.13    3.87    17.97049    70.33511    23.16736
   174  C   4.0   -0.07    4.03    3.67    21.27933    74.80614    24.44766
   175  H   1.0    0.11    1.10    1.44    19.56479    70.97388    30.59000
   176  H   1.0    0.05    1.05    1.44    14.94125    71.59322    27.69600
   177  H   1.0    0.05    1.06    1.44    20.34950    70.29096    26.42110
   178  H   1.0    0.04    1.02    1.43    17.25820    75.00462    25.18127
   179  H   1.0    0.05    1.03    1.43    19.17748    74.65591    27.92938
   180  H   1.0    0.04    1.00    1.43    19.59749    70.62814    21.95488
   181  H   1.0    0.05    1.01    1.43    17.49120    68.34347    23.10850
   182  H   1.0    0.05    1.00    1.43    16.38494    71.40161    22.41011
   183  H   1.0    0.05    1.00    1.43    21.74179    76.78326    24.75830
   184  H   1.0    0.04    1.00    1.43    22.88149    73.65686    25.01850
   185  H   1.0    0.04    1.00    1.43    20.97354    74.55172    22.43534
   186  N   5.0   -0.14    3.47    2.06    17.00538    65.76997    28.16893
   187  C   4.0    0.04    4.44    4.45    16.04513    63.19561    27.82677
   188  C   4.0    0.16    3.42    3.09    13.60387    62.68740    29.32795
   189  O   6.0   -0.32    1.28    1.80    12.02252    61.21480    28.47283
   190  C   4.0   -0.04    4.34    4.27    17.94310    61.16947    28.60574
   191  C   4.0   -0.02    4.16    3.93    20.52552    61.28356    27.21512
   192  C   4.0   -0.07    4.08    3.77    22.22419    59.08526    28.05722
   193  C   4.0   -0.08    4.13    3.86    20.14408    61.32992    24.38106
   194  H   1.0    0.11    1.09    1.44    18.74962    66.04137    28.91900
   195  H   1.0    0.05    1.06    1.44    15.53646    62.96874    25.83332
   196  H   1.0    0.06    1.03    1.43    18.25991    61.32615    30.63759
   197  H   1.0    0.05    1.03    1.43    17.05780    59.34674    28.21991
   198  H   1.0    0.06    1.07    1.44    21.47555    63.03194    27.76211
   199  H   1.0    0.04    1.00    1.43    24.00501    59.16975    27.04405
   200  H   1.0    0.05    1.00    1.43    22.57496    59.18116    30.07525
   201  H   1.0    0.05    1.00    1.43    21.33760    57.27539    27.64268
   202  H   1.0    0.04    1.00    1.43    21.87338    60.79925    23.40097
   203  H   1.0    0.04    1.04    1.43    18.65270    60.05052    23.79456
   204  H   1.0    0.04    1.01    1.43    19.66207    63.22933    23.78407
   205  N   5.0   -0.12    3.40    2.02    13.39802    63.84692    31.52555
   206  C   4.0    0.02    4.25    4.10    11.33717    63.47315    33.30346
   207  C   4.0    0.16    3.37    3.07    11.87358    61.32448    35.08799
   208  O   6.0   -0.30    1.36    1.80    13.74991    59.91550    34.91022
   209  H   1.0    0.12    1.09    1.44    14.93418    64.75077    32.24009
   210  H   1.0    0.06    1.03    1.43    11.07437    65.21981    34.36200
   211  H   1.0    0.06    1.03    1.43     9.61357    63.05948    32.23881
   212  N   5.0   -0.14    3.43    2.03    10.05464    60.89122    36.78096
   213  C   4.0    0.04    4.35    4.28    10.53545    58.95711    38.71942
   214  C   4.0    0.17    3.50    3.12    11.12368    56.40975    37.47232
   215  O   6.0   -0.29    1.29    1.80    10.17857    55.67060    35.51770
   216  C   4.0   -0.07    4.11    3.82     8.23123    58.52219    40.40833
   217  H   1.0    0.09    1.07    1.44     8.64667    62.16307    37.04358
   218  H   1.0    0.06    1.05    1.44    12.16378    59.54957    39.85116
   219  H   1.0    0.05    1.00    1.43     8.70431    57.15891    41.86819
   220  H   1.0    0.05    1.00    1.43     7.65131    60.27693    41.30322
   221  H   1.0    0.05    1.00    1.43     6.66452    57.77578    39.30675
   222  N   5.0   -0.14    3.46    2.05    12.68647    54.90813    38.78263
   223  C   4.0    0.04    4.41    4.39    13.37824    52.46890    37.69564
   224  C   4.0    0.09    3.27    3.05    11.11281    50.76653    37.20697
   225  O   6.0   -0.26    1.12    1.80    11.02161    49.39961    35.32681
   226  C   4.0    0.06    4.25    4.09    15.25283    51.13622    39.48088
   227  O   6.0   -0.25    2.16    1.85    17.45246    52.66385    39.61013
   228  C   4.0   -0.04    4.11    3.82    16.01450    48.58094    38.46009
   229  H   1.0    0.10    1.10    1.44    13.36743    55.39713    40.50879
   230  H   1.0    0.07    1.06    1.44    14.28511    52.79096    35.86022
   231  H   1.0    0.05    1.04    1.43    14.38709    50.94626    41.34961
   232  H   1.0    0.13    1.03    1.43    17.11811    54.10570    40.68071
   233  H   1.0    0.06    1.00    1.43    17.36573    47.71830    39.74297
   234  H   1.0    0.07    1.01    1.43    14.39473    47.33787    38.29162
   235  H   1.0    0.06    1.00    1.43    16.89933    48.79563    36.62300
   236  N   5.0   -0.17    3.20    1.96     1.43730    59.14282    38.12059
   237  C   4.0    0.04    4.18    3.96     2.49950    61.16022    36.58483
   238  C   4.0    0.11    3.20    3.04     0.47302    63.08183    35.79956
   239  O   6.0   -0.23    1.12    1.80    -1.80545    62.65987    35.87513
   240  C   4.0    0.03    4.12    3.85     3.85254    60.06429    34.25380
   241  O   6.0   -0.22    2.06    1.83     2.01952    59.28052    32.48999
   242  H   1.0    0.11    1.02    1.43     0.52165    57.73915    37.19363
   243  H   1.0    0.05    1.05    1.44     3.85669    62.15742    37.78765
   244  H   1.0    0.06    1.01    1.43     4.94637    61.54485    33.32744
   245  H   1.0    0.05    1.01    1.43     5.10005    58.51382    34.83050
   246  H   1.0    0.14    1.01    1.43     0.99358    57.90109    33.17492
   247  N   5.0   -0.17    3.21    1.96     4.78773    69.64814    25.93535
   248  C   4.0    0.03    4.32    4.23     7.27872    68.30426    26.07785
   249  C   4.0    0.17    3.42    3.08     7.20270    66.11515    24.12801
   250  O   6.0   -0.24    1.26    1.80     5.21591    65.43615    23.12432
   251  C   4.0    0.05    4.22    4.04     7.77431    67.31144    28.72518
   252  O   6.0   -0.24    2.10    1.84     6.02240    65.28581    29.24640
   253  C   4.0   -0.07    4.07    3.74     7.79638    69.33927    30.74282
   254  H   1.0    0.10    1.02    1.43     3.31260    68.85341    26.85295
   255  H   1.0    0.05    1.05    1.44     8.72054    69.67051    25.53217
   256  H   1.0    0.07    1.05    1.44     9.62768    66.38508    28.67552
   257  H   1.0    0.13    1.02    1.43     4.43300    66.05821    29.77168
   258  H   1.0    0.06    1.00    1.43     7.76159    68.44315    32.58826
   259  H   1.0    0.05    1.00    1.43     9.50783    70.45435    30.58497
   260  H   1.0    0.05    1.00    1.43     6.15751    70.57121    30.58290
   261  N   5.0   -0.14    3.45    2.05     9.41586    65.02426    23.55899
   262  C   4.0    0.04    4.51    4.55     9.45860    62.90371    21.77067
   263  C   4.0    0.16    3.50    3.12     7.76887    60.77757    22.72810
   264  O   6.0   -0.25    1.25    1.80     6.21319    59.75262    21.32670
   265  C   4.0   -0.03    4.30    4.19    12.20795    61.99283    21.27224
   266  C   4.0   -0.04    4.20    3.99    13.50119    64.10262    19.78609
   267  C   4.0   -0.06    4.12    3.84    12.13663    59.51245    19.74462
   268  C   4.0   -0.08    3.99    3.61    16.40729    63.85387    19.65996
   269  H   1.0    0.11    1.09    1.44    11.04846    65.63435    24.37343
   270  H   1.0    0.07    1.06    1.44     8.61918    63.54415    19.98593
   271  H   1.0    0.05    1.05    1.44    13.13072    61.66293    23.08433
   272  H   1.0    0.05    1.03    1.43    12.72986    64.09615    17.87256
   273  H   1.0    0.05    1.03    1.43    13.05155    65.92964    20.62610
   274  H   1.0    0.04    1.00    1.43    14.04683    58.86752    19.37105
   275  H   1.0    0.06    1.00    1.43    11.15120    58.03925    20.77786
   276  H   1.0    0.06    1.00    1.43    11.18075    59.80833    17.95354
   277  H   1.0    0.04    1.00    1.43    17.13802    65.09239    18.19480
   278  H   1.0    0.04    1.01    1.43    17.20403    64.44651    21.44622
   279  H   1.0    0.04    1.00    1.43    16.96599    61.92248    19.26853
   280  N   5.0   -0.14    3.45    2.05     8.12828    59.96482    25.09194
   281  C   4.0    0.05    4.37    4.33     6.58534    57.79938    25.90050
   282  C   4.0    0.11    3.22    3.04     3.81603    58.49257    26.28988
   283  O   6.0   -0.23    1.12    1.80     2.15766    56.89522    25.91070
   284  C   4.0   -0.04    4.27    4.14     7.66621    56.65725    28.33343
   285  C   4.0   -0.04    4.22    4.03    10.13472    55.30424    27.69965
   286  C   4.0    0.01    4.26    4.12    11.61418    54.72013    30.09575
   287  N   5.0   -0.13    3.41    2.03    14.05800    53.61775    29.40990
   288  C   4.0    0.10    3.35    3.06    16.10777    54.07695    30.75471
   289  N   5.0   -0.18    3.31    1.99    16.01755    55.77984    32.61221
   290  N   5.0   -0.17    3.25    1.97    18.15974    52.66356    30.39942
   291  H   1.0    0.11    1.10    1.44     9.50598    60.62469    26.26983
   292  H   1.0    0.07    1.06    1.44     6.61252    56.38995    24.38113
   293  H   1.0    0.06    1.03    1.43     8.00259    58.17687    29.67960
   294  H   1.0    0.06    1.03    1.43     6.27852    55.36545    29.13034
   295  H   1.0    0.05    1.02    1.43     9.74822    53.58576    26.62965
   296  H   1.0    0.05    1.04    1.43    11.29087    56.54066    26.52596
   297  H   1.0    0.07    1.05    1.44    11.83858    56.49802    31.09374
   298  H   1.0    0.07    1.02    1.43    10.57631    53.42538    31.32740
   299  H   1.0    0.09    1.06    1.44    14.06094    52.41795    27.91785
   300  H   1.0    0.12    1.07    1.44    14.60631    57.01171    32.91403
   301  H   1.0    0.11    1.07    1.44    17.63428    55.99296    33.66718
   302  H   1.0    0.12    1.07    1.44    18.27022    51.45028    28.91908
   303  H   1.0    0.10    1.04    1.43    19.79559    53.08027    31.30480
   304  N   5.0   -0.17    3.27    1.97    17.31216    49.91920    21.81793
   305  C   4.0    0.03    4.37    4.33    19.79332    51.25104    21.82203
   306  C   4.0    0.15    3.43    3.09    21.07984    50.87580    24.38710
   307  O   6.0   -0.29    1.31    1.80    19.92929    50.07751    26.25322
   308  C   4.0   -0.04    4.07    3.75    19.32136    54.07110    21.18008
   309  S   6.0   -0.06    2.48    3.10    17.14946    55.35272    23.51552
   310  H   1.0    0.10    1.04    1.43    16.16817    50.23544    23.33777
   311  H   1.0    0.05    1.05    1.44    20.97687    50.44163    20.33826
   312  H   1.0    0.04    1.05    1.44    21.06924    55.15238    21.15181
   313  H   1.0    0.05    1.07    1.44    18.38548    54.20989    19.35377
   314  H   1.0    0.05    0.98    1.43    18.85865    55.51756    25.36952
   315  N   5.0   -0.14    3.48    2.06    23.56843    51.21820    24.38816
   316  C   4.0    0.04    4.40    4.37    25.08705    51.21141    26.65074
   317  C   4.0    0.14    3.49    3.11    26.39975    53.77719    26.85981
   318  O   6.0   -0.32    1.26    1.80    27.19979    54.82187    24.91879
   319  C   4.0   -0.02    4.30    4.20    27.23557    49.21221    26.33191
   320  C   4.0    0.06    3.80    3.34    29.21536    49.47685    28.30161
   321  N   5.0   -0.15    2.52    1.90    29.06894    48.38857    30.63927
   322  C   4.0    0.00    3.63    3.19    31.39004    50.83638    28.13649
   323  C   4.0    0.09    3.63    3.19    31.11862    49.10075    31.85108
   324  N   5.0   -0.11    3.45    2.05    32.58117    50.60903    30.39012
   325  H   1.0    0.09    1.07    1.44    24.44824    51.82035    22.79575
   326  H   1.0    0.07    1.05    1.44    23.91001    50.81841    28.29654
   327  H   1.0    0.07    1.03    1.43    26.41020    47.33100    26.41256
   328  H   1.0    0.06    1.04    1.43    28.10394    49.52156    24.49167
   329  H   1.0    0.06    1.02    1.43    32.15307    51.95703    26.63189
   330  H   1.0    0.06    1.02    1.43    31.61145    48.56943    33.74061
   331  H   1.0    0.08    1.04    1.43    34.29821    51.34336    30.85547
   332  N   5.0   -0.14    3.39    2.02    26.75594    54.76300    29.16949
   333  C   4.0    0.01    4.27    4.14    28.45471    56.88199    29.46267
   334  C   4.0    0.15    3.38    3.07    29.97686    56.39392    31.85450
   335  O   6.0   -0.30    1.32    1.80    28.97822    55.39815    33.70880
   336  H   1.0    0.11    1.09    1.44    25.99443    53.93497    30.73694
   337  H   1.0    0.05    1.04    1.43    29.69815    56.99879    27.82618
   338  H   1.0    0.04    1.02    1.43    27.43669    58.66810    29.68983
   339  N   5.0   -0.13    3.47    2.06    32.37745    57.12519    31.86160
   340  C   4.0    0.04    4.41    4.40    33.97237    56.81848    34.07675
   341  C   4.0    0.16    3.50    3.11    32.69757    58.07004    36.31015
   342  O   6.0   -0.32    1.31    1.80    31.50306    60.03221    36.06767
   343  C   4.0    0.04    4.16    3.91    36.52679    58.15266    33.61404
   344  O   6.0   -0.24    2.05    1.83    37.60839    57.24592    31.35606
   345  H   1.0    0.09    1.07    1.44    33.23671    57.68503    30.24125
   346  H   1.0    0.05    1.05    1.44    34.29907    54.80809    34.46694
   347  H   1.0    0.06    1.02    1.43    36.22628    60.17565    33.32824
   348  H   1.0    0.05    1.00    1.43    37.76444    57.82762    35.25004
   349  H   1.0    0.12    1.02    1.43    37.61173    55.39356    31.38281
   350  N   5.0   -0.14    3.42    2.03    33.09114    56.92283    38.52477
   351  C   4.0    0.05    4.32    4.24    31.87422    57.93470    40.77543
   352  C   4.0    0.10    3.23    3.04    33.59820    59.58751    42.37705
   353  O   6.0   -0.28    1.13    1.80    32.68671    60.82547    44.11300
   354  C   4.0   -0.02    4.25    4.10    30.84771    55.80197    42.50764
   355  C   4.0    0.26    3.10    3.02    32.85065    53.90943    43.51296
   356  O   6.0   -0.25    1.18    1.80    35.15162    54.38500    43.20819
   357  O   6.0   -0.24    1.17    1.80    32.00591    52.00599    44.62229
   358  H   1.0    0.10    1.06    1.44    33.91681    55.19797    38.62127
   359  H   1.0    0.06    1.07    1.44    30.31393    59.13792    40.14257
   360  H   1.0    0.07    1.03    1.43    29.97512    56.68053    44.15262
   361  H   1.0    0.06    1.03    1.43    29.45232    54.68529    41.48978
   362  O   6.0   -0.32    2.08    1.84    16.15707    71.57298    42.35011
   363  H   1.0    0.14    0.97    1.43    17.53979    71.14864    43.45887
   364  H   1.0    0.14    0.97    1.43    15.45868    73.13677    42.96587
   365  O   6.0   -0.27    1.92    1.82    21.36786    76.68864    40.86293
   366  H   1.0    0.13    0.96    1.43    21.33003    77.67906    39.31171
   367  H   1.0    0.15    0.97    1.43    19.73767    76.93831    41.62833
   368  O   6.0   -0.31    1.99    1.82    18.71171    60.46509    36.83732
   369  H   1.0    0.16    1.01    1.43    18.74973    62.04234    35.91050
   370  H   1.0    0.16    1.00    1.43    16.97759    59.93039    36.62095
   371  O   6.0   -0.32    1.98    1.82    30.80458    63.46234    32.01532
   372  H   1.0    0.15    1.00    1.43    31.04511    62.12108    33.24582
   373  H   1.0    0.15    1.00    1.43    30.43881    64.95551    33.02231
   374  O   6.0   -0.29    1.92    1.82    22.26883    69.30814    41.93132
   375  H   1.0    0.16    1.00    1.43    22.78526    70.38351    40.54827
   376  H   1.0    0.14    0.97    1.43    20.61273    68.72922    41.47287
   377  O   6.0   -0.33    2.02    1.83    10.54721    69.62607    36.43971
   378  H   1.0    0.15    1.01    1.43    11.69924    69.66049    35.00406
   379  H   1.0    0.15    1.01    1.43     9.55563    71.16798    36.30855
   380  O   6.0   -0.32    2.01    1.83    20.26332    55.62732    35.88617
   381  H   1.0    0.15    1.02    1.43    19.98338    57.34851    36.45636
   382  H   1.0    0.15    0.99    1.43    19.44242    54.51744    37.09365
   383  O   6.0   -0.31    1.98    1.82    14.82606    56.51425    43.47614
   384  H   1.0    0.14    0.97    1.43    15.78327    56.07283    44.96262
   385  H   1.0    0.13    0.97    1.43    13.52306    57.64701    44.03411
   386  O   6.0   -0.31    1.98    1.82    23.51969    52.29133    32.75097
   387  H   1.0    0.14    0.97    1.43    24.31183    50.88982    33.59027
   388  H   1.0    0.14    0.99    1.43    22.78977    53.36876    34.04494
   389  O   6.0   -0.31    1.93    1.82     6.81311    65.83467    37.19588
   390  H   1.0    0.15    1.00    1.43     8.12561    67.11113    37.03488
   391  H   1.0    0.13    0.97    1.43     6.17969    65.98880    38.91063
   392  O   6.0   -0.28    1.93    1.82    13.12841    67.91534    40.62730
   393  H   1.0    0.16    1.04    1.43    14.14837    69.25918    41.32919
   394  H   1.0    0.15    1.02    1.43    12.14538    68.64266    39.25653
   395  O   6.0   -0.29    1.92    1.82    17.95302    81.14466    33.53006
   396  H   1.0    0.16    1.01    1.43    16.46028    81.71909    34.40899
   397  H   1.0    0.13    0.96    1.43    19.15078    80.61029    34.82702
   398  O   6.0   -0.28    1.92    1.82    15.64819    78.59716    42.48939
   399  H   1.0    0.14    0.97    1.43    16.00459    80.36405    42.30343
   400  H   1.0    0.14    0.97    1.43    14.20643    78.26343    41.42275
   401  O   6.0   -0.29    1.92    1.82    10.06363    77.07064    39.50400
   402  H   1.0    0.14    0.97    1.43     9.13730    76.74735    41.02874
   403  H   1.0    0.15    1.00    1.43     9.30972    76.00301    38.22491
   404  O   6.0   -0.32    2.00    1.83     7.19240    73.71615    36.20864
   405  H   1.0    0.14    0.97    1.43     6.01533    73.11612    37.45590
   406  H   1.0    0.13    0.97    1.43     6.19969    73.91248    34.67951
   407  N   5.0   -0.18    3.20    1.96    14.91689    87.46911    38.12059
   408  C   4.0    0.04    4.18    3.96    12.63867    87.38029    36.58483
   409  C   4.0    0.10    3.20    3.04    11.98775    84.66451    35.79956
   410  O   6.0   -0.29    1.17    1.80    13.49241    82.90228    35.87513
   411  C   4.0    0.04    4.12    3.85    12.91125    89.10002    34.25380
   412  O   6.0   -0.22    2.06    1.83    14.50653    87.90447    32.48999
   413  H   1.0    0.10    1.02    1.43    16.59033    87.37796    37.19363
   414  H   1.0    0.05    1.05    1.44    11.09647    88.05705    37.78765
   415  H   1.0    0.06    1.01    1.43    11.08214    89.30703    33.32744
   416  H   1.0    0.06    1.01    1.43    13.63024    90.95564    34.83050
   417  H   1.0    0.13    1.01    1.43    16.21411    87.70569    33.17492
   418  N   5.0   -0.12    3.45    2.05     9.30347    79.52345    30.60205
   419  C   4.0    0.03    4.40    4.38     8.85220    78.92930    27.94758
   420  C   4.0    0.09    3.20    3.04     6.07825    79.36668    27.30910
   421  O   6.0   -0.25    1.14    1.80     4.45130    78.79725    28.89643
   422  C   4.0   -0.04    4.33    4.26     9.48393    76.11844    27.72957
   423  C   4.0   -0.05    4.28    4.15    11.66716    75.93240    29.65603
   424  C   4.0   -0.00    4.28    4.17    10.68131    77.48433    31.89874
   425  H   1.0    0.04    1.04    1.43    10.07039    80.07054    26.72251
   426  H   1.0    0.05    1.03    1.43     7.88775    74.96668    28.32682
   427  H   1.0    0.04    1.02    1.43    10.03552    75.61294    25.82131
   428  H   1.0    0.05    1.02    1.43    12.07771    73.99312    30.20245
   429  H   1.0    0.04    1.02    1.43    13.34920    76.80822    28.86129
   430  H   1.0    0.06    1.02    1.43     9.40258    76.36490    33.06388
   431  H   1.0    0.05    1.02    1.43    12.19318    78.27054    33.05001
   432  H   1.0    0.09    1.08    1.44    40.48110    67.95340    27.95756
   433  H   1.0    0.07    1.04    1.43    38.86637    60.71638    25.98528
   434  H   1.0    0.10    1.07    1.44    34.28253    59.52718    22.93170
   435  H   1.0    0.06    1.04    1.44    30.01565    54.24187    19.82603
   436  H   1.0    0.09    1.07    1.44    20.78167    72.56282    16.16651
   437  H   1.0    0.07    1.05    1.44    25.08051    75.83295    12.22193
   438  H   1.0    0.10    1.07    1.44    34.41273    77.69107    32.60081
   439  H   1.0    0.07    1.05    1.44     9.66650    50.74609    38.42305
   440  H   1.0    0.09    1.07    1.44     2.68090    58.37970    38.99447
   441  H   1.0    0.07    1.05    1.44     0.98279    64.79364    35.18238
   442  H   1.0    0.10    1.06    1.44     4.94534    71.20753    26.59567
   443  H   1.0    0.08    1.04    1.43     3.34809    60.23554    26.85039
   444  H   1.0    0.10    1.07    1.44    16.41548    50.39350    20.45280
   445  H   1.0    0.07    1.04    1.44    35.45056    59.65562    42.00934
   446  H   1.0    0.10    1.07    1.44    14.95597    88.92766    38.99447
   447  H   1.0    0.06    1.05    1.44    10.25039    84.25007    35.18238
   448  H   1.0    0.09    1.15    1.45    10.45593    80.76892    30.71708
   449  H   1.0    0.07    1.04    1.43     5.59831    80.10059    25.63516

  Z AO/shell   Hii/eV     exponent
  1     Wed Apr 25 08:07:45 CEST 2018   EN: 2.200 GM2: 0.406  GM3: 0.0800  RAES: 1.40
     1s    -10.707211    1.230000
  6     Wed Apr 25 08:07:45 CEST 2018   EN: 2.550 GM2: 0.538  GM3: 0.1500  RAES: 3.00
     2s    -13.970922    2.096432
     2p    -10.063292    1.800000
  7     Wed Apr 25 08:07:45 CEST 2018   EN: 3.040 GM2: 0.461  GM3:-0.0640  RAES: 1.90
     2s    -16.686243    2.339881
     2p    -12.523956    2.014332
  8     Wed Apr 25 08:07:45 CEST 2018   EN: 3.440 GM2: 0.452  GM3:-0.0517  RAES: 1.80
     2s    -20.229985    2.439742
     2p    -15.503117    2.137023
 16     Tue Apr 24 11:44:34 CEST 2018   EN: 2.580 GM2: 0.340  GM3:-0.0502  RAES: 3.10
     3s    -20.029654    1.981333
     3p    -11.377694    2.025643
     3d     -0.420282    1.702555
 no old-style atom pair restraining (fixing) potential

molecular fragmentation (1/2 indicates fragments):
111111111111112222222222222222222222222222222222222222222222222222222222
222222222222222222222222222222222222222222222222222222222222222222222222
222222222222222222222222222222222222222222222222222222222222222222222222
222222222222222222222222222222222222222222222222222222222222222222222222
222222222222222222222222222222222222222222222222222222222222222222222222
222222222222222222222222222222222222222222222222222222222222222222222221
12222222222222222
# atoms in fragment 1/2:    16   433
 fragment masses (1/2) :      103.12     2887.37
CMA distance (Bohr)    :  18.156
constraining FC (au)   :  0.0500
           ------------------------------------------------- 
          |        Self-Consistent Charge Iterations        |
           ------------------------------------------------- 

 Ncao       : 1067
 Nao        : 1066
 Nshell     : 654
 Nel        : 1198
 T(el)      :   500.0
 intcut     :    35.0
 scfconv/Eh :  0.100E-06
   qconv/e  :  0.100E-04
 intneglect :  0.100E-08
 broydamp   :      0.400
 iter      E             dE          RMSdq      gap      omega  full diag
   1   -693.9246475 -0.693925E+03  0.477E+00    2.91       0.0  T
   2   -695.5134197 -0.158877E+01  0.226E+00    1.82       1.0  T
   3   -695.6244866 -0.111067E+00  0.121E+00    2.17       1.0  T
   4   -695.7530646 -0.128578E+00  0.293E-01    1.73       1.0  T
   5   -695.7586472 -0.558255E-02  0.130E-01    1.87       1.0  T
   6   -695.7603190 -0.167183E-02  0.559E-02    1.82       1.0  T
   7   -695.7605922 -0.273262E-03  0.329E-02    1.82       1.0  T
   8   -695.7606712 -0.789837E-04  0.155E-02    1.82       1.0  T
   9   -695.7607012 -0.300207E-04  0.754E-03    1.82       1.0  T
  10   -695.7607060 -0.471480E-05  0.344E-03    1.82       1.4  T
  11   -695.7607069 -0.887537E-06  0.150E-03    1.82       3.1  T
  12   -695.7607070 -0.174811E-06  0.625E-04    1.81       7.5  T
  13   -695.7607071 -0.425027E-07  0.316E-04    1.81      14.9  T
  14   -695.7607071 -0.784394E-08  0.142E-04    1.81      33.3  T
  15   -695.7607071 -0.280102E-08  0.623E-05    1.81      75.7  T
  16   -695.7607071 -0.335490E-09  0.301E-05    1.81     156.5  T
speedup  1.94
cpu  time for SCC   24.78 s
wall time for SCC   12.79 s

   *** convergence criteria satisfied after 16 iterations ***

          eigenvalues
 #    :         587        588        589        590        591        592        593        594
 occ. :        2.000      2.000      2.000      2.000      2.000      2.000      2.000      2.000
 eps  :       -10.372    -10.354    -10.298    -10.166    -10.106    -10.090    -10.075    -10.060
 #    :         595        596        597        598        599        600        601        602
 occ. :        2.000      2.000      2.000      2.000      2.000      0.000      0.000      0.000
 eps  :        -9.975     -9.916     -9.907     -9.768     -9.760     -7.945     -7.897     -7.847
 #    :         603        604        605        606        607        608        609        610
 occ. :        0.000      0.000      0.000      0.000      0.000      0.000      0.000      0.000
 eps  :        -7.729     -7.602     -7.574     -7.548     -7.522     -7.516     -6.784     -6.646


   #   Z            q   n(s)   n(p)   n(d)      C6AA      α(0)
   1   7 N     -0.388  1.320  4.067  0.000    30.027     8.138
   2   6 C      0.029  1.062  2.909  0.000    20.105     6.387
   3   6 C      0.204  1.084  2.712  0.000    23.671     7.968
   4   8 O     -0.389  1.765  4.624  0.000    21.469     6.212
   5   6 C      0.120  1.050  2.830  0.000    18.722     6.178
   6   8 O     -0.498  1.728  4.770  0.000    22.851     6.453
   7   6 C     -0.121  1.037  3.083  0.000    22.867     6.818
   8   1 H      0.157  0.843  0.000  0.000     1.357     1.825
   9   1 H      0.078  0.922  0.000  0.000     1.999     2.211
  10   1 H      0.030  0.970  0.000  0.000     2.593     2.518
  11   1 H      0.341  0.659  0.000  0.000     0.611     1.228
  12   1 H      0.059  0.941  0.000  0.000     2.217     2.328
  13   1 H      0.045  0.955  0.000  0.000     2.382     2.413
  14   1 H      0.041  0.959  0.000  0.000     2.439     2.442
  15   7 N     -0.384  1.317  4.067  0.000    29.921     8.124
  16   6 C      0.034  1.057  2.909  0.000    20.016     6.372
  17   6 C      0.213  1.082  2.705  0.000    23.504     7.941
  18   8 O     -0.396  1.764  4.632  0.000    21.593     6.230
  19   6 C     -0.017  1.070  2.947  0.000    20.838     6.492
  20   6 C     -0.059  1.055  3.004  0.000    21.650     6.626
  21   6 C     -0.119  1.043  3.076  0.000    22.835     6.815
  22   6 C     -0.122  1.041  3.081  0.000    22.906     6.826
  23   1 H      0.148  0.852  0.000  0.000     1.418     1.865
  24   1 H      0.085  0.915  0.000  0.000     1.924     2.169
  25   1 H      0.017  0.983  0.000  0.000     2.773     2.604
  26   1 H      0.024  0.976  0.000  0.000     2.672     2.556
  27   1 H      0.039  0.961  0.000  0.000     2.468     2.457
  28   1 H      0.051  0.949  0.000  0.000     2.303     2.373
  29   1 H      0.020  0.980  0.000  0.000     2.729     2.583
  30   1 H      0.065  0.935  0.000  0.000     2.138     2.287
  31   1 H      0.051  0.949  0.000  0.000     2.309     2.376
  32   1 H      0.058  0.942  0.000  0.000     2.223     2.332
  33   1 H      0.048  0.952  0.000  0.000     2.350     2.397
  34   7 N     -0.389  1.319  4.070  0.000    30.063     8.143
  35   6 C      0.043  1.061  2.896  0.000    19.881     6.352
  36   6 C      0.199  1.095  2.706  0.000    23.767     7.984
  37   8 O     -0.387  1.764  4.624  0.000    21.428     6.206
  38   6 C     -0.068  1.056  3.012  0.000    21.791     6.645
  39   6 C      0.010  1.081  2.909  0.000    27.797     8.648
  40   6 C     -0.042  1.082  2.960  0.000    29.048     8.838
  41   6 C     -0.044  1.083  2.960  0.000    29.084     8.844
  42   6 C     -0.036  1.084  2.952  0.000    28.894     8.814
  43   6 C     -0.037  1.084  2.954  0.000    28.926     8.819
  44   6 C     -0.036  1.084  2.952  0.000    28.898     8.815
  45   1 H      0.167  0.833  0.000  0.000     1.294     1.782
  46   1 H      0.061  0.939  0.000  0.000     2.185     2.311
  47   1 H      0.047  0.953  0.000  0.000     2.363     2.404
  48   1 H      0.040  0.960  0.000  0.000     2.445     2.445
  49   1 H      0.028  0.972  0.000  0.000     2.620     2.531
  50   1 H      0.033  0.967  0.000  0.000     2.546     2.495
  51   1 H      0.047  0.953  0.000  0.000     2.355     2.400
  52   1 H      0.046  0.954  0.000  0.000     2.372     2.408
  53   1 H      0.064  0.936  0.000  0.000     2.154     2.295
  54   7 N     -0.396  1.311  4.086  0.000    30.265     8.170
  55   6 C      0.025  1.068  2.908  0.000    20.177     6.398
  56   6 C      0.255  1.056  2.689  0.000    22.713     7.805
  57   8 O     -0.507  1.755  4.753  0.000    23.945     6.561
  58   6 C     -0.015  1.066  2.949  0.000    20.807     6.488
  59   6 C     -0.116  1.037  3.079  0.000    22.772     6.805
  60   6 C     -0.119  1.041  3.078  0.000    22.842     6.815
  61   1 H      0.158  0.842  0.000  0.000     1.346     1.817
  62   1 H      0.035  0.965  0.000  0.000     2.519     2.482
  63   1 H      0.035  0.965  0.000  0.000     2.519     2.482
  64   1 H      0.037  0.963  0.000  0.000     2.484     2.465
  65   1 H      0.053  0.947  0.000  0.000     2.286     2.364
  66   1 H      0.042  0.958  0.000  0.000     2.428     2.437
  67   1 H      0.033  0.967  0.000  0.000     2.545     2.495
  68   1 H      0.062  0.938  0.000  0.000     2.179     2.309
  69   1 H      0.037  0.963  0.000  0.000     2.485     2.465
  70   7 N     -0.160  1.246  3.914  0.000    24.456     7.345
  71   6 C     -0.003  1.078  2.925  0.000    20.631     6.466
  72   6 C      0.262  1.048  2.689  0.000    22.576     7.781
  73   8 O     -0.460  1.740  4.720  0.000    22.927     6.420
  74   6 C     -0.032  1.073  2.959  0.000    21.111     6.536
  75   6 C     -0.135  1.040  3.095  0.000    23.151     6.860
  76   6 C     -0.127  1.041  3.086  0.000    22.996     6.838
  77   1 H      0.223  0.777  0.000  0.000     0.998     1.565
  78   1 H      0.100  0.900  0.000  0.000     1.788     2.091
  79   1 H      0.063  0.937  0.000  0.000     2.161     2.299
  80   1 H      0.063  0.937  0.000  0.000     2.164     2.300
  81   1 H      0.063  0.937  0.000  0.000     2.166     2.302
  82   1 H      0.059  0.941  0.000  0.000     2.210     2.325
  83   1 H      0.057  0.943  0.000  0.000     2.236     2.339
  84   1 H      0.052  0.948  0.000  0.000     2.290     2.367
  85   1 H      0.037  0.963  0.000  0.000     2.493     2.469
  86   7 N     -0.175  1.242  3.933  0.000    24.797     7.396
  87   6 C     -0.005  1.067  2.938  0.000    20.665     6.471
  88   6 C      0.270  1.036  2.694  0.000    22.432     7.757
  89   8 O     -0.472  1.744  4.728  0.000    23.176     6.455
  90   6 C     -0.085  1.055  3.030  0.000    22.108     6.694
  91   6 C     -0.099  1.056  3.044  0.000    22.392     6.736
  92   6 C     -0.104  1.052  3.052  0.000    22.486     6.751
  93   6 C     -0.050  1.057  2.992  0.000    21.560     6.628
  94   7 N     -0.145  1.230  3.914  0.000    24.124     7.295
  95   1 H      0.221  0.779  0.000  0.000     1.006     1.571
  96   1 H      0.121  0.879  0.000  0.000     1.609     1.984
  97   1 H      0.062  0.938  0.000  0.000     2.178     2.308
  98   1 H      0.085  0.915  0.000  0.000     1.933     2.174
  99   1 H      0.067  0.933  0.000  0.000     2.117     2.275
 100   1 H      0.079  0.921  0.000  0.000     1.994     2.208
 101   1 H      0.084  0.916  0.000  0.000     1.936     2.176
 102   1 H      0.100  0.900  0.000  0.000     1.785     2.089
 103   1 H      0.124  0.876  0.000  0.000     1.583     1.968
 104   1 H      0.113  0.887  0.000  0.000     1.668     2.020
 105   1 H      0.296  0.704  0.000  0.000     0.727     1.335
 106   1 H      0.280  0.720  0.000  0.000     0.775     1.379
 107   1 H      0.297  0.703  0.000  0.000     0.724     1.333
 108   7 N     -0.172  1.235  3.936  0.000    24.716     7.384
 109   6 C      0.001  1.069  2.929  0.000    20.552     6.454
 110   6 C      0.266  1.043  2.691  0.000    22.516     7.771
 111   8 O     -0.484  1.745  4.739  0.000    23.441     6.491
 112   6 C      0.118  1.049  2.833  0.000    18.751     6.183
 113   8 O     -0.485  1.732  4.753  0.000    22.564     6.412
 114   6 C     -0.127  1.038  3.089  0.000    23.002     6.839
 115   1 H      0.203  0.797  0.000  0.000     1.089     1.635
 116   1 H      0.100  0.900  0.000  0.000     1.785     2.089
 117   1 H      0.023  0.977  0.000  0.000     2.692     2.566
 118   1 H      0.338  0.662  0.000  0.000     0.616     1.233
 119   1 H      0.066  0.934  0.000  0.000     2.124     2.279
 120   1 H      0.053  0.947  0.000  0.000     2.285     2.364
 121   1 H      0.070  0.930  0.000  0.000     2.081     2.256
 122   7 N     -0.173  1.247  3.926  0.000    24.752     7.389
 123   6 C     -0.028  1.051  2.977  0.000    21.130     6.555
 124   6 C      0.267  1.044  2.689  0.000    22.488     7.766
 125   8 O     -0.494  1.745  4.749  0.000    23.654     6.521
 126   1 H      0.229  0.771  0.000  0.000     0.970     1.543
 127   1 H      0.076  0.924  0.000  0.000     2.020     2.223
 128   1 H      0.100  0.900  0.000  0.000     1.784     2.089
 129   7 N     -0.167  1.247  3.921  0.000    24.624     7.370
 130   6 C      0.001  1.072  2.928  0.000    20.570     6.457
 131   6 C      0.268  1.044  2.688  0.000    22.472     7.763
 132   8 O     -0.494  1.742  4.751  0.000    23.643     6.519
 133   6 C     -0.101  1.064  3.037  0.000    22.421     6.741
 134   6 C     -0.101  1.051  3.051  0.000    22.430     6.742
 135   6 C     -0.041  1.054  2.987  0.000    21.394     6.600
 136   7 N     -0.141  1.218  3.923  0.000    24.061     7.285
 137   6 C      0.222  1.021  2.757  0.000    23.324     7.907
 138   7 N     -0.239  1.223  4.016  0.000    26.254     7.610
 139   7 N     -0.257  1.235  4.023  0.000    26.678     7.671
 140   1 H      0.233  0.767  0.000  0.000     0.951     1.528
 141   1 H      0.102  0.898  0.000  0.000     1.767     2.079
 142   1 H      0.094  0.906  0.000  0.000     1.840     2.121
 143   1 H      0.094  0.906  0.000  0.000     1.840     2.121
 144   1 H      0.093  0.907  0.000  0.000     1.851     2.128
 145   1 H      0.090  0.910  0.000  0.000     1.884     2.146
 146   1 H      0.088  0.912  0.000  0.000     1.895     2.153
 147   1 H      0.094  0.906  0.000  0.000     1.840     2.121
 148   1 H      0.240  0.760  0.000  0.000     0.923     1.505
 149   1 H      0.254  0.746  0.000  0.000     0.868     1.459
 150   1 H      0.227  0.773  0.000  0.000     0.978     1.549
 151   1 H      0.248  0.752  0.000  0.000     0.891     1.479
 152   1 H      0.237  0.763  0.000  0.000     0.937     1.517
 153   7 N     -0.172  1.246  3.926  0.000    24.727     7.385
 154   6 C      0.001  1.071  2.928  0.000    20.569     6.458
 155   6 C      0.269  1.044  2.687  0.000    22.448     7.758
 156   8 O     -0.490  1.739  4.751  0.000    23.575     6.510
 157   6 C      0.109  1.044  2.846  0.000    18.876     6.202
 158   8 O     -0.477  1.716  4.761  0.000    22.397     6.389
 159   6 C     -0.142  1.043  3.099  0.000    23.292     6.882
 160   1 H      0.230  0.770  0.000  0.000     0.966     1.539
 161   1 H      0.094  0.906  0.000  0.000     1.838     2.120
 162   1 H      0.042  0.958  0.000  0.000     2.420     2.433
 163   1 H      0.337  0.663  0.000  0.000     0.619     1.236
 164   1 H      0.067  0.933  0.000  0.000     2.122     2.278
 165   1 H      0.038  0.962  0.000  0.000     2.480     2.463
 166   1 H      0.067  0.933  0.000  0.000     2.118     2.276
 167   7 N     -0.200  1.264  3.936  0.000    25.335     7.476
 168   6 C      0.021  1.069  2.910  0.000    20.230     6.405
 169   6 C      0.274  1.045  2.681  0.000    22.375     7.746
 170   8 O     -0.520  1.755  4.765  0.000    24.223     6.599
 171   6 C     -0.024  1.067  2.958  0.000    20.971     6.513
 172   6 C     -0.067  1.055  3.012  0.000    21.777     6.644
 173   6 C     -0.111  1.036  3.076  0.000    22.690     6.792
 174   6 C     -0.107  1.037  3.071  0.000    22.611     6.781
 175   1 H      0.237  0.763  0.000  0.000     0.936     1.515
 176   1 H      0.062  0.938  0.000  0.000     2.175     2.306
 177   1 H      0.061  0.939  0.000  0.000     2.184     2.311
 178   1 H      0.034  0.966  0.000  0.000     2.526     2.486
 179   1 H      0.053  0.947  0.000  0.000     2.280     2.361
 180   1 H      0.051  0.949  0.000  0.000     2.305     2.374
 181   1 H      0.040  0.960  0.000  0.000     2.449     2.447
 182   1 H      0.038  0.962  0.000  0.000     2.479     2.462
 183   1 H      0.039  0.961  0.000  0.000     2.457     2.451
 184   1 H      0.041  0.959  0.000  0.000     2.439     2.442
 185   1 H      0.035  0.965  0.000  0.000     2.522     2.483
 186   7 N     -0.178  1.252  3.926  0.000    24.858     7.405
 187   6 C      0.019  1.063  2.918  0.000    20.257     6.408
 188   6 C      0.272  1.041  2.687  0.000    22.401     7.750
 189   8 O     -0.497  1.737  4.760  0.000    23.713     6.529
 190   6 C     -0.092  1.063  3.029  0.000    22.242     6.713
 191   6 C     -0.027  1.061  2.966  0.000    21.030     6.523
 192   6 C     -0.128  1.046  3.082  0.000    23.023     6.842
 193   6 C     -0.123  1.039  3.084  0.000    22.908     6.824
 194   1 H      0.239  0.761  0.000  0.000     0.927     1.508
 195   1 H      0.070  0.930  0.000  0.000     2.087     2.259
 196   1 H      0.076  0.924  0.000  0.000     2.021     2.223
 197   1 H      0.068  0.932  0.000  0.000     2.108     2.271
 198   1 H      0.067  0.933  0.000  0.000     2.124     2.279
 199   1 H      0.050  0.950  0.000  0.000     2.322     2.383
 200   1 H      0.066  0.934  0.000  0.000     2.129     2.282
 201   1 H      0.035  0.965  0.000  0.000     2.513     2.479
 202   1 H      0.041  0.959  0.000  0.000     2.437     2.441
 203   1 H      0.046  0.954  0.000  0.000     2.372     2.409
 204   1 H      0.030  0.970  0.000  0.000     2.591     2.517
 205   7 N     -0.152  1.234  3.918  0.000    24.296     7.321
 206   6 C     -0.038  1.049  2.989  0.000    21.318     6.586
 207   6 C      0.270  1.042  2.688  0.000    22.448     7.759
 208   8 O     -0.480  1.729  4.751  0.000    23.341     6.477
 209   1 H      0.227  0.773  0.000  0.000     0.976     1.548
 210   1 H      0.107  0.893  0.000  0.000     1.719     2.050
 211   1 H      0.091  0.909  0.000  0.000     1.869     2.138
 212   7 N     -0.166  1.253  3.914  0.000    24.600     7.366
 213   6 C      0.010  1.065  2.926  0.000    20.418     6.434
 214   6 C      0.278  1.038  2.684  0.000    22.291     7.732
 215   8 O     -0.480  1.750  4.730  0.000    23.339     6.477
 216   6 C     -0.138  1.044  3.094  0.000    23.197     6.866
 217   1 H      0.216  0.784  0.000  0.000     1.030     1.590
 218   1 H      0.094  0.906  0.000  0.000     1.839     2.121
 219   1 H      0.078  0.922  0.000  0.000     2.001     2.212
 220   1 H      0.077  0.923  0.000  0.000     2.012     2.218
 221   1 H      0.050  0.950  0.000  0.000     2.324     2.384
 222   7 N     -0.192  1.250  3.942  0.000    25.170     7.451
 223   6 C      0.001  1.069  2.930  0.000    20.558     6.456
 224   6 C      0.202  1.081  2.716  0.000    23.697     7.972
 225   8 O     -0.376  1.764  4.612  0.000    21.214     6.175
 226   6 C      0.106  1.049  2.844  0.000    18.927     6.210
 227   8 O     -0.449  1.705  4.744  0.000    21.832     6.308
 228   6 C     -0.137  1.038  3.099  0.000    23.200     6.868
 229   1 H      0.242  0.758  0.000  0.000     0.916     1.500
 230   1 H      0.113  0.887  0.000  0.000     1.672     2.022
 231   1 H      0.046  0.954  0.000  0.000     2.369     2.407
 232   1 H      0.346  0.654  0.000  0.000     0.599     1.215
 233   1 H      0.074  0.926  0.000  0.000     2.039     2.233
 234   1 H      0.038  0.962  0.000  0.000     2.476     2.461
 235   1 H      0.084  0.916  0.000  0.000     1.934     2.175
 236   7 N     -0.380  1.316  4.064  0.000    29.813     8.109
 237   6 C      0.021  1.063  2.916  0.000    20.244     6.410
 238   6 C      0.204  1.086  2.710  0.000    23.660     7.966
 239   8 O     -0.378  1.765  4.612  0.000    21.240     6.179
 240   6 C      0.070  1.042  2.888  0.000    19.626     6.347
 241   8 O     -0.488  1.734  4.754  0.000    22.629     6.422
 242   1 H      0.152  0.848  0.000  0.000     1.385     1.843
 243   1 H      0.092  0.908  0.000  0.000     1.864     2.135
 244   1 H      0.064  0.936  0.000  0.000     2.150     2.293
 245   1 H      0.057  0.943  0.000  0.000     2.238     2.339
 246   1 H      0.320  0.680  0.000  0.000     0.664     1.280
 247   7 N     -0.397  1.335  4.062  0.000    30.283     8.173
 248   6 C      0.019  1.071  2.910  0.000    20.276     6.415
 249   6 C      0.277  1.048  2.674  0.000    22.305     7.734
 250   8 O     -0.513  1.765  4.748  0.000    24.067     6.577
 251   6 C      0.110  1.047  2.843  0.000    18.878     6.204
 252   8 O     -0.491  1.743  4.749  0.000    22.707     6.433
 253   6 C     -0.141  1.042  3.100  0.000    23.280     6.880
 254   1 H      0.153  0.847  0.000  0.000     1.379     1.839
 255   1 H      0.049  0.951  0.000  0.000     2.327     2.385
 256   1 H      0.047  0.953  0.000  0.000     2.355     2.400
 257   1 H      0.307  0.693  0.000  0.000     0.702     1.316
 258   1 H      0.088  0.912  0.000  0.000     1.894     2.152
 259   1 H      0.070  0.930  0.000  0.000     2.082     2.256
 260   1 H      0.042  0.958  0.000  0.000     2.428     2.437
 261   7 N     -0.203  1.261  3.942  0.000    25.420     7.488
 262   6 C      0.027  1.068  2.905  0.000    20.121     6.386
 263   6 C      0.286  1.041  2.673  0.000    22.161     7.709
 264   8 O     -0.531  1.764  4.767  0.000    24.474     6.633
 265   6 C     -0.022  1.070  2.952  0.000    20.937     6.508
 266   6 C     -0.065  1.052  3.013  0.000    21.741     6.638
 267   6 C     -0.110  1.039  3.071  0.000    22.665     6.789
 268   6 C     -0.113  1.040  3.073  0.000    22.733     6.800
 269   1 H      0.233  0.767  0.000  0.000     0.954     1.530
 270   1 H      0.051  0.949  0.000  0.000     2.308     2.376
 271   1 H      0.061  0.939  0.000  0.000     2.189     2.314
 272   1 H      0.032  0.968  0.000  0.000     2.553     2.499
 273   1 H      0.037  0.963  0.000  0.000     2.483     2.464
 274   1 H      0.063  0.937  0.000  0.000     2.166     2.302
 275   1 H      0.037  0.963  0.000  0.000     2.494     2.470
 276   1 H      0.035  0.965  0.000  0.000     2.516     2.480
 277   1 H      0.042  0.958  0.000  0.000     2.420     2.433
 278   1 H      0.049  0.951  0.000  0.000     2.334     2.389
 279   1 H      0.053  0.947  0.000  0.000     2.287     2.365
 280   7 N     -0.191  1.259  3.932  0.000    25.141     7.447
 281   6 C      0.033  1.061  2.906  0.000    20.016     6.369
 282   6 C      0.214  1.085  2.702  0.000    23.478     7.935
 283   8 O     -0.385  1.760  4.625  0.000    21.393     6.201
 284   6 C     -0.069  1.055  3.014  0.000    21.823     6.650
 285   6 C     -0.081  1.053  3.027  0.000    22.031     6.682
 286   6 C     -0.023  1.054  2.969  0.000    21.053     6.545
 287   7 N     -0.146  1.210  3.937  0.000    24.165     7.301
 288   6 C      0.224  1.020  2.756  0.000    23.287     7.901
 289   7 N     -0.270  1.242  4.029  0.000    26.992     7.716
 290   7 N     -0.264  1.245  4.019  0.000    26.840     7.694
 291   1 H      0.248  0.752  0.000  0.000     0.890     1.478
 292   1 H      0.085  0.915  0.000  0.000     1.930     2.173
 293   1 H      0.077  0.923  0.000  0.000     2.007     2.216
 294   1 H      0.065  0.935  0.000  0.000     2.145     2.290
 295   1 H      0.057  0.943  0.000  0.000     2.230     2.335
 296   1 H      0.073  0.927  0.000  0.000     2.048     2.238
 297   1 H      0.094  0.906  0.000  0.000     1.836     2.119
 298   1 H      0.082  0.918  0.000  0.000     1.955     2.186
 299   1 H      0.209  0.791  0.000  0.000     1.062     1.614
 300   1 H      0.231  0.769  0.000  0.000     0.962     1.537
 301   1 H      0.265  0.735  0.000  0.000     0.827     1.425
 302   1 H      0.243  0.757  0.000  0.000     0.911     1.495
 303   1 H      0.255  0.745  0.000  0.000     0.863     1.455
 304   7 N     -0.387  1.328  4.059  0.000    30.022     8.138
 305   6 C      0.024  1.067  2.909  0.000    20.147     6.387
 306   6 C      0.264  1.044  2.693  0.000    22.556     7.777
 307   8 O     -0.462  1.733  4.729  0.000    22.958     6.424
 308   6 C     -0.019  1.073  2.946  0.000    20.921     6.513
 309  16 S     -0.275  1.938  4.294  0.043   152.909    20.812
 310   1 H      0.172  0.828  0.000  0.000     1.258     1.757
 311   1 H      0.045  0.955  0.000  0.000     2.380     2.413
 312   1 H      0.054  0.946  0.000  0.000     2.272     2.357
 313   1 H      0.046  0.954  0.000  0.000     2.364     2.404
 314   1 H      0.180  0.820  0.000  0.000     1.207     1.718
 315   7 N     -0.155  1.239  3.916  0.000    24.353     7.329
 316   6 C      0.007  1.068  2.924  0.000    20.465     6.442
 317   6 C      0.257  1.049  2.694  0.000    22.671     7.798
 318   8 O     -0.502  1.753  4.750  0.000    23.834     6.546
 319   6 C     -0.077  1.054  3.023  0.000    21.955     6.670
 320   6 C      0.054  1.060  2.886  0.000    26.337     8.373
 321   7 N     -0.288  1.487  3.801  0.000    28.306     7.889
 322   6 C     -0.030  1.063  2.967  0.000    28.696     8.785
 323   6 C      0.080  1.063  2.856  0.000    25.972     8.338
 324   7 N     -0.093  1.240  3.854  0.000    23.061     7.132
 325   1 H      0.197  0.803  0.000  0.000     1.120     1.658
 326   1 H      0.114  0.886  0.000  0.000     1.664     2.018
 327   1 H      0.074  0.926  0.000  0.000     2.039     2.233
 328   1 H      0.051  0.949  0.000  0.000     2.312     2.378
 329   1 H      0.041  0.959  0.000  0.000     2.440     2.443
 330   1 H      0.048  0.952  0.000  0.000     2.341     2.393
 331   1 H      0.188  0.812  0.000  0.000     1.172     1.696
 332   7 N     -0.163  1.243  3.920  0.000    24.533     7.356
 333   6 C     -0.040  1.051  2.988  0.000    21.341     6.588
 334   6 C      0.264  1.043  2.692  0.000    22.544     7.775
 335   8 O     -0.468  1.727  4.740  0.000    23.080     6.441
 336   1 H      0.248  0.752  0.000  0.000     0.891     1.479
 337   1 H      0.080  0.920  0.000  0.000     1.980     2.200
 338   1 H      0.118  0.882  0.000  0.000     1.629     1.996
 339   7 N     -0.153  1.232  3.921  0.000    24.306     7.322
 340   6 C      0.005  1.064  2.931  0.000    20.494     6.446
 341   6 C      0.268  1.036  2.696  0.000    22.484     7.766
 342   8 O     -0.441  1.717  4.723  0.000    22.509     6.361
 343   6 C      0.060  1.043  2.897  0.000    19.785     6.371
 344   8 O     -0.463  1.728  4.736  0.000    22.115     6.348
 345   1 H      0.219  0.781  0.000  0.000     1.015     1.578
 346   1 H      0.052  0.948  0.000  0.000     2.297     2.370
 347   1 H      0.101  0.899  0.000  0.000     1.777     2.085
 348   1 H      0.045  0.955  0.000  0.000     2.381     2.413
 349   1 H      0.322  0.678  0.000  0.000     0.658     1.274
 350   7 N     -0.159  1.240  3.919  0.000    24.437     7.342
 351   6 C      0.019  1.064  2.917  0.000    20.262     6.410
 352   6 C      0.204  1.083  2.712  0.000    23.661     7.966
 353   8 O     -0.359  1.737  4.622  0.000    20.873     6.125
 354   6 C     -0.111  1.079  3.032  0.000    22.622     6.772
 355   6 C      0.369  1.022  2.609  0.000    20.748     7.454
 356   8 O     -0.652  1.780  4.872  0.000    27.436     7.023
 357   8 O     -0.653  1.784  4.869  0.000    27.449     7.024
 358   1 H      0.194  0.806  0.000  0.000     1.137     1.671
 359   1 H      0.133  0.867  0.000  0.000     1.511     1.922
 360   1 H      0.074  0.926  0.000  0.000     2.047     2.237
 361   1 H      0.067  0.933  0.000  0.000     2.117     2.275
 362   8 O     -0.610  1.750  4.860  0.000    25.418     6.805
 363   1 H      0.349  0.651  0.000  0.000     0.590     1.207
 364   1 H      0.335  0.665  0.000  0.000     0.624     1.240
 365   8 O     -0.611  1.757  4.854  0.000    25.461     6.810
 366   1 H      0.292  0.708  0.000  0.000     0.745     1.356
 367   1 H      0.315  0.685  0.000  0.000     0.677     1.293
 368   8 O     -0.627  1.738  4.889  0.000    25.850     6.862
 369   1 H      0.309  0.691  0.000  0.000     0.693     1.308
 370   1 H      0.313  0.687  0.000  0.000     0.684     1.299
 371   8 O     -0.645  1.766  4.879  0.000    26.288     6.920
 372   1 H      0.321  0.679  0.000  0.000     0.661     1.277
 373   1 H      0.318  0.682  0.000  0.000     0.668     1.284
 374   8 O     -0.631  1.753  4.878  0.000    25.933     6.873
 375   1 H      0.314  0.686  0.000  0.000     0.679     1.294
 376   1 H      0.303  0.697  0.000  0.000     0.711     1.324
 377   8 O     -0.642  1.753  4.889  0.000    26.217     6.911
 378   1 H      0.321  0.679  0.000  0.000     0.661     1.277
 379   1 H      0.322  0.678  0.000  0.000     0.659     1.275
 380   8 O     -0.643  1.753  4.890  0.000    26.235     6.913
 381   1 H      0.333  0.667  0.000  0.000     0.629     1.246
 382   1 H      0.324  0.676  0.000  0.000     0.653     1.269
 383   8 O     -0.634  1.746  4.888  0.000    26.017     6.884
 384   1 H      0.344  0.656  0.000  0.000     0.602     1.219
 385   1 H      0.320  0.680  0.000  0.000     0.663     1.279
 386   8 O     -0.628  1.754  4.874  0.000    25.858     6.863
 387   1 H      0.319  0.681  0.000  0.000     0.668     1.284
 388   1 H      0.340  0.660  0.000  0.000     0.612     1.229
 389   8 O     -0.649  1.769  4.880  0.000    26.403     6.935
 390   1 H      0.322  0.678  0.000  0.000     0.659     1.275
 391   1 H      0.316  0.684  0.000  0.000     0.676     1.291
 392   8 O     -0.690  1.772  4.918  0.000    27.442     7.070
 393   1 H      0.321  0.679  0.000  0.000     0.660     1.276
 394   1 H      0.307  0.693  0.000  0.000     0.701     1.315
 395   8 O     -0.637  1.768  4.869  0.000    26.085     6.893
 396   1 H      0.315  0.685  0.000  0.000     0.677     1.292
 397   1 H      0.308  0.692  0.000  0.000     0.697     1.311
 398   8 O     -0.633  1.751  4.882  0.000    25.984     6.880
 399   1 H      0.323  0.677  0.000  0.000     0.654     1.271
 400   1 H      0.311  0.689  0.000  0.000     0.688     1.303
 401   8 O     -0.651  1.766  4.885  0.000    26.443     6.940
 402   1 H      0.323  0.677  0.000  0.000     0.656     1.272
 403   1 H      0.316  0.684  0.000  0.000     0.676     1.291
 404   8 O     -0.620  1.754  4.866  0.000    25.663     6.837
 405   1 H      0.342  0.658  0.000  0.000     0.607     1.224
 406   1 H      0.320  0.680  0.000  0.000     0.665     1.281
 407   7 N     -0.379  1.312  4.066  0.000    29.787     8.106
 408   6 C      0.023  1.061  2.916  0.000    20.205     6.404
 409   6 C      0.203  1.089  2.708  0.000    23.681     7.969
 410   8 O     -0.351  1.738  4.613  0.000    20.731     6.105
 411   6 C      0.072  1.042  2.886  0.000    19.589     6.341
 412   8 O     -0.481  1.728  4.753  0.000    22.498     6.403
 413   1 H      0.166  0.834  0.000  0.000     1.296     1.783
 414   1 H      0.072  0.928  0.000  0.000     2.066     2.248
 415   1 H      0.054  0.946  0.000  0.000     2.269     2.355
 416   1 H      0.044  0.956  0.000  0.000     2.394     2.419
 417   1 H      0.331  0.669  0.000  0.000     0.635     1.252
 418   7 N     -0.293  1.332  3.961  0.000    27.547     7.795
 419   6 C      0.039  1.057  2.904  0.000    19.910     6.350
 420   6 C      0.194  1.089  2.717  0.000    23.860     8.000
 421   8 O     -0.371  1.762  4.610  0.000    21.115     6.161
 422   6 C     -0.055  1.055  3.000  0.000    21.539     6.604
 423   6 C     -0.061  1.054  3.007  0.000    21.637     6.617
 424   6 C     -0.004  1.053  2.951  0.000    20.710     6.488
 425   1 H      0.028  0.972  0.000  0.000     2.617     2.530
 426   1 H      0.046  0.954  0.000  0.000     2.374     2.409
 427   1 H      0.037  0.963  0.000  0.000     2.487     2.466
 428   1 H      0.047  0.953  0.000  0.000     2.358     2.401
 429   1 H      0.039  0.961  0.000  0.000     2.459     2.452
 430   1 H      0.062  0.938  0.000  0.000     2.177     2.307
 431   1 H      0.056  0.944  0.000  0.000     2.241     2.341
 432   1 H      0.182  0.818  0.000  0.000     1.200     1.716
 433   1 H      0.073  0.927  0.000  0.000     2.053     2.241
 434   1 H      0.177  0.823  0.000  0.000     1.232     1.739
 435   1 H      0.061  0.939  0.000  0.000     2.185     2.311
 436   1 H      0.184  0.816  0.000  0.000     1.192     1.710
 437   1 H      0.072  0.928  0.000  0.000     2.062     2.245
 438   1 H      0.178  0.822  0.000  0.000     1.222     1.732
 439   1 H      0.066  0.934  0.000  0.000     2.131     2.283
 440   1 H      0.190  0.810  0.000  0.000     1.160     1.687
 441   1 H      0.073  0.927  0.000  0.000     2.049     2.238
 442   1 H      0.177  0.823  0.000  0.000     1.229     1.736
 443   1 H      0.065  0.935  0.000  0.000     2.141     2.288
 444   1 H      0.173  0.827  0.000  0.000     1.255     1.755
 445   1 H      0.069  0.931  0.000  0.000     2.092     2.261
 446   1 H      0.185  0.815  0.000  0.000     1.185     1.705
 447   1 H      0.074  0.926  0.000  0.000     2.044     2.236
 448   1 H      0.177  0.823  0.000  0.000     1.230     1.737
 449   1 H      0.060  0.940  0.000  0.000     2.203     2.321

 Mol. C6AA /au·bohr⁶  :    1696357.987128
 Mol. C8AA /au·bohr⁸  :   37049094.234797
 Mol. α(0) /au        :       1938.619571

 
molecular dipole:
                 x           y           z       tot (Debye)
 q only:       60.240     138.060      91.376
   full:       61.543     141.935      90.170     455.143
molecular quadrupole (traceless):
                xx          xy          yy          xz          yz          zz
 q only:    -5179.110    6320.073    6888.401    3723.221    9477.763   -1709.291
  q+dip:    -5338.542    6554.599    7413.752    3721.988    9543.071   -2075.210
   full:    -5338.922    6548.505    7413.586    3721.480    9543.759   -2074.664
speedup  1.95
cpu  time for grad   33.63 s
wall time for grad   17.22 s

SCC energy    :    -695.7753666
rep           :       7.8099252
ES            :       2.3458157
AES           :      -0.1169697
AXC           :       0.2073281
disp          :      -0.5660165
XB            :       0.0000000
fix           :       0.0000000
Gborn         :       0.0000000
Gsasa         :       0.0000000
Ghb           :       0.0000000
Gshift        :       0.0000000
Gsolv         :      -0.5702073     -357.81
Etot ala COSMO:    -695.7753666
grad norm     :       0.7065006
total E       :    -687.8979307
atomizationE  :     117.8440058    73948.23
(atE without considering molecular charge,
 total energy contains solvation terms)
H-L gap (eV)  :          1.8147

------------------------------------------------------------------------
 * finished run on 2019/05/05 at 17:07:15.046     
------------------------------------------------------------------------
 total:
 * wall-time:     0 d,  0 h,  0 min, 17.859 sec
 *  cpu-time:     0 d,  0 h,  0 min, 34.730 sec
 * ratio c/w:     1.945 speedup
 SCF:
 * wall-time:     0 d,  0 h,  0 min, 17.575 sec
 *  cpu-time:     0 d,  0 h,  0 min, 34.335 sec
 * ratio c/w:     1.954 speedup

