      -----------------------------------------------------------      
     |                   =====================                   |     
     |                           x T B                           |     
     |                   =====================                   |     
     |                         S. Grimme                         |     
     |          Mulliken Center for Theoretical Chemistry        |     
     |                    University of Bonn                     |     
     |                 Version 6.0.1 (SAW181210)                 |     
      -----------------------------------------------------------      

   This program is distributed in the hope that it will be useful,
   but WITHOUT ANY WARRANTY; without even the implied warranty of
   MERCHANTABILITY or FITNESS FOR A PARTICULAR PURPOSE.
   
   FOR NON-COMMERCIAL, ACADEMIA USE ONLY.
   
   Cite this work as:
   S. Grimme, C. Bannwarth, P. Shushkov, J. Comput. Theory Chem., 2017,
   13, 1989-2009.
   C. Bannwarth, S. Ehlert and S. Grimme., ChemRxiv, 2018, preprint.
   http://doi.org/10.26434/chemrxiv.7246238.v1
   
   for sTDA-xTB:
   S. Grimme and C. Bannwarth, J. Chem. Phys., 2016, 145, 054103.
   
   in the mass-spec context:
   V. Asgeirsson, C. Bauer and S. Grimme, Chem. Sci., 2017, 8, 4879.
   
   if GBSA is used:
   P. Shushkov, F. März and S. Grimme, unpublished.
   
   for ANC optimizer:
   S. Grimme, unpublished.
   Rational Function algorithm used in ANCopt:
   F. Eckert, P. Pulay, H.-J. Werner, J. Comput. Chem., 1997, 18, 1473.
   
   with help from (in alphabetical order)
   C. Bannwarth, F. Bohle, G. Brandenburg, E. Caldeweyher, M. Checinski,
   S. Dohm, S. Ehlert, S. Ehrlich, F. März, H. Neugebauer, J. Pisarek,
   P. Pracht, P. Shushkov, and S. Spicher.
   
 * started run on 2019/05/06 at 02:46:13.425     
========================================================================
 # omp threads = 2
========================================================================
number of atoms            : 1365
number of electrons        : 3670
charge                     : 1
spin                       : .0
first test random number   : .0810

########################################################################
# WARNING! Please study the warnings concerning your input carefully
#  - Process number higher than OMP_NUM_THREADS, I hope you know what you are doing.
########################################################################

           ------------------------------------------------- 
          |                 G F N 2 - x T B                 |
          | Geometry, Frequencies, Noncovalent interactions |
          |            JCTC 2018 parametrisation            |
           ------------------------------------------------- 
 
      method parameters     
 k(s)        :  1.8500
 k(p)        :  2.2300
 k(d)        :  2.2300
 k(f)        :  2.0000
 kEN (H0ij)  : -2.0000
 D4 a1       :  0.5200
 D4 a2       :  5.0000
 D4 s6       :  1.0000
 D4 s8       :  2.7000
 D4 s9       :  5.0000
 alphaj      :  2.0000

 Solvent             : h2o
 Using internal parameter file: .param_gbsa2_h2o
 Gsolv ref. state (COSMO-RS): gsolv [1 M gas/solution]
 temperature (mdtemp)       :    298.150000000000     
 dielectric constant        :    80.2000000000000     
 rho                        :    1.00000000000000     
 mass                       :    18.0000000000000     
 surface tension            :    15.5689454083859     
 probe radius               :   0.975313790000000     
 vdW radii scaling          :    1.00000000000000     
 Gshift (Eh)                :   1.857443126794793E-003
 c1                         :    1.55243817000000     
 soset                      :   0.130326360000000     
 HB correction              :  T

            Z     q(EN)     CN     RAES       Cart. coordinates
     1  N   5.0   -0.11    4.09    3.12   144.03302   102.75385   395.94861
     2  C   4.0    0.00    4.30    4.20   142.38896   104.25996   394.22518
     3  C   4.0    0.15    3.42    3.09   139.99657   105.01585   395.60090
     4  O   6.0   -0.28    1.23    1.80   138.85895   103.46816   396.95394
     5  C   4.0    0.03    4.13    3.86   141.70866   102.75385   391.82145
     6  O   6.0   -0.24    2.03    1.83   140.18743   100.61468   392.36002
     7  H   1.0    0.06    1.02    1.43   144.92497   101.33277   394.92627
     8  H   1.0    0.06    1.01    1.43   145.38607   103.92926   396.75552
     9  H   1.0    0.08    1.03    1.43   142.93320   101.95071   397.36590
    10  H   1.0    0.03    1.06    1.44   143.40185   105.94938   393.62236
    11  H   1.0    0.04    1.01    1.43   140.67498   103.99162   390.54021
    12  H   1.0    0.04    1.01    1.43   143.45099   102.11512   390.92950
    13  H   1.0    0.11    1.01    1.43   139.79437    99.70761   390.79533
    14  N   5.0   -0.15    3.42    2.03   139.25768   107.39691   395.22106
    15  C   4.0    0.03    4.35    4.29   136.74057   108.36067   395.92593
    16  C   4.0    0.15    3.36    3.07   134.55983   106.58243   395.11524
    17  O   6.0   -0.32    1.23    1.80   132.77026   106.16858   396.54198
    18  C   4.0   -0.05    4.26    4.11   136.38719   110.98361   394.72407
    19  C   4.0   -0.04    4.14    3.88   134.18755   112.58798   395.71428
    20  C   4.0    0.24    3.10    3.02   134.50691   115.44903   395.18516
    21  O   6.0   -0.30    1.18    1.80   135.16832   116.20681   393.04788
    22  O   6.0   -0.28    1.18    1.80   134.11952   117.00427   396.91804
    23  H   1.0    0.07    1.06    1.44   140.37073   108.74617   394.41226
    24  H   1.0    0.06    1.05    1.44   136.64797   108.50428   397.97817
    25  H   1.0    0.05    1.03    1.43   138.11062   112.06642   395.03965
    26  H   1.0    0.04    1.03    1.43   136.07917   110.72282   392.70395
    27  H   1.0    0.04    1.03    1.43   132.44711   111.96815   394.80344
    28  H   1.0    0.05    1.03    1.43   134.04393   112.33476   397.75330
    29  N   5.0   -0.14    3.40    2.02   134.82439   105.54497   392.82678
    30  C   4.0    0.03    4.32    4.24   133.00458   103.87824   391.50397
    31  C   4.0    0.15    3.39    3.08   131.59674   101.76741   392.97418
    32  O   6.0   -0.32    1.25    1.80   129.25159   101.71639   392.98930
    33  C   4.0   -0.04    4.31    4.22   134.37085   102.68393   389.21741
    34  C   4.0   -0.02    3.51    3.12   132.63608   101.71450   387.16327
    35  C   4.0   -0.03    3.44    3.09   131.29060    99.44305   387.46185
    36  C   4.0   -0.04    3.43    3.09   132.42066   103.03164   384.86159
    37  C   4.0   -0.04    3.35    3.06   129.72969    98.56055   385.55134
    38  C   4.0   -0.04    3.34    3.06   130.85974   102.14536   382.94163
    39  C   4.0   -0.04    3.36    3.07   129.51804    99.90792   383.29689
    40  H   1.0    0.07    1.07    1.44   136.39097   105.83221   391.74208
    41  H   1.0    0.05    1.06    1.44   131.47579   105.16325   391.00509
    42  H   1.0    0.04    1.04    1.43   135.59918   104.10500   388.37270
    43  H   1.0    0.05    1.03    1.43   135.49335   101.09089   389.88448
    44  H   1.0    0.06    1.03    1.43   131.47390    98.37724   389.19284
    45  H   1.0    0.05    1.03    1.43   133.48079   104.75318   384.58380
    46  H   1.0    0.06    1.03    1.43   128.67900    96.82956   385.80834
    47  H   1.0    0.05    1.03    1.43   130.68967   103.18093   381.19174
    48  H   1.0    0.06    1.03    1.43   128.30294    99.21061   381.81346
    49  N   5.0   -0.15    3.45    2.05   132.94411    99.97784   394.11746
    50  C   4.0    0.04    4.42    4.41   131.63453    97.82922   395.29665
    51  C   4.0    0.15    3.38    3.07   130.45345    98.63047   397.81188
    52  O   6.0   -0.31    1.21    1.80   128.69601    97.36813   398.76052
    53  C   4.0   -0.04    4.25    4.11   133.35985    95.51242   395.56877
    54  C   4.0   -0.03    4.18    3.96   133.78693    94.07434   393.09323
    55  C   4.0    0.24    3.13    3.03   131.40398    92.84224   392.06522
    56  O   6.0   -0.29    1.19    1.80   129.87709    91.93517   393.62047
    57  O   6.0   -0.29    1.16    1.80   131.06761    92.80444   389.71062
    58  H   1.0    0.09    1.05    1.44   134.86596    99.95138   394.25919
    59  H   1.0    0.06    1.07    1.44   130.12842    97.15837   394.06077
    60  H   1.0    0.05    1.03    1.43   135.19855    96.13414   396.25852
    61  H   1.0    0.06    1.03    1.43   132.50758    94.20662   396.91426
    62  H   1.0    0.05    1.03    1.43   134.48235    95.39148   391.67027
    63  H   1.0    0.05    1.03    1.43   135.17588    92.58901   393.41638
    64  N   5.0   -0.14    3.48    2.07   131.37186   100.74696   398.85690
    65  C   4.0    0.04    4.35    4.28   130.29471   101.85812   401.16047
    66  C   4.0    0.16    3.43    3.09   127.81350   103.17337   400.58600
    67  O   6.0   -0.30    1.24    1.80   126.04661   103.06943   402.07321
    68  C   4.0   -0.06    4.11    3.82   132.13342   103.71194   402.36423
    69  H   1.0    0.10    1.07    1.44   132.86474   101.74096   398.15203
    70  H   1.0    0.05    1.06    1.44   129.96212   100.35012   402.52297
    71  H   1.0    0.05    1.00    1.43   131.27548   104.49807   404.06309
    72  H   1.0    0.05    1.00    1.43   133.87008   102.71416   402.84989
    73  H   1.0    0.06    1.00    1.43   132.54160   105.21994   401.02063
    74  N   5.0   -0.14    3.51    2.08   127.70579   104.43193   398.42226
    75  C   4.0    0.04    4.51    4.54   125.41355   105.76229   397.62669
    76  C   4.0    0.16    3.50    3.11   123.34619   103.86123   397.05977
    77  O   6.0   -0.31    1.27    1.80   121.13710   104.32232   397.63991
    78  C   4.0   -0.02    4.29    4.17   125.86142   107.44604   395.28909
    79  C   4.0   -0.07    4.15    3.90   123.40288   108.51184   394.28943
    80  C   4.0   -0.07    4.12    3.83   127.64532   109.61922   395.89192
    81  H   1.0    0.11    1.08    1.44   129.16466   104.57365   397.16937
    82  H   1.0    0.06    1.06    1.44   124.86175   106.99250   399.18382
    83  H   1.0    0.05    1.06    1.44   126.71746   106.25740   393.83967
    84  H   1.0    0.05    1.00    1.43   123.79973   109.68536   392.64348
    85  H   1.0    0.05    1.01    1.43   122.16322   106.95471   393.75842
    86  H   1.0    0.06    1.00    1.43   122.51471   109.64568   395.76342
    87  H   1.0    0.04    1.00    1.43   127.91177   110.75873   394.19683
    88  H   1.0    0.05    1.00    1.43   126.81951   110.77007   397.38858
    89  H   1.0    0.06    1.01    1.43   129.45190   108.85010   396.51364
    90  N   5.0   -0.14    3.47    2.06   124.05106   101.71261   395.96751
    91  C   4.0    0.03    4.49    4.52   122.21992    99.65659   395.64247
    92  C   4.0    0.16    3.46    3.10   121.09175    98.88936   398.21061
    93  O   6.0   -0.32    1.28    1.80   118.77872    98.62669   398.41848
    94  C   4.0   -0.02    4.32    4.24   123.35375    97.31900   394.30266
    95  C   4.0   -0.05    4.20    4.00   124.13421    97.95961   391.58712
    96  C   4.0   -0.07    4.15    3.90   121.42056    95.18739   394.25352
    97  C   4.0   -0.06    4.01    3.64   125.67433    95.93950   390.24542
    98  H   1.0    0.10    1.07    1.44   125.81984   101.33655   395.30232
    99  H   1.0    0.05    1.06    1.44   120.73648   100.39736   394.42171
   100  H   1.0    0.06    1.06    1.44   125.02427    96.73318   395.35335
   101  H   1.0    0.04    1.03    1.43   122.42779    98.27142   390.47596
   102  H   1.0    0.05    1.03    1.43   125.27182    99.67548   391.62492
   103  H   1.0    0.05    1.00    1.43   122.24448    93.55655   393.30488
   104  H   1.0    0.05    1.01    1.43   120.91789    94.69417   396.18860
   105  H   1.0    0.04    1.00    1.43   119.74815    95.82233   393.23307
   106  H   1.0    0.04    1.00    1.43   126.12031    96.58956   388.34246
   107  H   1.0    0.07    1.00    1.43   127.41288    95.60879   391.30177
   108  H   1.0    0.05    1.00    1.43   124.56884    94.20473   390.15282
   109  N   5.0   -0.13    3.41    2.03   122.73014    98.53409   400.11923
   110  C   4.0    0.04    4.29    4.17   121.88165    97.89914   402.68926
   111  C   4.0    0.10    3.24    3.04   119.93713    99.81343   403.63790
   112  O   6.0   -0.28    1.11    1.80   117.93213    99.11613   404.59599
   113  C   4.0   -0.04    4.25    4.10   124.07941    97.73852   404.57899
   114  C   4.0   -0.05    4.13    3.87   125.14710    95.10991   405.02307
   115  C   4.0   -0.05    4.11    3.81   127.09730    95.02298   407.22460
   116  C   4.0   -0.04    4.07    3.74   129.08907    92.88570   407.03752
   117  N   5.0   -0.12    3.97    2.78   130.71612    92.93294   404.68670
   118  H   1.0    0.10    1.06    1.44   124.64443    98.67204   399.94727
   119  H   1.0    0.05    1.06    1.44   121.03317    96.02453   402.58722
   120  H   1.0    0.06    1.04    1.43   125.61953    98.91393   403.87979
   121  H   1.0    0.05    1.04    1.43   123.42178    98.44716   406.39690
   122  H   1.0    0.04    1.03    1.43   123.60319    93.82867   405.49173
   123  H   1.0    0.05    1.03    1.43   126.09574    94.47307   403.30909
   124  H   1.0    0.04    1.03    1.43   128.11775    96.81255   407.26429
   125  H   1.0    0.04    1.02    1.43   126.07496    94.75653   408.99339
   126  H   1.0    0.04    1.02    1.43   130.35141    93.02743   408.65891
   127  H   1.0    0.04    1.02    1.43   128.10641    91.07534   407.06587
   128  H   1.0    0.06    1.01    1.43   131.99169    91.43817   404.72072
   129  H   1.0    0.06    1.01    1.43   129.58796    92.77232   403.08610
   130  H   1.0    0.06    1.01    1.43   131.71579    94.62236   404.59599
   131  N   5.0   -0.19    3.30    1.98   116.46192   104.17681   400.86001
   132  C   4.0    0.03    4.49    4.53   114.20559   104.25051   399.41626
   133  C   4.0    0.16    3.52    3.12   112.61255   101.96394   399.96617
   134  O   6.0   -0.32    1.31    1.80   110.33921   102.17181   400.23451
   135  C   4.0   -0.02    4.42    4.41   114.86699   104.42626   396.63269
   136  C   4.0   -0.05    4.24    4.08   115.51895   107.17203   396.07711
   137  C   4.0   -0.08    4.17    3.94   112.70515   103.47194   394.98863
   138  C   4.0   -0.08    4.04    3.68   116.36554   107.60289   393.39748
   139  H   1.0    0.12    1.06    1.44   118.06630   104.03697   399.79987
   140  H   1.0    0.05    1.07    1.44   113.11522   105.91725   399.94160
   141  H   1.0    0.06    1.06    1.44   116.48271   103.22439   396.19616
   142  H   1.0    0.04    1.03    1.43   113.85032   108.33421   396.40970
   143  H   1.0    0.05    1.03    1.43   117.04774   107.75973   397.32622
   144  H   1.0    0.03    1.00    1.43   113.24939   103.62690   393.00820
   145  H   1.0    0.05    1.01    1.43   112.32153   101.50285   395.46106
   146  H   1.0    0.04    1.00    1.43   111.03274   104.61901   395.34768
   147  H   1.0    0.03    1.00    1.43   116.79640   109.60033   393.14426
   148  H   1.0    0.04    1.00    1.43   118.04740   106.46905   393.03465
   149  H   1.0    0.03    1.00    1.43   114.85187   107.04353   392.11813
   150  N   5.0   -0.14    3.49    2.07   113.82197    99.78887   400.13813
   151  C   4.0    0.05    4.30    4.20   112.49728    97.47017   400.75607
   152  C   4.0    0.10    3.19    3.04   111.21226    97.64214   403.39035
   153  O   6.0   -0.27    1.10    1.80   109.13545    96.61413   403.81176
   154  C   4.0    0.04    4.16    3.92   114.34543    95.26109   400.57844
   155  O   6.0   -0.24    2.08    1.84   113.00561    92.98586   400.55009
   156  H   1.0    0.12    1.11    1.44   115.71548    99.56399   399.86223
   157  H   1.0    0.05    1.06    1.44   110.98927    97.11869   399.39736
   158  H   1.0    0.05    1.02    1.43   115.44147    95.42738   398.84178
   159  H   1.0    0.06    1.02    1.43   115.60210    95.29132   402.21116
   160  H   1.0    0.11    1.01    1.43   114.18102    91.55911   400.43482
   161  N   5.0   -0.19    3.24    1.96   105.29175   102.03764   402.71950
   162  C   4.0    0.04    4.33    4.25   103.14880   100.74885   401.52708
   163  C   4.0    0.09    3.20    3.04   101.80332    98.94794   403.31287
   164  O   6.0   -0.27    1.12    1.80    99.50541    98.91582   403.45649
   165  C   4.0   -0.03    4.11    3.82   103.97650    99.34100   399.17248
   166  S   6.0   -0.07    2.39    3.10   105.20860   101.51608   396.86324
   167  H   1.0    0.12    1.06    1.44   107.01518   101.53120   402.02030
   168  H   1.0    0.05    1.07    1.44   101.80710   102.21150   400.97528
   169  H   1.0    0.06    1.07    1.44   105.45427    97.98985   399.66003
   170  H   1.0    0.05    1.07    1.44   102.36268    98.35646   398.35423
   171  H   1.0    0.07    1.00    1.43   107.13990   102.69338   397.82322
   172  N   5.0   -0.14    3.45    2.04   102.38724    92.61736   392.26175
   173  C   4.0    0.04    4.51    4.55   104.10311    91.60636   390.37203
   174  C   4.0    0.15    3.42    3.08   106.41047    90.26465   391.43216
   175  O   6.0   -0.28    1.25    1.80   107.02652    90.51976   393.65448
   176  C   4.0   -0.04    4.38    4.35   104.96105    93.95717   388.93962
   177  C   4.0   -0.05    4.30    4.20   104.54153    96.11335   390.68950
   178  C   4.0    0.00    4.25    4.11   103.22439    95.15337   393.01953
   179  H   1.0    0.05    1.05    1.44   103.05431    90.29866   389.17583
   180  H   1.0    0.05    1.04    1.43   106.95660    93.78521   388.45585
   181  H   1.0    0.05    1.03    1.43   103.83666    94.17638   387.22752
   182  H   1.0    0.04    1.03    1.43   106.36323    96.93160   391.19406
   183  H   1.0    0.03    1.03    1.43   103.37368    97.52309   389.74653
   184  H   1.0    0.05    1.02    1.43   104.52641    95.05322   394.61257
   185  H   1.0    0.04    1.02    1.43   101.61623    96.34579   393.49952
   186  N   5.0   -0.13    3.48    2.07   107.68603    88.86625   389.79377
   187  C   4.0    0.04    4.41    4.40   109.85922    87.38093   390.55155
   188  C   4.0    0.16    3.48    3.11   112.25917    88.93239   390.29077
   189  O   6.0   -0.31    1.30    1.80   112.47460    90.63315   388.72797
   190  C   4.0    0.03    4.15    3.90   110.07276    84.96775   388.96796
   191  O   6.0   -0.26    2.08    1.84   111.57509    85.32869   386.76454
   192  H   1.0    0.11    1.11    1.45   107.25518    88.72641   387.92105
   193  H   1.0    0.05    1.06    1.44   109.64190    86.82346   392.52254
   194  H   1.0    0.04    1.01    1.43   110.93825    83.49565   390.12069
   195  H   1.0    0.05    1.02    1.43   108.18303    84.38949   388.38971
   196  H   1.0    0.11    1.01    1.43   111.67147    83.75076   385.79889
   197  N   5.0   -0.15    3.51    2.09   114.12622    88.21241   391.76476
   198  C   4.0    0.03    4.41    4.40   116.51483    89.50876   391.81578
   199  C   4.0    0.16    3.44    3.09   117.72615    89.32357   389.20229
   200  O   6.0   -0.31    1.27    1.80   118.78628    91.16227   388.32356
   201  C   4.0   -0.05    4.23    4.05   118.21559    88.40894   393.91148
   202  C   4.0   -0.05    4.13    3.86   117.49371    89.10058   396.65915
   203  C   4.0   -0.05    4.11    3.82   116.71514    86.84803   398.36368
   204  C   4.0   -0.03    4.13    3.86   113.86355    86.34914   398.21061
   205  N   5.0   -0.12    3.98    2.81   112.83365    83.89249   399.03075
   206  H   1.0    0.07    1.07    1.44   114.04118    86.71008   392.96851
   207  H   1.0    0.05    1.06    1.44   116.26728    91.49864   392.28443
   208  H   1.0    0.04    1.03    1.43   118.16078    86.35481   393.76975
   209  H   1.0    0.05    1.03    1.43   120.13555    89.08546   393.59968
   210  H   1.0    0.04    1.03    1.43   119.11510    90.00765   397.54732
   211  H   1.0    0.04    1.03    1.43   115.90067    90.40449   396.60434
   212  H   1.0    0.04    1.03    1.43   117.70536    85.14916   397.74763
   213  H   1.0    0.04    1.02    1.43   117.19513    87.27321   400.32143
   214  H   1.0    0.05    1.03    1.43   112.93002    87.77399   399.36901
   215  H   1.0    0.04    1.04    1.43   113.30797    86.57024   396.23963
   216  H   1.0    0.06    1.02    1.43   110.88156    83.87171   398.80210
   217  H   1.0    0.05    1.02    1.43   113.61788    82.44307   397.95928
   218  H   1.0    0.06    1.02    1.43   113.25695    83.58447   400.92615
   219  N   5.0   -0.14    3.44    2.04   117.51828    87.13715   387.95129
   220  C   4.0    0.03    4.30    4.19   118.28551    86.83480   385.27544
   221  C   4.0    0.16    3.38    3.07   117.11010    88.98719   383.68996
   222  O   6.0   -0.30    1.24    1.80   118.48393    90.39504   382.42195
   223  C   4.0   -0.05    4.14    3.89   117.56930    84.10036   384.32301
   224  C   4.0   -0.05    4.08    3.77   117.85654    83.24432   381.49787
   225  C   4.0   -0.05    4.12    3.85   120.47570    83.40494   380.21097
   226  C   4.0   -0.04    4.11    3.82   122.48448    81.58703   381.19552
   227  N   5.0   -0.12    4.00    2.87   122.18779    79.01700   380.11082
   228  H   1.0    0.07    1.06    1.44   116.82286    85.51577   388.72608
   229  H   1.0    0.05    1.05    1.44   120.33019    86.96708   385.05623
   230  H   1.0    0.04    1.03    1.43   118.72203    82.78322   385.40772
   231  H   1.0    0.04    1.03    1.43   115.57753    83.82824   384.77277
   232  H   1.0    0.04    1.03    1.43   117.28206    81.26955   381.39016
   233  H   1.0    0.04    1.03    1.43   116.58853    84.40839   380.36782
   234  H   1.0    0.04    1.03    1.43   120.23381    83.00999   378.20408
   235  H   1.0    0.05    1.03    1.43   121.20513    85.31357   380.47175
   236  H   1.0    0.04    1.02    1.43   124.34964    82.29190   380.68151
   237  H   1.0    0.04    1.02    1.43   122.32574    81.44530   383.24398
   238  H   1.0    0.06    1.01    1.43   123.58052    77.82458   380.81757
   239  H   1.0    0.05    1.02    1.43   120.42468    78.28757   380.58325
   240  H   1.0    0.06    1.02    1.43   122.34464    79.09070   378.15306
   241  N   5.0   -0.14    3.44    2.04   114.60432    89.26498   383.87515
   242  C   4.0    0.03    4.34    4.27   113.12089    91.07912   382.34825
   243  C   4.0    0.15    3.36    3.07   113.89756    93.87025   382.77344
   244  O   6.0   -0.32    1.22    1.80   113.93158    95.43116   381.00088
   245  C   4.0   -0.04    4.27    4.13   110.27685    90.79944   382.92084
   246  C   4.0   -0.03    4.16    3.92   109.02585    88.31067   382.15361
   247  C   4.0    0.25    3.11    3.03   106.29331    88.10469   383.07580
   248  O   6.0   -0.31    1.27    1.80   105.62623    89.25554   385.02410
   249  O   6.0   -0.27    1.17    1.80   104.77019    86.78000   381.86259
   250  H   1.0    0.10    1.09    1.44   113.50450    88.24642   385.08646
   251  H   1.0    0.05    1.05    1.44   113.48749    90.61614   380.37538
   252  H   1.0    0.07    1.04    1.43   110.01418    90.99975   384.95418
   253  H   1.0    0.05    1.03    1.43   109.27718    92.30366   381.92873
   254  H   1.0    0.05    1.03    1.43   109.01829    88.16894   380.09948
   255  H   1.0    0.05    1.03    1.43   110.09165    86.74598   382.96430
   256  N   5.0   -0.14    3.47    2.06   114.48716    94.45039   385.15449
   257  C   4.0    0.03    4.47    4.50   115.26383    96.99018   385.97841
   258  C   4.0    0.15    3.45    3.09   117.84709    97.66293   384.92395
   259  O   6.0   -0.33    1.26    1.80   118.22315    99.74918   383.97720
   260  C   4.0   -0.03    4.32    4.24   115.30352    97.17727   388.89804
   261  C   4.0   -0.05    4.18    3.96   112.58798    96.86168   389.95629
   262  C   4.0   -0.08    4.12    3.84   116.45814    99.67737   389.76165
   263  C   4.0   -0.07    4.00    3.61   112.41224    96.13981   392.72852
   264  H   1.0    0.11    1.09    1.44   114.44936    93.18050   386.60391
   265  H   1.0    0.05    1.06    1.44   113.87300    98.32055   385.24331
   266  H   1.0    0.05    1.06    1.44   116.48271    95.65604   389.62937
   267  H   1.0    0.03    1.03    1.43   111.59210    98.64936   389.72574
   268  H   1.0    0.05    1.04    1.43   111.64123    95.38392   388.87725
   269  H   1.0    0.04    1.00    1.43   116.45436    99.74163   391.81956
   270  H   1.0    0.04    1.01    1.43   118.38944    99.80210   389.05867
   271  H   1.0    0.04    1.00    1.43   115.33564   101.23073   389.00765
   272  H   1.0    0.05    1.00    1.43   110.42803    95.97351   393.25386
   273  H   1.0    0.05    1.00    1.43   113.36655    94.33701   393.01386
   274  H   1.0    0.04    1.00    1.43   113.31931    97.60246   393.86046
   275  N   5.0   -0.14    3.38    2.01   119.61587    95.88092   385.13371
   276  C   4.0    0.01    4.24    4.07   122.11598    96.06611   383.93940
   277  C   4.0    0.16    3.33    3.06   122.00260    96.42894   381.09536
   278  O   6.0   -0.32    1.31    1.80   123.37454    98.01064   380.04279
   279  H   1.0    0.11    1.08    1.44   119.38344    94.25008   386.13526
   280  H   1.0    0.05    1.03    1.43   123.13076    97.66671   384.74820
   281  H   1.0    0.05    1.03    1.43   123.17234    94.34079   384.32113
   282  N   5.0   -0.13    3.46    2.05   120.33397    94.97574   379.87649
   283  C   4.0    0.04    4.34    4.28   119.93902    95.14959   377.13072
   284  C   4.0    0.16    3.44    3.09   119.19068    97.81033   376.39939
   285  O   6.0   -0.31    1.24    1.80   120.32452    98.93093   374.66841
   286  C   4.0   -0.07    4.11    3.81   117.94536    93.26176   376.24633
   287  H   1.0    0.11    1.09    1.44   119.22092    93.65482   380.73065
   288  H   1.0    0.05    1.06    1.44   121.70213    94.66204   376.18586
   289  H   1.0    0.05    1.00    1.43   117.70536    93.44506   374.20920
   290  H   1.0    0.05    1.00    1.43   118.57463    91.35502   376.70931
   291  H   1.0    0.06    1.00    1.43   116.16712    93.66616   377.20253
   292  N   5.0   -0.14    3.46    2.05   117.31041    98.80621   377.77134
   293  C   4.0    0.03    4.41    4.39   116.47893   101.42726   377.48032
   294  C   4.0    0.16    3.47    3.10   118.68802   103.25085   377.78078
   295  O   6.0   -0.32    1.26    1.80   119.22659   104.75318   376.06680
   296  C   4.0   -0.05    4.35    4.30   114.41724   102.08678   379.38894
   297  C   4.0   -0.04    4.08    3.76   113.49883   104.81365   379.18296
   298  S   6.0   -0.06    2.52    3.10   111.23872   105.70371   381.56779
   299  C   4.0   -0.07    3.89    3.45   113.26261   105.96260   384.24932
   300  H   1.0    0.11    1.08    1.44   116.32019    97.83489   379.10926
   301  H   1.0    0.05    1.06    1.44   115.66824   101.60301   375.59437
   302  H   1.0    0.05    1.03    1.43   112.79963   100.84900   379.07714
   303  H   1.0    0.06    1.04    1.43   115.15801   101.81088   381.29000
   304  H   1.0    0.04    1.08    1.44   115.12022   106.07221   379.35870
   305  H   1.0    0.04    1.07    1.44   112.60310   105.07065   377.34615
   306  H   1.0    0.03    1.04    1.43   112.13823   106.50495   385.88771
   307  H   1.0    0.04    1.04    1.43   114.16401   104.14280   384.58758
   308  H   1.0    0.03    1.04    1.43   114.69314   107.39691   383.87326
   309  N   5.0   -0.14    3.49    2.07   119.96169   103.07321   379.94074
   310  C   4.0    0.03    4.46    4.48   122.06874   104.74373   380.51900
   311  C   4.0    0.16    3.47    3.10   124.16066   104.63224   378.59904
   312  O   6.0   -0.32    1.24    1.80   125.18867   106.60889   377.89795
   313  C   4.0   -0.04    4.42    4.42   123.21202   104.09744   383.05879
   314  C   4.0   -0.03    4.20    4.00   121.86465   105.17459   385.35481
   315  C   4.0   -0.08    4.10    3.80   122.98336   104.10122   387.79255
   316  C   4.0   -0.08    4.12    3.84   122.05551   108.04319   385.33402
   317  H   1.0    0.11    1.09    1.44   119.57997   101.79198   381.32969
   318  H   1.0    0.04    1.07    1.44   121.27694   106.64479   380.54167
   319  H   1.0    0.06    1.04    1.43   123.21580   102.04709   383.25910
   320  H   1.0    0.04    1.04    1.44   125.14332   104.81176   383.09469
   321  H   1.0    0.04    1.06    1.44   119.87477   104.64357   385.29244
   322  H   1.0    0.04    1.00    1.43   121.98181   104.90814   389.40260
   323  H   1.0    0.04    1.00    1.43   122.76605   102.05276   387.78499
   324  H   1.0    0.04    1.00    1.43   124.98081   104.59633   387.88893
   325  H   1.0    0.04    1.00    1.43   121.08230   108.79152   386.98753
   326  H   1.0    0.04    1.00    1.43   124.04350   108.58365   385.38315
   327  H   1.0    0.03    1.00    1.43   121.17490   108.76129   383.61626
   328  N   5.0   -0.14    3.52    2.09   124.78427   102.32110   377.79590
   329  C   4.0    0.04    4.39    4.37   126.96313   101.86757   376.18208
   330  C   4.0    0.16    3.43    3.09   126.50203   103.05054   373.60260
   331  O   6.0   -0.31    1.25    1.80   128.15554   104.37712   372.58593
   332  C   4.0    0.03    4.15    3.90   127.51493    99.03109   375.97610
   333  O   6.0   -0.25    2.03    1.83   129.93756    98.60590   374.90462
   334  H   1.0    0.12    1.13    1.45   123.80729   100.72050   378.23810
   335  H   1.0    0.06    1.06    1.44   128.64120   102.72172   377.01544
   336  H   1.0    0.05    1.02    1.43   127.45824    98.19772   377.86015
   337  H   1.0    0.05    1.02    1.43   126.08818    98.15615   374.77612
   338  H   1.0    0.12    1.01    1.43   130.26637    96.78798   374.78368
   339  N   5.0   -0.14    3.47    2.06   124.23058   102.59133   372.60860
   340  C   4.0    0.03    4.38    4.35   123.30084   103.86123   370.35038
   341  C   4.0    0.16    3.46    3.10   123.43501   106.76763   370.52802
   342  O   6.0   -0.32    1.32    1.80   124.39310   108.06398   368.83860
   343  C   4.0   -0.04    4.38    4.34   120.57396   103.06943   369.88929
   344  C   4.0   -0.03    4.19    3.99   119.04140   104.42248   367.81815
   345  C   4.0   -0.07    4.11    3.82   119.99949   103.91981   365.15363
   346  C   4.0   -0.07    4.12    3.84   116.30129   103.55509   367.95610
   347  H   1.0    0.11    1.09    1.44   122.97203   101.32711   373.33993
   348  H   1.0    0.05    1.06    1.44   124.49892   103.28675   368.77624
   349  H   1.0    0.05    1.03    1.43   120.58719   101.07010   369.39040
   350  H   1.0    0.06    1.04    1.43   119.54406   103.34911   371.65051
   351  H   1.0    0.04    1.06    1.44   119.22848   106.44448   368.16019
   352  H   1.0    0.04    1.00    1.43   118.81652   104.94215   363.81193
   353  H   1.0    0.05    1.00    1.43   121.94968   104.56988   365.00813
   354  H   1.0    0.05    1.00    1.43   119.90311   101.89780   364.77758
   355  H   1.0    0.04    1.00    1.43   115.22037   104.51507   366.48967
   356  H   1.0    0.05    1.00    1.43   116.22759   101.51797   367.66508
   357  H   1.0    0.04    1.00    1.43   115.54162   104.02752   369.81181
   358  N   5.0   -0.14    3.50    2.08   122.43534   107.78241   372.57081
   359  C   4.0    0.04    4.42    4.42   122.44101   110.49606   372.91663
   360  C   4.0    0.16    3.41    3.08   125.09797   111.64879   372.90718
   361  O   6.0   -0.31    1.23    1.80   125.40221   113.81064   372.00956
   362  C   4.0   -0.05    4.34    4.27   121.01427   111.18203   375.32792
   363  C   4.0   -0.02    4.18    3.96   118.12110   110.76440   375.35060
   364  C   4.0   -0.08    4.11    3.82   117.04585   110.97983   378.00566
   365  C   4.0   -0.08    4.10    3.81   116.69625   112.61255   373.66685
   366  H   1.0    0.11    1.09    1.44   121.61520   106.79219   374.00700
   367  H   1.0    0.05    1.07    1.44   121.44891   111.34076   371.32170
   368  H   1.0    0.05    1.04    1.43   121.79095   110.05008   376.86238
   369  H   1.0    0.04    1.03    1.43   121.32985   113.18325   375.69831
   370  H   1.0    0.05    1.06    1.44   117.83386   108.86144   374.61927
   371  H   1.0    0.03    1.00    1.43   115.01061   110.67369   377.93196
   372  H   1.0    0.04    1.00    1.43   117.92646   109.55497   379.20375
   373  H   1.0    0.03    1.00    1.43   117.44647   112.86199   378.74076
   374  H   1.0    0.03    1.00    1.43   114.67991   112.20437   373.77834
   375  H   1.0    0.03    1.00    1.43   117.06285   114.53251   374.31881
   376  H   1.0    0.04    1.00    1.43   117.35009   112.39334   371.72610
   377  N   5.0   -0.13    3.46    2.05   126.95179   110.24283   373.89551
   378  C   4.0    0.04    4.40    4.39   129.60685   111.03085   373.79346
   379  C   4.0    0.16    3.42    3.08   130.48936   110.96471   371.07604
   380  O   6.0   -0.28    1.25    1.80   131.47768   112.86199   370.15574
   381  C   4.0   -0.05    4.27    4.15   131.34918   109.36411   375.41863
   382  C   4.0   -0.03    4.20    4.00   131.00714   109.56820   378.29290
   383  C   4.0    0.16    3.22    3.04   131.55705   112.16846   379.39461
   384  O   6.0   -0.30    1.22    1.80   130.23424   113.03018   381.07269
   385  N   5.0   -0.16    3.25    1.97   133.49591   113.41757   378.44975
   386  H   1.0    0.11    1.08    1.44   126.67967   108.55153   374.77801
   387  H   1.0    0.08    1.06    1.44   129.73347   112.93002   374.58148
   388  H   1.0    0.06    1.03    1.43   131.01470   107.39691   374.90651
   389  H   1.0    0.05    1.04    1.43   133.29938   109.87812   375.00289
   390  H   1.0    0.06    1.03    1.43   129.05505   109.10144   378.75399
   391  H   1.0    0.04    1.03    1.43   132.28460   108.23027   379.19997
   392  H   1.0    0.09    1.03    1.43   134.55227   112.63334   377.04190
   393  H   1.0    0.13    1.05    1.44   133.93811   115.16746   379.12816
   394  N   5.0   -0.14    3.44    2.04   130.05283   108.81609   369.80236
   395  C   4.0    0.04    4.42    4.41   130.77282   108.43247   367.09627
   396  C   4.0    0.16    3.44    3.09   129.75047   110.43936   365.36717
   397  O   6.0   -0.27    1.23    1.80   131.13564   111.51462   363.85350
   398  C   4.0   -0.04    4.27    4.14   129.96968   105.82654   366.10984
   399  C   4.0   -0.05    4.24    4.09   131.69878   103.82721   367.17753
   400  C   4.0   -0.05    4.16    3.93   130.96935   101.11924   366.60872
   401  C   4.0   -0.03    4.14    3.89   132.54349    99.36935   368.29247
   402  N   5.0   -0.12    4.00    2.85   133.24458    96.97507   367.00935
   403  H   1.0    0.11    1.09    1.44   129.19678   107.27029   370.57337
   404  H   1.0    0.06    1.06    1.44   132.83073   108.53263   367.06415
   405  H   1.0    0.06    1.03    1.43   128.03838   105.42214   366.70132
   406  H   1.0    0.05    1.03    1.43   130.09818   105.79064   364.05381
   407  H   1.0    0.04    1.04    1.43   133.58473   104.12390   366.40652
   408  H   1.0    0.06    1.04    1.43   131.73469   104.02941   369.22788
   409  H   1.0    0.05    1.03    1.43   128.97191   100.82633   367.01501
   410  H   1.0    0.04    1.03    1.43   131.35863   100.68271   364.63396
   411  H   1.0    0.04    1.03    1.43   134.28015   100.33689   368.82915
   412  H   1.0    0.05    1.02    1.43   131.45312    98.89503   369.97433
   413  H   1.0    0.06    1.01    1.43   134.30849    95.85068   368.22066
   414  H   1.0    0.06    1.02    1.43   131.62508    95.99430   366.48589
   415  H   1.0    0.06    1.02    1.43   134.30471    97.36057   365.39930
   416  N   5.0   -0.14    3.52    2.09   127.34674   111.04030   365.72055
   417  C   4.0    0.05    4.42    4.42   126.10330   112.98482   364.20499
   418  C   4.0    0.16    3.39    3.08   126.90077   115.67202   364.83049
   419  O   6.0   -0.28    1.25    1.80   126.08441   117.39356   363.55682
   420  C   4.0   -0.04    4.27    4.15   123.21580   112.72026   364.40341
   421  C   4.0   -0.03    4.19    3.98   122.18212   110.20315   363.42643
   422  C   4.0    0.24    3.13    3.03   122.67156   109.83087   360.62018
   423  O   6.0   -0.27    1.18    1.80   121.76260   111.41257   359.11407
   424  O   6.0   -0.28    1.17    1.80   123.99815   107.98839   359.93043
   425  H   1.0    0.12    1.12    1.45   126.20157   110.22205   367.03769
   426  H   1.0    0.08    1.07    1.44   126.63809   112.66924   362.24157
   427  H   1.0    0.05    1.03    1.43   122.67345   112.89034   366.38385
   428  H   1.0    0.06    1.03    1.43   122.34086   114.22449   363.30170
   429  H   1.0    0.06    1.03    1.43   123.09108   108.66113   364.44499
   430  H   1.0    0.04    1.03    1.43   120.14689   110.14646   363.73445
   431  N   5.0   -0.12    3.41    2.03   128.45601   116.03673   366.77502
   432  C   4.0    0.03    4.25    4.10   129.57284   118.49338   367.34005
   433  C   4.0    0.16    3.30    3.05   127.89287   120.23381   368.87828
   434  O   6.0   -0.28    1.21    1.80   128.39554   122.51471   369.05025
   435  H   1.0    0.12    1.09    1.44   128.98513   114.65345   368.00712
   436  H   1.0    0.06    1.03    1.43   131.31706   118.20236   368.39640
   437  H   1.0    0.07    1.03    1.43   130.01315   119.44580   365.56748
   438  N   5.0   -0.13    3.48    2.06   125.93134   119.16045   370.04236
   439  C   4.0    0.04    4.44    4.44   124.12854   120.63821   371.54469
   440  C   4.0    0.15    3.44    3.09   125.10364   120.96325   374.18841
   441  O   6.0   -0.29    1.22    1.80   125.37198   123.10998   375.08226
   442  C   4.0   -0.05    4.42    4.41   121.56418   119.34942   371.69020
   443  C   4.0   -0.03    4.20    4.01   119.63099   120.25460   369.76457
   444  C   4.0   -0.07    4.11    3.82   119.90689   118.80518   367.29280
   445  C   4.0   -0.08    4.11    3.82   116.97971   119.93902   370.83604
   446  H   1.0    0.10    1.08    1.44   125.53638   117.27450   369.98377
   447  H   1.0    0.06    1.06    1.44   123.88098   122.45802   370.61305
   448  H   1.0    0.05    1.04    1.43   121.83441   117.32930   371.39162
   449  H   1.0    0.04    1.05    1.44   120.77428   119.68390   373.56292
   450  H   1.0    0.04    1.06    1.44   119.94469   122.24826   369.35639
   451  H   1.0    0.04    1.00    1.43   118.50282   119.49115   365.95299
   452  H   1.0    0.06    1.00    1.43   121.80040   119.11132   366.54447
   453  H   1.0    0.04    1.00    1.43   119.61020   116.80018   367.65563
   454  H   1.0    0.04    1.00    1.43   115.61154   120.59286   369.44142
   455  H   1.0    0.03    1.00    1.43   116.65845   117.94725   371.25556
   456  H   1.0    0.04    1.00    1.43   116.81530   121.05584   372.55947
   457  N   5.0   -0.14    3.46    2.05   125.61575   118.82408   375.43185
   458  C   4.0    0.03    4.44    4.45   126.82518   118.83164   377.92629
   459  C   4.0    0.16    3.45    3.10   129.68622   118.81463   377.81291
   460  O   6.0   -0.28    1.31    1.80   130.81250   117.01939   376.83592
   461  C   4.0   -0.03    4.48    4.51   126.09952   116.51672   379.39461
   462  C   4.0   -0.03    4.22    4.05   123.41800   116.30507   380.31113
   463  C   4.0   -0.08    4.14    3.88   123.25926   113.89756   381.85503
   464  C   4.0   -0.07    4.13    3.86   122.66211   118.57463   381.88527
   465  H   1.0    0.09    1.07    1.44   125.21702   117.06096   374.76289
   466  H   1.0    0.05    1.07    1.44   126.20157   120.58341   378.81446
   467  H   1.0    0.06    1.04    1.43   126.44534   114.88022   378.19274
   468  H   1.0    0.07    1.05    1.44   127.30328   116.43168   381.06324
   469  H   1.0    0.03    1.06    1.44   122.10275   116.24838   378.72754
   470  H   1.0    0.03    1.00    1.43   121.33552   113.67646   382.55612
   471  H   1.0    0.05    1.00    1.43   123.75815   112.29885   380.65695
   472  H   1.0    0.05    1.00    1.43   124.57262   114.02795   383.43673
   473  H   1.0    0.04    1.00    1.43   120.71191   118.34031   382.50699
   474  H   1.0    0.05    1.00    1.43   123.90933   118.70314   383.51988
   475  H   1.0    0.05    1.00    1.43   122.83408   120.27539   380.73632
   476  N   5.0   -0.14    3.49    2.07   130.86163   120.77616   378.85415
   477  C   4.0    0.04    4.49    4.53   133.60362   120.84986   378.93919
   478  C   4.0    0.15    3.44    3.09   134.55605   119.33997   381.15583
   479  O   6.0   -0.29    1.23    1.80   136.47223   118.03795   380.94418
   480  C   4.0   -0.04    4.42    4.42   134.55983   123.52572   379.06013
   481  C   4.0   -0.04    4.11    3.82   134.86596   124.63310   376.46553
   482  S   6.0   -0.03    2.55    3.10   135.21367   127.99870   376.68852
   483  C   4.0   -0.06    3.90    3.46   134.30282   128.79049   373.51378
   484  H   1.0    0.09    1.06    1.44   129.98480   122.30495   379.63460
   485  H   1.0    0.06    1.08    1.44   134.34062   120.05618   377.18741
   486  H   1.0    0.06    1.06    1.44   133.21623   124.68412   380.10704
   487  H   1.0    0.06    1.04    1.43   136.39286   123.55217   379.99932
   488  H   1.0    0.04    1.07    1.44   136.54782   123.85075   375.56980
   489  H   1.0    0.06    1.07    1.44   133.20111   124.21169   375.32792
   490  H   1.0    0.04    1.04    1.43   134.39920   130.83518   373.27757
   491  H   1.0    0.04    1.04    1.43   135.59162   127.87020   372.19664
   492  H   1.0    0.06    1.04    1.43   132.37719   128.13665   373.18497
   493  N   5.0   -0.11    3.54    2.11   133.21245   119.53839   383.26855
   494  C   4.0    0.04    4.38    4.34   133.71701   118.04551   385.51732
   495  C   4.0    0.15    3.51    3.12   131.18289   116.96459   386.37715
   496  O   6.0   -0.30    1.33    1.80   129.26670   118.20992   386.20518
   497  C   4.0    0.04    4.10    3.81   135.05115   119.67823   387.55445
   498  O   6.0   -0.22    2.03    1.83   135.44233   122.24070   386.76454
   499  H   1.0    0.12    1.08    1.44   131.72713   120.74782   383.48020
   500  H   1.0    0.05    1.07    1.44   134.99635   116.46759   385.18095
   501  H   1.0    0.07    1.02    1.43   133.88141   119.68957   389.24953
   502  H   1.0    0.05    1.01    1.43   136.88419   118.83542   387.96830
   503  H   1.0    0.13    1.00    1.43   136.28704   123.19501   388.10814
   504  N   5.0   -0.10    3.63    2.19   131.12997   114.63267   387.25965
   505  C   4.0    0.04    4.55    4.61   128.60341   113.55552   387.80011
   506  C   4.0    0.15    3.37    3.07   127.05006   114.78951   389.94306
   507  O   6.0   -0.32    1.23    1.80   124.77671   114.40023   390.03944
   508  C   4.0   -0.05    4.31    4.22   129.12686   110.74550   388.39915
   509  C   4.0   -0.05    4.27    4.14   131.91043   110.36944   388.20073
   510  C   4.0   -0.01    4.31    4.21   133.20867   112.88089   387.79255
   511  H   1.0    0.06    1.06    1.44   127.51304   113.72749   386.06156
   512  H   1.0    0.04    1.03    1.43   128.47491   110.31842   390.30589
   513  H   1.0    0.04    1.02    1.43   128.13854   109.55875   387.03477
   514  H   1.0    0.04    1.03    1.43   132.58506   109.51151   389.94873
   515  H   1.0    0.04    1.03    1.43   132.29404   109.12034   386.60958
   516  H   1.0    0.05    1.02    1.43   134.22723   113.45726   389.48764
   517  H   1.0    0.04    1.02    1.43   134.50124   112.77884   386.19195
   518  N   5.0   -0.14    3.44    2.04   128.24814   116.21248   391.64381
   519  C   4.0    0.04    4.38    4.34   126.86864   117.71859   393.51653
   520  C   4.0    0.17    3.45    3.09   125.38899   119.93524   392.37514
   521  O   6.0   -0.30    1.28    1.80   123.56351   120.78750   393.50519
   522  C   4.0    0.04    4.17    3.94   128.68656   118.81085   395.44972
   523  O   6.0   -0.22    2.04    1.83   130.31361   120.66467   394.34801
   524  H   1.0    0.09    1.06    1.44   130.16432   116.36743   391.77987
   525  H   1.0    0.05    1.06    1.44   125.53638   116.42980   394.41415
   526  H   1.0    0.05    1.02    1.43   127.59808   119.69524   396.95961
   527  H   1.0    0.06    1.02    1.43   129.83929   117.28395   396.21317
   528  H   1.0    0.14    1.00    1.43   131.46634   121.33930   395.63114
   529  N   5.0   -0.12    3.48    2.06   126.16944   120.88955   390.17361
   530  C   4.0    0.05    4.41    4.40   124.84286   123.00982   388.93773
   531  C   4.0    0.15    3.39    3.08   122.02338   122.47314   388.45018
   532  O   6.0   -0.28    1.19    1.80   120.53617   124.23436   387.87192
   533  C   4.0   -0.02    4.31    4.21   126.04283   123.65044   386.37148
   534  C   4.0    0.26    3.15    3.03   128.76593   124.39877   386.54344
   535  O   6.0   -0.26    1.20    1.80   129.63142   125.03750   388.64482
   536  O   6.0   -0.29    1.19    1.80   130.02070   124.30995   384.52711
   537  H   1.0    0.11    1.08    1.44   127.70201   120.25082   389.19284
   538  H   1.0    0.08    1.05    1.44   125.02994   124.61987   390.20762
   539  H   1.0    0.06    1.03    1.43   125.92189   121.99504   385.15071
   540  H   1.0    0.07    1.03    1.43   125.01104   125.22269   385.53055
   541  N   5.0   -0.14    3.50    2.08   121.35253   120.04295   388.57301
   542  C   4.0    0.03    4.42    4.41   118.76928   119.14155   388.21018
   543  C   4.0    0.16    3.46    3.10   117.01372   119.77272   390.37392
   544  O   6.0   -0.31    1.29    1.80   114.75928   119.94280   390.02432
   545  C   4.0   -0.05    4.42    4.41   118.81652   116.29940   387.81145
   546  C   4.0   -0.02    4.24    4.08   116.30696   114.97849   387.41839
   547  C   4.0   -0.09    4.15    3.89   116.50349   112.90735   385.47764
   548  C   4.0   -0.08    4.16    3.92   115.42635   113.78229   389.84479
   549  H   1.0    0.09    1.08    1.44   122.59219   118.61054   388.93206
   550  H   1.0    0.06    1.06    1.44   118.00961   120.07697   386.53966
   551  H   1.0    0.04    1.04    1.43   119.95980   115.91768   386.14093
   552  H   1.0    0.05    1.05    1.44   119.68579   115.44525   389.47063
   553  H   1.0    0.05    1.06    1.44   114.96337   116.39956   386.77399
   554  H   1.0    0.03    1.00    1.43   114.65912   112.01540   385.26032
   555  H   1.0    0.03    1.00    1.43   117.10443   113.72371   383.68429
   556  H   1.0    0.03    1.00    1.43   117.88488   111.51840   386.11636
   557  H   1.0    0.03    1.00    1.43   113.62166   112.84499   389.51409
   558  H   1.0    0.03    1.00    1.43   116.82853   112.40657   390.46273
   559  H   1.0    0.05    1.00    1.43   115.20525   115.24872   391.27343
   560  N   5.0   -0.14    3.51    2.09   118.02283   120.05996   392.62647
   561  C   4.0    0.04    4.42    4.41   116.51105   120.95002   394.75241
   562  C   4.0    0.16    3.42    3.08   115.61343   123.70335   394.42171
   563  O   6.0   -0.29    1.23    1.80   113.64623   124.40822   395.41760
   564  C   4.0   -0.03    4.34    4.28   118.04362   120.85931   397.19961
   565  C   4.0   -0.01    3.54    3.13   119.27383   118.37621   397.86668
   566  C   4.0   -0.04    3.47    3.10   117.99638   116.10098   397.60023
   567  C   4.0   -0.03    3.47    3.10   121.71536   118.31952   398.82477
   568  C   4.0   -0.04    3.42    3.08   119.13588   113.81441   398.26919
   569  C   4.0   -0.04    3.44    3.09   122.87565   116.06886   399.47862
   570  C   4.0    0.07    3.45    3.09   121.58308   113.82575   399.21595
   571  O   6.0   -0.25    2.11    1.84   122.72636   111.60910   399.88491
   572  H   1.0    0.10    1.09    1.44   119.86721   119.70091   393.05922
   573  H   1.0    0.05    1.06    1.44   114.88211   119.69524   394.87524
   574  H   1.0    0.06    1.04    1.43   119.55162   122.25582   397.05599
   575  H   1.0    0.05    1.03    1.43   116.78317   121.34119   398.75674
   576  H   1.0    0.05    1.03    1.43   116.09342   116.09720   396.86513
   577  H   1.0    0.06    1.03    1.43   122.73203   120.07319   399.06477
   578  H   1.0    0.05    1.03    1.43   118.12299   112.05508   398.05187
   579  H   1.0    0.05    1.03    1.43   124.78805   116.07264   400.19293
   580  H   1.0    0.11    1.03    1.43   124.43656   111.94359   400.51230
   581  N   5.0   -0.11    3.47    2.06   117.10065   125.26426   393.11591
   582  C   4.0    0.05    4.30    4.20   116.49594   127.92689   392.85135
   583  C   4.0    0.09    3.23    3.04   114.22637   128.14043   391.08634
   584  O   6.0   -0.29    1.25    1.80   114.21693   126.93856   389.11536
   585  C   4.0    0.04    4.15    3.90   118.76361   129.44623   391.84601
   586  O   6.0   -0.23    2.01    1.83   120.80262   129.53127   393.61480
   587  H   1.0    0.11    1.06    1.44   118.72770   124.73514   392.22774
   588  H   1.0    0.06    1.06    1.44   116.03295   128.74703   394.68438
   589  H   1.0    0.07    1.02    1.43   119.43257   128.55995   390.11125
   590  H   1.0    0.04    1.02    1.43   118.14567   131.37375   391.46051
   591  H   1.0    0.13    1.01    1.43   122.20858   130.51014   392.91371
   592  N   5.0   -0.20    3.11    1.94   112.35177   132.68144   387.40138
   593  C   4.0    0.02    4.14    3.87   113.10577   133.70756   384.93151
   594  C   4.0    0.15    3.30    3.05   113.11333   131.76492   382.78856
   595  O   6.0   -0.29    1.21    1.80   112.45759   132.31672   380.59648
   596  H   1.0    0.08    1.02    1.43   113.41001   133.32772   388.87725
   597  H   1.0    0.06    1.03    1.43   111.80375   135.21745   384.41183
   598  H   1.0    0.06    1.03    1.43   115.00683   134.48613   385.08646
   599  N   5.0   -0.14    3.51    2.08   113.83898   129.46135   383.44807
   600  C   4.0    0.03    4.41    4.40   114.18669   127.47146   381.61504
   601  C   4.0    0.15    3.42    3.08   111.79619   126.02582   380.90261
   602  O   6.0   -0.32    1.28    1.80   111.80375   124.65010   379.04879
   603  C   4.0    0.03    4.18    3.96   116.18602   125.64599   382.61848
   604  O   6.0   -0.23    2.08    1.84   115.43769   124.68223   384.98442
   605  H   1.0    0.10    1.09    1.44   114.20181   128.91899   385.26221
   606  H   1.0    0.05    1.07    1.44   114.84620   128.31995   379.85759
   607  H   1.0    0.05    1.02    1.43   116.40523   124.08696   381.29189
   608  H   1.0    0.05    1.01    1.43   117.97370   126.64943   382.83013
   609  H   1.0    0.16    1.10    1.44   115.22793   126.06740   386.19573
   610  N   5.0   -0.14    3.48    2.06   109.72883   126.35275   382.27644
   611  C   4.0    0.03    4.48    4.51   107.61044   124.57451   382.02511
   612  C   4.0    0.16    3.43    3.09   106.19504   124.86931   379.56657
   613  O   6.0   -0.32    1.29    1.80   105.76418   122.98903   378.27022
   614  C   4.0   -0.04    4.29    4.19   105.83410   124.79183   384.26443
   615  C   4.0   -0.02    3.68    3.22   107.07943   124.11531   386.73808
   616  C   4.0    0.00    3.62    3.18   109.37356   122.94179   387.09146
   617  C   4.0    0.00    3.88    3.44   106.06087   124.50081   389.20040
   618  N   5.0   -0.11    3.48    2.06   109.83843   122.60731   389.61992
   619  C   4.0    0.04    3.89    3.45   107.83910   123.54083   390.95784
   620  C   4.0   -0.05    3.40    3.08   103.81587   125.57040   390.10558
   621  C   4.0   -0.04    3.40    3.08   107.42903   123.61075   393.54488
   622  C   4.0   -0.03    3.36    3.07   103.40013   125.62709   392.67749
   623  C   4.0   -0.03    3.38    3.07   105.19159   124.64443   394.37258
   624  H   1.0    0.09    1.06    1.44   109.45104   127.77760   383.54445
   625  H   1.0    0.05    1.07    1.44   108.40980   122.67534   382.02511
   626  H   1.0    0.05    1.03    1.43   105.16325   126.73447   384.40049
   627  H   1.0    0.04    1.03    1.43   104.24295   123.51438   383.98286
   628  H   1.0    0.06    1.01    1.43   110.63023   122.36542   385.59102
   629  H   1.0    0.11    1.06    1.44   111.41635   121.79662   390.37581
   630  H   1.0    0.05    1.03    1.43   102.43448   126.33763   388.81300
   631  H   1.0    0.07    1.03    1.43   108.81042   122.88321   394.85824
   632  H   1.0    0.06    1.03    1.43   101.67293   126.43778   393.39937
   633  H   1.0    0.06    1.03    1.43   104.80231   124.70113   396.37569
   634  N   5.0   -0.14    3.45    2.04   105.51474   127.20501   378.90895
   635  C   4.0    0.04    4.44    4.44   104.21461   127.69634   376.50900
   636  C   4.0    0.15    3.45    3.10   105.75095   126.77227   374.22243
   637  O   6.0   -0.30    1.26    1.80   104.79475   125.23781   372.77679
   638  C   4.0   -0.03    4.25    4.10   103.35856   130.46668   376.29735
   639  C   4.0    0.25    3.12    3.03   100.85845   130.95234   377.64661
   640  O   6.0   -0.27    1.20    1.80    99.51864   129.11553   378.31558
   641  O   6.0   -0.26    1.17    1.80   100.19705   133.18033   378.03023
   642  H   1.0    0.08    1.06    1.44   105.82843   128.77915   379.97476
   643  H   1.0    0.08    1.08    1.44   102.46283   126.61353   376.53167
   644  H   1.0    0.05    1.03    1.43   104.78908   131.67988   377.14584
   645  H   1.0    0.05    1.03    1.43   103.11668   130.94667   374.30936
   646  N   5.0   -0.10    3.63    2.19   108.14146   127.60563   373.95409
   647  C   4.0    0.03    4.57    4.63   109.88189   126.65888   371.99633
   648  C   4.0    0.16    3.43    3.09   109.98394   123.79217   371.63728
   649  O   6.0   -0.31    1.25    1.80   109.93103   122.84541   369.51134
   650  C   4.0   -0.04    4.41    4.39   112.45381   127.55839   372.96387
   651  C   4.0   -0.04    4.30    4.21   111.88878   130.00181   374.19786
   652  C   4.0   -0.00    4.37    4.34   109.34143   129.65977   375.42052
   653  H   1.0    0.05    1.05    1.44   109.31876   127.55272   370.22755
   654  H   1.0    0.05    1.03    1.43   113.22104   126.20157   374.31125
   655  H   1.0    0.04    1.03    1.43   113.75961   127.80217   371.38973
   656  H   1.0    0.05    1.03    1.43   113.32875   130.42133   375.60949
   657  H   1.0    0.05    1.03    1.43   111.82831   131.50036   372.78624
   658  H   1.0    0.06    1.03    1.43   109.55308   129.11364   377.39528
   659  H   1.0    0.05    1.02    1.43   108.23405   131.39076   375.28446
   660  N   5.0   -0.14    3.54    2.11   110.17858   122.46369   373.73677
   661  C   4.0    0.03    4.56    4.61   110.34110   119.75004   373.75567
   662  C   4.0    0.16    3.59    3.16   107.97516   118.68613   372.65207
   663  O   6.0   -0.32    1.32    1.80   108.06587   117.12332   370.95698
   664  C   4.0   -0.02    4.40    4.38   110.60566   118.75227   376.47876
   665  C   4.0   -0.05    4.22    4.04   113.29852   119.18124   377.40662
   666  C   4.0   -0.08    4.15    3.91   109.94992   115.94414   376.67151
   667  C   4.0   -0.07    4.02    3.66   113.53285   119.20013   380.25255
   668  H   1.0    0.10    1.08    1.44   110.22960   123.23848   375.49988
   669  H   1.0    0.04    1.06    1.44   111.99272   119.19635   372.65585
   670  H   1.0    0.06    1.06    1.44   109.27151   119.79351   377.65417
   671  H   1.0    0.03    1.03    1.43   114.49850   117.67135   376.68474
   672  H   1.0    0.05    1.04    1.43   113.95992   121.00293   376.70742
   673  H   1.0    0.04    1.00    1.43   110.16724   115.33753   378.62738
   674  H   1.0    0.05    1.01    1.43   108.00162   115.66635   376.06113
   675  H   1.0    0.04    1.00    1.43   111.22549   114.87266   375.45831
   676  H   1.0    0.04    1.00    1.43   115.50383   119.51383   380.76088
   677  H   1.0    0.06    1.01    1.43   112.36122   120.71380   381.01222
   678  H   1.0    0.04    1.00    1.43   112.89790   117.38411   380.98954
   679  N   5.0   -0.14    3.54    2.10   105.84355   119.48359   373.68764
   680  C   4.0    0.03    4.49    4.53   103.42659   118.54818   372.81647
   681  C   4.0    0.16    3.47    3.10   103.23762   118.77872   369.90630
   682  O   6.0   -0.31    1.28    1.80   102.75763   116.90790   368.56081
   683  C   4.0    0.05    4.27    4.14   101.25530   119.99949   374.09015
   684  O   6.0   -0.26    2.16    1.85   101.46506   119.80674   376.76411
   685  C   4.0   -0.06    4.15    3.90    98.81377   118.89589   373.35316
   686  H   1.0    0.11    1.09    1.44   105.73017   120.76672   375.12194
   687  H   1.0    0.05    1.06    1.44   103.24707   116.56586   373.34560
   688  H   1.0    0.06    1.05    1.44   101.33844   121.97425   373.51378
   689  H   1.0    0.14    1.04    1.43   103.07699   120.52294   377.32536
   690  H   1.0    0.05    1.00    1.43    97.27364   119.92579   374.25456
   691  H   1.0    0.05    1.01    1.43    98.58133   119.00171   371.30847
   692  H   1.0    0.05    1.03    1.43    98.72873   116.92112   373.93519
   693  N   5.0   -0.14    3.48    2.06   103.67981   121.08041   368.97655
   694  C   4.0    0.04    4.37    4.32   103.64202   121.62465   366.27613
   695  C   4.0    0.16    3.46    3.10   105.20671   119.75760   364.77380
   696  O   6.0   -0.32    1.26    1.80   104.33177   118.69747   362.88218
   697  C   4.0   -0.07    4.14    3.88   104.63791   124.26460   365.81126
   698  H   1.0    0.11    1.09    1.44   104.07477   122.62432   370.05936
   699  H   1.0    0.05    1.06    1.44   101.68804   121.49426   365.63740
   700  H   1.0    0.05    1.00    1.43   104.60011   124.64821   363.78736
   701  H   1.0    0.05    1.00    1.43   103.44360   125.61575   366.80526
   702  H   1.0    0.06    1.00    1.43   106.57109   124.38554   366.51424
   703  N   5.0   -0.13    3.52    2.09   107.52352   119.37966   365.67142
   704  C   4.0    0.04    4.36    4.31   109.40379   117.93024   364.32216
   705  C   4.0    0.16    3.44    3.09   108.77263   115.11455   364.30893
   706  O   6.0   -0.31    1.25    1.80   108.95404   113.85788   362.34739
   707  C   4.0   -0.07    4.13    3.86   111.96437   118.40078   365.47489
   708  H   1.0    0.11    1.09    1.44   108.15469   120.06941   367.35706
   709  H   1.0    0.05    1.06    1.44   109.45293   118.55007   362.35873
   710  H   1.0    0.04    1.00    1.43   113.37411   117.30285   364.44877
   711  H   1.0    0.05    1.00    1.43   112.40279   120.40956   365.33883
   712  H   1.0    0.05    1.00    1.43   111.92658   117.82252   367.45154
   713  N   5.0   -0.14    3.51    2.08   107.99028   114.12244   366.46699
   714  C   4.0    0.04    4.44    4.45   107.18715   111.49950   366.57471
   715  C   4.0    0.15    3.42    3.08   104.73806   111.06108   365.13285
   716  O   6.0   -0.32    1.24    1.80   104.25618   108.94837   364.30704
   717  C   4.0   -0.05    4.37    4.32   106.89991   110.63779   369.30536
   718  C   4.0   -0.02    4.19    3.98   109.34332   110.24094   370.81525
   719  C   4.0   -0.08    4.11    3.82   108.72916   109.70237   373.56669
   720  C   4.0   -0.08    4.10    3.81   110.93636   108.09043   369.73622
   721  H   1.0    0.11    1.10    1.44   107.89012   115.06541   368.14507
   722  H   1.0    0.05    1.07    1.44   108.65357   110.34677   365.70166
   723  H   1.0    0.05    1.04    1.43   105.79631   112.05886   370.30692
   724  H   1.0    0.04    1.04    1.43   105.89457   108.83877   369.30158
   725  H   1.0    0.04    1.06    1.44   110.45826   111.96815   370.68864
   726  H   1.0    0.04    1.00    1.43   110.48661   109.42647   374.60415
   727  H   1.0    0.04    1.00    1.43   107.69548   111.30297   374.34904
   728  H   1.0    0.04    1.00    1.43   107.57454   107.99973   373.67441
   729  H   1.0    0.03    1.00    1.43   112.64467   107.88634   370.87006
   730  H   1.0    0.04    1.00    1.43   109.84032   106.34811   369.79669
   731  H   1.0    0.04    1.00    1.43   111.43525   108.53830   367.78791
   732  N   5.0   -0.13    3.48    2.06   103.19793   113.04341   364.85695
   733  C   4.0    0.04    4.39    4.36   100.93404   112.95459   363.25257
   734  C   4.0    0.15    3.43    3.09   101.62379   112.66924   360.48601
   735  O   6.0   -0.31    1.24    1.80   100.63736   110.99683   359.18021
   736  C   4.0    0.04    4.16    3.91    99.29187   115.31675   363.61162
   737  O   6.0   -0.24    2.04    1.83    98.09567   115.25817   365.99645
   738  H   1.0    0.12    1.10    1.44   103.46061   114.74794   365.71866
   739  H   1.0    0.06    1.06    1.44    99.82855   111.31809   363.84028
   740  H   1.0    0.07    1.02    1.43   100.48429   116.99293   363.49446
   741  H   1.0    0.05    1.02    1.43    97.85568   115.37155   362.13574
   742  H   1.0    0.13    1.03    1.43    99.36746   115.20525   367.34194
   743  N   5.0   -0.14    3.48    2.07   103.32266   114.30385   359.61107
   744  C   4.0    0.03    4.43    4.42   104.35067   114.13000   357.03726
   745  C   4.0    0.16    3.48    3.11   105.27852   111.47871   356.45712
   746  O   6.0   -0.32    1.32    1.80   104.77963   110.43181   354.43511
   747  C   4.0   -0.04    4.29    4.18   106.53141   116.00272   356.66688
   748  C   4.0   -0.03    4.22    4.04   105.66592   118.72392   356.46845
   749  C   4.0    0.15    3.22    3.04   104.42437   119.25871   353.93622
   750  O   6.0   -0.29    1.20    1.80   105.75284   119.52706   352.03705
   751  N   5.0   -0.19    3.15    1.95   101.86946   119.38344   353.87764
   752  H   1.0    0.11    1.09    1.44   104.03508   115.77784   360.62963
   753  H   1.0    0.05    1.06    1.44   102.84078   114.62133   355.72579
   754  H   1.0    0.06    1.03    1.43   107.81076   115.86099   358.27503
   755  H   1.0    0.05    1.03    1.43   107.52919   115.52840   354.92833
   756  H   1.0    0.05    1.04    1.43   104.29398   119.11132   357.95567
   757  H   1.0    0.06    1.03    1.43   107.29297   119.97114   356.66688
   758  H   1.0    0.08    1.02    1.43   100.85467   119.12265   355.49525
   759  H   1.0    0.10    1.02    1.43   100.96050   119.73871   352.21657
   760  N   5.0   -0.14    3.54    2.11   106.59755   110.39590   358.27881
   761  C   4.0    0.04    4.48    4.50   107.64824   107.92603   357.96134
   762  C   4.0    0.16    3.47    3.10   105.59789   105.93993   357.58528
   763  O   6.0   -0.31    1.26    1.80   105.83977   104.33366   355.94122
   764  C   4.0   -0.05    4.35    4.29   109.25073   107.29297   360.23090
   765  C   4.0   -0.04    4.25    4.09   110.77007   104.91569   359.91909
   766  C   4.0   -0.00    4.25    4.11   111.58832   103.94438   362.47022
   767  N   5.0   -0.13    3.42    2.03   112.71837   101.46128   362.25291
   768  C   4.0    0.09    3.35    3.06   114.97849   101.00774   361.23623
   769  N   5.0   -0.19    3.24    1.97   116.42980   102.86156   360.28192
   770  N   5.0   -0.18    3.24    1.96   115.79107    98.64369   361.14553
   771  H   1.0    0.10    1.08    1.44   106.96227   111.19714   359.99468
   772  H   1.0    0.05    1.07    1.44   108.83877   107.90902   356.28137
   773  H   1.0    0.05    1.04    1.43   110.56598   108.84255   360.56727
   774  H   1.0    0.06    1.04    1.43   108.02051   107.04542   361.86362
   775  H   1.0    0.06    1.04    1.43   109.62300   103.47383   358.99880
   776  H   1.0    0.04    1.03    1.43   112.44814   105.30687   358.79093
   777  H   1.0    0.04    1.03    1.43   112.98105   105.22750   363.27903
   778  H   1.0    0.05    1.03    1.43   109.94992   103.81021   363.71177
   779  H   1.0    0.11    1.08    1.44   111.71682    99.95705   362.92376
   780  H   1.0    0.08    1.03    1.43   115.81185   104.68704   360.32161
   781  H   1.0    0.09    1.02    1.43   118.14945   102.44393   359.51847
   782  H   1.0    0.09    1.03    1.43   114.69503    97.22073   361.84472
   783  H   1.0    0.08    1.03    1.43   117.51261    98.24496   360.37641
   784  N   5.0   -0.13    3.47    2.06   103.59478   106.04575   359.07817
   785  C   4.0    0.04    4.35    4.28   101.44427   104.32232   358.69833
   786  C   4.0    0.16    3.43    3.09   100.21973   104.53208   356.07161
   787  O   6.0   -0.30    1.24    1.80    99.31266   102.67259   354.98502
   788  C   4.0   -0.07    4.11    3.83    99.45628   104.76641   360.71089
   789  H   1.0    0.11    1.07    1.44   103.38124   107.27218   360.54837
   790  H   1.0    0.06    1.06    1.44   102.18126   102.40614   358.87219
   791  H   1.0    0.04    1.00    1.43    97.88402   103.47383   360.39719
   792  H   1.0    0.05    1.00    1.43   100.28965   104.42248   362.56282
   793  H   1.0    0.05    1.00    1.43    98.80054   106.71471   360.58617
   794  N   5.0   -0.13    3.53    2.10   100.17626   106.81109   355.07006
   795  C   4.0    0.04    4.52    4.57    98.99140   107.21738   352.65688
   796  C   4.0    0.16    3.45    3.09   100.70539   106.55787   350.48936
   797  O   6.0   -0.26    1.23    1.80   100.08178   104.93270   348.94735
   798  C   4.0   -0.04    4.46    4.48    98.12591   109.92725   352.46601
   799  C   4.0   -0.04    4.14    3.88    95.86391   110.33354   354.16110
   800  S   6.0   -0.02    2.55    3.10    94.28410   113.17002   353.30883
   801  C   4.0   -0.06    3.93    3.50    96.77287   115.22037   354.38409
   802  H   1.0    0.11    1.08    1.44   100.93593   108.38901   355.87697
   803  H   1.0    0.07    1.08    1.44    97.33789   105.99284   352.54349
   804  H   1.0    0.05    1.04    1.43    99.64147   111.18581   353.06695
   805  H   1.0    0.05    1.05    1.44    97.58734   110.35055   350.52338
   806  H   1.0    0.06    1.08    1.44    94.55244   108.75940   353.95701
   807  H   1.0    0.05    1.08    1.44    96.48374   110.48472   356.11886
   808  H   1.0    0.05    1.04    1.43    96.22296   117.17624   354.04772
   809  H   1.0    0.05    1.04    1.43    97.07333   114.91235   356.39853
   810  H   1.0    0.04    1.04    1.43    98.49630   114.78573   353.34285
   811  N   5.0   -0.14    3.52    2.09   102.87290   107.79942   350.41944
   812  C   4.0    0.04    4.52    4.57   104.60956   107.54430   348.31618
   813  C   4.0    0.16    3.44    3.09   105.64702   104.84766   348.05162
   814  O   6.0   -0.27    1.22    1.80   105.52230   103.74595   345.99937
   815  C   4.0   -0.03    4.36    4.30   106.76763   109.46804   348.50326
   816  C   4.0   -0.04    4.23    4.06   105.66403   112.12500   348.25193
   817  C   4.0   -0.07    4.15    3.90   108.68759   109.03908   346.40755
   818  C   4.0   -0.06    4.01    3.64   107.41958   114.23960   349.05695
   819  H   1.0    0.11    1.13    1.45   103.48517   109.00128   351.79516
   820  H   1.0    0.06    1.07    1.44   103.51541   107.94115   346.61731
   821  H   1.0    0.05    1.06    1.44   107.70871   109.24506   350.32118
   822  H   1.0    0.05    1.03    1.43   105.17459   112.44436   346.27716
   823  H   1.0    0.05    1.04    1.43   103.97461   112.24405   349.42356
   824  H   1.0    0.04    1.00    1.43   110.19748   110.42992   346.58519
   825  H   1.0    0.05    1.01    1.43   109.46049   107.13801   346.58519
   826  H   1.0    0.05    1.00    1.43   107.75028   109.25073   344.58586
   827  H   1.0    0.06    1.00    1.43   106.45771   116.04240   348.80562
   828  H   1.0    0.05    1.00    1.43   107.91658   113.98071   351.03927
   829  H   1.0    0.05    1.00    1.43   109.11845   114.18102   347.89288
   830  N   5.0   -0.14    3.51    2.09   106.62590   103.79509   350.11331
   831  C   4.0    0.04    4.45    4.46   107.85989   101.31577   350.05661
   832  C   4.0    0.16    3.43    3.09   106.20827    99.21817   351.03927
   833  O   6.0   -0.29    1.26    1.80   106.94337    97.05066   350.91266
   834  C   4.0   -0.04    4.38    4.35   110.29763   101.39891   351.58729
   835  C   4.0   -0.03    4.24    4.08   112.00784   103.58344   350.77849
   836  C   4.0   -0.08    4.10    3.80   113.94670   104.26752   352.77782
   837  C   4.0   -0.07    4.12    3.84   113.28340   102.95416   348.29728
   838  H   1.0    0.10    1.07    1.44   106.59755   104.60956   351.85941
   839  H   1.0    0.06    1.07    1.44   108.34366   100.86412   348.10642
   840  H   1.0    0.05    1.03    1.43   109.83654   101.64269   353.57906
   841  H   1.0    0.05    1.03    1.43   111.32754    99.63580   351.31328
   842  H   1.0    0.04    1.07    1.44   110.83243   105.25585   350.52716
   843  H   1.0    0.05    1.00    1.43   115.09943   105.82843   352.08807
   844  H   1.0    0.04    1.00    1.43   112.96593   104.82688   354.49936
   845  H   1.0    0.04    1.00    1.43   115.13533   102.62724   353.14821
   846  H   1.0    0.04    1.00    1.43   114.49472   104.52641   347.74737
   847  H   1.0    0.05    1.00    1.43   114.41346   101.24774   348.53727
   848  H   1.0    0.05    1.00    1.43   111.83965   102.64424   346.86109
   849  N   5.0   -0.12    3.43    2.03   103.99351    99.83800   352.02760
   850  C   4.0    0.03    4.28    4.16   102.27197    97.91993   352.96301
   851  C   4.0    0.16    3.32    3.06   103.20171    96.68783   355.36108
   852  O   6.0   -0.30    1.24    1.80   102.48929    94.54677   355.87130
   853  H   1.0    0.11    1.06    1.44   103.34155   101.64269   352.20523
   854  H   1.0    0.06    1.03    1.43   100.43893    98.77975   353.34474
   855  H   1.0    0.07    1.03    1.43   102.04142    96.45728   351.53060
   856  N   5.0   -0.13    3.44    2.04   104.77208    98.02197   356.82372
   857  C   4.0    0.03    4.42    4.41   105.78875    97.04310   359.22556
   858  C   4.0    0.14    3.39    3.08   104.85900    98.57944   361.48568
   859  O   6.0   -0.30    1.22    1.80   105.64513   100.76208   361.90898
   860  C   4.0   -0.04    4.29    4.17   108.66113    96.96373   359.16698
   861  C   4.0   -0.04    4.24    4.07   109.67402    94.67338   357.78559
   862  C   4.0   -0.05    4.21    4.01   112.02484    95.33478   356.26625
   863  C   4.0   -0.03    4.14    3.88   112.65223    93.28254   354.38976
   864  N   5.0   -0.12    4.03    2.95   112.90357    90.80511   355.71256
   865  H   1.0    0.10    1.06    1.44   105.38246    99.80021   356.39664
   866  H   1.0    0.06    1.08    1.44   105.03475    95.14203   359.46934
   867  H   1.0    0.05    1.04    1.43   109.35844    98.64747   358.20889
   868  H   1.0    0.05    1.03    1.43   109.36978    96.90893   361.10017
   869  H   1.0    0.04    1.03    1.43   110.17102    93.21451   359.15187
   870  H   1.0    0.06    1.04    1.43   108.23972    93.96473   356.48924
   871  H   1.0    0.04    1.03    1.43   111.69981    97.08467   355.23068
   872  H   1.0    0.04    1.03    1.43   113.62544    95.55777   357.54371
   873  H   1.0    0.05    1.02    1.43   111.14612    93.13514   352.99325
   874  H   1.0    0.04    1.02    1.43   114.43613    93.71718   353.45812
   875  H   1.0    0.06    1.01    1.43   113.33631    89.39160   354.41621
   876  H   1.0    0.06    1.01    1.43   114.33787    90.90149   357.05427
   877  H   1.0    0.06    1.02    1.43   111.21793    90.34969   356.61396
   878  N   5.0   -0.15    3.51    2.08   103.19604    97.35868   362.91620
   879  C   4.0    0.04    4.40    4.38   101.70883    98.56433   364.84372
   880  C   4.0    0.16    3.44    3.09   102.19071    97.51931   367.47800
   881  O   6.0   -0.31    1.26    1.80   100.96428    98.35835   369.27891
   882  C   4.0    0.03    4.18    3.96    98.92148    98.20906   364.17665
   883  O   6.0   -0.26    2.10    1.84    98.13725    95.69761   364.66987
   884  H   1.0    0.09    1.09    1.44   102.84078    95.47084   362.76124
   885  H   1.0    0.05    1.06    1.44   102.15292   100.57499   364.90608
   886  H   1.0    0.04    1.01    1.43    97.78954    99.49974   365.31426
   887  H   1.0    0.04    1.02    1.43    98.65314    98.61346   362.17543
   888  H   1.0    0.11    1.08    1.44    96.34768    95.49541   364.23523
   889  N   5.0   -0.14    3.40    2.02   103.91792    95.69950   367.71988
   890  C   4.0    0.02    4.27    4.14   104.34311    94.45039   370.13495
   891  C   4.0    0.16    3.35    3.07   105.33710    96.28532   372.09271
   892  O   6.0   -0.29    1.24    1.80   104.54909    96.23996   374.27345
   893  H   1.0    0.08    1.06    1.44   105.04042    95.05510   366.29125
   894  H   1.0    0.06    1.03    1.43   102.57243    93.65104   370.81903
   895  H   1.0    0.04    1.03    1.43   105.71694    92.93294   369.89496
   896  N   5.0   -0.13    3.52    2.09   107.01140    97.95205   371.26690
   897  C   4.0    0.04    4.41    4.40   108.28319    99.69627   372.94497
   898  C   4.0    0.16    3.45    3.09   106.50118   101.85245   373.67441
   899  O   6.0   -0.32    1.31    1.80   106.38401   102.62535   375.83815
   900  C   4.0   -0.05    4.28    4.16   110.67936   100.74885   371.69776
   901  C   4.0   -0.04    4.18    3.97   112.58042    98.79298   370.74533
   902  C   4.0    0.24    3.13    3.03   112.15712    98.00119   368.01279
   903  O   6.0   -0.30    1.24    1.80   110.74550    99.21439   366.56337
   904  O   6.0   -0.29    1.20    1.80   113.22104    96.07745   367.27580
   905  H   1.0    0.10    1.08    1.44   107.53297    98.14103   369.42064
   906  H   1.0    0.06    1.06    1.44   108.87278    98.69661   374.64762
   907  H   1.0    0.05    1.04    1.43   110.11433   101.88646   370.07637
   908  H   1.0    0.04    1.03    1.43   111.65824   101.92615   373.07726
   909  H   1.0    0.04    1.03    1.43   114.47582    99.58856   370.88139
   910  H   1.0    0.05    1.03    1.43   112.43869    97.10546   371.91696
   911  N   5.0   -0.14    3.51    2.08   105.10278   102.82377   371.86027
   912  C   4.0    0.03    4.42    4.41   103.09211   104.59822   372.43286
   913  C   4.0    0.16    3.46    3.10   101.27986   103.65714   374.48510
   914  O   6.0   -0.31    1.25    1.80   100.49185   105.13490   376.11782
   915  C   4.0   -0.05    4.39    4.36   101.57466   105.14057   370.04614
   916  C   4.0   -0.02    4.20    4.00    99.34289   106.99061   370.18409
   917  C   4.0   -0.07    4.10    3.81   100.11201   109.72883   370.60171
   918  C   4.0   -0.08    4.14    3.87    97.91237   106.80731   367.71988
   919  H   1.0    0.10    1.11    1.45   105.30498   102.42882   369.98377
   920  H   1.0    0.04    1.06    1.44   103.98595   106.31976   373.12450
   921  H   1.0    0.05    1.04    1.43   102.87857   105.90591   368.64774
   922  H   1.0    0.05    1.04    1.43   100.80365   103.34911   369.38473
   923  H   1.0    0.05    1.06    1.44    98.19016   106.47094   371.80925
   924  H   1.0    0.04    1.00    1.43    98.41693   110.89857   370.67352
   925  H   1.0    0.04    1.00    1.43   101.14191   109.87245   372.37995
   926  H   1.0    0.05    1.00    1.43   101.31577   110.33165   369.04269
   927  H   1.0    0.04    1.00    1.43    96.31555   108.10744   367.77280
   928  H   1.0    0.05    1.00    1.43    99.17471   107.30998   366.17220
   929  H   1.0    0.04    1.00    1.43    97.23963   104.87601   367.47800
   930  N   5.0   -0.14    3.47    2.06   100.59011   101.23451   374.37550
   931  C   4.0    0.04    4.44    4.45    98.88936   100.12524   376.26333
   932  C   4.0    0.16    3.44    3.09   100.01186   100.25941   378.88249
   933  O   6.0   -0.30    1.22    1.80    98.70606   100.94349   380.69474
   934  C   4.0   -0.04    4.29    4.17    98.27142    97.39081   375.60382
   935  C   4.0   -0.04    4.19    3.99    96.27209    97.17349   373.54402
   936  C   4.0   -0.05    4.17    3.94    96.27776    94.60724   372.21554
   937  C   4.0   -0.02    4.15    3.91    93.59435    93.73230   371.70909
   938  N   5.0   -0.11    4.01    2.89    93.47907    91.78399   369.70598
   939  H   1.0    0.11    1.07    1.44   101.16837    99.99485   373.01678
   940  H   1.0    0.06    1.06    1.44    97.13191   101.20049   376.24255
   941  H   1.0    0.06    1.04    1.43    99.98162    96.45917   374.93486
   942  H   1.0    0.05    1.03    1.43    97.56088    96.43838   377.28568
   943  H   1.0    0.05    1.04    1.43    94.41260    97.44372   374.38684
   944  H   1.0    0.05    1.03    1.43    96.61791    98.62291   372.12105
   945  H   1.0    0.05    1.03    1.43    97.26797    94.76409   370.41652
   946  H   1.0    0.05    1.03    1.43    97.20750    93.21262   373.41174
   947  H   1.0    0.06    1.03    1.43    92.80822    92.92538   373.43441
   948  H   1.0    0.05    1.03    1.43    92.46051    95.34234   371.10438
   949  H   1.0    0.08    1.03    1.43    91.61580    91.23219   369.41119
   950  H   1.0    0.06    1.02    1.43    94.20473    92.50209   368.02602
   951  H   1.0    0.06    1.02    1.43    94.53354    90.21174   370.23511
   952  N   5.0   -0.13    3.48    2.06   102.44015    99.59423   379.02233
   953  C   4.0    0.04    4.44    4.45   103.94627    99.84178   381.32024
   954  C   4.0    0.15    3.47    3.10   103.85934   102.56110   382.28589
   955  O   6.0   -0.32    1.29    1.80   103.23951   103.04676   384.48553
   956  C   4.0    0.05    4.23    4.06   106.76574    99.09534   380.94796
   957  O   6.0   -0.23    2.09    1.84   107.00384    96.71806   379.67429
   958  C   4.0   -0.07    4.11    3.81   108.04130    98.83078   383.47075
   959  H   1.0    0.11    1.07    1.44   103.43982    98.86290   377.54457
   960  H   1.0    0.05    1.06    1.44   103.13746    98.52653   382.68462
   961  H   1.0    0.05    1.05    1.44   107.66525   100.56744   379.82358
   962  H   1.0    0.12    1.01    1.43   108.79341    96.28910   379.46264
   963  H   1.0    0.05    1.00    1.43   110.01607    98.30921   383.20997
   964  H   1.0    0.04    1.00    1.43   107.95059   100.61468   384.49687
   965  H   1.0    0.04    1.00    1.43   107.10589    97.37191   384.58380
   966  N   5.0   -0.14    3.50    2.08   104.44515   104.33366   380.63049
   967  C   4.0    0.04    4.47    4.50   104.55098   106.98683   381.38638
   968  C   4.0    0.17    3.48    3.11   102.06599   107.94871   382.43707
   969  O   6.0   -0.32    1.33    1.80   102.04709   109.44159   384.22475
   970  C   4.0   -0.04    4.35    4.30   105.36734   108.61389   379.17351
   971  C   4.0   -0.02    3.78    3.31   105.11223   111.34643   379.57980
   972  C   4.0   -0.01    3.66    3.21   103.72328   112.95270   378.18519
   973  C   4.0    0.01    3.95    3.54   106.28953   112.81475   381.47709
   974  N   5.0   -0.12    3.52    2.09   103.96516   115.35643   379.06202
   975  C   4.0    0.03    3.94    3.53   105.52986   115.32431   381.10670
   976  C   4.0   -0.05    3.42    3.08   107.94682   112.26106   383.44618
   977  C   4.0   -0.06    3.41    3.08   106.33299   117.28773   382.63738
   978  C   4.0   -0.05    3.37    3.07   108.75562   114.20181   384.98631
   979  C   4.0   -0.05    3.39    3.07   107.92225   116.69247   384.58947
   980  H   1.0    0.11    1.09    1.44   104.85333   104.01619   378.77289
   981  H   1.0    0.05    1.07    1.44   105.95315   107.13990   382.88682
   982  H   1.0    0.04    1.05    1.44   107.35155   108.23027   378.77667
   983  H   1.0    0.05    1.04    1.43   104.21461   108.12067   377.53890
   984  H   1.0    0.05    1.02    1.43   102.57432   112.40846   376.58837
   985  H   1.0    0.09    1.07    1.44   103.11857   116.91923   378.31558
   986  H   1.0    0.05    1.03    1.43   108.58554   110.34866   383.75988
   987  H   1.0    0.05    1.03    1.43   105.73017   119.20958   382.30479
   988  H   1.0    0.04    1.03    1.43   110.04630   113.80308   386.51699
   989  H   1.0    0.05    1.03    1.43   108.54964   118.16834   385.85180
   990  N   5.0   -0.13    3.39    2.02    99.98540   107.06809   381.32780
   991  C   4.0    0.02    4.26    4.12    97.45317   107.74461   382.19707
   992  C   4.0    0.17    3.35    3.06    97.02609   106.95282   384.90883
   993  O   6.0   -0.28    1.24    1.80    96.37413   108.52129   386.46974
   994  H   1.0    0.11    1.08    1.44    99.98351   105.87568   379.81413
   995  H   1.0    0.06    1.03    1.43    97.20183   109.78363   382.06101
   996  H   1.0    0.05    1.03    1.43    96.04721   106.81487   381.01222
   997  N   5.0   -0.13    3.46    2.05    97.46262   104.53586   385.46063
   998  C   4.0    0.04    4.42    4.42    97.45317   103.57777   388.07034
   999  C   4.0    0.16    3.45    3.09    99.08778   105.13679   389.84479
  1000  O   6.0   -0.28    1.19    1.80    98.22795   105.94938   391.90271
  1001  C   4.0   -0.05    4.44    4.45    98.47929   100.90759   388.14782
  1002  C   4.0   -0.02    4.20    4.01    96.71806    98.89314   387.13871
[...]
1079   1 H      0.042  0.958  0.000  0.000     2.428     2.437
1080   8 O     -0.608  1.652  4.956  0.000    25.377     6.799
1081   1 H      0.314  0.686  0.000  0.000     0.681     1.296
1082   1 H      0.288  0.712  0.000  0.000     0.756     1.365
1083   8 O     -0.604  1.648  4.956  0.000    25.264     6.784
1084   1 H      0.304  0.696  0.000  0.000     0.709     1.322
1085   1 H      0.332  0.668  0.000  0.000     0.631     1.247
1086   8 O     -0.636  1.673  4.963  0.000    26.046     6.888
1087   1 H      0.324  0.676  0.000  0.000     0.652     1.268
1088   1 H      0.349  0.651  0.000  0.000     0.590     1.206
1089   8 O     -0.649  1.678  4.971  0.000    26.383     6.933
1090   1 H      0.327  0.673  0.000  0.000     0.645     1.261
1091   1 H      0.350  0.650  0.000  0.000     0.587     1.203
1092   7 N     -0.383  1.322  4.060  0.000    29.896     8.120
1093   6 C      0.032  1.053  2.915  0.000    20.057     6.380
1094   6 C      0.200  1.090  2.710  0.000    23.747     7.981
1095   8 O     -0.381  1.768  4.613  0.000    21.305     6.188
1096   6 C     -0.078  1.060  3.018  0.000    21.983     6.675
1097   6 C     -0.103  1.060  3.042  0.000    22.454     6.746
1098   6 C      0.292  1.033  2.675  0.000    22.049     7.688
1099   8 O     -0.528  1.753  4.775  0.000    24.412     6.624
1100   7 N     -0.258  1.259  3.999  0.000    26.700     7.674
1101   1 H      0.179  0.821  0.000  0.000     1.220     1.731
1102   1 H      0.053  0.947  0.000  0.000     2.282     2.362
1103   1 H      0.079  0.921  0.000  0.000     1.985     2.203
1104   1 H      0.049  0.951  0.000  0.000     2.331     2.388
1105   1 H      0.074  0.926  0.000  0.000     2.038     2.232
1106   1 H      0.086  0.914  0.000  0.000     1.921     2.167
1107   1 H      0.225  0.775  0.000  0.000     0.988     1.557
1108   1 H      0.191  0.809  0.000  0.000     1.155     1.683
1109   7 N     -0.405  1.342  4.063  0.000    30.514     8.204
1110   6 C      0.033  1.054  2.913  0.000    20.026     6.373
1111   6 C      0.280  1.043  2.677  0.000    22.263     7.727
1112   8 O     -0.533  1.772  4.762  0.000    24.531     6.641
1113   6 C     -0.079  1.062  3.017  0.000    21.993     6.674
1114   6 C     -0.013  1.054  2.958  0.000    20.767     6.482
1115   6 C     -0.117  1.045  3.072  0.000    22.799     6.808
1116   6 C     -0.114  1.044  3.069  0.000    22.728     6.797
1117   1 H      0.169  0.831  0.000  0.000     1.280     1.772
1118   1 H      0.043  0.957  0.000  0.000     2.413     2.429
1119   1 H      0.060  0.940  0.000  0.000     2.200     2.319
1120   1 H      0.031  0.969  0.000  0.000     2.571     2.508
1121   1 H      0.020  0.980  0.000  0.000     2.729     2.583
1122   1 H      0.050  0.950  0.000  0.000     2.319     2.381
1123   1 H      0.037  0.963  0.000  0.000     2.484     2.465
1124   1 H      0.053  0.947  0.000  0.000     2.287     2.365
1125   1 H      0.048  0.952  0.000  0.000     2.344     2.394
1126   1 H      0.051  0.949  0.000  0.000     2.301     2.372
1127   1 H      0.031  0.969  0.000  0.000     2.569     2.507
1128   7 N     -0.172  1.247  3.925  0.000    24.731     7.386
1129   6 C      0.034  1.050  2.916  0.000    20.009     6.369
1130   6 C      0.273  1.042  2.685  0.000    22.391     7.750
1131   8 O     -0.465  1.737  4.729  0.000    23.033     6.435
1132   6 C     -0.058  1.048  3.010  0.000    21.592     6.611
1133   6 C     -0.013  1.051  2.962  0.000    20.763     6.481
1134   6 C     -0.119  1.046  3.073  0.000    22.827     6.810
1135   6 C     -0.102  1.038  3.064  0.000    22.501     6.763
1136   1 H      0.215  0.785  0.000  0.000     1.035     1.593
1137   1 H      0.037  0.963  0.000  0.000     2.494     2.470
1138   1 H      0.061  0.939  0.000  0.000     2.189     2.314
1139   1 H      0.050  0.950  0.000  0.000     2.321     2.382
1140   1 H      0.044  0.956  0.000  0.000     2.400     2.423
1141   1 H      0.062  0.938  0.000  0.000     2.171     2.304
1142   1 H      0.055  0.945  0.000  0.000     2.258     2.350
1143   1 H      0.042  0.958  0.000  0.000     2.422     2.434
1144   1 H      0.053  0.947  0.000  0.000     2.284     2.363
1145   1 H      0.019  0.981  0.000  0.000     2.751     2.594
1146   1 H      0.011  0.989  0.000  0.000     2.868     2.648
1147   7 N     -0.184  1.247  3.937  0.000    24.988     7.424
1148   6 C      0.031  1.052  2.917  0.000    20.045     6.373
1149   6 C      0.276  1.037  2.688  0.000    22.340     7.740
1150   8 O     -0.479  1.735  4.744  0.000    23.322     6.475
1151   6 C     -0.045  1.039  3.006  0.000    21.331     6.567
1152   6 C     -0.005  1.059  2.946  0.000    20.668     6.472
1153  16 S     -0.232  1.914  4.262  0.057   151.000    20.682
1154   6 C     -0.055  1.054  3.001  0.000    21.634     6.635
1155   1 H      0.179  0.821  0.000  0.000     1.219     1.730
1156   1 H      0.090  0.910  0.000  0.000     1.875     2.142
1157   1 H      0.036  0.964  0.000  0.000     2.505     2.475
1158   1 H      0.043  0.957  0.000  0.000     2.412     2.429
1159   1 H      0.059  0.941  0.000  0.000     2.211     2.325
1160   1 H      0.043  0.957  0.000  0.000     2.411     2.428
1161   1 H      0.079  0.921  0.000  0.000     1.987     2.204
1162   1 H      0.074  0.926  0.000  0.000     2.046     2.237
1163   1 H      0.047  0.953  0.000  0.000     2.361     2.403
1164   7 N     -0.146  1.230  3.916  0.000    24.161     7.300
1165   6 C      0.023  1.057  2.920  0.000    20.195     6.400
1166   6 C      0.196  1.083  2.720  0.000    23.813     7.992
1167   8 O     -0.357  1.756  4.601  0.000    20.843     6.121
1168   6 C      0.082  1.038  2.880  0.000    19.442     6.320
1169   8 O     -0.476  1.735  4.741  0.000    22.394     6.388
1170   1 H      0.207  0.793  0.000  0.000     1.070     1.620
1171   1 H      0.101  0.899  0.000  0.000     1.773     2.082
1172   1 H      0.040  0.960  0.000  0.000     2.448     2.447
1173   1 H      0.064  0.936  0.000  0.000     2.152     2.294
1174   1 H      0.306  0.694  0.000  0.000     0.703     1.317
1175   7 N     -0.381  1.311  4.070  0.000    29.851     8.114
1176   6 C      0.059  1.053  2.888  0.000    19.612     6.309
1177   6 C      0.184  1.103  2.713  0.000    24.045     8.031
1178   8 O     -0.394  1.771  4.622  0.000    21.555     6.225
1179   6 C     -0.053  1.058  2.995  0.000    21.514     6.602
1180   6 C      0.381  1.018  2.601  0.000    20.549     7.419
1181   8 O     -0.630  1.762  4.868  0.000    26.864     6.949
1182   8 O     -0.660  1.768  4.892  0.000    27.640     7.049
1183   1 H      0.151  0.849  0.000  0.000     1.392     1.848
1184   1 H      0.040  0.960  0.000  0.000     2.446     2.446
1185   1 H      0.027  0.973  0.000  0.000     2.627     2.535
1186   1 H      0.004  0.996  0.000  0.000     2.982     2.700
1187   7 N     -0.395  1.326  4.069  0.000    30.241     8.167
1188   6 C     -0.017  1.048  2.969  0.000    20.960     6.534
1189   6 C      0.269  1.047  2.684  0.000    22.461     7.761
1190   8 O     -0.500  1.758  4.742  0.000    23.785     6.539
1191   1 H      0.152  0.848  0.000  0.000     1.384     1.843
1192   1 H      0.067  0.933  0.000  0.000     2.122     2.278
1193   1 H      0.051  0.949  0.000  0.000     2.309     2.376
1194   7 N     -0.166  1.234  3.932  0.000    24.601     7.366
1195   6 C      0.018  1.055  2.927  0.000    20.276     6.412
1196   6 C      0.201  1.083  2.716  0.000    23.719     7.976
1197   8 O     -0.330  1.737  4.593  0.000    20.330     6.045
1198   6 C      0.079  1.036  2.885  0.000    19.456     6.316
1199   8 O     -0.450  1.714  4.736  0.000    21.845     6.309
1200   1 H      0.209  0.791  0.000  0.000     1.064     1.616
1201   1 H      0.090  0.910  0.000  0.000     1.881     2.145
1202   1 H      0.081  0.919  0.000  0.000     1.973     2.197
1203   1 H      0.023  0.977  0.000  0.000     2.691     2.565
1204   1 H      0.325  0.675  0.000  0.000     0.651     1.268
1205   7 N     -0.326  1.363  3.962  0.000    28.372     7.911
1206   6 C      0.024  1.066  2.910  0.000    20.149     6.388
1207   6 C      0.274  1.041  2.685  0.000    22.366     7.745
1208   8 O     -0.517  1.757  4.760  0.000    24.169     6.591
1209   6 C     -0.057  1.049  3.008  0.000    21.565     6.606
1210   6 C     -0.055  1.041  3.013  0.000    21.523     6.600
1211   6 C      0.012  1.047  2.941  0.000    20.416     6.439
1212   1 H      0.033  0.967  0.000  0.000     2.545     2.495
1213   1 H      0.044  0.956  0.000  0.000     2.396     2.421
1214   1 H      0.029  0.971  0.000  0.000     2.602     2.522
1215   1 H      0.027  0.973  0.000  0.000     2.630     2.536
1216   1 H      0.036  0.964  0.000  0.000     2.496     2.471
1217   1 H      0.034  0.966  0.000  0.000     2.526     2.486
1218   1 H      0.037  0.963  0.000  0.000     2.490     2.468
1219   7 N     -0.164  1.240  3.924  0.000    24.555     7.360
1220   6 C      0.023  1.055  2.923  0.000    20.193     6.398
1221   6 C      0.215  1.076  2.709  0.000    23.451     7.932
1222   8 O     -0.371  1.751  4.619  0.000    21.102     6.159
1223   6 C     -0.029  1.070  2.959  0.000    21.044     6.524
1224   6 C     -0.065  1.049  3.016  0.000    21.743     6.638
1225   6 C     -0.120  1.044  3.075  0.000    22.850     6.816
1226   6 C     -0.108  1.038  3.069  0.000    22.616     6.782
1227   1 H      0.231  0.769  0.000  0.000     0.962     1.536
1228   1 H      0.080  0.920  0.000  0.000     1.976     2.198
1229   1 H      0.064  0.936  0.000  0.000     2.153     2.295
1230   1 H      0.045  0.955  0.000  0.000     2.378     2.411
1231   1 H      0.039  0.961  0.000  0.000     2.463     2.454
1232   1 H      0.067  0.933  0.000  0.000     2.119     2.277
1233   1 H      0.046  0.954  0.000  0.000     2.374     2.409
1234   1 H      0.051  0.949  0.000  0.000     2.303     2.373
1235   1 H      0.025  0.975  0.000  0.000     2.663     2.552
1236   1 H      0.042  0.958  0.000  0.000     2.417     2.431
1237   1 H      0.051  0.949  0.000  0.000     2.312     2.378
1238   7 N     -0.388  1.328  4.060  0.000    30.032     8.139
1239   6 C      0.023  1.060  2.918  0.000    20.215     6.405
1240   6 C      0.186  1.095  2.718  0.000    24.003     8.024
1241   8 O     -0.354  1.745  4.609  0.000    20.784     6.112
1242   6 C      0.073  1.038  2.889  0.000    19.562     6.335
1243   8 O     -0.455  1.725  4.730  0.000    21.941     6.323
1244   1 H      0.160  0.840  0.000  0.000     1.335     1.810
1245   1 H      0.081  0.919  0.000  0.000     1.966     2.193
1246   1 H      0.032  0.968  0.000  0.000     2.558     2.501
1247   1 H      0.057  0.943  0.000  0.000     2.240     2.340
1248   1 H      0.324  0.676  0.000  0.000     0.652     1.269
1249   7 N     -0.406  1.333  4.074  0.000    30.553     8.209
1250   6 C      0.029  1.058  2.913  0.000    20.107     6.387
1251   6 C      0.262  1.048  2.690  0.000    22.583     7.782
1252   8 O     -0.498  1.748  4.750  0.000    23.742     6.533
1253   6 C     -0.133  1.048  3.085  0.000    23.102     6.853
1254   1 H      0.156  0.844  0.000  0.000     1.358     1.826
1255   1 H      0.049  0.951  0.000  0.000     2.336     2.390
1256   1 H      0.068  0.932  0.000  0.000     2.108     2.270
1257   1 H      0.067  0.933  0.000  0.000     2.115     2.274
1258   1 H      0.060  0.940  0.000  0.000     2.196     2.317
1259   7 N     -0.159  1.239  3.920  0.000    24.444     7.343
1260   6 C      0.026  1.049  2.925  0.000    20.122     6.385
1261   6 C      0.194  1.082  2.724  0.000    23.856     7.999
1262   8 O     -0.363  1.765  4.598  0.000    20.949     6.136
1263   6 C     -0.078  1.053  3.025  0.000    21.931     6.659
1264   6 C     -0.019  1.059  2.960  0.000    20.909     6.510
1265  16 S     -0.210  1.921  4.234  0.055   149.998    20.613
1266   6 C     -0.069  1.056  3.013  0.000    21.885     6.673
1267   1 H      0.230  0.770  0.000  0.000     0.966     1.539
1268   1 H      0.088  0.912  0.000  0.000     1.903     2.157
1269   1 H      0.068  0.932  0.000  0.000     2.103     2.268
1270   1 H      0.050  0.950  0.000  0.000     2.316     2.380
1271   1 H      0.073  0.927  0.000  0.000     2.053     2.241
1272   1 H      0.079  0.921  0.000  0.000     1.986     2.204
1273   1 H      0.052  0.948  0.000  0.000     2.289     2.366
1274   1 H      0.059  0.941  0.000  0.000     2.206     2.322
1275   1 H      0.057  0.943  0.000  0.000     2.236     2.338
1276   7 N     -0.384  1.330  4.054  0.000    29.927     8.125
1277   6 C     -0.022  1.047  2.975  0.000    21.058     6.549
1278   6 C      0.186  1.084  2.730  0.000    24.009     8.024
1279   8 O     -0.364  1.736  4.628  0.000    20.971     6.140
1280   1 H      0.138  0.862  0.000  0.000     1.485     1.909
1281   1 H      0.108  0.892  0.000  0.000     1.717     2.049
1282   1 H      0.088  0.912  0.000  0.000     1.894     2.152
1283   7 N     -0.407  1.328  4.079  0.000    30.571     8.212
1284   6 C      0.031  1.048  2.920  0.000    20.063     6.380
1285   6 C      0.192  1.092  2.716  0.000    23.901     8.007
1286   8 O     -0.359  1.750  4.609  0.000    20.882     6.127
1287   6 C      0.054  1.045  2.901  0.000    19.868     6.382
1288   8 O     -0.483  1.713  4.769  0.000    22.524     6.407
1289   1 H      0.199  0.801  0.000  0.000     1.113     1.652
1290   1 H      0.063  0.937  0.000  0.000     2.160     2.298
1291   1 H      0.048  0.952  0.000  0.000     2.347     2.396
1292   1 H      0.049  0.951  0.000  0.000     2.338     2.391
1293   1 H      0.355  0.645  0.000  0.000     0.578     1.194
1294   7 N     -0.393  1.320  4.073  0.000    30.177     8.159
1295   6 C      0.035  1.052  2.913  0.000    19.996     6.369
1296   6 C      0.270  1.049  2.681  0.000    22.438     7.757
1297   8 O     -0.542  1.776  4.766  0.000    24.733     6.668
1298   6 C     -0.083  1.064  3.019  0.000    22.062     6.685
1299   6 C     -0.014  1.051  2.963  0.000    20.797     6.486
1300   6 C     -0.108  1.041  3.067  0.000    22.611     6.780
1301   6 C     -0.128  1.049  3.080  0.000    23.007     6.837
1302   1 H      0.168  0.832  0.000  0.000     1.285     1.776
1303   1 H      0.016  0.984  0.000  0.000     2.789     2.612
1304   1 H      0.045  0.955  0.000  0.000     2.381     2.413
1305   1 H      0.072  0.928  0.000  0.000     2.064     2.247
1306   1 H      0.024  0.976  0.000  0.000     2.670     2.555
1307   1 H      0.035  0.965  0.000  0.000     2.516     2.481
1308   1 H      0.025  0.975  0.000  0.000     2.655     2.548
1309   1 H      0.031  0.969  0.000  0.000     2.577     2.511
1310   1 H      0.046  0.954  0.000  0.000     2.365     2.405
1311   1 H      0.047  0.953  0.000  0.000     2.362     2.403
1312   1 H      0.064  0.936  0.000  0.000     2.155     2.296
1313   7 N     -0.170  1.249  3.921  0.000    24.684     7.379
1314   6 C      0.025  1.056  2.919  0.000    20.155     6.393
1315   6 C      0.207  1.082  2.711  0.000    23.607     7.957
1316   8 O     -0.397  1.777  4.620  0.000    21.615     6.233
1317   6 C     -0.084  1.057  3.027  0.000    22.103     6.692
1318   6 C     -0.084  1.052  3.032  0.000    22.095     6.692
1319   6 C     -0.106  1.057  3.049  0.000    22.525     6.757
1320   6 C     -0.066  1.063  3.002  0.000    21.853     6.672
1321   7 N     -0.146  1.232  3.914  0.000    24.156     7.300
1322   1 H      0.251  0.749  0.000  0.000     0.878     1.468
1323   1 H      0.084  0.916  0.000  0.000     1.939     2.178
1324   1 H      0.088  0.912  0.000  0.000     1.901     2.156
1325   1 H      0.067  0.933  0.000  0.000     2.114     2.274
1326   1 H      0.059  0.941  0.000  0.000     2.207     2.323
1327   1 H      0.070  0.930  0.000  0.000     2.081     2.256
1328   1 H      0.095  0.905  0.000  0.000     1.827     2.114
1329   1 H      0.084  0.916  0.000  0.000     1.941     2.179
1330   1 H      0.131  0.869  0.000  0.000     1.526     1.932
1331   1 H      0.111  0.889  0.000  0.000     1.686     2.031
1332   1 H      0.308  0.692  0.000  0.000     0.691     1.302
1333   1 H      0.289  0.711  0.000  0.000     0.747     1.354
1334   1 H      0.305  0.695  0.000  0.000     0.700     1.310
1335   1 H      0.063  0.937  0.000  0.000     2.168     2.303
1336   1 H      0.167  0.833  0.000  0.000     1.289     1.778
1337   1 H      0.074  0.926  0.000  0.000     2.038     2.232
1338   1 H      0.169  0.831  0.000  0.000     1.278     1.771
1339   1 H      0.086  0.914  0.000  0.000     1.914     2.163
1340   1 H      0.171  0.829  0.000  0.000     1.264     1.761
1341   1 H      0.107  0.893  0.000  0.000     1.721     2.052
1342   1 H      0.198  0.802  0.000  0.000     1.113     1.653
1343   1 H      0.071  0.929  0.000  0.000     2.070     2.250
1344   1 H      0.178  0.822  0.000  0.000     1.223     1.733
1345   1 H      0.074  0.926  0.000  0.000     2.044     2.235
1346   1 H      0.168  0.832  0.000  0.000     1.286     1.776
1347   1 H      0.093  0.907  0.000  0.000     1.848     2.126
1348   1 H      0.188  0.812  0.000  0.000     1.169     1.693
1349   1 H      0.106  0.894  0.000  0.000     1.728     2.056
1350   1 H      0.184  0.816  0.000  0.000     1.192     1.710
1351   1 H      0.098  0.902  0.000  0.000     1.802     2.099
1352   1 H      0.204  0.796  0.000  0.000     1.087     1.633
1353   1 H      0.095  0.905  0.000  0.000     1.827     2.114
1354   1 H      0.200  0.800  0.000  0.000     1.106     1.647
1355   1 H      0.074  0.926  0.000  0.000     2.039     2.233
1356   1 H      0.188  0.812  0.000  0.000     1.167     1.692
1357   1 H      0.076  0.924  0.000  0.000     2.017     2.221
1358   1 H      0.185  0.815  0.000  0.000     1.185     1.705
1359   1 H      0.079  0.921  0.000  0.000     1.992     2.207
1360   1 H      0.183  0.817  0.000  0.000     1.198     1.715
1361   1 H      0.061  0.939  0.000  0.000     2.185     2.311
1362   1 H      0.163  0.837  0.000  0.000     1.317     1.797
1363   1 H      0.092  0.908  0.000  0.000     1.857     2.131
1364   1 H      0.174  0.826  0.000  0.000     1.248     1.750
1365   1 H      0.072  0.928  0.000  0.000     2.068     2.249

 Mol. C6AA /au·bohr⁶  :   16925913.683696
 Mol. C8AA /au·bohr⁸  :  379391856.148289
 Mol. α(0) /au        :       6145.255042

 
molecular dipole:
                 x           y           z       tot (Debye)
 q only:      122.242     -82.911     364.349
   full:      126.361     -72.863     367.296    1004.517
molecular quadrupole (traceless):
                xx          xy          yy          xz          yz          zz
 q only:   -36553.665  -14096.461 -102895.638   69036.024  -49589.717  139449.303
  q+dip:   -37710.314  -11815.415 -102272.576   72011.631  -43406.925  139982.889
   full:   -37710.556  -11813.655 -102270.614   72011.290  -43405.661  139981.170
speedup  1.90
cpu  time for grad   12 m 43.0 s
wall time for grad    6 m 41.5 s

SCC energy    :   -2106.9452708
rep           :      24.7963421
ES            :       7.4359412
AES           :      -0.4003208
AXC           :       0.6397448
disp          :      -1.9671497
XB            :       0.0000000
fix           :       0.0000000
Gborn         :       0.0000000
Gsasa         :       0.0000000
Ghb           :       0.0000000
Gshift        :       0.0000000
Gsolv         :      -2.2749349    -1427.54
Etot ala COSMO:   -2106.9452708
grad norm     :       1.1962086
total E       :   -2081.8882778
atomizationE  :     376.7181734   236394.22
(atE without considering molecular charge,
 total energy contains solvation terms)
H-L gap (eV)  :          0.3103

------------------------------------------------------------------------
 * finished run on 2019/05/06 at 02:53:13.753     
------------------------------------------------------------------------
 total:
 * wall-time:     0 d,  0 h,  7 min,  0.326 sec
 *  cpu-time:     0 d,  0 h, 13 min,  6.293 sec
 * ratio c/w:     1.871 speedup
 SCF:
 * wall-time:     0 d,  0 h,  6 min, 48.639 sec
 *  cpu-time:     0 d,  0 h, 12 min, 54.286 sec
 * ratio c/w:     1.895 speedup

