      -----------------------------------------------------------      
     |                   =====================                   |     
     |                           x T B                           |     
     |                   =====================                   |     
     |                         S. Grimme                         |     
     |          Mulliken Center for Theoretical Chemistry        |     
     |                    University of Bonn                     |     
     |                 Version 6.0.1 (SAW181210)                 |     
      -----------------------------------------------------------      

   This program is distributed in the hope that it will be useful,
   but WITHOUT ANY WARRANTY; without even the implied warranty of
   MERCHANTABILITY or FITNESS FOR A PARTICULAR PURPOSE.
   
   FOR NON-COMMERCIAL, ACADEMIA USE ONLY.
   
   Cite this work as:
   S. Grimme, C. Bannwarth, P. Shushkov, J. Comput. Theory Chem., 2017,
   13, 1989-2009.
   C. Bannwarth, S. Ehlert and S. Grimme., ChemRxiv, 2018, preprint.
   http://doi.org/10.26434/chemrxiv.7246238.v1
   
   for sTDA-xTB:
   S. Grimme and C. Bannwarth, J. Chem. Phys., 2016, 145, 054103.
   
   in the mass-spec context:
   V. Asgeirsson, C. Bauer and S. Grimme, Chem. Sci., 2017, 8, 4879.
   
   if GBSA is used:
   P. Shushkov, F. März and S. Grimme, unpublished.
   
   for ANC optimizer:
   S. Grimme, unpublished.
   Rational Function algorithm used in ANCopt:
   F. Eckert, P. Pulay, H.-J. Werner, J. Comput. Chem., 1997, 18, 1473.
   
   with help from (in alphabetical order)
   C. Bannwarth, F. Bohle, G. Brandenburg, E. Caldeweyher, M. Checinski,
   S. Dohm, S. Ehlert, S. Ehrlich, F. März, H. Neugebauer, J. Pisarek,
   P. Pracht, P. Shushkov, and S. Spicher.
   
 * started run on 2019/05/10 at 08:26:40.795     
========================================================================
 # omp threads = 2
========================================================================
number of atoms            : 185
number of electrons        : 478
charge                     : 1
spin                       : .0
first test random number   : .4240

########################################################################
# WARNING! Please study the warnings concerning your input carefully
#  - Process number higher than OMP_NUM_THREADS, I hope you know what you are doing.
########################################################################

           ------------------------------------------------- 
          |                 G F N 2 - x T B                 |
          | Geometry, Frequencies, Noncovalent interactions |
          |            JCTC 2018 parametrisation            |
           ------------------------------------------------- 
 
      method parameters     
 k(s)        :  1.8500
 k(p)        :  2.2300
 k(d)        :  2.2300
 k(f)        :  2.0000
 kEN (H0ij)  : -2.0000
 D4 a1       :  0.5200
 D4 a2       :  5.0000
 D4 s6       :  1.0000
 D4 s8       :  2.7000
 D4 s9       :  5.0000
 alphaj      :  2.0000

 Solvent             : h2o
 Using internal parameter file: .param_gbsa2_h2o
 Gsolv ref. state (COSMO-RS): gsolv [1 M gas/solution]
 temperature (mdtemp)       :    298.150000000000     
 dielectric constant        :    80.2000000000000     
 rho                        :    1.00000000000000     
 mass                       :    18.0000000000000     
 surface tension            :    15.5689454083859     
 probe radius               :   0.975313790000000     
 vdW radii scaling          :    1.00000000000000     
 Gshift (Eh)                :   1.857443126794793E-003
 c1                         :    1.55243817000000     
 soset                      :   0.130326360000000     
 HB correction              :  T

            Z     q(EN)     CN     RAES       Cart. coordinates
     1  N   5.0   -0.19    3.22    1.96    73.70406    69.34885   168.25325
     2  C   4.0    0.03    4.24    4.08    74.25923    68.01045   165.92768
     3  C   4.0    0.15    3.42    3.08    72.72325    65.56739   165.91877
     4  O   6.0   -0.28    1.23    1.80    72.83792    64.04768   167.67121
     5  C   4.0   -0.07    4.10    3.81    77.08807    67.45069   165.78205
     6  H   1.0    0.10    1.02    1.43    74.16029    68.46561   169.91063
     7  H   1.0    0.04    1.05    1.44    73.66437    69.21005   164.35285
     8  H   1.0    0.04    1.00    1.43    77.49123    66.26817   164.15620
     9  H   1.0    0.05    1.00    1.43    78.13405    69.21127   165.61372
    10  H   1.0    0.05    1.00    1.43    77.69135    66.48711   167.49351
    11  N   5.0   -0.14    3.46    2.06    71.20195    65.25264   163.93283
    12  C   4.0    0.04    4.42    4.41    69.60151    63.05249   163.66464
    13  C   4.0    0.15    3.41    3.08    70.87856    61.13698   161.91294
    14  O   6.0   -0.31    1.22    1.80    72.04392    61.78774   160.03076
    15  C   4.0   -0.04    4.26    4.12    67.04606    63.85750   162.55823
    16  C   4.0   -0.05    4.18    3.96    65.14148    61.70222   162.28998
    17  C   4.0   -0.04    4.17    3.94    64.14376    60.72203   164.82092
    18  C   4.0   -0.03    4.12    3.85    62.04197    58.77536   164.47751
    19  N   5.0   -0.11    4.05    3.00    63.11689    56.31034   163.69790
    20  H   1.0    0.08    1.06    1.44    71.24042    66.52122   162.50324
    21  H   1.0    0.06    1.06    1.44    69.39057    62.24971   165.56077
    22  H   1.0    0.05    1.03    1.43    66.27730    65.34648   163.76360
    23  H   1.0    0.05    1.03    1.43    67.41621    64.67229   160.69359
    24  H   1.0    0.05    1.03    1.43    63.55964    62.43817   161.18946
    25  H   1.0    0.05    1.03    1.43    66.03133    60.20430   161.18869
    26  H   1.0    0.06    1.03    1.43    65.65663    59.87923   165.93469
    27  H   1.0    0.04    1.03    1.43    63.40169    62.31083   165.89539
    28  H   1.0    0.05    1.02    1.43    61.06364    58.50780   166.26755
    29  H   1.0    0.04    1.02    1.43    60.69792    59.42965   163.06053
    30  H   1.0    0.06    1.00    1.43    61.75169    54.88215   163.43947
    31  H   1.0    0.07    1.03    1.43    64.14098    56.51835   162.07061
    32  H   1.0    0.11    1.09    1.44    64.37903    55.73347   165.10770
    33  N   5.0   -0.14    3.49    2.07    70.49581    58.71275   162.56972
    34  C   4.0    0.03    4.40    4.39    71.36138    56.56348   161.11711
    35  C   4.0    0.14    3.46    3.10    69.35605    54.50363   161.36657
    36  O   6.0   -0.31    1.32    1.80    67.97334    54.38411   163.21542
    37  C   4.0   -0.04    4.33    4.26    73.87867    55.49865   162.09570
    38  C   4.0   -0.03    4.07    3.75    75.94874    57.48884   161.94415
    39  S   6.0   -0.05    2.48    3.10    79.06992    56.06993   161.59371
    40  C   4.0   -0.05    3.88    3.44    79.47370    54.69145   164.69095
    41  H   1.0    0.10    1.07    1.44    69.70945    58.27471   164.25723
    42  H   1.0    0.05    1.06    1.44    71.59913    57.19778   159.16348
    43  H   1.0    0.05    1.03    1.43    73.65634    54.85998   164.04668
    44  H   1.0    0.05    1.05    1.44    74.42624    53.87456   160.94825
    45  H   1.0    0.05    1.08    1.44    75.70846    58.66706   160.27388
    46  H   1.0    0.05    1.06    1.44    75.98588    58.70002   163.61113
    47  H   1.0    0.05    1.05    1.44    81.36539    53.90411   164.77148
    48  H   1.0    0.05    1.04    1.43    79.29111    56.14417   166.13076
    49  H   1.0    0.05    1.04    1.43    78.11017    53.19139   165.00300
    50  N   5.0   -0.14    3.47    2.06    69.11041    52.92026   159.42235
    51  C   4.0    0.04    4.34    4.28    67.26106    50.87894   159.54538
    52  C   4.0    0.09    3.24    3.04    68.00387    49.13200   161.74282
    53  O   6.0   -0.28    1.13    1.80    70.13540    48.27946   161.90764
    54  C   4.0   -0.04    4.25    4.11    67.19156    49.46753   157.02957
    55  C   4.0   -0.05    4.21    4.01    66.05108    51.15773   154.97938
    56  C   4.0   -0.05    4.16    3.93    66.44505    50.09425   152.32446
    57  C   4.0   -0.03    4.13    3.86    65.50906    52.00568   150.37945
    58  N   5.0   -0.12    4.01    2.89    65.89393    51.05561   147.75896
    59  H   1.0    0.07    1.06    1.44    70.40222    52.89269   158.02098
    60  H   1.0    0.04    1.05    1.44    65.41575    51.73338   159.93224
    61  H   1.0    0.05    1.03    1.43    69.11360    48.90549   156.53847
    62  H   1.0    0.05    1.03    1.43    66.07620    47.74930   157.24417
    63  H   1.0    0.04    1.03    1.43    64.03510    51.38112   155.33610
    64  H   1.0    0.04    1.03    1.43    66.91960    53.02519   155.08086
    65  H   1.0    0.05    1.03    1.43    68.45354    49.72779   152.04022
    66  H   1.0    0.05    1.02    1.43    65.42473    48.31386   152.14285
    67  H   1.0    0.05    1.02    1.43    63.50095    52.37521   150.66046
    68  H   1.0    0.04    1.02    1.43    66.53366    53.78234   150.59861
    69  H   1.0    0.07    1.02    1.43    65.31547    52.38034   146.45632
    70  H   1.0    0.06    1.02    1.43    67.78094    50.67754   147.45532
    71  H   1.0    0.06    1.02    1.43    64.88239    49.41576   147.48143
    72  N   5.0   -0.19    3.28    1.98    67.07058    50.86472   168.01338
    73  C   4.0    0.03    4.35    4.29    67.69404    52.28272   170.26510
    74  C   4.0    0.15    3.52    3.12    66.29642    54.79195   170.14965
    75  O   6.0   -0.30    1.36    1.80    65.73796    55.74647   168.10829
    76  C   4.0   -0.03    4.32    4.23    70.57967    52.76507   170.38425
    77  C   4.0   -0.01    3.58    3.15    72.01621    50.33069   170.06924
    78  C   4.0   -0.03    3.48    3.11    72.71014    49.48642   167.67866
    79  C   4.0   -0.03    3.46    3.10    72.60327    48.83587   172.14046
    80  C   4.0   -0.02    3.43    3.09    73.93030    47.20730   167.34758
    81  C   4.0   -0.03    3.43    3.09    73.83622    46.55032   171.83609
    82  C   4.0    0.08    3.44    3.09    74.49742    45.70821   169.43527
    83  O   6.0   -0.22    2.11    1.84    75.67950    43.46036   169.03516
    84  H   1.0    0.12    1.04    1.43    67.36998    51.77091   166.35031
    85  H   1.0    0.04    1.05    1.44    67.10373    51.14110   171.87912
    86  H   1.0    0.06    1.03    1.43    71.08043    54.08098   168.87620
    87  H   1.0    0.05    1.03    1.43    71.05353    53.65340   172.17937
    88  H   1.0    0.06    1.03    1.43    72.30051    50.61957   166.03051
    89  H   1.0    0.06    1.03    1.43    72.13624    49.48481   174.01546
    90  H   1.0    0.08    1.03    1.43    74.45492    46.55046   165.49169
    91  H   1.0    0.07    1.03    1.43    74.33040    45.42171   173.46358
    92  H   1.0    0.13    1.03    1.43    75.99919    42.60718   170.61989
    93  N   5.0   -0.09    3.69    2.26    65.62908    55.86480   172.31285
    94  C   4.0    0.04    4.50    4.54    64.44158    58.34874   172.30006
    95  C   4.0    0.08    3.23    3.04    66.34540    60.38616   171.49542
    96  O   6.0   -0.27    1.13    1.80    68.61870    60.01088   171.41263
    97  C   4.0   -0.04    4.35    4.29    63.72363    58.79218   175.07246
    98  C   4.0   -0.03    4.29    4.18    65.80877    57.37239   176.46646
    99  C   4.0   -0.01    4.37    4.32    66.16528    55.00154   174.86187
   100  H   1.0    0.05    1.04    1.43    62.82511    58.35929   171.01679
   101  H   1.0    0.05    1.02    1.43    63.69211    60.78703   175.56535
   102  H   1.0    0.05    1.02    1.43    61.88747    57.95942   175.47877
   103  H   1.0    0.06    1.03    1.43    67.53070    58.50034   176.46846
   104  H   1.0    0.05    1.02    1.43    65.31563    56.92877   178.40764
   105  H   1.0    0.04    1.02    1.43    68.06915    54.24674   175.02984
   106  H   1.0    0.05    1.02    1.43    64.78339    53.56288   175.40214
   107  N   5.0   -0.18    3.25    1.97    88.14385    63.75620   172.64786
   108  C   4.0    0.04    4.23    4.06    85.93731    63.40990   174.22241
   109  C   4.0    0.09    3.21    3.04    86.69780    63.32502   177.01000
   110  O   6.0   -0.25    1.12    1.80    88.31395    61.87049   177.81221
   111  C   4.0   -0.03    4.34    4.28    84.60980    60.92588   173.55825
   112  C   4.0   -0.01    3.57    3.15    83.55660    60.97421   170.93243
   113  C   4.0   -0.03    3.47    3.10    81.05556    61.64787   170.51902
   114  C   4.0   -0.03    3.48    3.10    85.05829    60.36491   168.87419
   115  C   4.0   -0.04    3.37    3.07    80.05459    61.65803   168.10527
   116  C   4.0   -0.04    3.38    3.07    84.07281    60.42247   166.45463
   117  C   4.0   -0.04    3.38    3.07    81.56723    61.05423   166.05946
   118  H   1.0    0.13    1.07    1.44    89.16760    62.19851   172.21747
   119  H   1.0    0.05    1.05    1.44    84.68191    65.01825   173.88728
   120  H   1.0    0.06    1.03    1.43    85.97003    59.38533   173.76620
   121  H   1.0    0.05    1.03    1.43    83.09320    60.60618   174.92074
   122  H   1.0    0.06    1.03    1.43    79.88268    62.12059   172.12096
   123  H   1.0    0.06    1.03    1.43    87.00390    59.81077   169.15161
   124  H   1.0    0.06    1.03    1.43    78.08465    62.11510   167.82999
   125  H   1.0    0.05    1.03    1.43    85.28754    59.93991   164.88908
   126  H   1.0    0.05    1.03    1.43    80.80880    61.03143   164.16707
   127  N   5.0   -0.17    3.26    1.97    91.20717    56.17097   174.72714
   128  C   4.0    0.03    4.23    4.05    91.34525    55.26098   172.15453
   129  C   4.0    0.09    3.21    3.04    91.69571    57.49835   170.36204
   130  O   6.0   -0.29    1.20    1.80    91.18859    59.66535   171.04689
   131  C   4.0   -0.04    4.27    4.14    88.92974    53.81831   171.49822
   132  C   4.0   -0.02    4.19    3.98    88.56453    51.53879   173.21580
   133  C   4.0    0.26    3.10    3.02    85.75863    50.67860   173.33400
   134  O   6.0   -0.30    1.23    1.80    84.12322    52.39345   173.58327
   135  O   6.0   -0.26    1.16    1.80    85.32496    48.38193   173.23911
   136  H   1.0    0.10    1.03    1.43    89.49954    56.70734   175.39091
   137  H   1.0    0.05    1.05    1.44    92.99713    54.02439   171.99678
   138  H   1.0    0.06    1.03    1.43    87.30739    55.08644   171.70408
   139  H   1.0    0.05    1.03    1.43    89.02251    53.20357   169.53269
   140  H   1.0    0.06    1.03    1.43    89.69875    49.94919   172.56828
   141  H   1.0    0.06    1.03    1.43    89.12637    52.01561   175.14652
   142  N   5.0   -0.18    3.24    1.96    90.00135    59.30752   162.19274
   143  C   4.0    0.03    4.13    3.87    88.82748    58.64029   159.80874
   144  C   4.0    0.08    3.22    3.04    88.90008    60.97762   158.11505
   145  O   6.0   -0.27    1.16    1.80    89.72806    63.00081   158.88007
   146  C   4.0   -0.08    4.09    3.78    86.10322    57.71865   160.16365
   147  H   1.0    0.11    1.04    1.43    90.22851    61.18228   162.55163
   148  H   1.0    0.05    1.05    1.44    89.94053    57.10721   158.96153
   149  H   1.0    0.04    1.00    1.43    85.35855    56.89364   158.43724
   150  H   1.0    0.04    1.00    1.43    86.07137    56.25150   161.60464
   151  H   1.0    0.04    1.00    1.43    84.86855    59.25123   160.74961
   152  N   5.0   -0.18    3.23    1.96    84.02553    65.32656   153.42906
   153  C   4.0    0.03    4.22    4.04    81.39160    65.77504   152.87680
   154  C   4.0    0.09    3.22    3.04    81.08201    68.15812   151.29328
   155  O   6.0   -0.25    1.13    1.80    82.55795    69.93136   151.38476
   156  C   4.0   -0.05    4.36    4.30    79.83544    66.08388   155.30431
   157  C   4.0   -0.02    4.18    3.97    79.85079    63.75323   157.01826
   158  C   4.0   -0.07    4.11    3.83    78.55143    64.44419   159.49897
   159  C   4.0   -0.07    4.10    3.80    78.54226    61.48093   155.81262
   160  H   1.0    0.11    1.02    1.43    85.05147    66.74298   154.20274
   161  H   1.0    0.04    1.05    1.44    80.72181    64.11901   151.84019
   162  H   1.0    0.05    1.03    1.43    80.59745    67.69010   156.35286
   163  H   1.0    0.05    1.03    1.43    77.88574    66.53768   154.80343
   164  H   1.0    0.04    1.05    1.44    81.81444    63.24483   157.44195
   165  H   1.0    0.04    1.00    1.43    78.63693    62.86585   160.81213
   166  H   1.0    0.04    1.00    1.43    79.45947    66.07094   160.36949
   167  H   1.0    0.05    1.00    1.43    76.57056    64.89493   159.17354
   168  H   1.0    0.04    1.00    1.43    78.48483    59.93609   157.16625
   169  H   1.0    0.05    1.00    1.43    76.61429    61.96778   155.28811
   170  H   1.0    0.04    1.00    1.43    79.57029    60.82226   154.16531
   171  O   6.0   -0.29    1.92    1.82    79.73262    52.61642   170.76700
   172  H   1.0    0.17    1.01    1.43    81.34277    52.35451   171.63282
   173  H   1.0    0.14    0.97    1.43    78.69246    53.41527   172.02292
   174  H   1.0    0.10    1.07    1.44    74.55209    70.82292   168.27625
   175  H   1.0    0.06    1.04    1.44    66.72958    48.68039   163.06316
   176  H   1.0    0.10    1.09    1.44    68.00753    49.44640   167.95804
   177  H   1.0    0.06    1.05    1.44    65.73760    62.10849   171.01042
   178  H   1.0    0.10    1.07    1.44    87.67599    64.41710   171.15224
   179  H   1.0    0.07    1.05    1.44    85.86800    64.48315   178.25146
   180  H   1.0    0.10    1.07    1.44    91.73419    54.95194   175.78959
   181  H   1.0    0.06    1.04    1.43    92.34364    57.21288   168.60997
   182  H   1.0    0.09    1.08    1.44    89.06273    58.70409   163.47626
   183  H   1.0    0.06    1.05    1.44    88.26293    60.87751   156.33879
   184  H   1.0    0.09    1.08    1.44    84.16310    64.03987   154.53272
   185  H   1.0    0.06    1.05    1.44    79.61773    68.32278   150.11013

  Z AO/shell   Hii/eV     exponent
  1     Wed Apr 25 08:07:45 CEST 2018   EN: 2.200 GM2: 0.406  GM3: 0.0800  RAES: 1.40
     1s    -10.707211    1.230000
  6     Wed Apr 25 08:07:45 CEST 2018   EN: 2.550 GM2: 0.538  GM3: 0.1500  RAES: 3.00
     2s    -13.970922    2.096432
     2p    -10.063292    1.800000
  7     Wed Apr 25 08:07:45 CEST 2018   EN: 3.040 GM2: 0.461  GM3:-0.0640  RAES: 1.90
     2s    -16.686243    2.339881
     2p    -12.523956    2.014332
  8     Wed Apr 25 08:07:45 CEST 2018   EN: 3.440 GM2: 0.452  GM3:-0.0517  RAES: 1.80
     2s    -20.229985    2.439742
     2p    -15.503117    2.137023
 16     Tue Apr 24 11:44:34 CEST 2018   EN: 2.580 GM2: 0.340  GM3:-0.0502  RAES: 3.10
     3s    -20.029654    1.981333
     3p    -11.377694    2.025643
     3d     -0.420282    1.702555
 no old-style atom pair restraining (fixing) potential

molecular fragmentation (1/2 indicates fragments):
111111111111111111111111111111111111111111111111111111111111111111111112
222222222222222222222222222222222222222222222222222222222222222222222222
22222222222222222222222222222112222222222
# atoms in fragment 1/2:    73   112
 fragment masses (1/2) :      462.65      747.91
CMA distance (Bohr)    :  11.228
constraining FC (au)   :  0.0500
           ------------------------------------------------- 
          |        Self-Consistent Charge Iterations        |
           ------------------------------------------------- 

 Ncao       : 443
 Nao        : 442
 Nshell     : 270
 Nel        : 478
 T(el)      :   500.0
 intcut     :    35.0
 scfconv/Eh :  0.100E-06
   qconv/e  :  0.100E-04
 intneglect :  0.100E-08
 broydamp   :      0.400
 iter      E             dE          RMSdq      gap      omega  full diag
   1   -271.1710474 -0.271171E+03  0.462E+00    2.87       0.0  T
   2   -271.7636531 -0.592606E+00  0.225E+00    1.75       1.0  T
   3   -271.7996525 -0.359995E-01  0.125E+00    2.10       1.0  T
   4   -271.8487947 -0.491421E-01  0.292E-01    1.68       1.0  T
   5   -271.8512215 -0.242676E-02  0.145E-01    1.89       1.0  T
   6   -271.8518261 -0.604657E-03  0.716E-02    1.90       1.0  T
   7   -271.8519639 -0.137811E-03  0.351E-02    1.89       1.0  T
   8   -271.8520023 -0.383823E-04  0.164E-02    1.89       1.0  T
   9   -271.8520100 -0.771391E-05  0.792E-03    1.89       1.0  T
  10   -271.8520117 -0.165703E-05  0.343E-03    1.88       2.1  T
  11   -271.8520120 -0.333194E-06  0.153E-03    1.88       4.8  T
  12   -271.8520121 -0.585359E-07  0.616E-04    1.88      11.9  T
  13   -271.8520121 -0.167385E-07  0.308E-04    1.88      23.9  T
  14   -271.8520121 -0.311547E-08  0.993E-05    1.88      74.0  T
  15   -271.8520121 -0.502439E-09  0.452E-05    1.88     162.8  T
speedup  2.00
cpu  time for SCC    3.07 s
wall time for SCC    1.53 s

   *** convergence criteria satisfied after 15 iterations ***

          eigenvalues
 #    :         227        228        229        230        231        232        233        234
 occ. :        2.000      2.000      2.000      2.000      2.000      2.000      2.000      2.000
 eps  :       -10.928    -10.870    -10.785    -10.555    -10.456    -10.260    -10.084    -10.054
 #    :         235        236        237        238        239        240        241        242
 occ. :        2.000      2.000      2.000      2.000      2.000      0.000      0.000      0.000
 eps  :       -10.004     -9.995     -9.968     -9.844     -9.826     -7.943     -7.851     -7.836
 #    :         243        244        245        246        247        248        249        250
 occ. :        0.000      0.000      0.000      0.000      0.000      0.000      0.000      0.000
 eps  :        -7.808     -7.756     -7.570     -6.520     -6.267     -6.233     -6.190     -6.179


   #   Z            q   n(s)   n(p)   n(d)      C6AA      α(0)
   1   7 N     -0.389  1.317  4.072  0.000    30.067     8.144
   2   6 C      0.034  1.058  2.908  0.000    20.015     6.372
   3   6 C      0.272  1.045  2.683  0.000    22.397     7.750
   4   8 O     -0.502  1.755  4.747  0.000    23.819     6.543
   5   6 C     -0.114  1.040  3.074  0.000    22.734     6.798
   6   1 H      0.152  0.848  0.000  0.000     1.387     1.845
   7   1 H      0.042  0.958  0.000  0.000     2.427     2.436
   8   1 H      0.041  0.959  0.000  0.000     2.432     2.439
   9   1 H      0.042  0.958  0.000  0.000     2.419     2.432
  10   1 H      0.040  0.960  0.000  0.000     2.454     2.450
  11   7 N     -0.171  1.244  3.927  0.000    24.701     7.381
  12   6 C      0.015  1.062  2.923  0.000    20.333     6.421
  13   6 C      0.271  1.044  2.685  0.000    22.419     7.753
  14   8 O     -0.469  1.745  4.724  0.000    23.104     6.444
  15   6 C     -0.080  1.057  3.022  0.000    22.016     6.680
  16   6 C     -0.085  1.053  3.032  0.000    22.124     6.697
  17   6 C     -0.093  1.052  3.042  0.000    22.280     6.720
  18   6 C     -0.046  1.056  2.990  0.000    21.488     6.617
  19   7 N     -0.154  1.235  3.919  0.000    24.314     7.323
  20   1 H      0.206  0.794  0.000  0.000     1.077     1.626
  21   1 H      0.073  0.927  0.000  0.000     2.056     2.242
  22   1 H      0.066  0.934  0.000  0.000     2.136     2.285
  23   1 H      0.063  0.937  0.000  0.000     2.160     2.298
  24   1 H      0.084  0.916  0.000  0.000     1.943     2.180
  25   1 H      0.057  0.943  0.000  0.000     2.238     2.340
  26   1 H      0.064  0.936  0.000  0.000     2.158     2.297
  27   1 H      0.078  0.922  0.000  0.000     2.001     2.212
  28   1 H      0.109  0.891  0.000  0.000     1.708     2.044
  29   1 H      0.122  0.878  0.000  0.000     1.596     1.976
  30   1 H      0.295  0.705  0.000  0.000     0.728     1.337
  31   1 H      0.272  0.728  0.000  0.000     0.804     1.404
  32   1 H      0.307  0.693  0.000  0.000     0.692     1.303
  33   7 N     -0.171  1.235  3.935  0.000    24.692     7.380
  34   6 C      0.008  1.064  2.928  0.000    20.442     6.438
  35   6 C      0.257  1.044  2.699  0.000    22.672     7.798
  36   8 O     -0.469  1.733  4.737  0.000    23.114     6.446
  37   6 C     -0.062  1.052  3.010  0.000    21.656     6.621
  38   6 C     -0.009  1.062  2.946  0.000    20.734     6.484
  39  16 S     -0.213  1.908  4.253  0.052   150.118    20.622
  40   6 C     -0.037  1.046  2.991  0.000    21.304     6.584
  41   1 H      0.209  0.791  0.000  0.000     1.064     1.616
  42   1 H      0.098  0.902  0.000  0.000     1.803     2.100
  43   1 H      0.038  0.962  0.000  0.000     2.476     2.461
  44   1 H      0.071  0.929  0.000  0.000     2.077     2.254
  45   1 H      0.089  0.911  0.000  0.000     1.890     2.150
  46   1 H      0.033  0.967  0.000  0.000     2.549     2.496
  47   1 H      0.032  0.968  0.000  0.000     2.556     2.500
  48   1 H      0.034  0.966  0.000  0.000     2.526     2.485
  49   1 H      0.047  0.953  0.000  0.000     2.357     2.401
  50   7 N     -0.153  1.241  3.912  0.000    24.318     7.324
  51   6 C      0.014  1.067  2.920  0.000    20.350     6.423
  52   6 C      0.202  1.084  2.714  0.000    23.697     7.972
  53   8 O     -0.368  1.765  4.603  0.000    21.049     6.151
  54   6 C     -0.078  1.054  3.023  0.000    21.977     6.674
  55   6 C     -0.088  1.055  3.033  0.000    22.175     6.704
  56   6 C     -0.094  1.053  3.041  0.000    22.286     6.721
  57   6 C     -0.053  1.060  2.993  0.000    21.626     6.637
  58   7 N     -0.147  1.228  3.919  0.000    24.170     7.302
  59   1 H      0.223  0.777  0.000  0.000     0.997     1.564
  60   1 H      0.104  0.896  0.000  0.000     1.745     2.066
  61   1 H      0.070  0.930  0.000  0.000     2.090     2.261
  62   1 H      0.072  0.928  0.000  0.000     2.060     2.244
  63   1 H      0.078  0.922  0.000  0.000     1.999     2.211
  64   1 H      0.071  0.929  0.000  0.000     2.071     2.251
  65   1 H      0.074  0.926  0.000  0.000     2.039     2.233
  66   1 H      0.078  0.922  0.000  0.000     1.999     2.211
  67   1 H      0.123  0.877  0.000  0.000     1.591     1.973
  68   1 H      0.121  0.879  0.000  0.000     1.609     1.984
  69   1 H      0.299  0.701  0.000  0.000     0.715     1.325
  70   1 H      0.294  0.706  0.000  0.000     0.730     1.339
  71   1 H      0.296  0.704  0.000  0.000     0.726     1.335
  72   7 N     -0.379  1.307  4.071  0.000    29.785     8.105
  73   6 C      0.035  1.057  2.908  0.000    20.002     6.370
  74   6 C      0.256  1.048  2.696  0.000    22.689     7.801
  75   8 O     -0.470  1.707  4.763  0.000    23.125     6.447
  76   6 C     -0.062  1.052  3.009  0.000    21.675     6.627
  77   6 C     -0.000  1.078  2.922  0.000    28.034     8.685
  78   6 C     -0.037  1.079  2.958  0.000    28.928     8.820
  79   6 C     -0.043  1.081  2.962  0.000    29.072     8.842
  80   6 C     -0.059  1.076  2.983  0.000    29.459     8.900
  81   6 C     -0.074  1.078  2.995  0.000    29.837     8.957
  82   6 C      0.143  1.047  2.811  0.000    24.886     8.176
  83   8 O     -0.441  1.720  4.721  0.000    21.651     6.281
  84   1 H      0.179  0.821  0.000  0.000     1.218     1.729
  85   1 H      0.039  0.961  0.000  0.000     2.460     2.453
  86   1 H      0.039  0.961  0.000  0.000     2.468     2.457
  87   1 H      0.025  0.975  0.000  0.000     2.653     2.547
  88   1 H      0.043  0.957  0.000  0.000     2.405     2.425
  89   1 H      0.033  0.967  0.000  0.000     2.546     2.495
  90   1 H      0.052  0.948  0.000  0.000     2.295     2.369
  91   1 H      0.025  0.975  0.000  0.000     2.654     2.547
  92   1 H      0.340  0.660  0.000  0.000     0.612     1.229
  93   7 N     -0.068  1.225  3.844  0.000    22.561     7.055
  94   6 C      0.016  1.068  2.916  0.000    20.291     6.409
  95   6 C      0.206  1.081  2.713  0.000    23.635     7.962
  96   8 O     -0.371  1.767  4.603  0.000    21.101     6.159
  97   6 C     -0.074  1.056  3.018  0.000    21.885     6.656
  98   6 C     -0.067  1.047  3.020  0.000    21.754     6.636
  99   6 C     -0.010  1.051  2.959  0.000    20.790     6.498
 100   1 H      0.112  0.888  0.000  0.000     1.678     2.026
 101   1 H      0.069  0.931  0.000  0.000     2.093     2.262
 102   1 H      0.088  0.912  0.000  0.000     1.897     2.154
 103   1 H      0.047  0.953  0.000  0.000     2.352     2.398
 104   1 H      0.065  0.935  0.000  0.000     2.144     2.290
 105   1 H      0.052  0.948  0.000  0.000     2.296     2.370
 106   1 H      0.071  0.929  0.000  0.000     2.075     2.253
 107   7 N     -0.395  1.315  4.080  0.000    30.236     8.167
 108   6 C      0.048  1.054  2.897  0.000    19.782     6.335
 109   6 C      0.199  1.089  2.712  0.000    23.763     7.983
 110   8 O     -0.369  1.762  4.607  0.000    21.072     6.154
 111   6 C     -0.054  1.050  3.004  0.000    21.538     6.605
 112   6 C      0.014  1.081  2.905  0.000    27.700     8.633
 113   6 C     -0.041  1.081  2.961  0.000    29.024     8.835
 114   6 C     -0.038  1.078  2.959  0.000    28.941     8.822
 115   6 C     -0.031  1.078  2.953  0.000    28.769     8.796
 116   6 C     -0.035  1.081  2.954  0.000    28.874     8.812
 117   6 C     -0.032  1.077  2.955  0.000    28.786     8.798
 118   1 H      0.188  0.812  0.000  0.000     1.170     1.694
 119   1 H      0.048  0.952  0.000  0.000     2.347     2.396
 120   1 H      0.033  0.967  0.000  0.000     2.539     2.492
 121   1 H      0.028  0.972  0.000  0.000     2.609     2.526
 122   1 H      0.030  0.970  0.000  0.000     2.590     2.517
 123   1 H      0.019  0.981  0.000  0.000     2.742     2.590
 124   1 H      0.040  0.960  0.000  0.000     2.447     2.446
 125   1 H      0.036  0.964  0.000  0.000     2.508     2.476
 126   1 H      0.043  0.957  0.000  0.000     2.404     2.425
 127   7 N     -0.366  1.302  4.064  0.000    29.443     8.059
 128   6 C      0.042  1.056  2.902  0.000    19.885     6.352
 129   6 C      0.193  1.090  2.717  0.000    23.867     8.001
 130   8 O     -0.358  1.749  4.609  0.000    20.862     6.124
 131   6 C     -0.042  1.049  2.992  0.000    21.316     6.572
 132   6 C     -0.088  1.064  3.023  0.000    22.171     6.704
 133   6 C      0.370  1.026  2.604  0.000    20.723     7.450
 134   8 O     -0.646  1.771  4.874  0.000    27.275     7.002
 135   8 O     -0.630  1.772  4.858  0.000    26.857     6.948
 136   1 H      0.148  0.852  0.000  0.000     1.413     1.862
 137   1 H      0.061  0.939  0.000  0.000     2.188     2.313
 138   1 H      0.036  0.964  0.000  0.000     2.506     2.476
 139   1 H      0.028  0.972  0.000  0.000     2.617     2.530
 140   1 H      0.022  0.978  0.000  0.000     2.707     2.573
 141   1 H      0.026  0.974  0.000  0.000     2.638     2.540
 142   7 N     -0.388  1.315  4.073  0.000    30.045     8.141
 143   6 C      0.039  1.056  2.905  0.000    19.938     6.361
 144   6 C      0.199  1.085  2.716  0.000    23.761     7.983
 145   8 O     -0.382  1.762  4.621  0.000    21.334     6.193
 146   6 C     -0.116  1.042  3.074  0.000    22.774     6.805
 147   1 H      0.165  0.835  0.000  0.000     1.306     1.790
 148   1 H      0.077  0.923  0.000  0.000     2.007     2.215
 149   1 H      0.070  0.930  0.000  0.000     2.089     2.260
 150   1 H      0.052  0.948  0.000  0.000     2.301     2.372
 151   1 H      0.051  0.949  0.000  0.000     2.309     2.376
 152   7 N     -0.379  1.308  4.070  0.000    29.784     8.105
 153   6 C      0.036  1.056  2.907  0.000    19.982     6.367
 154   6 C      0.200  1.084  2.716  0.000    23.738     7.979
 155   8 O     -0.388  1.762  4.626  0.000    21.443     6.209
 156   6 C     -0.067  1.060  3.008  0.000    21.779     6.643
 157   6 C     -0.004  1.055  2.949  0.000    20.623     6.459
 158   6 C     -0.105  1.040  3.065  0.000    22.558     6.771
 159   6 C     -0.123  1.041  3.082  0.000    22.922     6.827
 160   1 H      0.151  0.849  0.000  0.000     1.392     1.848
 161   1 H      0.076  0.924  0.000  0.000     2.022     2.224
 162   1 H      0.033  0.967  0.000  0.000     2.549     2.497
 163   1 H      0.050  0.950  0.000  0.000     2.325     2.385
 164   1 H      0.020  0.980  0.000  0.000     2.729     2.583
 165   1 H      0.032  0.968  0.000  0.000     2.564     2.504
 166   1 H      0.025  0.975  0.000  0.000     2.657     2.549
 167   1 H      0.050  0.950  0.000  0.000     2.323     2.383
 168   1 H      0.051  0.949  0.000  0.000     2.313     2.378
 169   1 H      0.058  0.942  0.000  0.000     2.218     2.329
 170   1 H      0.046  0.954  0.000  0.000     2.371     2.408
 171   8 O     -0.644  1.762  4.882  0.000    26.272     6.918
 172   1 H      0.299  0.701  0.000  0.000     0.724     1.336
 173   1 H      0.312  0.688  0.000  0.000     0.685     1.300
 174   1 H      0.182  0.818  0.000  0.000     1.200     1.716
 175   1 H      0.084  0.916  0.000  0.000     1.937     2.176
 176   1 H      0.165  0.835  0.000  0.000     1.304     1.788
 177   1 H      0.084  0.916  0.000  0.000     1.933     2.174
 178   1 H      0.180  0.820  0.000  0.000     1.214     1.726
 179   1 H      0.071  0.929  0.000  0.000     2.069     2.249
 180   1 H      0.176  0.824  0.000  0.000     1.238     1.743
 181   1 H      0.074  0.926  0.000  0.000     2.040     2.233
 182   1 H      0.166  0.834  0.000  0.000     1.298     1.785
 183   1 H      0.071  0.929  0.000  0.000     2.074     2.252
 184   1 H      0.174  0.826  0.000  0.000     1.247     1.749
 185   1 H      0.069  0.931  0.000  0.000     2.095     2.263

 Mol. C6AA /au·bohr⁶  :     306317.752321
 Mol. C8AA /au·bohr⁸  :    6919965.707326
 Mol. α(0) /au        :        836.280763

 
molecular dipole:
                 x           y           z       tot (Debye)
 q only:       38.798      53.674     138.790
   full:       39.976      53.011     140.532     395.065
molecular quadrupole (traceless):
                xx          xy          yy          xz          yz          zz
 q only:   -10507.602    3035.367   -6735.633    6776.979   11296.585   17243.235
  q+dip:   -10616.876    3044.131   -7169.478    7272.537   11270.558   17786.354
   full:   -10615.906    3046.081   -7168.758    7273.200   11271.866   17784.663
speedup  2.00
cpu  time for grad    4.33 s
wall time for grad    2.17 s

SCC energy    :    -271.8640086
rep           :       3.5483721
ES            :       0.9205619
AES           :      -0.0491486
AXC           :       0.1192887
disp          :      -0.1957023
XB            :       0.0000000
fix           :       0.0000000
Gborn         :       0.0000000
Gsasa         :       0.0000000
Ghb           :       0.0000000
Gshift        :       0.0000000
Gsolv         :      -0.3711849     -232.92
Etot ala COSMO:    -271.8640086
grad norm     :       0.5471985
total E       :    -268.3050228
atomizationE  :      49.8252751    31265.83
(atE without considering molecular charge,
 total energy contains solvation terms)
H-L gap (eV)  :          1.8835

------------------------------------------------------------------------
 * finished run on 2019/05/10 at 08:26:43.271     
------------------------------------------------------------------------
 total:
 * wall-time:     0 d,  0 h,  0 min,  2.474 sec
 *  cpu-time:     0 d,  0 h,  0 min,  4.727 sec
 * ratio c/w:     1.911 speedup
 SCF:
 * wall-time:     0 d,  0 h,  0 min,  2.267 sec
 *  cpu-time:     0 d,  0 h,  0 min,  4.528 sec
 * ratio c/w:     1.997 speedup

