      -----------------------------------------------------------      
     |                   =====================                   |     
     |                           x T B                           |     
     |                   =====================                   |     
     |                         S. Grimme                         |     
     |          Mulliken Center for Theoretical Chemistry        |     
     |                    University of Bonn                     |     
     |                 Version 6.0.1 (SAW181210)                 |     
      -----------------------------------------------------------      

   This program is distributed in the hope that it will be useful,
   but WITHOUT ANY WARRANTY; without even the implied warranty of
   MERCHANTABILITY or FITNESS FOR A PARTICULAR PURPOSE.
   
   FOR NON-COMMERCIAL, ACADEMIA USE ONLY.
   
   Cite this work as:
   S. Grimme, C. Bannwarth, P. Shushkov, J. Comput. Theory Chem., 2017,
   13, 1989-2009.
   C. Bannwarth, S. Ehlert and S. Grimme., ChemRxiv, 2018, preprint.
   http://doi.org/10.26434/chemrxiv.7246238.v1
   
   for sTDA-xTB:
   S. Grimme and C. Bannwarth, J. Chem. Phys., 2016, 145, 054103.
   
   in the mass-spec context:
   V. Asgeirsson, C. Bauer and S. Grimme, Chem. Sci., 2017, 8, 4879.
   
   if GBSA is used:
   P. Shushkov, F. März and S. Grimme, unpublished.
   
   for ANC optimizer:
   S. Grimme, unpublished.
   Rational Function algorithm used in ANCopt:
   F. Eckert, P. Pulay, H.-J. Werner, J. Comput. Chem., 1997, 18, 1473.
   
   with help from (in alphabetical order)
   C. Bannwarth, F. Bohle, G. Brandenburg, E. Caldeweyher, M. Checinski,
   S. Dohm, S. Ehlert, S. Ehrlich, F. März, H. Neugebauer, J. Pisarek,
   P. Pracht, P. Shushkov, and S. Spicher.
   
 * started run on 2019/05/10 at 00:41:40.454     
========================================================================
 # omp threads = 2
========================================================================
number of atoms            : 583
number of electrons        : 1570
charge                     : -2
spin                       : .0
first test random number   : .7546

########################################################################
# WARNING! Please study the warnings concerning your input carefully
#  - Process number higher than OMP_NUM_THREADS, I hope you know what you are doing.
########################################################################

           ------------------------------------------------- 
          |                 G F N 2 - x T B                 |
          | Geometry, Frequencies, Noncovalent interactions |
          |            JCTC 2018 parametrisation            |
           ------------------------------------------------- 
 
      method parameters     
 k(s)        :  1.8500
 k(p)        :  2.2300
 k(d)        :  2.2300
 k(f)        :  2.0000
 kEN (H0ij)  : -2.0000
 D4 a1       :  0.5200
 D4 a2       :  5.0000
 D4 s6       :  1.0000
 D4 s8       :  2.7000
 D4 s9       :  5.0000
 alphaj      :  2.0000

 Solvent             : h2o
 Using internal parameter file: .param_gbsa2_h2o
 Gsolv ref. state (COSMO-RS): gsolv [1 M gas/solution]
 temperature (mdtemp)       :    298.150000000000     
 dielectric constant        :    80.2000000000000     
 rho                        :    1.00000000000000     
 mass                       :    18.0000000000000     
 surface tension            :    15.5689454083859     
 probe radius               :   0.975313790000000     
 vdW radii scaling          :    1.00000000000000     
 Gshift (Eh)                :   1.857443126794793E-003
 c1                         :    1.55243817000000     
 soset                      :   0.130326360000000     
 HB correction              :  T

            Z     q(EN)     CN     RAES       Cart. coordinates
     1  N   5.0   -0.21    3.21    1.96    -5.66006   148.03732    -8.71325
     2  C   4.0    0.02    4.29    4.17    -4.62434   149.73641   -10.61792
     3  C   4.0    0.14    3.56    3.14    -1.91928   150.31896    -9.78502
     4  O   6.0   -0.32    1.47    1.80     0.14300   149.62760   -10.74739
     5  C   4.0   -0.05    4.22    4.04    -6.13217   152.21634   -10.99902
     6  C   4.0   -0.05    4.11    3.83    -8.89786   151.78161   -11.98464
     7  C   4.0   -0.04    4.14    3.87   -10.41827   154.21595   -12.37103
     8  C   4.0   -0.03    4.10    3.80   -13.28401   153.94711   -12.21149
     9  N   5.0   -0.11    4.00    2.86   -14.41595   152.51368   -14.33584
    10  H   1.0    0.07    1.02    1.43    -7.32817   148.72072    -7.96277
    11  H   1.0    0.04    1.02    1.43    -4.53748   148.68598   -12.46796
    12  H   1.0    0.04    1.04    1.43    -6.24282   153.25201    -9.28896
    13  H   1.0    0.04    1.02    1.43    -5.13874   153.31264   -12.45105
    14  H   1.0    0.04    1.01    1.43    -8.83710   150.70927   -13.76760
    15  H   1.0    0.03    1.02    1.43    -9.89211   150.56211   -10.63566
    16  H   1.0    0.05    1.03    1.43    -9.79622   155.58729   -10.96322
    17  H   1.0    0.07    1.04    1.43    -9.96848   155.00805   -14.22222
    18  H   1.0    0.03    1.02    1.43   -13.84969   153.04278   -10.44324
    19  H   1.0    0.07    1.03    1.43   -14.09030   155.85343   -12.28558
    20  H   1.0    0.07    1.03    1.43   -16.30825   152.93139   -14.37257
    21  H   1.0    0.12    1.16    1.46   -13.62469   152.82322   -16.29764
    22  H   1.0    0.06    1.03    1.43   -14.21406   150.64584   -14.01263
    23  N   5.0   -0.15    3.57    2.13    -1.89701   151.77082    -7.82189
    24  C   4.0    0.04    4.60    4.66     0.57954   152.44697    -7.01366
    25  C   4.0    0.13    3.48    3.11     2.50981   150.31920    -7.25004
    26  O   6.0   -0.33    1.24    1.80     4.28013   150.42165    -8.09738
    27  C   4.0   -0.06    4.41    4.40     0.48759   153.32103    -4.30927
    28  C   4.0   -0.02    4.23    4.07     3.09162   154.25246    -3.65906
    29  C   4.0   -0.08    4.14    3.89     4.21004   155.95516    -5.72406
    30  C   4.0   -0.09    4.05    3.71     2.88900   155.63805    -0.99784
    31  H   1.0    0.07    1.07    1.44    -3.41868   152.43668    -6.86879
    32  H   1.0    0.04    1.08    1.44     1.27586   153.96680    -8.25676
    33  H   1.0    0.03    1.03    1.43    -0.83729   154.91889    -4.11948
    34  H   1.0    0.03    1.04    1.43    -0.04518   151.82039    -3.05610
    35  H   1.0    0.04    1.04    1.43     4.41682   152.63493    -3.41579
    36  H   1.0    0.04    0.99    1.43     5.77801   157.07148    -4.95236
    37  H   1.0    0.05    1.01    1.43     4.89270   154.89492    -7.29055
    38  H   1.0    0.03    1.01    1.43     2.77102   157.28987    -6.31163
    39  H   1.0    0.04    0.98    1.43     4.78893   156.33532    -0.42217
    40  H   1.0    0.03    1.01    1.43     1.63011   157.15790    -1.15142
    41  H   1.0    0.03    1.00    1.43     2.28309   154.26891     0.37327
    42  N   5.0   -0.19    3.33    1.99     2.41615   145.20799    -9.82417
    43  C   4.0    0.03    4.43    4.43     3.58232   144.02291   -11.91646
    44  C   4.0    0.15    3.50    3.12     5.58399   145.70572   -13.06399
    45  O   6.0   -0.33    1.40    1.80     7.45108   144.95880   -14.14181
    46  C   4.0   -0.02    4.26    4.13     1.66463   143.13495   -13.92892
    47  C   4.0   -0.08    4.13    3.86    -0.33866   141.48501   -12.70338
    48  C   4.0   -0.07    4.15    3.89     0.58012   145.30619   -15.38412
    49  H   1.0    0.08    1.01    1.43     0.47220   144.98988    -9.52950
    50  H   1.0    0.04    1.05    1.44     4.54972   142.28629   -11.25188
    51  H   1.0    0.04    1.03    1.43     2.74517   141.90408   -15.29783
    52  H   1.0    0.04    0.99    1.43    -1.35128   140.40530   -14.16289
    53  H   1.0    0.04    1.00    1.43     0.50566   140.13169   -11.41518
    54  H   1.0    0.04    1.01    1.43    -1.69573   142.60571   -11.69431
    55  H   1.0    0.04    1.00    1.43    -0.96468   144.68655   -16.60682
    56  H   1.0    0.06    1.01    1.43    -0.14199   146.71050   -14.07154
    57  H   1.0    0.05    1.00    1.43     2.00354   146.19681   -16.56994
    58  N   5.0   -0.14    3.60    2.16     5.04697   148.12007   -13.07996
    59  C   4.0    0.04    4.49    4.53     6.87727   149.84565   -14.19344
    60  C   4.0    0.09    3.26    3.05     9.57969   149.58040   -13.02571
    61  O   6.0   -0.32    1.16    1.80    11.41156   149.77593   -14.31187
    62  C   4.0   -0.02    4.31    4.21     5.87099   152.46357   -13.74434
    63  C   4.0   -0.07    4.11    3.81     7.87676   154.45726   -14.49607
    64  C   4.0   -0.07    4.15    3.90     3.38362   152.64501   -15.17627
    65  H   1.0    0.12    1.12    1.45     3.63330   148.81372   -11.99997
    66  H   1.0    0.05    1.05    1.44     7.04517   149.45322   -16.22617
    67  H   1.0    0.06    1.06    1.44     5.48261   152.67007   -11.72598
    68  H   1.0    0.04    0.99    1.43     7.03073   156.36806   -14.41114
    69  H   1.0    0.05    1.01    1.43     9.44109   154.40555   -13.18700
    70  H   1.0    0.05    1.00    1.43     8.54619   154.12585   -16.39098
    71  H   1.0    0.04    0.99    1.43     2.64073   154.60113   -15.08617
    72  H   1.0    0.04    1.00    1.43     3.71376   152.22225   -17.17196
    73  H   1.0    0.06    1.02    1.43     1.99091   151.40937   -14.44084
    74  N   5.0   -0.21    3.38    2.01    12.10230   144.40419   -15.78826
    75  C   4.0    0.03    4.36    4.30    13.14364   144.93559   -18.24665
    76  C   4.0    0.16    3.38    3.07    15.90333   145.73463   -18.18014
    77  O   6.0   -0.29    1.23    1.80    17.46106   145.08526   -19.64822
    78  C   4.0   -0.03    4.34    4.27    11.30544   146.88872   -19.27270
    79  C   4.0   -0.03    4.21    4.01     8.78415   145.65060   -19.73185
    80  C   4.0    0.23    3.10    3.02     7.80725   146.60115   -22.38240
    81  O   6.0   -0.32    1.20    1.80     6.20624   148.37033   -22.19924
    82  O   6.0   -0.28    1.10    1.80     8.73396   145.60042   -24.50754
    83  H   1.0    0.13    1.12    1.45    10.56626   145.08433   -15.19418
    84  H   1.0    0.05    1.06    1.44    13.12404   143.25915   -19.45700
    85  H   1.0    0.07    1.05    1.44    11.17784   148.48770   -18.00992
    86  H   1.0    0.06    1.02    1.43    12.09562   147.59052   -21.09825
    87  H   1.0    0.05    1.02    1.43     8.98048   143.58434   -19.88013
    88  H   1.0    0.06    1.04    1.43     7.37753   146.07715   -18.33432
    89  N   5.0   -0.14    3.49    2.07    16.49503   147.35194   -16.19567
    90  C   4.0    0.04    4.32    4.23    19.04932   148.05743   -15.74933
    91  C   4.0    0.09    3.22    3.04    20.62194   145.87020   -14.71906
    92  O   6.0   -0.29    1.13    1.80    22.63079   145.31277   -15.55727
    93  C   4.0   -0.05    4.23    4.06    19.17650   150.33182   -13.93727
    94  C   4.0   -0.04    4.13    3.86    17.76233   152.69362   -14.87306
    95  C   4.0   -0.01    4.13    3.87    18.89873   154.26477   -17.02399
    96  N   5.0   -0.14    3.33    1.99    21.55142   155.12370   -16.65161
    97  C   4.0    0.10    3.31    3.05    22.40326   157.22831   -15.55072
    98  N   5.0   -0.17    3.30    1.98    20.88704   158.66130   -14.17657
    99  N   5.0   -0.18    3.19    1.95    24.88991   158.00903   -15.89798
   100  H   1.0    0.10    1.08    1.44    15.15439   147.76049   -14.94615
   101  H   1.0    0.06    1.05    1.44    19.90258   148.55110   -17.59428
   102  H   1.0    0.04    1.04    1.43    18.32091   149.73376   -12.17782
   103  H   1.0    0.05    1.03    1.43    21.17510   150.75567   -13.63658
   104  H   1.0    0.05    1.03    1.43    15.87497   152.14837   -15.45584
   105  H   1.0    0.04    1.02    1.43    17.56095   153.92505   -13.19266
   106  H   1.0    0.05    1.03    1.43    18.93025   153.14759   -18.73670
   107  H   1.0    0.05    1.03    1.43    17.74931   155.93507   -17.31639
   108  H   1.0    0.08    1.06    1.44    22.86782   153.96464   -17.46962
   109  H   1.0    0.09    1.03    1.43    18.99608   158.18474   -14.11665
   110  H   1.0    0.15    1.16    1.46    21.31228   160.35015   -13.45566
   111  H   1.0    0.09    1.05    1.44    26.07594   156.84657   -16.55530
   112  H   1.0    0.10    1.03    1.43    25.40040   159.52393   -14.80783
   113  N   5.0   -0.22    3.31    1.98   -11.43447   171.29997   -10.88279
   114  C   4.0    0.02    4.32    4.24    -9.55966   171.07118   -12.89900
   115  C   4.0    0.14    3.41    3.08    -8.23565   168.44260   -12.98668
   116  O   6.0   -0.30    1.20    1.80    -7.58561   167.28354   -14.87576
   117  C   4.0   -0.02    4.23    4.06    -7.55434   173.24396   -12.29792
   118  C   4.0   -0.05    4.13    3.87    -5.17678   172.33893   -10.70182
   119  C   4.0   -0.09    4.13    3.87    -8.87733   175.65882   -11.21958
   120  C   4.0   -0.09    4.00    3.62    -3.87489   174.40126    -9.07302
   121  H   1.0    0.07    1.07    1.44   -10.80689   172.36355    -9.44557
   122  H   1.0    0.04    1.04    1.44   -10.41364   171.43414   -14.72893
   123  H   1.0    0.04    1.04    1.43    -6.77815   173.74604   -14.18966
   124  H   1.0    0.04    1.07    1.44    -5.68899   170.80332    -9.51029
   125  H   1.0    0.04    1.01    1.43    -3.80153   171.57995   -12.09888
   126  H   1.0    0.03    1.01    1.43    -7.65418   177.23193   -11.65546
   127  H   1.0    0.03    1.00    1.43   -10.63676   175.91592   -12.24040
   128  H   1.0    0.03    1.01    1.43    -9.14900   175.56559    -9.25155
   129  H   1.0    0.04    1.00    1.43    -2.13103   173.56377    -8.37400
   130  H   1.0    0.04    1.00    1.43    -3.42548   176.02701   -10.20490
   131  H   1.0    0.03    1.01    1.43    -5.08241   174.87645    -7.55271
   132  N   5.0   -0.15    3.63    2.19    -7.85678   167.67316   -10.59187
   133  C   4.0    0.03    4.35    4.29    -6.65792   165.41295    -9.80942
   134  C   4.0    0.14    3.42    3.09    -8.38044   163.10812   -10.29022
   135  O   6.0   -0.32    1.24    1.80    -7.88503   161.02428    -9.41771
   136  C   4.0   -0.05    4.33    4.26    -5.96355   165.46589    -6.95476
   137  C   4.0   -0.03    4.12    3.85    -3.74648   167.11438    -6.04403
   138  C   4.0   -0.08    4.10    3.79    -4.45837   169.61062    -4.81993
   139  C   4.0   -0.09    4.12    3.84    -2.23182   165.56844    -4.07374
   140  H   1.0    0.07    1.11    1.45    -9.06998   168.45074    -9.31656
   141  H   1.0    0.05    1.04    1.43    -4.95644   165.11085   -10.98995
   142  H   1.0    0.04    1.04    1.43    -7.66579   165.88698    -5.95022
   143  H   1.0    0.05    1.06    1.44    -5.41233   163.51722    -6.63238
   144  H   1.0    0.04    1.03    1.43    -2.48780   167.48580    -7.70234
   145  H   1.0    0.03    1.00    1.43    -2.78512   170.83848    -4.78644
   146  H   1.0    0.03    1.00    1.43    -5.91718   170.60119    -5.84278
   147  H   1.0    0.03    1.01    1.43    -4.99203   169.28769    -2.88721
   148  H   1.0    0.03    0.99    1.43    -0.55642   166.64522    -3.50926
   149  H   1.0    0.03    1.01    1.43    -3.35957   165.15804    -2.48218
   150  H   1.0    0.03    0.99    1.43    -1.54501   163.80118    -4.91489
   151  N   5.0   -0.14    3.53    2.10   -10.46742   163.52078   -11.67429
   152  C   4.0    0.04    4.38    4.34   -11.98011   161.45672   -12.57692
   153  C   4.0    0.16    3.48    3.11   -10.90895   160.51281   -15.10812
   154  O   6.0   -0.29    1.32    1.80   -11.57220   158.47806   -15.92953
   155  C   4.0   -0.03    4.23    4.05   -14.87674   162.10844   -12.72471
   156  C   4.0    0.15    3.19    3.03   -16.54689   159.99831   -11.64468
   157  O   6.0   -0.29    1.19    1.80   -17.65746   158.45887   -12.97601
   158  N   5.0   -0.20    3.17    1.95   -16.64582   159.94015    -9.07978
   159  H   1.0    0.08    1.10    1.44   -10.97241   165.30243   -12.20761
   160  H   1.0    0.06    1.07    1.44   -11.69735   159.91940   -11.20819
   161  H   1.0    0.04    1.03    1.43   -15.19135   163.85746   -11.68356
   162  H   1.0    0.07    1.03    1.43   -15.39417   162.37918   -14.68926
   163  H   1.0    0.09    1.03    1.43   -17.68094   158.56883    -8.24290
   164  H   1.0    0.08    1.03    1.43   -15.68341   161.14245    -8.01378
   165  N   5.0   -0.13    3.55    2.11    -9.18298   161.84837   -16.33236
   166  C   4.0    0.05    4.69    4.75    -8.90288   161.12982   -18.94169
   167  C   4.0    0.15    3.62    3.18    -6.34521   160.13366   -19.36830
   168  O   6.0   -0.33    1.68    1.81    -4.62941   161.40665   -20.17081
   169  C   4.0   -0.03    4.37    4.33    -9.42590   163.29053   -20.69565
   170  C   4.0    0.15    3.29    3.05   -12.17633   163.96165   -20.27867
   171  O   6.0   -0.28    1.26    1.80   -13.64937   162.39560   -19.41599
   172  N   5.0   -0.19    3.15    1.95   -12.85529   166.41246   -20.78610
   173  H   1.0    0.11    1.07    1.44    -8.70008   163.67565   -15.81411
   174  H   1.0    0.08    1.12    1.45   -10.30159   159.65454   -19.29210
   175  H   1.0    0.05    1.02    1.43    -8.26163   164.95824   -20.20529
   176  H   1.0    0.04    1.03    1.43    -9.14807   162.78075   -22.66581
   177  H   1.0    0.09    1.04    1.43   -14.64271   166.88400   -20.74656
   178  H   1.0    0.07    1.02    1.43   -11.58587   167.58356   -21.68156
   179  N   5.0   -0.15    3.54    2.11    -6.02154   157.76624   -18.97906
   180  C   4.0    0.03    4.52    4.57    -3.72090   156.62351   -19.85905
   181  C   4.0    0.16    3.75    3.28    -2.44210   158.26819   -21.92056
   182  O   6.0   -0.33    1.58    1.80    -0.19074   158.83493   -21.56862
   183  C   4.0   -0.03    4.31    4.22    -4.14379   153.82407   -20.60070
   184  C   4.0   -0.04    4.24    4.08    -2.11404   153.06059   -22.54590
   185  C   4.0   -0.07    4.12    3.85    -6.76153   153.23487   -21.62703
   186  C   4.0   -0.07    4.09    3.78     0.52535   153.12968   -21.35371
   187  H   1.0    0.08    1.07    1.44    -7.44835   156.59923   -18.38915
   188  H   1.0    0.04    1.07    1.44    -2.31876   156.61707   -18.33367
   189  H   1.0    0.04    1.06    1.44    -3.84920   152.66385   -18.91764
   190  H   1.0    0.06    1.03    1.43    -2.52736   151.13254   -23.18975
   191  H   1.0    0.05    1.04    1.43    -2.19210   154.25324   -24.19254
   192  H   1.0    0.06    1.01    1.43    -6.69721   151.37660   -22.51284
   193  H   1.0    0.05    1.00    1.43    -8.19284   153.15222   -20.14952
   194  H   1.0    0.05    1.00    1.43    -7.36301   154.57467   -23.05172
   195  H   1.0    0.05    1.06    1.44     1.79160   152.08841   -22.52586
   196  H   1.0    0.05    1.03    1.43     1.14652   155.01240   -21.01711
   197  H   1.0    0.04    1.00    1.43     0.42853   152.10391   -19.54742
   198  N   5.0   -0.14    3.55    2.11    -3.45912   159.02262   -24.13735
   199  C   4.0    0.03    4.56    4.62    -1.62444   159.91711   -26.02932
   200  C   4.0    0.16    3.60    3.16     0.00509   161.92010   -24.82685
   201  O   6.0   -0.31    1.22    1.80     2.35176   162.11499   -25.11897
   202  C   4.0   -0.05    4.31    4.21    -2.98600   161.06413   -28.26413
   203  C   4.0   -0.05    4.19    3.99    -4.01406   159.03407   -30.00885
   204  C   4.0   -0.01    4.18    3.97    -1.91927   157.77004   -31.57407
   205  N   5.0   -0.14    3.36    2.00    -2.94918   155.50864   -32.84389
   206  C   4.0    0.10    3.34    3.06    -2.35345   154.73409   -35.22332
   207  N   5.0   -0.17    3.23    1.96    -0.28708   155.58196   -36.36977
   208  N   5.0   -0.17    3.30    1.98    -4.05663   153.36984   -36.56014
   209  H   1.0    0.07    1.05    1.44    -5.13196   158.31367   -24.74320
   210  H   1.0    0.04    1.06    1.44    -0.43309   158.34950   -26.62846
   211  H   1.0    0.04    1.02    1.43    -4.55304   162.27144   -27.60517
   212  H   1.0    0.04    1.03    1.43    -1.67795   162.27609   -29.31517
   213  H   1.0    0.04    1.03    1.43    -4.95066   157.57173   -28.89402
   214  H   1.0    0.05    1.04    1.43    -5.44991   159.79975   -31.29075
   215  H   1.0    0.04    1.02    1.43    -1.20980   159.07305   -33.00692
   216  H   1.0    0.04    1.03    1.43    -0.39600   157.15407   -30.36007
   217  H   1.0    0.08    1.08    1.44    -4.56691   154.83111   -32.14077
   218  H   1.0    0.08    1.03    1.43     1.19746   156.19929   -35.29303
   219  H   1.0    0.11    1.04    1.43     0.21624   154.70483   -37.98337
   220  H   1.0    0.10    1.04    1.43    -5.61975   152.78754   -35.66049
   221  H   1.0    0.13    1.09    1.44    -3.39807   152.07912   -37.79471
   222  N   5.0   -0.14    3.74    2.32    -1.49519   163.57143   -23.69880
   223  C   4.0    0.03    4.48    4.51    -0.76348   165.86509   -22.46072
   224  C   4.0    0.17    3.59    3.16     0.79771   165.34801   -20.13862
   225  O   6.0   -0.32    1.35    1.80     2.21252   166.84252   -19.10332
   226  C   4.0    0.05    4.28    4.15    -3.17769   167.21890   -21.52892
   227  O   6.0   -0.24    2.18    1.85    -3.80661   166.31623   -19.11313
   228  C   4.0   -0.08    4.08    3.76    -5.31096   167.16802   -23.52077
   229  H   1.0    0.10    1.15    1.45    -3.28782   162.99271   -23.31745
   230  H   1.0    0.04    1.04    1.43     0.27073   167.08262   -23.81164
   231  H   1.0    0.05    1.04    1.43    -2.67918   169.22282   -21.21257
   232  H   1.0    0.15    1.10    1.44    -4.29038   164.56186   -19.28651
   233  H   1.0    0.04    1.00    1.43    -6.83509   168.37799   -22.89349
   234  H   1.0    0.04    1.00    1.43    -4.56249   167.94553   -25.28731
   235  H   1.0    0.04    1.01    1.43    -6.02367   165.29485   -23.87398
   236  N   5.0   -0.12    3.75    2.34     0.44611   163.13689   -19.21148
   237  C   4.0    0.04    4.56    4.62     1.66936   162.41413   -16.96288
   238  C   4.0    0.15    3.56    3.15     4.26567   161.38928   -17.72890
   239  O   6.0   -0.32    1.45    1.80     6.23652   162.33436   -17.06720
   240  C   4.0   -0.04    4.38    4.34    -0.12244   160.71816   -15.49111
   241  C   4.0   -0.03    4.19    3.98     0.87885   160.27625   -12.84391
   242  C   4.0   -0.08    4.14    3.88     1.61593   162.83815   -11.67632
   243  C   4.0   -0.08    4.08    3.76    -1.02522   158.81593   -11.20802
   244  H   1.0    0.12    1.16    1.46    -0.92067   161.93507   -19.91258
   245  H   1.0    0.06    1.10    1.44     2.03623   164.16284   -15.90090
   246  H   1.0    0.06    1.04    1.43    -1.95351   161.63062   -15.37628
   247  H   1.0    0.04    1.03    1.43    -0.31058   158.90393   -16.44185
   248  H   1.0    0.04    1.05    1.44     2.61352   159.13331   -12.93368
   249  H   1.0    0.03    0.98    1.43     1.87003   162.58537    -9.59587
   250  H   1.0    0.05    1.01    1.43     3.36991   163.53737   -12.37553
   251  H   1.0    0.04    1.00    1.43     0.11216   164.21281   -11.90525
   252  H   1.0    0.03    1.00    1.43    -0.28913   158.52612    -9.31772
   253  H   1.0    0.05    1.00    1.43    -2.79498   159.85857   -11.05368
   254  H   1.0    0.04    1.00    1.43    -1.41720   156.99534   -12.05465
   255  N   5.0   -0.15    3.61    2.17     4.29992   159.52465   -19.39480
   256  C   4.0    0.04    4.52    4.57     6.59960   158.93605   -20.67999
   257  C   4.0    0.17    3.62    3.18     8.05172   161.27308   -21.19961
   258  O   6.0   -0.32    1.26    1.80    10.35617   161.21319   -21.16740
   259  C   4.0   -0.05    4.39    4.37     5.98034   157.75514   -23.22891
   260  C   4.0   -0.05    4.18    3.95     6.01419   154.86828   -23.21238
   261  C   4.0   -0.01    4.28    4.15     4.60033   154.17959   -25.62744
   262  N   5.0   -0.14    3.40    2.02     3.69410   151.60803   -25.75031
   263  C   4.0    0.10    3.35    3.06     2.64143   150.63292   -27.87760
   264  N   5.0   -0.18    3.22    1.96     2.15250   151.91755   -29.95557
   265  N   5.0   -0.17    3.23    1.96     2.06581   148.11653   -27.83685
   266  H   1.0    0.11    1.14    1.45     2.65922   158.74928   -19.98837
   267  H   1.0    0.04    1.05    1.44     7.77111   157.64262   -19.55826
   268  H   1.0    0.07    1.05    1.44     4.08421   158.41234   -23.73123
   269  H   1.0    0.05    1.04    1.43     7.24147   158.47390   -24.68241
   270  H   1.0    0.05    1.02    1.43     7.93423   154.13499   -23.26293
   271  H   1.0    0.04    1.04    1.43     5.09157   154.10265   -21.58128
   272  H   1.0    0.04    1.04    1.43     2.97864   155.38833   -25.90131
   273  H   1.0    0.04    1.01    1.43     5.91818   154.51376   -27.24123
   274  H   1.0    0.11    1.09    1.44     4.54701   150.32392   -24.49502
   275  H   1.0    0.08    1.03    1.43     3.29769   153.44449   -30.36232
   276  H   1.0    0.10    1.05    1.44     1.46207   150.99621   -31.42762
   277  H   1.0    0.10    1.03    1.43     2.22032   147.22095   -26.14536
   278  H   1.0    0.11    1.04    1.43     0.71273   147.46134   -28.95662
   279  N   5.0   -0.13    3.57    2.13     6.64662   163.24983   -21.91993
   280  C   4.0    0.04    4.27    4.15     7.73663   165.74060   -22.38492
   281  C   4.0    0.15    3.43    3.09     8.77935   167.22358   -20.02191
   282  O   6.0   -0.31    1.30    1.80    11.03699   167.75855   -19.98807
   283  C   4.0   -0.07    4.11    3.82     5.86814   167.27060   -23.90276
   284  H   1.0    0.11    1.11    1.45     4.80464   163.05719   -22.21611
   285  H   1.0    0.05    1.07    1.44     9.45891   165.46728   -23.50526
   286  H   1.0    0.04    1.00    1.43     6.79318   168.94078   -24.67328
   287  H   1.0    0.06    1.01    1.43     5.13005   166.12589   -25.42705
   288  H   1.0    0.06    1.01    1.43     4.32171   167.92127   -22.69870
   289  N   5.0   -0.14    3.49    2.07     7.26545   167.94162   -18.09018
   290  C   4.0    0.04    4.42    4.42     8.42333   169.29929   -16.02560
   291  C   4.0    0.15    3.39    3.08    10.30154   167.63749   -14.61101
   292  O   6.0   -0.31    1.23    1.80    11.73800   168.39649   -12.98878
   293  C   4.0   -0.05    4.13    3.86     6.50871   170.75438   -14.41253
   294  C   4.0   -0.03    4.07    3.74     7.71163   173.00885   -12.84822
   295  C   4.0    0.15    3.10    3.02     6.25120   175.43675   -11.79546
   296  O   6.0   -0.29    1.16    1.80     6.91644   176.67540    -9.91506
   297  N   5.0   -0.19    3.15    1.95     4.19018   176.16952   -13.16155
   298  H   1.0    0.11    1.10    1.44     5.37805   167.59047   -18.14780
   299  H   1.0    0.06    1.05    1.44     9.68304   170.77014   -16.91483
   300  H   1.0    0.05    1.02    1.43     5.11250   171.58429   -15.72506
   301  H   1.0    0.05    1.03    1.43     5.53168   169.54488   -13.11274
   302  H   1.0    0.06    1.02    1.43     8.70164   172.20075   -11.23049
   303  H   1.0    0.06    1.02    1.43     9.21499   173.90429   -13.98650
   304  H   1.0    0.08    1.04    1.43     3.63295   175.25574   -14.66574
   305  H   1.0    0.09    1.03    1.43     3.34699   177.77053   -12.59520
   306  N   5.0   -0.13    3.58    2.14    10.37134   165.26789   -15.47051
   307  C   4.0    0.04    4.32    4.24    11.98591   163.21176   -14.48937
   308  C   4.0    0.15    3.49    3.11    14.57189   163.12245   -15.73032
   309  O   6.0   -0.30    1.26    1.80    16.42315   162.54252   -14.48287
   310  C   4.0   -0.06    4.14    3.87    10.79111   160.60570   -14.84362
   311  H   1.0    0.12    1.15    1.45     8.86163   164.57459   -16.44741
   312  H   1.0    0.05    1.05    1.44    12.30582   163.60343   -12.45794
   313  H   1.0    0.04    1.01    1.43    11.95872   159.22092   -13.89607
   314  H   1.0    0.05    1.00    1.43     8.91040   160.59874   -13.98592
   315  H   1.0    0.07    1.02    1.43    10.65252   160.18880   -16.82222
   316  N   5.0   -0.14    3.53    2.10    14.56617   163.53040   -18.22201
   317  C   4.0    0.04    4.42    4.41    16.84798   163.92316   -19.66900
   318  C   4.0    0.16    3.51    3.12    18.88104   165.43404   -18.23738
   319  O   6.0   -0.27    1.16    1.80    21.26831   165.26749   -18.67832
   320  C   4.0   -0.04    4.36    4.30    16.28982   165.80620   -21.86393
   321  C   4.0   -0.04    4.20    3.99    14.57279   164.68035   -23.87005
   322  C   4.0   -0.01    4.20    4.00    16.02704   162.79102   -25.53579
   323  N   5.0   -0.14    3.39    2.02    14.33540   160.70423   -26.15843
   324  C   4.0    0.09    3.32    3.06    14.11948   159.67233   -28.47099
   325  N   5.0   -0.19    3.19    1.95    15.65028   160.26775   -30.45868
   326  N   5.0   -0.19    3.22    1.96    12.21670   157.97481   -28.73816
   327  H   1.0    0.11    1.10    1.44    12.95420   164.17446   -19.02378
   328  H   1.0    0.05    1.05    1.44    17.62324   162.14909   -20.33311
   329  H   1.0    0.06    1.04    1.43    15.39204   167.46681   -21.07534
   330  H   1.0    0.05    1.03    1.43    18.08659   166.38091   -22.70698
   331  H   1.0    0.07    1.06    1.44    13.06205   163.67385   -22.92659
   332  H   1.0    0.05    1.03    1.43    13.77540   166.19406   -25.00418
   333  H   1.0    0.04    1.02    1.43    16.70259   163.76837   -27.23994
   334  H   1.0    0.04    1.03    1.43    17.65251   162.05068   -24.52942
   335  H   1.0    0.09    1.09    1.44    13.18106   160.18392   -24.81897
   336  H   1.0    0.08    1.02    1.43    17.07108   161.54929   -30.22585
   337  H   1.0    0.09    1.03    1.43    15.35898   159.54130   -32.15241
   338  H   1.0    0.09    1.04    1.43    11.24868   157.39777   -27.25364
   339  H   1.0    0.09    1.03    1.43    12.07147   157.03175   -30.38608
   340  N   5.0   -0.13    3.64    2.19    17.72927   167.16545   -16.78094
   341  C   4.0    0.03    4.37    4.32    19.04484   169.09927   -15.41408
   342  C   4.0    0.16    3.42    3.08    20.81399   167.61058   -13.58360
   343  O   6.0   -0.27    1.18    1.80    23.14638   167.50845   -13.96265
   344  C   4.0   -0.04    4.13    3.87    17.10295   171.02312   -14.40803
   345  C   4.0   -0.03    4.08    3.77    16.25291   172.74402   -16.69360
   346  C   4.0    0.24    2.99    3.02    14.62805   175.35847   -16.45737
   347  O   6.0   -0.29    1.15    1.80    14.16354   176.28138   -18.58367
   348  O   6.0   -0.28    1.11    1.80    13.95811   176.30434   -14.33046
   349  H   1.0    0.09    1.12    1.45    15.83870   167.29236   -16.77599
   350  H   1.0    0.06    1.05    1.44    20.36438   170.09893   -16.68948
   351  H   1.0    0.07    1.04    1.43    15.48285   170.11751   -13.57211
   352  H   1.0    0.05    1.01    1.43    17.97993   172.26654   -12.97779
   353  H   1.0    0.05    1.03    1.43    17.91995   173.41714   -17.66195
   354  H   1.0    0.06    1.03    1.43    15.14343   171.62508   -17.97756
   355  N   5.0   -0.13    3.41    2.03    19.52404   166.41618   -11.65604
   356  C   4.0    0.04    4.26    4.12    20.92703   165.78076    -9.41518
   357  C   4.0    0.09    3.15    3.03    22.30496   163.20680    -9.44659
   358  O   6.0   -0.31    1.32    1.80    22.47744   161.68596   -11.11304
   359  C   4.0    0.02    4.12    3.84    19.46162   166.57706    -7.05409
   360  O   6.0   -0.26    2.05    1.83    21.08983   166.66145    -4.97475
   361  H   1.0    0.09    1.07    1.44    17.65987   166.56126   -11.63344
   362  H   1.0    0.06    1.06    1.44    22.60732   167.10495    -9.45374
   363  H   1.0    0.05    1.02    1.43    18.68084   168.46281    -7.37258
   364  H   1.0    0.03    1.04    1.43    17.92741   165.26336    -6.71588
   365  H   1.0    0.11    1.01    1.43    20.70084   165.39696    -3.70571
   366  N   5.0   -0.22    3.30    1.98    18.84148   158.67689    -1.07620
   367  C   4.0    0.03    4.31    4.22    16.38287   158.03106    -1.92982
   368  C   4.0    0.10    3.21    3.04    15.43116   155.87494    -0.24871
   369  O   6.0   -0.32    1.18    1.80    13.81601   155.92744     0.93862
   370  C   4.0   -0.05    4.38    4.35    16.52063   157.57286    -4.69002
   371  C   4.0   -0.03    4.21    4.02    17.17988   160.01369    -6.11984
   372  C   4.0   -0.07    4.10    3.80    17.28862   159.53991    -8.97978
   373  C   4.0   -0.08    4.16    3.91    15.30450   162.08377    -5.50357
   374  H   1.0    0.07    1.03    1.43    20.31545   158.64201    -2.30887
   375  H   1.0    0.04    1.05    1.44    15.08404   159.65061    -1.47502
   376  H   1.0    0.04    1.04    1.43    17.89323   156.10691    -5.04090
   377  H   1.0    0.04    1.03    1.43    14.66476   156.92971    -5.37752
   378  H   1.0    0.04    1.05    1.44    19.06162   160.65806    -5.48060
   379  H   1.0    0.06    1.00    1.43    17.63171   161.27169   -10.01454
   380  H   1.0    0.05    0.99    1.43    18.87759   158.25773    -9.37866
   381  H   1.0    0.04    1.01    1.43    15.56283   158.69141    -9.59909
   382  H   1.0    0.04    1.01    1.43    14.94234   163.31471    -7.10349
   383  H   1.0    0.04    1.00    1.43    13.44928   161.24099    -5.05218
   384  H   1.0    0.04    1.00    1.43    15.85610   163.20899    -3.88118
   385  N   5.0   -0.23    3.26    1.97    -6.17072   140.57593   -40.24705
   386  C   4.0    0.03    4.22    4.05    -5.02966   142.96828   -40.08331
   387  C   4.0    0.11    3.19    3.03    -4.85141   144.21545   -42.74191
   388  O   6.0   -0.32    1.23    1.80    -5.57834   146.02573   -43.30292
   389  C   4.0   -0.05    4.20    4.00    -2.70529   142.67933   -38.35585
   390  C   4.0   -0.03    4.07    3.75    -0.83305   144.88086   -38.38907
   391  C   4.0    0.26    3.06    3.02    -1.89222   147.65578   -39.16388
   392  O   6.0   -0.26    1.16    1.80    -1.55666   148.42297   -41.37489
   393  O   6.0   -0.31    1.26    1.80    -2.91394   148.82670   -37.40528
   394  H   1.0    0.08    1.06    1.44    -5.26522   139.10621   -39.75295
   395  H   1.0    0.05    1.04    1.43    -6.30510   144.34074   -39.06347
   396  H   1.0    0.04    1.04    1.43    -3.34990   142.44182   -36.45574
   397  H   1.0    0.04    1.03    1.43    -1.69495   140.97521   -38.97455
   398  H   1.0    0.05    1.02    1.43     0.15361   145.07310   -36.60680
   399  H   1.0    0.05    1.00    1.43     0.64631   144.49289   -39.88477
   400  N   5.0   -0.19    3.28    1.98   -11.11141   146.98775   -45.22288
   401  C   4.0    0.03    4.52    4.57   -11.25619   149.17933   -43.73618
   402  C   4.0    0.16    3.62    3.18    -9.55885   151.17773   -45.02170
   403  O   6.0   -0.32    1.61    1.81   -10.63461   152.58918   -46.16222
   404  C   4.0   -0.02    4.32    4.23   -10.46492   148.64429   -41.07093
   405  C   4.0   -0.07    4.14    3.89   -10.44833   151.04945   -39.57969
   406  C   4.0   -0.08    4.11    3.82   -11.93513   146.44138   -39.93133
   407  H   1.0    0.09    1.01    1.43    -9.97741   145.52608   -44.36923
   408  H   1.0    0.04    1.07    1.44   -13.19598   149.87800   -43.77673
   409  H   1.0    0.06    1.06    1.44    -8.43080   147.99382   -41.11333
   410  H   1.0    0.06    0.99    1.43   -10.05581   150.73925   -37.55952
   411  H   1.0    0.05    1.02    1.43    -9.07237   152.35971   -40.28429
   412  H   1.0    0.05    1.00    1.43   -12.30862   151.95456   -39.65418
   413  H   1.0    0.03    0.99    1.43   -11.38120   146.15922   -37.94777
   414  H   1.0    0.03    1.00    1.43   -13.93786   146.89019   -39.91841
   415  H   1.0    0.04    1.00    1.43   -11.64035   144.70024   -40.95090
   416  N   5.0   -0.13    3.49    2.07    -7.33688   151.26554   -44.93304
   417  C   4.0    0.05    4.54    4.59    -6.04915   153.05955   -46.40360
   418  C   4.0    0.08    3.41    3.08    -7.21165   153.70786   -48.98089
   419  O   6.0   -0.30    1.10    1.80    -7.05321   155.88251   -49.95466
   420  C   4.0   -0.03    4.35    4.30    -3.30697   152.48903   -47.24124
   421  C   4.0    0.16    3.26    3.04    -1.63146   154.26165   -45.79870
   422  O   6.0   -0.29    1.24    1.80    -2.13409   154.58629   -43.49745
   423  N   5.0   -0.19    3.15    1.94     0.07179   155.59627   -47.22398
   424  H   1.0    0.10    0.98    1.43    -6.02206   149.79837   -44.02857
   425  H   1.0    0.06    1.09    1.44    -6.00591   154.87755   -45.41067
   426  H   1.0    0.06    1.02    1.43    -2.88712   150.50540   -46.75806
   427  H   1.0    0.05    1.05    1.44    -3.07419   152.73168   -49.27269
   428  H   1.0    0.09    1.02    1.43     1.29385   156.68452   -46.18268
   429  H   1.0    0.09    1.04    1.43     0.46923   155.14797   -48.93186
   430  N   5.0   -0.20    3.20    1.96   -11.93536   158.07247   -47.46674
   431  C   4.0    0.03    4.16    3.92   -10.65961   160.21219   -46.37040
   432  C   4.0    0.09    3.21    3.04    -9.71084   161.86050   -48.58574
   433  O   6.0   -0.30    1.11    1.80    -9.72555   164.14468   -48.57718
   434  C   4.0   -0.04    4.17    3.93    -8.30599   159.43244   -44.74599
   435  C   4.0   -0.05    4.12    3.84    -8.75827   157.59018   -42.48010
   436  C   4.0    0.00    4.16    3.92    -6.42244   156.67957   -40.95021
   437  N   5.0   -0.13    3.40    2.02    -6.72514   157.44052   -38.35515
   438  C   4.0    0.09    3.32    3.06    -5.71287   159.55250   -37.20880
   439  N   5.0   -0.19    3.20    1.96    -3.47893   160.57689   -37.80610
   440  N   5.0   -0.19    3.23    1.96    -6.96638   160.53730   -35.18548
   441  H   1.0    0.11    1.04    1.43   -11.34345   156.30431   -46.89581
   442  H   1.0    0.04    1.05    1.44   -11.94551   161.33535   -45.23763
   443  H   1.0    0.06    1.02    1.43    -6.91986   158.61169   -46.04701
   444  H   1.0    0.05    1.01    1.43    -7.46593   161.21210   -44.04685
   445  H   1.0    0.05    1.03    1.43   -10.05288   158.59034   -41.19999
   446  H   1.0    0.05    1.04    1.43    -9.78833   155.99209   -43.21118
   447  H   1.0    0.06    1.05    1.44    -6.21067   154.70274   -41.00197
   448  H   1.0    0.06    1.03    1.43    -4.70686   157.55637   -41.72913
   449  H   1.0    0.10    1.09    1.44    -8.40821   156.94458   -37.54659
   450  H   1.0    0.09    1.04    1.43    -2.50607   159.90460   -39.26052
   451  H   1.0    0.08    1.03    1.43    -2.96466   162.25709   -37.02650
   452  H   1.0    0.11    1.05    1.44    -8.73348   159.91817   -34.83485
   453  H   1.0    0.08    1.02    1.43    -6.44386   162.25993   -34.50657
   454  N   5.0   -0.22    3.25    1.97   -18.52967   151.17862   -35.15194
   455  C   4.0    0.04    4.32    4.23   -16.66022   152.01044   -33.47369
   456  C   4.0    0.06    3.32    3.06   -16.69370   150.90041   -30.96609
   457  O   6.0   -0.31    1.14    1.80   -14.74868   150.42558   -29.56587
   458  C   4.0   -0.04    4.39    4.36   -17.08886   154.82575   -33.01034
   459  C   4.0   -0.03    4.18    3.95   -14.73386   156.12497   -32.03135
   460  C   4.0    0.24    3.16    3.03   -12.57962   155.61516   -33.98279
   461  O   6.0   -0.32    1.19    1.80   -11.82596   157.43707   -35.27703
   462  O   6.0   -0.32    1.23    1.80   -11.70937   153.39972   -34.13727
   463  H   1.0    0.07    1.04    1.43   -19.64880   152.52450   -35.95117
   464  H   1.0    0.07    1.11    1.45   -14.76222   151.74899   -34.31620
   465  H   1.0    0.04    1.02    1.43   -17.58785   155.75000   -34.82391
   466  H   1.0    0.04    1.03    1.43   -18.67709   155.15080   -31.73122
   467  H   1.0    0.05    1.01    1.43   -15.00439   158.17865   -31.84683
   468  H   1.0    0.06    1.02    1.43   -14.19692   155.35620   -30.19490
   469  N   5.0   -0.21    3.23    1.96   -15.84043   143.16461   -30.27456
   470  C   4.0    0.03    4.42    4.41   -13.15882   143.16417   -30.09254
   471  C   4.0    0.16    3.58    3.15   -12.18750   144.01219   -27.56691
   472  O   6.0   -0.33    1.54    1.80   -11.05046   142.64639   -26.38018
   473  C   4.0   -0.05    4.41    4.39   -12.13338   144.79082   -32.14745
   474  C   4.0   -0.02    4.20    4.00    -9.41099   145.31304   -31.80398
   475  C   4.0   -0.07    4.04    3.69    -7.76501   142.81726   -32.14838
   476  C   4.0   -0.07    4.01    3.64    -8.47958   147.67677   -33.47078
   477  H   1.0    0.08    1.01    1.43   -16.57093   144.87391   -31.03604
   478  H   1.0    0.04    1.06    1.44   -12.57798   141.16973   -30.35264
   479  H   1.0    0.03    1.01    1.43   -12.45484   143.94475   -34.05596
   480  H   1.0    0.05    1.03    1.43   -13.14066   146.62349   -32.16869
   481  H   1.0    0.06    1.08    1.44    -9.02972   145.91897   -29.86378
   482  H   1.0    0.06    1.00    1.43    -5.81706   143.26066   -31.73502
   483  H   1.0    0.04    1.02    1.43    -8.46351   141.43811   -30.89772
   484  H   1.0    0.03    0.99    1.43    -7.91868   142.19927   -34.13176
   485  H   1.0    0.06    0.99    1.43    -6.53052   148.09709   -32.93659
   486  H   1.0    0.04    1.00    1.43    -8.48669   147.17139   -35.45252
   487  H   1.0    0.06    1.01    1.43    -9.66332   149.24119   -33.08785
   488  N   5.0   -0.14    3.49    2.07   -12.81232   146.20824   -26.57368
   489  C   4.0    0.03    4.39    4.37   -12.08409   146.83615   -24.05415
   490  C   4.0    0.14    3.41    3.08   -11.82206   144.49675   -22.40163
   491  O   6.0   -0.33    1.24    1.80   -10.48831   143.96532   -21.20256
   492  C   4.0   -0.04    4.28    4.15   -13.84674   148.62667   -22.64784
   493  C   4.0   -0.03    4.10    3.81   -13.42001   151.38862   -23.29386
   494  C   4.0    0.23    3.05    3.02   -13.90676   153.16153   -20.82509
   495  O   6.0   -0.32    1.45    1.80   -12.88744   152.08573   -18.82627
   496  O   6.0   -0.27    1.12    1.80   -14.99551   155.19053   -20.84160
   497  H   1.0    0.10    1.07    1.44   -13.60751   147.64976   -27.69129
   498  H   1.0    0.06    1.04    1.43   -10.13832   147.68405   -24.10878
   499  H   1.0    0.05    1.03    1.43   -15.80379   148.15089   -22.98401
   500  H   1.0    0.06    1.06    1.44   -13.41810   148.42279   -20.63996
   501  H   1.0    0.05    1.02    1.43   -11.44026   151.75305   -23.76404
   502  H   1.0    0.06    1.02    1.43   -14.57184   152.14086   -24.80628
   503  N   5.0   -0.20    3.37    2.01    -8.23373   138.70986   -24.10147
   504  C   4.0    0.04    4.27    4.14    -5.66120   138.85640   -23.96383
   505  C   4.0    0.09    3.27    3.05    -5.04469   138.31300   -21.27537
   506  O   6.0   -0.30    1.13    1.80    -3.27517   136.97794   -20.70916
   507  C   4.0   -0.03    4.28    4.15    -4.78800   141.12631   -25.41277
   508  C   4.0   -0.02    4.10    3.81    -5.51700   143.79060   -24.48162
   509  C   4.0    0.23    3.05    3.02    -4.26753   145.92382   -26.23898
   510  O   6.0   -0.31    1.17    1.80    -3.28235   145.09909   -28.29911
   511  O   6.0   -0.31    1.14    1.80    -4.41813   148.21821   -25.56826
   512  H   1.0    0.12    1.06    1.44    -9.37452   140.21339   -24.65155
   513  H   1.0    0.05    1.08    1.44    -4.84201   137.25327   -25.01036
   514  H   1.0    0.05    1.01    1.43    -2.66922   141.13237   -25.50200
   515  H   1.0    0.05    1.04    1.43    -5.39252   141.01579   -27.36648
   516  H   1.0    0.07    1.04    1.44    -7.53202   144.06995   -24.55582
   517  H   1.0    0.05    1.01    1.43    -4.87629   144.16648   -22.54741
   518  N   5.0   -0.21    3.22    1.96     9.00763   156.48831   -46.06152
   519  C   4.0    0.03    4.33    4.26     9.02847   157.65864   -43.62600
   520  C   4.0    0.15    3.39    3.08    11.44809   159.19243   -43.04252
   521  O   6.0   -0.32    1.30    1.80    11.31071   161.47802   -43.06511
   522  C   4.0   -0.04    4.27    4.14     8.39480   155.71263   -41.62858
   523  C   4.0   -0.03    4.18    3.97     5.50909   155.48327   -41.38533
   524  C   4.0    0.25    3.09    3.02     4.67371   152.67501   -41.07195
   525  O   6.0   -0.28    1.15    1.80     4.74567   151.76476   -38.86560
   526  O   6.0   -0.27    1.16    1.80     4.04966   151.60171   -43.06603
   527  H   1.0    0.09    1.04    1.43     9.23435   154.62561   -46.16353
   528  H   1.0    0.05    1.06    1.44     7.55260   159.16131   -43.61445
   529  H   1.0    0.05    1.04    1.43     9.21081   153.90039   -42.13329
   530  H   1.0    0.05    1.02    1.43     9.18660   156.24648   -39.77997
   531  H   1.0    0.05    1.02    1.43     4.80175   156.56200   -39.76236
   532  H   1.0    0.05    1.04    1.43     4.59767   156.15601   -43.09539
   533  N   5.0   -0.15    3.44    2.04    13.50473   157.91059   -42.39445
   534  C   4.0    0.03    4.31    4.22    15.87947   159.03969   -41.64032
   535  C   4.0    0.09    3.32    3.06    16.37221   161.49882   -43.00293
   536  O   6.0   -0.30    1.16    1.80    17.33174   163.30454   -41.82820
   537  C   4.0   -0.04    4.30    4.20    18.12866   157.35554   -42.32690
   538  C   4.0   -0.03    4.15    3.91    18.11734   154.81841   -40.94047
   539  C   4.0    0.25    3.08    3.02    20.02068   152.89123   -42.19214
   540  O   6.0   -0.29    1.18    1.80    21.92953   153.88948   -43.16658
   541  O   6.0   -0.29    1.15    1.80    19.48183   150.58980   -42.07508
   542  H   1.0    0.07    1.07    1.44    13.50112   155.99926   -42.57988
   543  H   1.0    0.05    1.05    1.44    15.87323   159.38749   -39.59399
   544  H   1.0    0.05    1.03    1.43    18.07253   156.96951   -44.35449
   545  H   1.0    0.06    1.03    1.43    19.88700   158.33058   -41.91834
   546  H   1.0    0.05    1.02    1.43    18.64203   155.05290   -38.95475
   547  H   1.0    0.05    1.02    1.43    16.26695   153.90489   -40.99195
   548  N   5.0   -0.20    3.17    1.95    10.80455   166.98941   -42.52087
   549  C   4.0    0.04    4.15    3.91    12.00777   167.81367   -40.21876
   550  C   4.0    0.08    3.21    3.04    13.91092   169.92914   -40.49343
   551  O   6.0   -0.29    1.12    1.80    13.31496   172.09514   -39.94138
   552  C   4.0   -0.07    4.12    3.83    13.26754   165.67424   -38.75453
   553  H   1.0    0.12    1.05    1.44    11.00328   165.07554   -42.85250
   554  H   1.0    0.05    1.05    1.44    10.49943   168.65545   -39.00442
   555  H   1.0    0.05    1.00    1.43    14.05213   166.40379   -36.99677
   556  H   1.0    0.05    0.99    1.43    11.84589   164.24067   -38.26971
   557  H   1.0    0.08    1.04    1.43    14.73252   164.77679   -39.82637
   558  H   1.0    0.09    1.08    1.44     7.51543   156.78558   -46.82149
   559  H   1.0    0.06    1.04    1.44    15.93012   161.67049   -44.83218
   560  H   1.0    0.09    1.07    1.44     9.13915   167.32546   -42.44282
   561  H   1.0    0.06    1.05    1.44    15.65265   169.55706   -41.12510
   562  H   1.0    0.09    1.07    1.44    -5.97284   146.52027    -9.41560
   563  H   1.0    0.06    1.09    1.44     2.12177   148.60893    -6.54615
   564  H   1.0    0.09    1.08    1.44     3.11954   144.63828    -8.38429
   565  H   1.0    0.06    1.05    1.44     9.78133   149.24246   -11.17741
   566  H   1.0    0.10    1.08    1.44    11.82671   142.73268   -15.63766
   567  H   1.0    0.05    1.05    1.44    19.97166   144.83574   -13.27751
   568  H   1.0    0.09    1.07    1.44   -12.84587   172.02148   -11.49917
   569  H   1.0    0.05    1.06    1.44    23.22640   162.60951    -7.90865
   570  H   1.0    0.09    1.08    1.44    18.83535   160.26982    -0.48031
   571  H   1.0    0.05    1.08    1.44    16.35957   154.22955    -0.20634
   572  H   1.0    0.08    1.09    1.44    -7.56298   140.54298   -39.27080
   573  H   1.0    0.06    1.08    1.44    -3.98174   143.30965   -44.15410
   574  H   1.0    0.08    1.08    1.44   -12.67364   146.35903   -45.46100
   575  H   1.0    0.06    1.05    1.44    -8.13924   152.38354   -49.95906
   576  H   1.0    0.09    1.07    1.44   -13.59211   158.14468   -47.08922
   577  H   1.0    0.07    1.05    1.44    -9.03201   161.04311   -50.14848
   578  H   1.0    0.09    1.08    1.44   -17.80137   150.35979   -36.45258
   579  H   1.0    0.05    1.05    1.44   -18.33795   150.42519   -30.16503
   580  H   1.0    0.08    1.08    1.44   -16.34106   141.89169   -31.28530
   581  H   1.0    0.07    1.12    1.45   -13.16465   143.16713   -22.42653
   582  H   1.0    0.09    1.09    1.44    -8.67483   137.50122   -25.21375
   583  H   1.0    0.06    1.05    1.44    -6.10046   139.05557   -19.89515

  Z AO/shell   Hii/eV     exponent
  1     Wed Apr 25 08:07:45 CEST 2018   EN: 2.200 GM2: 0.406  GM3: 0.0800  RAES: 1.40
     1s    -10.707211    1.230000
  6     Wed Apr 25 08:07:45 CEST 2018   EN: 2.550 GM2: 0.538  GM3: 0.1500  RAES: 3.00
     2s    -13.970922    2.096432
     2p    -10.063292    1.800000
  7     Wed Apr 25 08:07:45 CEST 2018   EN: 3.040 GM2: 0.461  GM3:-0.0640  RAES: 1.90
     2s    -16.686243    2.339881
     2p    -12.523956    2.014332
  8     Wed Apr 25 08:07:45 CEST 2018   EN: 3.440 GM2: 0.452  GM3:-0.0517  RAES: 1.80
     2s    -20.229985    2.439742
     2p    -15.503117    2.137023
 no old-style atom pair restraining (fixing) potential

molecular fragmentation (1/2 indicates fragments):
111111111111111111111111111111111111111112222222222222222222222222222222
222222222222222222222222222222222222222222222222222222222222222222222222
222222222222222222222222222222222222222222222222222222222222222222222222
222222222222222222222222222222222222222222222222222222222222222222222222
222222222222222222222222222222222222222222222222222222222222222222222222
222222222222222222222222222222222222222222222222222222222222222222222222
222222222222222222222222222222222222222222222222222222222222222222222222
222222222222222222222222222222222222222222222222222222222112222222222222
2222222
# atoms in fragment 1/2:    43   540
 fragment masses (1/2) :      244.36     3683.23
CMA distance (Bohr)    :  17.125
constraining FC (au)   :  0.0500
           ------------------------------------------------- 
          |        Self-Consistent Charge Iterations        |
           ------------------------------------------------- 

 Ncao       : 1405
 Nao        : 1405
 Nshell     : 857
 Nel        : 1570
 T(el)      :   500.0
 intcut     :    35.0
 scfconv/Eh :  0.100E-06
   qconv/e  :  0.100E-04
 intneglect :  0.100E-08
 broydamp   :      0.400
 iter      E             dE          RMSdq      gap      omega  full diag
   1   -900.3517371 -0.900352E+03  0.466E+00    2.38       0.0  T
   2   -902.6959647 -0.234423E+01  0.215E+00    1.32       1.0  T
   3   -902.8507646 -0.154800E+00  0.126E+00    1.80       1.0  T
   4   -903.0074847 -0.156720E+00  0.267E-01    0.96       1.0  T
   5   -903.0178547 -0.103701E-01  0.139E-01    1.22       1.0  T
   6   -903.0193802 -0.152544E-02  0.609E-02    1.09       1.0  T
   7   -903.0199122 -0.532046E-03  0.243E-02    1.11       1.0  T
   8   -903.0199687 -0.565349E-04  0.112E-02    1.08       1.0  T
   9   -903.0199832 -0.144906E-04  0.517E-03    1.08       1.0  T
  10   -903.0199860 -0.281265E-05  0.229E-03    1.08       1.8  T
  11   -903.0199868 -0.772712E-06  0.101E-03    1.08       4.1  T
  12   -903.0199869 -0.113773E-06  0.449E-04    1.08       9.2  T
  13   -903.0199870 -0.284014E-07  0.219E-04    1.08      18.9  T
  14   -903.0199870 -0.495800E-08  0.887E-05    1.08      46.7  T
  15   -903.0199870 -0.107661E-08  0.349E-05    1.08     118.7  T
speedup  1.97
cpu  time for SCC   45.95 s
wall time for SCC   23.36 s

   *** convergence criteria satisfied after 15 iterations ***

          eigenvalues
 #    :         773        774        775        776        777        778        779        780
 occ. :        2.000      2.000      2.000      2.000      2.000      2.000      2.000      2.000
 eps  :        -9.920     -9.891     -9.833     -9.786     -9.767     -9.742     -9.690     -9.684
 #    :         781        782        783        784        785        786        787        788
 occ. :        2.000      2.000      2.000      2.000      2.000      0.000      0.000      0.000
 eps  :        -9.648     -9.544     -9.503     -9.494     -9.426     -8.350     -7.802     -7.634
 #    :         789        790        791        792        793        794        795        796
 occ. :        0.000      0.000      0.000      0.000      0.000      0.000      0.000      0.000
 eps  :        -7.633     -7.622     -7.448     -7.382     -7.310     -7.275     -7.163     -6.802


   #   Z            q   n(s)   n(p)   n(d)      C6AA      α(0)
   1   7 N     -0.389  1.332  4.057  0.000    30.077     8.145
   2   6 C      0.028  1.064  2.909  0.000    20.115     6.387
   3   6 C      0.260  1.044  2.695  0.000    22.619     7.793
   4   8 O     -0.500  1.763  4.737  0.000    23.780     6.538
   5   6 C     -0.087  1.063  3.024  0.000    22.167     6.704
   6   6 C     -0.071  1.057  3.014  0.000    21.866     6.659
   7   6 C     -0.081  1.050  3.031  0.000    22.053     6.686
   8   6 C     -0.024  1.050  2.973  0.000    21.092     6.556
   9   7 N     -0.196  1.264  3.932  0.000    25.239     7.462
  10   1 H      0.177  0.823  0.000  0.000     1.233     1.740
  11   1 H      0.017  0.983  0.000  0.000     2.776     2.606
  12   1 H      0.074  0.926  0.000  0.000     2.042     2.235
  13   1 H      0.046  0.954  0.000  0.000     2.369     2.407
  14   1 H      0.035  0.965  0.000  0.000     2.514     2.480
  15   1 H      0.052  0.948  0.000  0.000     2.301     2.372
  16   1 H      0.075  0.925  0.000  0.000     2.031     2.228
  17   1 H      0.062  0.938  0.000  0.000     2.178     2.308
  18   1 H      0.095  0.905  0.000  0.000     1.834     2.118
  19   1 H      0.089  0.911  0.000  0.000     1.891     2.151
  20   1 H      0.254  0.746  0.000  0.000     0.867     1.458
  21   1 H      0.303  0.697  0.000  0.000     0.703     1.312
  22   1 H      0.255  0.745  0.000  0.000     0.863     1.456
  23   7 N     -0.139  1.237  3.903  0.000    24.017     7.279
  24   6 C     -0.005  1.061  2.944  0.000    20.619     6.457
  25   6 C      0.270  1.032  2.698  0.000    22.442     7.759
  26   8 O     -0.304  1.643  4.662  0.000    19.862     5.975
  27   6 C     -0.084  1.054  3.030  0.000    22.075     6.686
  28   6 C     -0.015  1.065  2.950  0.000    20.811     6.488
  29   6 C     -0.126  1.041  3.085  0.000    22.974     6.835
  30   6 C     -0.126  1.048  3.078  0.000    22.996     6.840
  31   1 H      0.226  0.774  0.000  0.000     0.981     1.551
  32   1 H      0.080  0.920  0.000  0.000     1.981     2.201
  33   1 H      0.065  0.935  0.000  0.000     2.140     2.288
  34   1 H      0.060  0.940  0.000  0.000     2.204     2.322
  35   1 H      0.017  0.983  0.000  0.000     2.784     2.610
  36   1 H      0.045  0.955  0.000  0.000     2.379     2.412
  37   1 H      0.052  0.948  0.000  0.000     2.298     2.371
  38   1 H      0.046  0.954  0.000  0.000     2.371     2.408
  39   1 H      0.034  0.966  0.000  0.000     2.535     2.490
  40   1 H      0.060  0.940  0.000  0.000     2.202     2.321
  41   1 H      0.044  0.956  0.000  0.000     2.402     2.424
  42   7 N     -0.368  1.299  4.069  0.000    29.503     8.067
  43   6 C      0.041  1.052  2.907  0.000    19.890     6.351
  44   6 C      0.275  1.037  2.688  0.000    22.351     7.743
  45   8 O     -0.518  1.739  4.779  0.000    24.185     6.594
  46   6 C      0.000  1.059  2.941  0.000    20.540     6.446
  47   6 C     -0.109  1.038  3.072  0.000    22.640     6.784
  48   6 C     -0.111  1.034  3.077  0.000    22.677     6.790
  49   1 H      0.160  0.840  0.000  0.000     1.338     1.812
  50   1 H      0.004  0.996  0.000  0.000     2.992     2.705
  51   1 H     -0.003  1.003  0.000  0.000     3.114     2.760
  52   1 H      0.032  0.968  0.000  0.000     2.562     2.503
  53   1 H      0.044  0.956  0.000  0.000     2.393     2.419
  54   1 H      0.054  0.946  0.000  0.000     2.270     2.356
  55   1 H      0.026  0.974  0.000  0.000     2.649     2.545
  56   1 H      0.074  0.926  0.000  0.000     2.041     2.234
  57   1 H      0.023  0.977  0.000  0.000     2.686     2.563
  58   7 N     -0.172  1.255  3.917  0.000    24.729     7.386
  59   6 C      0.026  1.065  2.909  0.000    20.127     6.385
  60   6 C      0.208  1.084  2.707  0.000    23.581     7.952
  61   8 O     -0.334  1.722  4.611  0.000    20.399     6.055
  62   6 C     -0.025  1.061  2.963  0.000    20.974     6.513
  63   6 C     -0.127  1.046  3.081  0.000    22.993     6.838
  64   6 C     -0.125  1.042  3.083  0.000    22.951     6.829
  65   1 H      0.246  0.754  0.000  0.000     0.897     1.484
  66   1 H      0.067  0.933  0.000  0.000     2.125     2.279
  67   1 H      0.068  0.932  0.000  0.000     2.109     2.271
  68   1 H      0.057  0.943  0.000  0.000     2.234     2.337
  69   1 H      0.054  0.946  0.000  0.000     2.266     2.354
  70   1 H      0.052  0.948  0.000  0.000     2.290     2.366
  71   1 H      0.051  0.949  0.000  0.000     2.308     2.376
  72   1 H      0.041  0.959  0.000  0.000     2.430     2.438
  73   1 H      0.060  0.940  0.000  0.000     2.204     2.322
  74   7 N     -0.416  1.273  4.143  0.000    30.812     8.244
  75   6 C      0.044  1.051  2.905  0.000    19.847     6.344
  76   6 C      0.271  1.051  2.678  0.000    22.427     7.755
  77   8 O     -0.475  1.735  4.740  0.000    23.239     6.463
  78   6 C     -0.043  1.051  2.992  0.000    21.326     6.571
  79   6 C     -0.069  1.056  3.013  0.000    21.823     6.651
  80   6 C      0.338  1.058  2.604  0.000    21.258     7.545
  81   8 O     -0.582  1.752  4.830  0.000    25.686     6.795
  82   8 O     -0.692  1.828  4.864  0.000    28.488     7.156
  83   1 H      0.204  0.796  0.000  0.000     1.086     1.633
  84   1 H     -0.002  1.002  0.000  0.000     3.097     2.752
  85   1 H      0.080  0.920  0.000  0.000     1.974     2.197
  86   1 H      0.004  0.996  0.000  0.000     2.996     2.707
  87   1 H     -0.003  1.003  0.000  0.000     3.114     2.760
  88   1 H      0.039  0.961  0.000  0.000     2.462     2.454
  89   7 N     -0.190  1.242  3.948  0.000    25.124     7.444
  90   6 C      0.021  1.056  2.922  0.000    20.229     6.405
  91   6 C      0.210  1.078  2.712  0.000    23.554     7.948
  92   8 O     -0.359  1.739  4.620  0.000    20.880     6.126
  93   6 C     -0.085  1.059  3.026  0.000    22.112     6.694
  94   6 C     -0.089  1.055  3.034  0.000    22.208     6.710
  95   6 C     -0.031  1.060  2.971  0.000    21.216     6.575
  96   7 N     -0.146  1.214  3.931  0.000    24.152     7.299
  97   6 C      0.224  1.031  2.744  0.000    23.273     7.898
  98   7 N     -0.240  1.245  3.995  0.000    26.281     7.614
  99   7 N     -0.284  1.253  4.031  0.000    27.340     7.766
 100   1 H      0.222  0.778  0.000  0.000     1.000     1.566
 101   1 H      0.084  0.916  0.000  0.000     1.939     2.178
 102   1 H      0.078  0.922  0.000  0.000     2.004     2.214
 103   1 H      0.081  0.919  0.000  0.000     1.967     2.193
 104   1 H      0.083  0.917  0.000  0.000     1.945     2.181
 105   1 H      0.081  0.919  0.000  0.000     1.971     2.195
 106   1 H      0.088  0.912  0.000  0.000     1.896     2.153
 107   1 H      0.092  0.908  0.000  0.000     1.858     2.132
 108   1 H      0.223  0.777  0.000  0.000     0.996     1.563
 109   1 H      0.227  0.773  0.000  0.000     0.979     1.550
 110   1 H      0.272  0.728  0.000  0.000     0.801     1.401
 111   1 H      0.242  0.758  0.000  0.000     0.915     1.498
 112   1 H      0.240  0.760  0.000  0.000     0.921     1.504
 113   7 N     -0.401  1.316  4.085  0.000    30.397     8.188
 114   6 C      0.008  1.075  2.916  0.000    20.458     6.443
 115   6 C      0.257  1.052  2.691  0.000    22.669     7.796
 116   8 O     -0.479  1.749  4.730  0.000    23.320     6.474
 117   6 C     -0.033  1.094  2.939  0.000    21.132     6.541
 118   6 C     -0.078  1.062  3.016  0.000    22.006     6.681
 119   6 C     -0.118  1.037  3.081  0.000    22.815     6.812
 120   6 C     -0.116  1.036  3.080  0.000    22.774     6.806
 121   1 H      0.180  0.820  0.000  0.000     1.213     1.725
 122   1 H      0.041  0.959  0.000  0.000     2.433     2.439
 123   1 H      0.025  0.975  0.000  0.000     2.665     2.553
 124   1 H      0.063  0.937  0.000  0.000     2.163     2.300
 125   1 H      0.017  0.983  0.000  0.000     2.779     2.607
 126   1 H      0.050  0.950  0.000  0.000     2.315     2.379
 127   1 H      0.047  0.953  0.000  0.000     2.357     2.401
 128   1 H      0.058  0.942  0.000  0.000     2.224     2.332
 129   1 H      0.041  0.959  0.000  0.000     2.437     2.441
 130   1 H      0.039  0.961  0.000  0.000     2.460     2.452
 131   1 H      0.055  0.945  0.000  0.000     2.261     2.352
 132   7 N     -0.186  1.252  3.933  0.000    25.026     7.430
 133   6 C      0.017  1.063  2.920  0.000    20.312     6.419
 134   6 C      0.261  1.050  2.689  0.000    22.604     7.786
 135   8 O     -0.464  1.744  4.721  0.000    23.004     6.431
 136   6 C     -0.089  1.060  3.029  0.000    22.195     6.706
 137   6 C     -0.011  1.063  2.948  0.000    20.741     6.478
 138   6 C     -0.122  1.040  3.082  0.000    22.889     6.821
 139   6 C     -0.123  1.046  3.076  0.000    22.903     6.823
 140   1 H      0.224  0.776  0.000  0.000     0.993     1.561
 141   1 H      0.076  0.924  0.000  0.000     2.024     2.225
 142   1 H      0.064  0.936  0.000  0.000     2.148     2.292
 143   1 H      0.084  0.916  0.000  0.000     1.938     2.177
 144   1 H      0.029  0.971  0.000  0.000     2.602     2.523
 145   1 H      0.038  0.962  0.000  0.000     2.482     2.464
 146   1 H      0.049  0.951  0.000  0.000     2.329     2.386
 147   1 H      0.051  0.949  0.000  0.000     2.302     2.373
 148   1 H      0.040  0.960  0.000  0.000     2.450     2.448
 149   1 H      0.054  0.946  0.000  0.000     2.265     2.354
 150   1 H      0.038  0.962  0.000  0.000     2.480     2.463
 151   7 N     -0.183  1.235  3.947  0.000    24.955     7.419
 152   6 C      0.016  1.066  2.918  0.000    20.309     6.418
 153   6 C      0.280  1.038  2.682  0.000    22.263     7.729
 154   8 O     -0.462  1.744  4.719  0.000    22.961     6.425
 155   6 C     -0.108  1.067  3.041  0.000    22.573     6.765
 156   6 C      0.287  1.040  2.673  0.000    22.129     7.702
 157   8 O     -0.486  1.761  4.725  0.000    23.477     6.496
 158   7 N     -0.290  1.265  4.025  0.000    27.473     7.785
 159   1 H      0.195  0.805  0.000  0.000     1.130     1.665
 160   1 H      0.099  0.901  0.000  0.000     1.795     2.095
 161   1 H      0.090  0.910  0.000  0.000     1.877     2.143
 162   1 H      0.078  0.922  0.000  0.000     2.004     2.214
 163   1 H      0.239  0.761  0.000  0.000     0.929     1.509
 164   1 H      0.239  0.761  0.000  0.000     0.928     1.509
 165   7 N     -0.187  1.257  3.930  0.000    25.049     7.433
 166   6 C      0.027  1.039  2.933  0.000    20.071     6.371
 167   6 C      0.275  1.024  2.701  0.000    22.350     7.745
 168   8 O     -0.472  1.711  4.761  0.000    23.154     6.452
 169   6 C     -0.115  1.060  3.055  0.000    22.683     6.778
 170   6 C      0.284  1.041  2.675  0.000    22.197     7.715
 171   8 O     -0.489  1.767  4.722  0.000    23.545     6.506
 172   7 N     -0.299  1.275  4.024  0.000    27.708     7.818
 173   1 H      0.218  0.782  0.000  0.000     1.018     1.580
 174   1 H      0.102  0.898  0.000  0.000     1.764     2.077
 175   1 H      0.107  0.893  0.000  0.000     1.723     2.053
 176   1 H      0.085  0.915  0.000  0.000     1.926     2.170
 177   1 H      0.235  0.765  0.000  0.000     0.946     1.523
 178   1 H      0.230  0.770  0.000  0.000     0.963     1.537
 179   7 N     -0.139  1.238  3.901  0.000    24.001     7.276
 180   6 C      0.012  1.070  2.918  0.000    20.354     6.421
 181   6 C      0.278  1.058  2.664  0.000    22.304     7.735
 182   8 O     -0.475  1.733  4.742  0.000    23.239     6.463
 183   6 C     -0.026  1.069  2.957  0.000    20.994     6.517
 184   6 C     -0.070  1.052  3.018  0.000    21.841     6.653
 185   6 C     -0.107  1.033  3.073  0.000    22.593     6.778
 186   6 C     -0.150  1.041  3.109  0.000    23.456     6.906
 187   1 H      0.217  0.783  0.000  0.000     1.023     1.585
 188   1 H      0.093  0.907  0.000  0.000     1.849     2.127
 189   1 H      0.058  0.942  0.000  0.000     2.217     2.328
 190   1 H      0.045  0.955  0.000  0.000     2.383     2.414
 191   1 H      0.037  0.963  0.000  0.000     2.494     2.469
 192   1 H      0.046  0.954  0.000  0.000     2.375     2.410
 193   1 H      0.045  0.955  0.000  0.000     2.389     2.417
 194   1 H      0.028  0.972  0.000  0.000     2.621     2.532
 195   1 H      0.067  0.933  0.000  0.000     2.122     2.278
 196   1 H      0.073  0.927  0.000  0.000     2.049     2.238
 197   1 H      0.035  0.965  0.000  0.000     2.512     2.478
 198   7 N     -0.184  1.258  3.926  0.000    24.981     7.423
 199   6 C      0.006  1.066  2.928  0.000    20.444     6.433
 200   6 C      0.276  1.036  2.688  0.000    22.335     7.739
 201   8 O     -0.483  1.752  4.731  0.000    23.419     6.488
 202   6 C     -0.098  1.058  3.040  0.000    22.358     6.730
 203   6 C     -0.097  1.055  3.042  0.000    22.351     6.731
 204   6 C     -0.049  1.066  2.983  0.000    21.539     6.623
 205   7 N     -0.156  1.229  3.927  0.000    24.382     7.334
 206   6 C      0.220  1.034  2.746  0.000    23.360     7.913
 207   7 N     -0.218  1.239  3.978  0.000    25.753     7.537
 208   7 N     -0.248  1.271  3.976  0.000    26.455     7.639
 209   1 H      0.197  0.803  0.000  0.000     1.122     1.659
 210   1 H      0.085  0.915  0.000  0.000     1.930     2.172
 211   1 H      0.086  0.914  0.000  0.000     1.920     2.167
 212   1 H      0.105  0.895  0.000  0.000     1.738     2.062
 213   1 H      0.055  0.945  0.000  0.000     2.254     2.348
 214   1 H      0.092  0.908  0.000  0.000     1.861     2.133
 215   1 H      0.116  0.884  0.000  0.000     1.650     2.009
 216   1 H      0.098  0.902  0.000  0.000     1.804     2.100
 217   1 H      0.211  0.789  0.000  0.000     1.053     1.607
 218   1 H      0.259  0.741  0.000  0.000     0.850     1.444
 219   1 H      0.208  0.792  0.000  0.000     1.065     1.616
 220   1 H      0.208  0.792  0.000  0.000     1.068     1.619
 221   1 H      0.239  0.761  0.000  0.000     0.927     1.508
 222   7 N     -0.181  1.237  3.944  0.000    24.910     7.413
 223   6 C     -0.008  1.067  2.941  0.000    20.717     6.480
 224   6 C      0.288  1.023  2.690  0.000    22.131     7.706
 225   8 O     -0.513  1.732  4.781  0.000    24.060     6.577
 226   6 C      0.106  1.049  2.845  0.000    18.916     6.207
 227   8 O     -0.488  1.729  4.758  0.000    22.627     6.421
 228   6 C     -0.156  1.051  3.105  0.000    23.592     6.927
 229   1 H      0.219  0.781  0.000  0.000     1.012     1.576
 230   1 H      0.080  0.920  0.000  0.000     1.977     2.199
 231   1 H      0.057  0.943  0.000  0.000     2.235     2.338
 232   1 H      0.329  0.671  0.000  0.000     0.639     1.256
 233   1 H      0.070  0.930  0.000  0.000     2.084     2.258
 234   1 H      0.077  0.923  0.000  0.000     2.015     2.220
 235   1 H      0.061  0.939  0.000  0.000     2.186     2.312
 236   7 N     -0.165  1.237  3.928  0.000    24.565     7.361
 237   6 C      0.011  1.056  2.932  0.000    20.366     6.421
 238   6 C      0.269  1.040  2.690  0.000    22.458     7.762
 239   8 O     -0.481  1.730  4.751  0.000    23.366     6.481
 240   6 C     -0.078  1.055  3.023  0.000    21.972     6.671
 241   6 C     -0.017  1.058  2.959  0.000    20.842     6.493
 242   6 C     -0.120  1.044  3.077  0.000    22.864     6.819
 243   6 C     -0.120  1.042  3.078  0.000    22.850     6.816
 244   1 H      0.231  0.769  0.000  0.000     0.963     1.537
 245   1 H      0.091  0.909  0.000  0.000     1.871     2.139
 246   1 H      0.058  0.942  0.000  0.000     2.227     2.334
 247   1 H      0.046  0.954  0.000  0.000     2.370     2.408
 248   1 H      0.035  0.965  0.000  0.000     2.510     2.478
 249   1 H      0.048  0.952  0.000  0.000     2.349     2.397
 250   1 H      0.041  0.959  0.000  0.000     2.440     2.443
 251   1 H      0.040  0.960  0.000  0.000     2.450     2.448
 252   1 H      0.053  0.947  0.000  0.000     2.280     2.362
 253   1 H      0.048  0.952  0.000  0.000     2.345     2.395
 254   1 H      0.039  0.961  0.000  0.000     2.466     2.456
 255   7 N     -0.191  1.248  3.942  0.000    25.132     7.446
 256   6 C      0.014  1.052  2.934  0.000    20.323     6.416
 257   6 C      0.282  1.034  2.684  0.000    22.224     7.721
 258   8 O     -0.485  1.726  4.759  0.000    23.451     6.493
 259   6 C     -0.099  1.065  3.034  0.000    22.363     6.728
 260   6 C     -0.088  1.051  3.037  0.000    22.167     6.703
 261   6 C     -0.027  1.059  2.969  0.000    21.115     6.552
 262   7 N     -0.152  1.254  3.898  0.000    24.293     7.320
 263   6 C      0.234  1.028  2.738  0.000    23.103     7.870
 264   7 N     -0.236  1.239  3.997  0.000    26.181     7.599
 265   7 N     -0.263  1.265  3.999  0.000    26.829     7.693
 266   1 H      0.238  0.762  0.000  0.000     0.932     1.512
 267   1 H      0.088  0.912  0.000  0.000     1.901     2.156
 268   1 H      0.095  0.905  0.000  0.000     1.830     2.115
 269   1 H      0.077  0.923  0.000  0.000     2.011     2.218
 270   1 H      0.072  0.928  0.000  0.000     2.066     2.248
 271   1 H      0.082  0.918  0.000  0.000     1.958     2.188
 272   1 H      0.092  0.908  0.000  0.000     1.860     2.133
 273   1 H      0.074  0.926  0.000  0.000     2.038     2.232
 274   1 H      0.244  0.756  0.000  0.000     0.908     1.493
 275   1 H      0.263  0.737  0.000  0.000     0.835     1.432
 276   1 H      0.227  0.773  0.000  0.000     0.979     1.550
 277   1 H      0.205  0.795  0.000  0.000     1.082     1.629
 278   1 H      0.219  0.781  0.000  0.000     1.013     1.576
 279   7 N     -0.183  1.238  3.945  0.000    24.967     7.421
 280   6 C      0.016  1.065  2.919  0.000    20.326     6.422
 281   6 C      0.262  1.060  2.678  0.000    22.589     7.783
 282   8 O     -0.498  1.751  4.746  0.000    23.733     6.532
 283   6 C     -0.142  1.043  3.099  0.000    23.290     6.881
 284   1 H      0.213  0.787  0.000  0.000     1.043     1.600
 285   1 H      0.086  0.914  0.000  0.000     1.919     2.166
 286   1 H      0.061  0.939  0.000  0.000     2.192     2.315
 287   1 H      0.092  0.908  0.000  0.000     1.857     2.131
 288   1 H      0.060  0.940  0.000  0.000     2.197     2.318
 289   7 N     -0.191  1.254  3.937  0.000    25.135     7.446
 290   6 C      0.033  1.059  2.907  0.000    20.010     6.369
 291   6 C      0.283  1.037  2.681  0.000    22.215     7.718
 292   8 O     -0.507  1.746  4.761  0.000    23.947     6.561
 293   6 C     -0.068  1.057  3.011  0.000    21.807     6.650
 294   6 C     -0.092  1.068  3.023  0.000    22.271     6.723
 295   6 C      0.282  1.061  2.658  0.000    22.230     7.719
 296   8 O     -0.500  1.768  4.732  0.000    23.795     6.540
 297   7 N     -0.290  1.260  4.030  0.000    27.481     7.786
 298   1 H      0.240  0.760  0.000  0.000     0.924     1.506
 299   1 H      0.056  0.944  0.000  0.000     2.252     2.347
 300   1 H      0.066  0.934  0.000  0.000     2.130     2.282
 301   1 H      0.074  0.926  0.000  0.000     2.041     2.234
 302   1 H      0.064  0.936  0.000  0.000     2.154     2.295
 303   1 H      0.046  0.954  0.000  0.000     2.371     2.408
 304   1 H      0.232  0.768  0.000  0.000     0.957     1.532
 305   1 H      0.239  0.761  0.000  0.000     0.928     1.509
 306   7 N     -0.210  1.265  3.945  0.000    25.580     7.512
 307   6 C      0.020  1.064  2.916  0.000    20.249     6.409
 308   6 C      0.264  1.042  2.694  0.000    22.553     7.777
 309   8 O     -0.471  1.733  4.737  0.000    23.146     6.450
 310   6 C     -0.137  1.046  3.091  0.000    23.186     6.864
 311   1 H      0.232  0.768  0.000  0.000     0.955     1.531
 312   1 H      0.068  0.932  0.000  0.000     2.111     2.272
 313   1 H      0.079  0.921  0.000  0.000     1.984     2.203
 314   1 H      0.075  0.925  0.000  0.000     2.036     2.231
 315   1 H      0.080  0.920  0.000  0.000     1.977     2.198
 316   7 N     -0.174  1.245  3.929  0.000    24.756     7.390
 317   6 C      0.007  1.066  2.927  0.000    20.452     6.439
 318   6 C      0.267  1.052  2.681  0.000    22.493     7.768
 319   8 O     -0.506  1.783  4.723  0.000    23.911     6.556
 320   6 C     -0.079  1.059  3.020  0.000    21.983     6.671
 321   6 C     -0.094  1.056  3.038  0.000    22.291     6.721
 322   6 C     -0.037  1.060  2.977  0.000    21.327     6.590
 323   7 N     -0.130  1.210  3.919  0.000    23.814     7.248
 324   6 C      0.219  1.033  2.748  0.000    23.383     7.917
 325   7 N     -0.246  1.229  4.017  0.000    26.420     7.634
 326   7 N     -0.255  1.233  4.023  0.000    26.631     7.664
 327   1 H      0.220  0.780  0.000  0.000     1.008     1.573
 328   1 H      0.103  0.897  0.000  0.000     1.756     2.072
 329   1 H      0.059  0.941  0.000  0.000     2.209     2.324
 330   1 H      0.064  0.936  0.000  0.000     2.158     2.297
 331   1 H      0.096  0.904  0.000  0.000     1.823     2.111
 332   1 H      0.073  0.927  0.000  0.000     2.055     2.242
 333   1 H      0.090  0.910  0.000  0.000     1.879     2.144
 334   1 H      0.096  0.904  0.000  0.000     1.825     2.113
 335   1 H      0.240  0.760  0.000  0.000     0.923     1.505
 336   1 H      0.249  0.751  0.000  0.000     0.886     1.474
 337   1 H      0.247  0.753  0.000  0.000     0.896     1.482
 338   1 H      0.237  0.763  0.000  0.000     0.937     1.516
 339   1 H      0.246  0.754  0.000  0.000     0.898     1.485
 340   7 N     -0.166  1.236  3.929  0.000    24.588     7.365
 341   6 C      0.022  1.068  2.910  0.000    20.215     6.404
 342   6 C      0.268  1.059  2.673  0.000    22.469     7.763
 343   8 O     -0.455  1.764  4.691  0.000    22.811     6.403
 344   6 C     -0.066  1.060  3.006  0.000    21.769     6.644
 345   6 C     -0.100  1.079  3.022  0.000    22.442     6.749
 346   6 C      0.359  1.044  2.597  0.000    20.916     7.483
 347   8 O     -0.628  1.775  4.853  0.000    26.805     6.941
 348   8 O     -0.650  1.793  4.858  0.000    27.394     7.017
 349   1 H      0.199  0.801  0.000  0.000     1.112     1.652
 350   1 H      0.060  0.940  0.000  0.000     2.204     2.322
 351   1 H      0.062  0.938  0.000  0.000     2.180     2.309
 352   1 H      0.037  0.963  0.000  0.000     2.489     2.467
 353   1 H      0.023  0.977  0.000  0.000     2.690     2.565
 354   1 H      0.024  0.976  0.000  0.000     2.671     2.556
 355   7 N     -0.166  1.235  3.931  0.000    24.594     7.365
 356   6 C      0.015  1.066  2.919  0.000    20.330     6.422
 357   6 C      0.203  1.081  2.716  0.000    23.689     7.970
 358   8 O     -0.323  1.717  4.606  0.000    20.200     6.026
 359   6 C      0.063  1.036  2.901  0.000    19.734     6.363
 360   8 O     -0.467  1.712  4.755  0.000    22.198     6.360
 361   1 H      0.201  0.799  0.000  0.000     1.099     1.642
 362   1 H      0.110  0.890  0.000  0.000     1.700     2.039
 363   1 H      0.052  0.948  0.000  0.000     2.291     2.367
 364   1 H      0.075  0.925  0.000  0.000     2.028     2.227
 365   1 H      0.344  0.656  0.000  0.000     0.602     1.218
 366   7 N     -0.392  1.303  4.089  0.000    30.156     8.156
 367   6 C      0.025  1.055  2.920  0.000    20.168     6.396
 368   6 C      0.242  1.050  2.708  0.000    22.955     7.847
 369   8 O     -0.309  1.667  4.641  0.000    19.937     5.987
 370   6 C     -0.075  1.054  3.020  0.000    21.910     6.661
 371   6 C     -0.013  1.059  2.954  0.000    20.772     6.482
 372   6 C     -0.134  1.046  3.088  0.000    23.136     6.859
 373   6 C     -0.115  1.040  3.075  0.000    22.752     6.801
 374   1 H      0.168  0.832  0.000  0.000     1.288     1.778
 375   1 H      0.028  0.972  0.000  0.000     2.610     2.526
 376   1 H      0.059  0.941  0.000  0.000     2.216     2.328
 377   1 H      0.039  0.961  0.000  0.000     2.460     2.453
 378   1 H      0.028  0.972  0.000  0.000     2.619     2.531
 379   1 H      0.050  0.950  0.000  0.000     2.317     2.380
 380   1 H      0.051  0.949  0.000  0.000     2.312     2.378
 381   1 H      0.053  0.947  0.000  0.000     2.288     2.365
 382   1 H      0.040  0.960  0.000  0.000     2.450     2.448
 383   1 H      0.044  0.956  0.000  0.000     2.400     2.423
 384   1 H      0.032  0.968  0.000  0.000     2.553     2.498
 385   7 N     -0.392  1.278  4.114  0.000    30.146     8.154
 386   6 C      0.037  1.057  2.906  0.000    19.973     6.368
 387   6 C      0.240  1.057  2.703  0.000    22.979     7.850
 388   8 O     -0.289  1.663  4.627  0.000    19.591     5.934
 389   6 C     -0.053  1.055  2.997  0.000    21.512     6.602
 390   6 C     -0.094  1.077  3.017  0.000    22.320     6.731
 391   6 C      0.364  1.033  2.603  0.000    20.835     7.469
 392   8 O     -0.623  1.781  4.841  0.000    26.681     6.925
 393   8 O     -0.591  1.749  4.842  0.000    25.889     6.822
 394   1 H      0.180  0.820  0.000  0.000     1.213     1.725
 395   1 H      0.012  0.988  0.000  0.000     2.856     2.643
 396   1 H      0.040  0.960  0.000  0.000     2.442     2.444
 397   1 H      0.034  0.966  0.000  0.000     2.528     2.487
 398   1 H      0.010  0.990  0.000  0.000     2.891     2.659
 399   1 H     -0.016  1.016  0.000  0.000     3.361     2.868
 400   7 N     -0.382  1.329  4.053  0.000    29.871     8.117
 401   6 C      0.027  1.055  2.918  0.000    20.116     6.384
 402   6 C      0.313  0.992  2.694  0.000    21.689     7.634
 403   8 O     -0.464  1.669  4.795  0.000    22.934     6.424
 404   6 C     -0.021  1.058  2.963  0.000    20.916     6.504
 405   6 C     -0.109  1.035  3.073  0.000    22.623     6.781
 406   6 C     -0.102  1.036  3.065  0.000    22.499     6.764
 407   1 H      0.136  0.864  0.000  0.000     1.500     1.919
 408   1 H      0.037  0.963  0.000  0.000     2.484     2.465
 409   1 H      0.017  0.983  0.000  0.000     2.786     2.610
 410   1 H      0.045  0.955  0.000  0.000     2.384     2.414
 411   1 H      0.038  0.962  0.000  0.000     2.481     2.463
 412   1 H      0.029  0.971  0.000  0.000     2.603     2.523
 413   1 H      0.025  0.975  0.000  0.000     2.662     2.552
 414   1 H      0.038  0.962  0.000  0.000     2.477     2.461
 415   1 H      0.037  0.963  0.000  0.000     2.495     2.470
 416   7 N     -0.129  1.230  3.899  0.000    23.793     7.245
 417   6 C      0.037  1.042  2.921  0.000    19.894     6.340
 418   6 C      0.193  1.088  2.719  0.000    23.883     8.005
 419   8 O     -0.397  1.765  4.632  0.000    21.618     6.234
 420   6 C     -0.094  1.065  3.029  0.000    22.265     6.713
 421   6 C      0.282  1.045  2.673  0.000    22.221     7.719
 422   8 O     -0.483  1.759  4.724  0.000    23.408     6.487
 423   7 N     -0.280  1.264  4.016  0.000    27.225     7.749
 424   1 H      0.201  0.799  0.000  0.000     1.106     1.650
 425   1 H      0.097  0.903  0.000  0.000     1.809     2.103
 426   1 H      0.083  0.917  0.000  0.000     1.952     2.185
 427   1 H      0.077  0.923  0.000  0.000     2.010     2.217
 428   1 H      0.220  0.780  0.000  0.000     1.012     1.576
 429   1 H      0.239  0.761  0.000  0.000     0.926     1.507
 430   7 N     -0.390  1.318  4.072  0.000    30.092     8.147
 431   6 C      0.038  1.060  2.902  0.000    19.960     6.365
 432   6 C      0.205  1.095  2.700  0.000    23.645     7.964
 433   8 O     -0.373  1.743  4.630  0.000    21.151     6.166
 434   6 C     -0.075  1.067  3.008  0.000    21.951     6.672
 435   6 C     -0.078  1.057  3.021  0.000    21.988     6.677
 436   6 C     -0.016  1.050  2.967  0.000    20.956     6.534
 437   7 N     -0.154  1.244  3.910  0.000    24.330     7.326
 438   6 C      0.209  1.042  2.748  0.000    23.559     7.946
 439   7 N     -0.233  1.232  4.001  0.000    26.102     7.588
 440   7 N     -0.257  1.253  4.004  0.000    26.675     7.671
 441   1 H      0.167  0.833  0.000  0.000     1.289     1.778
 442   1 H      0.052  0.948  0.000  0.000     2.297     2.370
 443   1 H      0.049  0.951  0.000  0.000     2.334     2.389
 444   1 H      0.058  0.942  0.000  0.000     2.226     2.334
 445   1 H      0.064  0.936  0.000  0.000     2.151     2.293
 446   1 H      0.043  0.957  0.000  0.000     2.408     2.427
 447   1 H      0.071  0.929  0.000  0.000     2.071     2.250
 448   1 H      0.089  0.911  0.000  0.000     1.889     2.149
 449   1 H      0.222  0.778  0.000  0.000     1.001     1.567
 450   1 H      0.240  0.760  0.000  0.000     0.922     1.504
 451   1 H      0.281  0.719  0.000  0.000     0.772     1.377
 452   1 H      0.236  0.764  0.000  0.000     0.939     1.518
 453   1 H      0.268  0.732  0.000  0.000     0.818     1.417
 454   7 N     -0.390  1.299  4.091  0.000    30.098     8.148
 455   6 C      0.052  1.030  2.918  0.000    19.714     6.324
 456   6 C      0.190  1.095  2.716  0.000    23.942     8.016
 457   8 O     -0.438  1.788  4.649  0.000    22.448     6.352
 458   6 C     -0.040  1.057  2.983  0.000    21.263     6.559
 459   6 C     -0.095  1.062  3.033  0.000    22.307     6.725
 460   6 C      0.360  1.031  2.609  0.000    20.896     7.481
 461   8 O     -0.605  1.747  4.858  0.000    26.251     6.869
 462   8 O     -0.625  1.786  4.839  0.000    26.738     6.933
 463   1 H      0.176  0.824  0.000  0.000     1.238     1.743
 464   1 H      0.076  0.924  0.000  0.000     2.025     2.225
 465   1 H      0.046  0.954  0.000  0.000     2.375     2.410
 466   1 H      0.039  0.961  0.000  0.000     2.469     2.457
 467   1 H      0.038  0.962  0.000  0.000     2.480     2.463
 468   1 H      0.014  0.986  0.000  0.000     2.824     2.628
 469   7 N     -0.389  1.331  4.059  0.000    30.071     8.144
 470   6 C      0.039  1.047  2.914  0.000    19.927     6.356
 471   6 C      0.306  1.022  2.673  0.000    21.812     7.649
 472   8 O     -0.457  1.687  4.770  0.000    22.846     6.409
 473   6 C     -0.057  1.054  3.002  0.000    21.577     6.611
 474   6 C     -0.004  1.064  2.939  0.000    20.617     6.460
 475   6 C     -0.102  1.039  3.063  0.000    22.528     6.771
 476   6 C     -0.105  1.042  3.062  0.000    22.583     6.780
 477   1 H      0.146  0.854  0.000  0.000     1.431     1.874
 478   1 H      0.037  0.963  0.000  0.000     2.489     2.468
 479   1 H      0.029  0.971  0.000  0.000     2.599     2.521
 480   1 H      0.033  0.967  0.000  0.000     2.549     2.497
 481   1 H      0.001  0.999  0.000  0.000     3.034     2.724
 482   1 H      0.034  0.966  0.000  0.000     2.536     2.490
 483   1 H      0.039  0.961  0.000  0.000     2.463     2.454
 484   1 H      0.024  0.976  0.000  0.000     2.670     2.556
 485   1 H      0.026  0.974  0.000  0.000     2.649     2.545
 486   1 H      0.031  0.969  0.000  0.000     2.565     2.505
 487   1 H      0.055  0.945  0.000  0.000     2.254     2.348
 488   7 N     -0.202  1.252  3.950  0.000    25.386     7.483
 489   6 C      0.022  1.056  2.922  0.000    20.204     6.399
 490   6 C      0.279  1.021  2.700  0.000    22.272     7.729
 491   8 O     -0.272  1.612  4.659  0.000    19.274     5.886
 492   6 C     -0.062  1.047  3.015  0.000    21.674     6.626
 493   6 C     -0.091  1.063  3.028  0.000    22.248     6.719
 494   6 C      0.351  1.044  2.605  0.000    21.037     7.505
 495   8 O     -0.595  1.768  4.827  0.000    25.959     6.832
 496   8 O     -0.537  1.763  4.774  0.000    24.631     6.654
 497   1 H      0.208  0.792  0.000  0.000     1.066     1.618
 498   1 H      0.022  0.978  0.000  0.000     2.711     2.575
 499   1 H      0.052  0.948  0.000  0.000     2.294     2.368
 500   1 H      0.069  0.931  0.000  0.000     2.097     2.264
 501   1 H      0.028  0.972  0.000  0.000     2.615     2.529
 502   1 H      0.019  0.981  0.000  0.000     2.745     2.591
 503   7 N     -0.391  1.280  4.111  0.000    30.124     8.152
 504   6 C      0.058  1.032  2.910  0.000    19.613     6.307
 505   6 C      0.208  1.082  2.710  0.000    23.600     7.958
 506   8 O     -0.392  1.745  4.647  0.000    21.530     6.221
 507   6 C     -0.037  1.052  2.986  0.000    21.229     6.558
 508   6 C     -0.091  1.066  3.025  0.000    22.250     6.718
 509   6 C      0.347  1.048  2.604  0.000    21.102     7.517
 510   8 O     -0.656  1.793  4.863  0.000    27.536     7.035
 511   8 O     -0.615  1.766  4.849  0.000    26.501     6.902
 512   1 H      0.181  0.819  0.000  0.000     1.207     1.721
 513   1 H      0.036  0.964  0.000  0.000     2.500     2.473
 514   1 H      0.001  0.999  0.000  0.000     3.041     2.727
 515   1 H      0.039  0.961  0.000  0.000     2.467     2.456
 516   1 H      0.036  0.964  0.000  0.000     2.508     2.477
 517   1 H      0.009  0.991  0.000  0.000     2.906     2.666
 518   7 N     -0.386  1.296  4.090  0.000    29.996     8.134
 519   6 C      0.031  1.062  2.907  0.000    20.061     6.380
 520   6 C      0.268  1.048  2.684  0.000    22.473     7.762
 521   8 O     -0.457  1.726  4.731  0.000    22.848     6.409
 522   6 C     -0.051  1.052  2.999  0.000    21.481     6.598
 523   6 C     -0.095  1.073  3.022  0.000    22.318     6.726
 524   6 C      0.367  1.026  2.607  0.000    20.776     7.459
 525   8 O     -0.667  1.781  4.887  0.000    27.835     7.073
 526   8 O     -0.650  1.783  4.867  0.000    27.382     7.016
 527   1 H      0.149  0.851  0.000  0.000     1.406     1.857
 528   1 H      0.059  0.941  0.000  0.000     2.213     2.327
 529   1 H      0.009  0.991  0.000  0.000     2.905     2.665
 530   1 H      0.037  0.963  0.000  0.000     2.485     2.465
 531   1 H      0.040  0.960  0.000  0.000     2.443     2.444
 532   1 H      0.023  0.977  0.000  0.000     2.688     2.564
 533   7 N     -0.164  1.236  3.927  0.000    24.548     7.359
 534   6 C      0.030  1.058  2.912  0.000    20.085     6.382
 535   6 C      0.203  1.080  2.717  0.000    23.683     7.971
 536   8 O     -0.375  1.755  4.621  0.000    21.197     6.173
 537   6 C     -0.049  1.051  2.998  0.000    21.437     6.590
 538   6 C     -0.097  1.073  3.024  0.000    22.356     6.733
 539   6 C      0.370  1.027  2.604  0.000    20.734     7.451
 540   8 O     -0.637  1.774  4.863  0.000    27.039     6.972
 541   8 O     -0.652  1.783  4.869  0.000    27.430     7.022
 542   1 H      0.191  0.809  0.000  0.000     1.152     1.681
 543   1 H      0.093  0.907  0.000  0.000     1.849     2.127
 544   1 H      0.038  0.962  0.000  0.000     2.472     2.459
 545   1 H      0.067  0.933  0.000  0.000     2.124     2.279
 546   1 H      0.042  0.958  0.000  0.000     2.423     2.434
 547   1 H      0.018  0.982  0.000  0.000     2.757     2.596
 548   7 N     -0.404  1.328  4.076  0.000    30.477     8.199
 549   6 C      0.047  1.050  2.903  0.000    19.806     6.340
 550   6 C      0.205  1.091  2.704  0.000    23.642     7.963
 551   8 O     -0.380  1.755  4.625  0.000    21.292     6.186
 552   6 C     -0.134  1.047  3.087  0.000    23.136     6.857
 553   1 H      0.183  0.817  0.000  0.000     1.195     1.712
 554   1 H      0.038  0.962  0.000  0.000     2.480     2.463
 555   1 H      0.051  0.949  0.000  0.000     2.301     2.372
 556   1 H      0.056  0.944  0.000  0.000     2.247     2.344
 557   1 H      0.073  0.927  0.000  0.000     2.053     2.240
 558   1 H      0.185  0.815  0.000  0.000     1.183     1.704
 559   1 H      0.073  0.927  0.000  0.000     2.048     2.238
 560   1 H      0.186  0.814  0.000  0.000     1.177     1.700
 561   1 H      0.066  0.934  0.000  0.000     2.129     2.282
 562   1 H      0.173  0.827  0.000  0.000     1.255     1.754
 563   1 H      0.010  0.990  0.000  0.000     2.884     2.656
 564   1 H      0.177  0.823  0.000  0.000     1.230     1.737
 565   1 H      0.070  0.930  0.000  0.000     2.080     2.255
 566   1 H      0.157  0.843  0.000  0.000     1.354     1.822
 567   1 H      0.062  0.938  0.000  0.000     2.179     2.308
 568   1 H      0.185  0.815  0.000  0.000     1.188     1.707
 569   1 H      0.104  0.896  0.000  0.000     1.751     2.069
 570   1 H      0.173  0.827  0.000  0.000     1.257     1.756
 571   1 H      0.023  0.977  0.000  0.000     2.690     2.565
 572   1 H      0.181  0.819  0.000  0.000     1.210     1.723
 573   1 H      0.030  0.970  0.000  0.000     2.587     2.515
 574   1 H      0.194  0.806  0.000  0.000     1.136     1.669
 575   1 H      0.077  0.923  0.000  0.000     2.013     2.219
 576   1 H      0.181  0.819  0.000  0.000     1.210     1.723
 577   1 H      0.073  0.927  0.000  0.000     2.056     2.242
 578   1 H      0.178  0.822  0.000  0.000     1.225     1.733
 579   1 H      0.075  0.925  0.000  0.000     2.026     2.225
 580   1 H      0.198  0.802  0.000  0.000     1.115     1.654
 581   1 H     -0.009  1.009  0.000  0.000     3.209     2.801
 582   1 H      0.179  0.821  0.000  0.000     1.219     1.729
 583   1 H      0.071  0.929  0.000  0.000     2.074     2.252

 Mol. C6AA /au·bohr⁶  :    3015317.646414
 Mol. C8AA /au·bohr⁸  :   65789560.384974
 Mol. α(0) /au        :       2583.748584

 
molecular dipole:
                 x           y           z       tot (Debye)
 q only:      -23.021    -294.489      87.239
   full:      -27.858    -298.158      85.712     791.723
molecular quadrupole (traceless):
                xx          xy          yy          xz          yz          zz
 q only:    23298.105   -5751.814  -41998.521    1068.352   19368.053   18700.415
  q+dip:    23790.603   -6919.809  -43087.029    1200.162   19213.916   19296.426
   full:    23793.926   -6915.322  -43088.146    1206.864   19216.625   19294.220
speedup  1.97
cpu  time for grad    1 m  0.7 s
wall time for grad    0 m 30.8 s

SCC energy    :    -903.0466333
rep           :      11.2448044
ES            :       3.2886720
AES           :      -0.1559233
AXC           :       0.2921256
disp          :      -0.7386809
XB            :       0.0000000
fix           :       0.0000000
Gborn         :       0.0000000
Gsasa         :       0.0000000
Ghb           :       0.0000000
Gshift        :       0.0000000
Gsolv         :      -0.9185633     -576.41
Etot ala COSMO:    -903.0466333
grad norm     :       1.7674308
total E       :    -891.7372739
atomizationE  :     159.5086543   100093.19
(atE without considering molecular charge,
 total energy contains solvation terms)
H-L gap (eV)  :          1.0758

------------------------------------------------------------------------
 * finished run on 2019/05/10 at 00:42:12.861     
------------------------------------------------------------------------
 total:
 * wall-time:     0 d,  0 h,  0 min, 32.405 sec
 *  cpu-time:     0 d,  0 h,  1 min,  3.388 sec
 * ratio c/w:     1.956 speedup
 SCF:
 * wall-time:     0 d,  0 h,  0 min, 31.889 sec
 *  cpu-time:     0 d,  0 h,  1 min,  2.712 sec
 * ratio c/w:     1.967 speedup

