      -----------------------------------------------------------      
     |                   =====================                   |     
     |                           x T B                           |     
     |                   =====================                   |     
     |                         S. Grimme                         |     
     |          Mulliken Center for Theoretical Chemistry        |     
     |                    University of Bonn                     |     
     |                 Version 6.0.1 (SAW181210)                 |     
      -----------------------------------------------------------      

   This program is distributed in the hope that it will be useful,
   but WITHOUT ANY WARRANTY; without even the implied warranty of
   MERCHANTABILITY or FITNESS FOR A PARTICULAR PURPOSE.
   
   FOR NON-COMMERCIAL, ACADEMIA USE ONLY.
   
   Cite this work as:
   S. Grimme, C. Bannwarth, P. Shushkov, J. Comput. Theory Chem., 2017,
   13, 1989-2009.
   C. Bannwarth, S. Ehlert and S. Grimme., ChemRxiv, 2018, preprint.
   http://doi.org/10.26434/chemrxiv.7246238.v1
   
   for sTDA-xTB:
   S. Grimme and C. Bannwarth, J. Chem. Phys., 2016, 145, 054103.
   
   in the mass-spec context:
   V. Asgeirsson, C. Bauer and S. Grimme, Chem. Sci., 2017, 8, 4879.
   
   if GBSA is used:
   P. Shushkov, F. März and S. Grimme, unpublished.
   
   for ANC optimizer:
   S. Grimme, unpublished.
   Rational Function algorithm used in ANCopt:
   F. Eckert, P. Pulay, H.-J. Werner, J. Comput. Chem., 1997, 18, 1473.
   
   with help from (in alphabetical order)
   C. Bannwarth, F. Bohle, G. Brandenburg, E. Caldeweyher, M. Checinski,
   S. Dohm, S. Ehlert, S. Ehrlich, F. März, H. Neugebauer, J. Pisarek,
   P. Pracht, P. Shushkov, and S. Spicher.
   
 * started run on 2019/05/05 at 22:33:26.130     
========================================================================
 # omp threads = 2
========================================================================
number of atoms            : 254
number of electrons        : 692
charge                     : 0
spin                       : .0
first test random number   : .5712

########################################################################
# WARNING! Please study the warnings concerning your input carefully
#  - Process number higher than OMP_NUM_THREADS, I hope you know what you are doing.
########################################################################

           ------------------------------------------------- 
          |                 G F N 2 - x T B                 |
          | Geometry, Frequencies, Noncovalent interactions |
          |            JCTC 2018 parametrisation            |
           ------------------------------------------------- 
 
      method parameters     
 k(s)        :  1.8500
 k(p)        :  2.2300
 k(d)        :  2.2300
 k(f)        :  2.0000
 kEN (H0ij)  : -2.0000
 D4 a1       :  0.5200
 D4 a2       :  5.0000
 D4 s6       :  1.0000
 D4 s8       :  2.7000
 D4 s9       :  5.0000
 alphaj      :  2.0000

 Solvent             : h2o
 Using internal parameter file: .param_gbsa2_h2o
 Gsolv ref. state (COSMO-RS): gsolv [1 M gas/solution]
 temperature (mdtemp)       :    298.150000000000     
 dielectric constant        :    80.2000000000000     
 rho                        :    1.00000000000000     
 mass                       :    18.0000000000000     
 surface tension            :    15.5689454083859     
 probe radius               :   0.975313790000000     
 vdW radii scaling          :    1.00000000000000     
 Gshift (Eh)                :   1.857443126794793E-003
 c1                         :    1.55243817000000     
 soset                      :   0.130326360000000     
 HB correction              :  T

            Z     q(EN)     CN     RAES       Cart. coordinates
     1  N   5.0   -0.21    3.21    1.96    37.17847    79.06424   144.90608
     2  C   4.0    0.03    4.18    3.97    37.52240    81.71931   145.54858
     3  C   4.0    0.08    3.21    3.04    39.04552    82.93818   143.38863
     4  O   6.0   -0.31    1.34    1.80    38.33309    84.91106   142.38140
     5  C   4.0   -0.05    4.26    4.12    39.02284    81.89316   148.06570
     6  C   4.0   -0.05    4.15    3.89    37.51673    81.87427   150.53746
     7  C   4.0   -0.05    4.20    4.01    36.21093    84.41784   150.90029
     8  C   4.0   -0.04    4.11    3.82    34.46293    84.52744   153.18308
     9  N   5.0   -0.11    4.02    2.91    32.43904    86.45496   152.72009
    10  H   1.0    0.08    1.04    1.43    37.79263    77.91151   146.32526
    11  H   1.0    0.05    1.05    1.44    35.72527    82.69063   145.80747
    12  H   1.0    0.04    1.03    1.43    40.30785    80.28501   148.14318
    13  H   1.0    0.04    1.04    1.43    40.09432    83.65250   148.03924
    14  H   1.0    0.04    1.04    1.43    36.08243    80.39650   150.46754
    15  H   1.0    0.04    1.03    1.43    38.78851    81.54923   152.12483
    16  H   1.0    0.04    1.03    1.43    37.65090    85.87104   151.14595
    17  H   1.0    0.04    1.04    1.43    35.07898    84.82413   149.22788
    18  H   1.0    0.04    1.02    1.43    33.58043    82.69063   153.47787
    19  H   1.0    0.05    1.02    1.43    35.53252    85.07168   154.85737
    20  H   1.0    0.08    1.02    1.43    32.13290    87.51321   154.34715
    21  H   1.0    0.06    1.02    1.43    32.98139    87.66250   151.26689
    22  H   1.0    0.08    1.02    1.43    30.76285    85.56112   152.21554
    23  N   5.0   -0.16    3.39    2.02    36.96871    88.96830   133.87386
    24  C   4.0    0.03    4.29    4.18    36.95737    91.40604   135.11730
    25  C   4.0    0.15    3.49    3.11    34.20782    91.31723   135.99035
    26  O   6.0   -0.30    1.34    1.80    32.85667    89.59002   135.21556
    27  C   4.0    0.02    4.14    3.89    37.47893    93.52821   133.22568
    28  O   6.0   -0.25    2.03    1.83    40.01495    93.42805   132.35452
    29  H   1.0    0.09    1.03    1.43    36.68903    89.05145   131.96901
    30  H   1.0    0.05    1.05    1.44    38.35199    91.76698   136.58939
    31  H   1.0    0.04    1.02    1.43    36.20904    93.32034   131.61752
    32  H   1.0    0.04    1.01    1.43    37.15768    95.34234   134.14787
    33  H   1.0    0.12    1.01    1.43    40.32297    94.79432   131.14320
    34  N   5.0   -0.16    3.41    2.03    33.38201    93.04822   137.62496
    35  C   4.0    0.03    4.35    4.29    30.75340    93.04633   138.61707
    36  C   4.0    0.15    3.42    3.08    28.74084    93.11436   136.54782
    37  O   6.0   -0.34    1.32    1.80    26.66970    92.04288   136.80293
    38  C   4.0   -0.05    4.31    4.22    30.39246    95.22896   140.51435
    39  C   4.0   -0.03    4.15    3.91    28.13235    97.03554   140.89230
    40  C   4.0   -0.06    4.10    3.81    25.49240    95.90548   140.64474
    41  C   4.0   -0.07    4.10    3.81    28.42904    98.30921   143.46799
    42  H   1.0    0.07    1.06    1.44    34.46104    94.48819   138.31660
    43  H   1.0    0.05    1.07    1.44    30.46805    91.27376   139.62618
    44  H   1.0    0.04    1.05    1.44    30.61545    94.35402   142.36628
    45  H   1.0    0.04    1.05    1.44    31.96471    96.50641   140.14586
    46  H   1.0    0.04    1.06    1.44    28.20416    98.37346   139.32760
    47  H   1.0    0.05    1.00    1.43    24.09590    97.38703   140.95466
    48  H   1.0    0.06    1.03    1.43    25.27319    95.11936   138.75313
    49  H   1.0    0.06    1.00    1.43    25.26375    94.42016   142.05259
    50  H   1.0    0.05    1.00    1.43    26.84734    99.59423   143.76657
    51  H   1.0    0.04    1.00    1.43    28.44604    96.86168   144.93442
    52  H   1.0    0.04    1.00    1.43    30.20160    99.35801   143.49634
    53  N   5.0   -0.15    3.46    2.06    29.42870    94.36724   134.48802
    54  C   4.0    0.03    4.26    4.13    27.72228    94.90204   132.41121
    55  C   4.0    0.08    3.21    3.04    27.56543    92.81389   130.45156
    56  O   6.0   -0.28    1.12    1.80    25.85334    92.88192   128.87364
    57  C   4.0   -0.07    4.12    3.83    28.45171    97.37758   131.14320
    58  H   1.0    0.08    1.07    1.44    31.20693    95.05322   134.19889
    59  H   1.0    0.05    1.07    1.44    25.82688    95.12314   133.18788
    60  H   1.0    0.06    1.00    1.43    27.14969    97.74419   129.58985
    61  H   1.0    0.04    1.00    1.43    28.34022    98.89881   132.52837
    62  H   1.0    0.04    1.00    1.43    30.37545    97.22073   130.42511
    63  N   5.0   -0.20    3.19    1.95    26.71695    87.12015   132.66254
    64  C   4.0    0.03    4.31    4.21    25.01997    85.40238   134.11952
    65  C   4.0    0.15    3.47    3.10    22.58034    86.58157   135.03604
    66  O   6.0   -0.31    1.29    1.80    20.72462    85.26255   135.54437
    67  C   4.0   -0.05    4.29    4.18    26.39758    84.38382   136.46089
    68  C   4.0   -0.04    4.21    4.03    26.70372    86.27355   138.61140
    69  C   4.0   -0.00    4.24    4.08    29.46650    86.53622   139.35595
    70  N   5.0   -0.14    3.42    2.03    29.82743    87.02944   142.05070
    71  C   4.0    0.10    3.34    3.06    32.05542    86.93495   143.22422
    72  N   5.0   -0.17    3.34    2.00    34.13223    86.36992   141.92787
    73  N   5.0   -0.18    3.22    1.96    32.21227    87.39038   145.69787
    74  H   1.0    0.10    1.02    1.43    27.75441    88.26532   133.81338
    75  H   1.0    0.05    1.05    1.44    24.52864    83.85281   132.85529
    76  H   1.0    0.05    1.03    1.43    25.33556    82.77945   137.19599
    77  H   1.0    0.04    1.04    1.43    28.28353    83.78100   135.89586
    78  H   1.0    0.07    1.06    1.44    26.01019    88.11792   138.01047
    79  H   1.0    0.06    1.03    1.43    25.64358    85.62348   140.25357
    80  H   1.0    0.05    1.04    1.43    30.45104    84.78633   138.89675
    81  H   1.0    0.06    1.04    1.43    30.29420    88.10658   138.30904
    82  H   1.0    0.12    1.14    1.45    28.27408    87.47541   143.10139
    83  H   1.0    0.10    1.03    1.43    34.02074    86.00899   140.03814
    84  H   1.0    0.13    1.18    1.46    35.83676    86.29623   142.82360
    85  H   1.0    0.10    1.02    1.43    30.62301    87.81368   146.70320
    86  H   1.0    0.08    1.02    1.43    33.92247    87.31479   146.58604
    87  N   5.0   -0.14    3.55    2.11    22.66915    89.06089   135.35162
    88  C   4.0    0.04    4.39    4.36    20.57156    90.48953   136.28326
    89  C   4.0    0.09    3.29    3.05    18.25853    89.88104   134.68266
    90  O   6.0   -0.30    1.15    1.80    16.14393    89.61647   135.66343
    91  C   4.0   -0.05    4.32    4.23    21.19706    93.29766   136.09239
    92  C   4.0   -0.04    4.23    4.06    19.42638    95.01353   137.54748
    93  C   4.0    0.15    3.24    3.04    18.98230    94.14237   140.24601
    94  O   6.0   -0.30    1.20    1.80    19.96873    95.25164   142.05070
    95  N   5.0   -0.19    3.22    1.96    17.44406    92.17705   140.54081
    96  H   1.0    0.11    1.11    1.45    24.21495    90.14371   134.96423
    97  H   1.0    0.05    1.08    1.44    20.18794    90.04544   138.25802
    98  H   1.0    0.06    1.06    1.44    23.09812    93.59813   136.82939
    99  H   1.0    0.05    1.03    1.43    21.11391    93.85513   134.11196
   100  H   1.0    0.05    1.03    1.43    20.23708    96.90704   137.61740
   101  H   1.0    0.05    1.03    1.43    17.60469    95.06266   136.58939
   102  H   1.0    0.10    1.06    1.44    16.63904    91.34368   139.00068
   103  H   1.0    0.09    1.02    1.43    17.06989    91.50242   142.30770
   104  N   5.0   -0.19    3.23    1.96    15.59024    83.07235   136.63097
   105  C   4.0    0.03    4.33    4.25    14.20696    83.51266   138.96289
   106  C   4.0    0.09    3.29    3.05    11.50843    84.21564   138.34306
   107  O   6.0   -0.28    1.12    1.80     9.71886    82.95519   139.11596
   108  C   4.0   -0.02    4.33    4.25    15.28221    85.79923   140.38963
   109  C   4.0   -0.07    4.16    3.93    13.88571    86.12615   142.86895
   110  C   4.0   -0.07    4.14    3.88    18.12058    85.56868   140.78647
   111  H   1.0    0.11    1.07    1.44    17.30233    83.95863   136.61207
   112  H   1.0    0.05    1.05    1.44    14.34491    81.78923   140.08161
   113  H   1.0    0.06    1.07    1.44    15.00064    87.49431   139.25391
   114  H   1.0    0.04    1.02    1.43    14.66238    87.75320   143.86673
   115  H   1.0    0.06    1.01    1.43    11.88638    86.43040   142.47778
   116  H   1.0    0.05    1.00    1.43    14.12759    84.42540   144.00468
   117  H   1.0    0.04    1.01    1.43    18.79332    87.22975   141.80315
   118  H   1.0    0.04    1.00    1.43    18.50798    83.86982   141.88440
   119  H   1.0    0.07    1.03    1.43    19.04655    85.44585   138.95155
   120  N   5.0   -0.19    3.22    1.96    16.75242    84.21753   162.28211
   121  C   4.0    0.03    4.31    4.22    16.62959    84.75988   159.56657
   122  C   4.0    0.16    3.52    3.12    18.74986    86.59102   158.95808
   123  O   6.0   -0.28    1.29    1.80    18.90482    88.60169   160.09380
   124  C   4.0   -0.04    4.39    4.35    14.04822    85.86159   158.90328
   125  C   4.0   -0.03    4.25    4.10    14.02177    88.24642   157.32346
   126  C   4.0   -0.05    4.21    4.01    11.76732    89.79411   158.17006
   127  C   4.0   -0.03    4.21    4.02    11.79189    90.09457   161.04622
   128  N   5.0   -0.12    3.99    2.83     9.34092    89.44451   162.27644
   129  H   1.0    0.08    1.03    1.43    15.06301    84.28934   163.20618
   130  H   1.0    0.04    1.06    1.44    16.83746    83.05157   158.43462
   131  H   1.0    0.04    1.03    1.43    12.99942    84.43485   157.85070
   132  H   1.0    0.04    1.10    1.44    13.07312    86.29811   160.66450
   133  H   1.0    0.08    1.06    1.44    15.74898    89.32735   157.62771
   134  H   1.0    0.05    1.03    1.43    13.82335    87.78155   155.32602
   135  H   1.0    0.05    1.03    1.43    11.84858    91.66494   157.31024
   136  H   1.0    0.04    1.03    1.43    10.02500    88.83980   157.62015
   137  H   1.0    0.05    1.07    1.44    13.23564    88.85302   161.83046
   138  H   1.0    0.05    1.02    1.43    12.22275    92.05611   161.50543
   139  H   1.0    0.06    1.01    1.43     9.29934    90.15316   164.10947
   140  H   1.0    0.06    1.02    1.43     7.84992    90.22119   161.25787
   141  H   1.0    0.05    1.01    1.43     9.11982    87.49242   162.34258
   142  N   5.0   -0.13    3.46    2.05    20.45250    85.87104   157.27622
   143  C   4.0    0.05    4.46    4.48    22.58411    87.51888   156.74143
   144  C   4.0    0.18    3.52    3.12    21.74130    89.76009   155.16351
   145  O   6.0   -0.24    1.32    1.80    19.49630    90.00576   154.49454
   146  C   4.0   -0.02    4.32    4.24    24.60045    86.16583   155.17674
   147  C   4.0    0.23    3.30    3.05    26.86812    87.86281   154.53045
   148  O   6.0   -0.29    1.21    1.80    28.19849    88.71885   156.28601
   149  O   6.0   -0.29    1.21    1.80    27.32166    88.33713   152.25711
   150  H   1.0    0.10    1.06    1.44    20.41282    84.21753   156.28601
   151  H   1.0    0.07    1.06    1.44    23.33623    88.10091   158.56879
   152  H   1.0    0.05    1.03    1.43    25.30154    84.55012   156.24443
   153  H   1.0    0.09    1.04    1.43    23.75952    85.53089   153.40795
   154  N   5.0   -0.12    3.63    2.18    23.58189    91.37014   154.57013
   155  C   4.0    0.05    4.38    4.35    23.19261    93.65293   153.08292
   156  C   4.0    0.17    3.46    3.10    21.44650    93.01042   150.87194
   157  O   6.0   -0.27    1.23    1.80    19.42638    94.11969   150.65084
   158  C   4.0   -0.04    4.22    4.04    25.71917    94.84346   152.21554
   159  C   4.0   -0.03    4.18    3.96    28.16070    94.15371   153.65929
   160  C   4.0    0.26    3.12    3.03    28.06999    94.37480   156.55813
   161  O   6.0   -0.27    1.20    1.80    26.02342    94.80566   157.68629
   162  O   6.0   -0.26    1.17    1.80    30.11278    94.06678   157.72787
   163  H   1.0    0.11    1.20    1.46    25.41681    91.13581   155.10871
   164  H   1.0    0.07    1.06    1.44    22.32900    95.11747   154.24510
   165  H   1.0    0.05    1.03    1.43    26.02531    94.29166   150.25400
   166  H   1.0    0.05    1.03    1.43    25.52075    96.89003   152.34971
   167  H   1.0    0.07    1.04    1.44    28.63124    92.19784   153.22087
   168  H   1.0    0.05    1.03    1.43    29.66303    95.40281   153.00733
   169  N   5.0   -0.12    3.47    2.06    22.16649    91.17172   149.30347
   170  C   4.0    0.04    4.42    4.41    20.32589    89.96418   147.61783
   171  C   4.0    0.16    3.48    3.11    18.76687    87.97808   149.02946
   172  O   6.0   -0.24    1.34    1.80    19.53599    87.07290   151.04580
   173  C   4.0   -0.04    4.30    4.20    21.59201    88.52421   145.43520
   174  C   4.0    0.24    3.16    3.03    23.88047    86.99920   146.25156
   175  O   6.0   -0.27    1.22    1.80    23.96928    86.08836   148.43230
   176  O   6.0   -0.32    1.29    1.80    25.62657    86.71763   144.68309
   177  H   1.0    0.10    1.07    1.44    23.96361    90.49142   149.15607
   178  H   1.0    0.06    1.06    1.44    19.14481    91.48352   146.88084
   179  H   1.0    0.04    1.05    1.44    20.22385    87.22030   144.61506
   180  H   1.0    0.05    1.03    1.43    22.21184    89.88104   144.01412
   181  N   5.0   -0.15    3.39    2.02    16.58612    87.30534   147.97877
   182  C   4.0    0.02    4.25    4.10    14.75876    85.67640   149.27701
   183  C   4.0    0.16    3.34    3.06    15.80189    83.09881   149.99700
   184  O   6.0   -0.30    1.23    1.80    14.61325    81.64939   151.37839
   185  H   1.0    0.07    1.09    1.44    16.01732    87.85525   146.22132
   186  H   1.0    0.06    1.03    1.43    14.13515    86.61370   151.00044
   187  H   1.0    0.04    1.03    1.43    13.13360    85.38349   148.04680
   188  N   5.0   -0.12    3.52    2.09    18.05255    82.53000   149.06536
   189  C   4.0    0.04    4.47    4.49    19.30544    80.17918   149.71543
   190  C   4.0    0.16    3.43    3.09    20.09724    80.05446   152.47632
   191  O   6.0   -0.30    1.27    1.80    21.75264    81.47364   153.26433
   192  C   4.0   -0.03    4.37    4.33    21.69783    79.86360   148.11672
   193  C   4.0   -0.02    3.54    3.14    21.24997    78.72220   145.56559
   194  C   4.0   -0.04    3.49    3.11    19.21095    77.10460   145.15363
   195  C   4.0   -0.04    3.46    3.10    22.88836    79.24755   143.57382
   196  C   4.0   -0.04    3.36    3.07    18.80466    76.05013   142.78958
   197  C   4.0   -0.04    3.36    3.07    22.50475    78.19497   141.21544
   198  C   4.0   -0.04    3.37    3.07    20.46573    76.58681   140.81860
   199  H   1.0    0.09    1.09    1.44    19.05222    83.65439   147.85972
   200  H   1.0    0.05    1.08    1.44    17.92783    78.69008   149.35827
   201  H   1.0    0.07    1.04    1.43    22.54821    81.71742   147.82948
   202  H   1.0    0.05    1.04    1.43    23.00741    78.63717   149.12772
   203  H   1.0    0.05    1.04    1.43    17.93728    76.66996   146.68809
   204  H   1.0    0.06    1.03    1.43    24.47762    80.49288   143.87617
   205  H   1.0    0.05    1.03    1.43    17.20784    74.81803   142.47778
   206  H   1.0    0.05    1.03    1.43    23.78598    78.62016   139.68476
   207  H   1.0    0.05    1.03    1.43    20.16905    75.75155   138.97989
   208  N   5.0   -0.14    3.44    2.04    18.96151    78.35182   153.92952
   209  C   4.0    0.03    4.47    4.50    20.15393    77.52223   156.31624
   210  C   4.0    0.14    3.39    3.08    22.26286    75.52857   155.85515
   211  O   6.0   -0.29    1.20    1.80    21.76586    73.40640   154.92351
   212  C   4.0   -0.02    4.27    4.14    18.18483    76.59815   158.24565
   213  C   4.0   -0.07    4.19    3.97    15.97385    75.39629   156.88883
   214  C   4.0   -0.07    4.16    3.93    19.34135    74.75000   160.09758
   215  H   1.0    0.08    1.08    1.44    17.26643    77.52223   153.53834
   216  H   1.0    0.05    1.07    1.44    21.11202    79.16818   157.10237
   217  H   1.0    0.04    1.06    1.44    17.50642    78.21765   159.32091
   218  H   1.0    0.04    1.00    1.43    14.60002    74.75378   158.28345
   219  H   1.0    0.05    1.02    1.43    15.11214    76.79279   155.64350
   220  H   1.0    0.06    1.00    1.43    16.65415    73.79569   155.78523
   221  H   1.0    0.04    1.00    1.43    17.89382    74.13962   161.42984
   222  H   1.0    0.06    1.02    1.43    20.06889    73.12673   159.05823
   223  H   1.0    0.05    1.00    1.43    20.87580    75.68352   161.10670
   224  N   5.0   -0.13    3.40    2.02    24.59856    76.26178   156.49388
   225  C   4.0    0.04    4.27    4.15    26.88702    74.72732   156.10270
   226  C   4.0    0.08    3.19    3.04    27.50307    72.98500   158.35903
   227  O   6.0   -0.28    1.12    1.80    27.27819    73.74089   160.55301
   228  C   4.0   -0.03    4.33    4.25    29.14902    76.47721   155.74554
   229  C   4.0   -0.02    3.49    3.11    29.48917    77.66396   153.15851
   230  C   4.0   -0.04    3.43    3.09    27.68449    79.34959   152.15128
   231  C   4.0   -0.05    3.44    3.09    31.69637    77.20097   151.76578
   232  C   4.0   -0.03    3.38    3.07    28.04920    80.47776   149.80425
   233  C   4.0   -0.05    3.41    3.08    32.07810    78.29324   149.41874
   234  C   4.0    0.07    3.43    3.09    30.25451    79.91273   148.43419
   235  O   6.0   -0.24    2.09    1.84    30.70994    80.96720   146.09471
   236  H   1.0    0.08    1.06    1.44    24.98407    77.96253   157.31213
   237  H   1.0    0.05    1.05    1.44    26.55632    73.53491   154.45675
   238  H   1.0    0.05    1.04    1.43    28.97328    78.02489   157.09481
   239  H   1.0    0.04    1.04    1.43    30.85734    75.39440   156.13483
   240  H   1.0    0.07    1.03    1.43    25.99507    79.76911   153.21709
   241  H   1.0    0.05    1.03    1.43    33.12690    75.96698   152.53868
   242  H   1.0    0.07    1.02    1.43    26.66025    81.76655   149.04647
   243  H   1.0    0.05    1.03    1.43    33.77696    77.89261   148.36049
   244  H   1.0    0.12    1.02    1.43    30.14869    79.81258   144.76057
   245  H   1.0    0.10    1.07    1.44    35.52808    78.75466   144.63603
   246  H   1.0    0.06    1.04    1.43    40.64102    82.12684   142.78269
   247  H   1.0    0.10    1.07    1.44    38.47040    88.21019   134.12436
   248  H   1.0    0.06    1.04    1.43    28.83728    91.41623   130.45626
   249  H   1.0    0.10    1.06    1.44    27.79495    86.19448   131.72787
   250  H   1.0    0.07    1.05    1.44    18.42911    89.68836   132.81054
   251  H   1.0    0.10    1.07    1.44    15.86133    81.40447   136.43796
   252  H   1.0    0.06    1.05    1.44    11.14835    85.73698   137.28149
   253  H   1.0    0.09    1.07    1.44    17.37026    82.65105   162.52080
   254  H   1.0    0.06    1.04    1.43    28.09379    71.21621   158.05324

  Z AO/shell   Hii/eV     exponent
  1     Wed Apr 25 08:07:45 CEST 2018   EN: 2.200 GM2: 0.406  GM3: 0.0800  RAES: 1.40
     1s    -10.707211    1.230000
  6     Wed Apr 25 08:07:45 CEST 2018   EN: 2.550 GM2: 0.538  GM3: 0.1500  RAES: 3.00
     2s    -13.970922    2.096432
     2p    -10.063292    1.800000
  7     Wed Apr 25 08:07:45 CEST 2018   EN: 3.040 GM2: 0.461  GM3:-0.0640  RAES: 1.90
     2s    -16.686243    2.339881
     2p    -12.523956    2.014332
  8     Wed Apr 25 08:07:45 CEST 2018   EN: 3.440 GM2: 0.452  GM3:-0.0517  RAES: 1.80
     2s    -20.229985    2.439742
     2p    -15.503117    2.137023
 no old-style atom pair restraining (fixing) potential

molecular fragmentation (1/2 indicates fragments):
111111111111111111111122222222222222222222222222222222222222222222222222
222222222222222222222222222222222222222222222222222222222222222222222222
222222222222222222222222222222222222222222222222222222222222222222222222
22222222222222222222222222221122222222
# atoms in fragment 1/2:    24   230
 fragment masses (1/2) :      131.20     1615.82
CMA distance (Bohr)    :  13.904
constraining FC (au)   :  0.0500
           ------------------------------------------------- 
          |        Self-Consistent Charge Iterations        |
           ------------------------------------------------- 

 Ncao       : 623
 Nao        : 623
 Nshell     : 377
 Nel        : 692
 T(el)      :   500.0
 intcut     :    35.0
 scfconv/Eh :  0.100E-06
   qconv/e  :  0.100E-04
 intneglect :  0.100E-08
 broydamp   :      0.400
 iter      E             dE          RMSdq      gap      omega  full diag
   1   -396.3353525 -0.396335E+03  0.474E+00    3.46       0.0  T
   2   -397.3529000 -0.101755E+01  0.221E+00    1.92       1.0  T
   3   -397.4192879 -0.663879E-01  0.127E+00    1.98       1.0  T
   4   -397.4859922 -0.667043E-01  0.277E-01    1.23       1.0  T
   5   -397.4903161 -0.432391E-02  0.138E-01    1.35       1.0  T
   6   -397.4910826 -0.766510E-03  0.624E-02    1.37       1.0  T
   7   -397.4913604 -0.277842E-03  0.271E-02    1.39       1.0  T
   8   -397.4913999 -0.394997E-04  0.135E-02    1.41       1.0  T
   9   -397.4914113 -0.113753E-04  0.616E-03    1.41       1.0  T
  10   -397.4914135 -0.216186E-05  0.280E-03    1.42       2.2  T
  11   -397.4914139 -0.440610E-06  0.125E-03    1.42       5.0  T
  12   -397.4914140 -0.890874E-07  0.594E-04    1.42      10.6  T
  13   -397.4914140 -0.252389E-07  0.290E-04    1.42      21.6  T
  14   -397.4914140 -0.393476E-08  0.124E-04    1.42      50.5  T
  15   -397.4914140 -0.100584E-08  0.473E-05    1.42     132.7  T
  16   -397.4914140 -0.111868E-09  0.203E-05    1.42     309.4  T
speedup  1.96
cpu  time for SCC    6.16 s
wall time for SCC    3.15 s

   *** convergence criteria satisfied after 16 iterations ***

          eigenvalues
 #    :         334        335        336        337        338        339        340        341
 occ. :        2.000      2.000      2.000      2.000      2.000      2.000      2.000      2.000
 eps  :       -10.546    -10.531    -10.381    -10.349    -10.236    -10.098    -10.078    -10.051
 #    :         342        343        344        345        346        347        348        349
 occ. :        2.000      2.000      2.000      2.000      2.000      0.000      0.000      0.000
 eps  :        -9.936     -9.935     -9.899     -9.855     -9.692     -8.276     -8.123     -8.022
 #    :         350        351        352        353        354        355        356        357
 occ. :        0.000      0.000      0.000      0.000      0.000      0.000      0.000      0.000
 eps  :        -7.958     -7.689     -6.784     -6.583     -6.488     -6.462     -6.443     -6.317


   #   Z            q   n(s)   n(p)   n(d)      C6AA      α(0)
   1   7 N     -0.381  1.329  4.052  0.000    29.857     8.115
   2   6 C      0.023  1.061  2.916  0.000    20.212     6.405
   3   6 C      0.195  1.102  2.703  0.000    23.843     7.997
   4   8 O     -0.350  1.747  4.604  0.000    20.712     6.102
   5   6 C     -0.086  1.063  3.023  0.000    22.130     6.697
   6   6 C     -0.080  1.053  3.027  0.000    22.025     6.682
   7   6 C     -0.098  1.058  3.040  0.000    22.366     6.733
   8   6 C     -0.045  1.058  2.987  0.000    21.478     6.616
   9   7 N     -0.123  1.227  3.896  0.000    23.654     7.223
  10   1 H      0.173  0.827  0.000  0.000     1.252     1.753
  11   1 H      0.069  0.931  0.000  0.000     2.097     2.265
  12   1 H      0.075  0.925  0.000  0.000     2.032     2.229
  13   1 H      0.061  0.939  0.000  0.000     2.184     2.311
  14   1 H      0.069  0.931  0.000  0.000     2.097     2.265
  15   1 H      0.074  0.926  0.000  0.000     2.044     2.236
  16   1 H      0.086  0.914  0.000  0.000     1.920     2.167
  17   1 H      0.069  0.931  0.000  0.000     2.092     2.262
  18   1 H      0.108  0.892  0.000  0.000     1.713     2.047
  19   1 H      0.118  0.882  0.000  0.000     1.629     1.996
  20   1 H      0.272  0.728  0.000  0.000     0.804     1.405
  21   1 H      0.284  0.716  0.000  0.000     0.762     1.367
  22   1 H      0.261  0.739  0.000  0.000     0.842     1.437
  23   7 N     -0.365  1.323  4.042  0.000    29.407     8.054
  24   6 C      0.018  1.054  2.928  0.000    20.290     6.416
  25   6 C      0.261  1.051  2.688  0.000    22.609     7.790
  26   8 O     -0.457  1.747  4.710  0.000    22.848     6.409
  27   6 C      0.077  1.038  2.885  0.000    19.516     6.329
  28   8 O     -0.493  1.731  4.762  0.000    22.746     6.438
  29   1 H      0.163  0.837  0.000  0.000     1.317     1.798
  30   1 H      0.069  0.931  0.000  0.000     2.102     2.267
  31   1 H      0.027  0.973  0.000  0.000     2.637     2.539
  32   1 H      0.027  0.973  0.000  0.000     2.631     2.537
  33   1 H      0.343  0.657  0.000  0.000     0.605     1.221
  34   7 N     -0.195  1.261  3.934  0.000    25.235     7.461
  35   6 C      0.006  1.069  2.925  0.000    20.483     6.445
  36   6 C      0.276  1.040  2.684  0.000    22.337     7.739
  37   8 O     -0.486  1.750  4.736  0.000    23.475     6.496
  38   6 C     -0.090  1.063  3.027  0.000    22.215     6.710
  39   6 C     -0.015  1.060  2.955  0.000    20.801     6.487
  40   6 C     -0.113  1.043  3.070  0.000    22.721     6.797
  41   6 C     -0.116  1.046  3.070  0.000    22.776     6.804
  42   1 H      0.213  0.787  0.000  0.000     1.042     1.599
  43   1 H      0.088  0.912  0.000  0.000     1.895     2.153
  44   1 H      0.064  0.936  0.000  0.000     2.157     2.297
  45   1 H      0.070  0.930  0.000  0.000     2.085     2.258
  46   1 H      0.042  0.958  0.000  0.000     2.425     2.435
  47   1 H      0.041  0.959  0.000  0.000     2.436     2.441
  48   1 H      0.053  0.947  0.000  0.000     2.280     2.361
  49   1 H      0.020  0.980  0.000  0.000     2.730     2.584
  50   1 H      0.041  0.959  0.000  0.000     2.429     2.437
  51   1 H      0.031  0.969  0.000  0.000     2.573     2.509
  52   1 H      0.051  0.949  0.000  0.000     2.308     2.376
  53   7 N     -0.158  1.236  3.922  0.000    24.415     7.339
  54   6 C      0.023  1.052  2.925  0.000    20.204     6.401
  55   6 C      0.199  1.085  2.717  0.000    23.770     7.985
  56   8 O     -0.360  1.763  4.598  0.000    20.907     6.130
  57   6 C     -0.134  1.047  3.087  0.000    23.127     6.856
  58   1 H      0.212  0.788  0.000  0.000     1.046     1.602
  59   1 H      0.100  0.900  0.000  0.000     1.782     2.087
  60   1 H      0.085  0.915  0.000  0.000     1.927     2.171
  61   1 H      0.084  0.916  0.000  0.000     1.934     2.175
  62   1 H      0.070  0.930  0.000  0.000     2.090     2.261
  63   7 N     -0.396  1.336  4.060  0.000    30.260     8.170
  64   6 C      0.018  1.064  2.919  0.000    20.288     6.415
  65   6 C      0.273  1.043  2.684  0.000    22.382     7.748
  66   8 O     -0.510  1.751  4.759  0.000    24.006     6.569
  67   6 C     -0.074  1.059  3.015  0.000    21.903     6.662
  68   6 C     -0.083  1.048  3.035  0.000    22.080     6.690
  69   6 C     -0.016  1.056  2.960  0.000    20.940     6.529
  70   7 N     -0.174  1.231  3.944  0.000    24.768     7.392
  71   6 C      0.229  1.020  2.752  0.000    23.196     7.885
  72   7 N     -0.285  1.257  4.028  0.000    27.361     7.769
  73   7 N     -0.257  1.227  4.030  0.000    26.668     7.670
  74   1 H      0.158  0.842  0.000  0.000     1.347     1.818
  75   1 H      0.062  0.938  0.000  0.000     2.172     2.305
  76   1 H      0.044  0.956  0.000  0.000     2.391     2.418
  77   1 H      0.066  0.934  0.000  0.000     2.130     2.282
  78   1 H      0.066  0.934  0.000  0.000     2.129     2.282
  79   1 H      0.052  0.948  0.000  0.000     2.291     2.367
  80   1 H      0.073  0.927  0.000  0.000     2.051     2.240
  81   1 H      0.080  0.920  0.000  0.000     1.982     2.202
  82   1 H      0.235  0.765  0.000  0.000     0.945     1.523
  83   1 H      0.226  0.774  0.000  0.000     0.983     1.553
  84   1 H      0.288  0.712  0.000  0.000     0.749     1.355
  85   1 H      0.206  0.794  0.000  0.000     1.077     1.626
  86   1 H      0.236  0.764  0.000  0.000     0.939     1.518
  87   7 N     -0.167  1.242  3.925  0.000    24.613     7.368
  88   6 C      0.021  1.052  2.928  0.000    20.228     6.404
  89   6 C      0.201  1.091  2.707  0.000    23.716     7.976
  90   8 O     -0.368  1.757  4.611  0.000    21.060     6.153
  91   6 C     -0.082  1.056  3.026  0.000    22.064     6.686
  92   6 C     -0.104  1.056  3.047  0.000    22.473     6.748
  93   6 C      0.286  1.039  2.675  0.000    22.157     7.707
  94   8 O     -0.514  1.767  4.747  0.000    24.104     6.582
  95   7 N     -0.278  1.265  4.013  0.000    27.190     7.744
  96   1 H      0.241  0.759  0.000  0.000     0.920     1.503
  97   1 H      0.079  0.921  0.000  0.000     1.984     2.203
  98   1 H      0.100  0.900  0.000  0.000     1.787     2.091
  99   1 H      0.075  0.925  0.000  0.000     2.030     2.228
 100   1 H      0.088  0.912  0.000  0.000     1.897     2.154
 101   1 H      0.069  0.931  0.000  0.000     2.092     2.262
 102   1 H      0.238  0.762  0.000  0.000     0.930     1.510
 103   1 H      0.188  0.812  0.000  0.000     1.168     1.693
 104   7 N     -0.400  1.325  4.075  0.000    30.381     8.186
 105   6 C      0.041  1.053  2.906  0.000    19.901     6.353
 106   6 C      0.204  1.092  2.704  0.000    23.669     7.968
 107   8 O     -0.386  1.757  4.629  0.000    21.404     6.203
 108   6 C     -0.030  1.062  2.967  0.000    21.060     6.526
 109   6 C     -0.122  1.047  3.075  0.000    22.885     6.821
 110   6 C     -0.122  1.043  3.079  0.000    22.899     6.823
 111   1 H      0.188  0.812  0.000  0.000     1.168     1.693
 112   1 H      0.036  0.964  0.000  0.000     2.498     2.472
 113   1 H      0.063  0.937  0.000  0.000     2.166     2.301
 114   1 H      0.046  0.954  0.000  0.000     2.369     2.407
 115   1 H      0.058  0.942  0.000  0.000     2.228     2.334
 116   1 H      0.046  0.954  0.000  0.000     2.364     2.405
 117   1 H      0.035  0.965  0.000  0.000     2.512     2.479
 118   1 H      0.025  0.975  0.000  0.000     2.660     2.550
 119   1 H      0.081  0.919  0.000  0.000     1.968     2.194
 120   7 N     -0.399  1.339  4.060  0.000    30.340     8.181
 121   6 C      0.038  1.052  2.911  0.000    19.954     6.362
 122   6 C      0.290  1.038  2.672  0.000    22.090     7.697
 123   8 O     -0.506  1.750  4.757  0.000    23.922     6.558
 124   6 C     -0.092  1.063  3.029  0.000    22.243     6.712
 125   6 C     -0.063  1.043  3.020  0.000    21.699     6.631
 126   6 C     -0.089  1.056  3.033  0.000    22.197     6.706
 127   6 C     -0.062  1.064  2.997  0.000    21.780     6.661
 128   7 N     -0.150  1.240  3.910  0.000    24.243     7.313
 129   1 H      0.189  0.811  0.000  0.000     1.166     1.692
 130   1 H      0.004  0.996  0.000  0.000     2.995     2.706
 131   1 H      0.059  0.941  0.000  0.000     2.214     2.327
 132   1 H      0.090  0.910  0.000  0.000     1.883     2.146
 133   1 H      0.040  0.960  0.000  0.000     2.452     2.449
 134   1 H      0.022  0.978  0.000  0.000     2.703     2.571
 135   1 H      0.068  0.932  0.000  0.000     2.109     2.271
 136   1 H      0.089  0.911  0.000  0.000     1.894     2.152
 137   1 H      0.123  0.877  0.000  0.000     1.590     1.972
 138   1 H      0.115  0.885  0.000  0.000     1.652     2.010
 139   1 H      0.311  0.689  0.000  0.000     0.682     1.294
 140   1 H      0.305  0.695  0.000  0.000     0.697     1.308
 141   1 H      0.296  0.704  0.000  0.000     0.725     1.334
 142   7 N     -0.182  1.251  3.931  0.000    24.948     7.418
 143   6 C      0.060  1.046  2.894  0.000    19.566     6.297
 144   6 C      0.296  1.038  2.667  0.000    21.987     7.679
 145   8 O     -0.506  1.754  4.752  0.000    23.919     6.557
 146   6 C     -0.097  1.065  3.032  0.000    22.341     6.728
 147   6 C      0.368  1.026  2.606  0.000    20.757     7.456
 148   8 O     -0.646  1.780  4.866  0.000    27.285     7.003
 149   8 O     -0.620  1.758  4.862  0.000    26.608     6.916
 150   1 H      0.193  0.807  0.000  0.000     1.140     1.673
 151   1 H      0.031  0.969  0.000  0.000     2.578     2.511
 152   1 H      0.035  0.965  0.000  0.000     2.522     2.483
 153   1 H      0.066  0.934  0.000  0.000     2.131     2.283
 154   7 N     -0.207  1.260  3.947  0.000    25.492     7.499
 155   6 C      0.049  1.054  2.897  0.000    19.764     6.331
 156   6 C      0.294  1.041  2.666  0.000    22.021     7.684
 157   8 O     -0.499  1.739  4.760  0.000    23.757     6.535
 158   6 C     -0.057  1.057  3.000  0.000    21.607     6.619
 159   6 C     -0.096  1.067  3.030  0.000    22.342     6.730
 160   6 C      0.369  1.028  2.603  0.000    20.745     7.454
 161   8 O     -0.668  1.783  4.884  0.000    27.844     7.075
 162   8 O     -0.651  1.769  4.882  0.000    27.408     7.019
 163   1 H      0.225  0.775  0.000  0.000     0.986     1.555
 164   1 H      0.042  0.958  0.000  0.000     2.428     2.437
 165   1 H      0.033  0.967  0.000  0.000     2.546     2.495
 166   1 H      0.041  0.959  0.000  0.000     2.434     2.440
 167   1 H      0.050  0.950  0.000  0.000     2.320     2.382
 168   1 H      0.044  0.956  0.000  0.000     2.395     2.420
 169   7 N     -0.171  1.236  3.935  0.000    24.701     7.381
 170   6 C      0.047  1.054  2.900  0.000    19.798     6.336
 171   6 C      0.285  1.036  2.678  0.000    22.168     7.710
 172   8 O     -0.477  1.772  4.705  0.000    23.276     6.468
 173   6 C     -0.100  1.067  3.033  0.000    22.394     6.736
 174   6 C      0.362  1.018  2.620  0.000    20.860     7.474
 175   8 O     -0.616  1.787  4.829  0.000    26.510     6.903
 176   8 O     -0.604  1.737  4.867  0.000    26.208     6.864
 177   1 H      0.192  0.808  0.000  0.000     1.150     1.680
 178   1 H      0.049  0.951  0.000  0.000     2.334     2.389
 179   1 H      0.047  0.953  0.000  0.000     2.352     2.398
 180   1 H      0.042  0.958  0.000  0.000     2.423     2.434
 181   7 N     -0.212  1.249  3.963  0.000    25.628     7.519
 182   6 C     -0.027  1.053  2.974  0.000    21.132     6.557
 183   6 C      0.280  1.035  2.685  0.000    22.260     7.726
 184   8 O     -0.502  1.739  4.763  0.000    23.827     6.545
 185   1 H      0.207  0.793  0.000  0.000     1.071     1.621
 186   1 H      0.086  0.914  0.000  0.000     1.921     2.168
 187   1 H      0.106  0.894  0.000  0.000     1.734     2.059
 188   7 N     -0.158  1.238  3.919  0.000    24.415     7.339
 189   6 C      0.033  1.056  2.911  0.000    20.026     6.371
 190   6 C      0.281  1.038  2.680  0.000    22.238     7.723
 191   8 O     -0.494  1.754  4.739  0.000    23.647     6.520
 192   6 C     -0.057  1.047  3.011  0.000    21.593     6.613
 193   6 C      0.004  1.084  2.912  0.000    27.938     8.670
 194   6 C     -0.045  1.080  2.966  0.000    29.128     8.850
 195   6 C     -0.038  1.078  2.960  0.000    28.953     8.824
 196   6 C     -0.033  1.083  2.951  0.000    28.831     8.805
 197   6 C     -0.031  1.081  2.950  0.000    28.777     8.797
 198   6 C     -0.037  1.083  2.954  0.000    28.921     8.819
 199   1 H      0.187  0.813  0.000  0.000     1.173     1.696
 200   1 H      0.062  0.938  0.000  0.000     2.180     2.309
 201   1 H      0.060  0.940  0.000  0.000     2.203     2.321
 202   1 H      0.057  0.943  0.000  0.000     2.234     2.337
 203   1 H      0.030  0.970  0.000  0.000     2.584     2.514
 204   1 H      0.032  0.968  0.000  0.000     2.562     2.503
 205   1 H      0.046  0.954  0.000  0.000     2.375     2.410
 206   1 H      0.049  0.951  0.000  0.000     2.331     2.388
 207   1 H      0.048  0.952  0.000  0.000     2.339     2.391
 208   7 N     -0.190  1.254  3.936  0.000    25.116     7.443
 209   6 C      0.023  1.068  2.909  0.000    20.198     6.399
 210   6 C      0.269  1.052  2.679  0.000    22.464     7.761
 211   8 O     -0.490  1.760  4.730  0.000    23.561     6.508
 212   6 C     -0.013  1.055  2.958  0.000    20.771     6.482
 213   6 C     -0.128  1.043  3.086  0.000    23.016     6.840
 214   6 C     -0.120  1.042  3.079  0.000    22.859     6.817
 215   1 H      0.224  0.776  0.000  0.000     0.991     1.559
 216   1 H      0.043  0.957  0.000  0.000     2.409     2.427
 217   1 H      0.040  0.960  0.000  0.000     2.445     2.445
 218   1 H      0.074  0.926  0.000  0.000     2.046     2.237
 219   1 H      0.052  0.948  0.000  0.000     2.301     2.372
 220   1 H      0.062  0.938  0.000  0.000     2.181     2.310
 221   1 H      0.068  0.932  0.000  0.000     2.113     2.273
 222   1 H      0.051  0.949  0.000  0.000     2.304     2.373
 223   1 H      0.037  0.963  0.000  0.000     2.485     2.465
 224   7 N     -0.156  1.248  3.908  0.000    24.383     7.334
 225   6 C      0.028  1.061  2.911  0.000    20.111     6.388
 226   6 C      0.196  1.092  2.712  0.000    23.814     7.992
 227   8 O     -0.356  1.762  4.594  0.000    20.826     6.118
 228   6 C     -0.076  1.055  3.022  0.000    21.949     6.668
 229   6 C     -0.002  1.087  2.915  0.000    28.086     8.692
 230   6 C     -0.041  1.088  2.953  0.000    29.013     8.833
 231   6 C     -0.048  1.089  2.959  0.000    29.203     8.862
 232   6 C     -0.054  1.089  2.965  0.000    29.341     8.882
 233   6 C     -0.065  1.086  2.980  0.000    29.621     8.924
 234   6 C      0.135  1.052  2.813  0.000    25.045     8.202
 235   8 O     -0.452  1.707  4.745  0.000    21.887     6.315
 236   1 H      0.200  0.800  0.000  0.000     1.107     1.648
 237   1 H      0.093  0.907  0.000  0.000     1.846     2.125
 238   1 H      0.071  0.929  0.000  0.000     2.076     2.253
 239   1 H      0.086  0.914  0.000  0.000     1.918     2.166
 240   1 H      0.021  0.979  0.000  0.000     2.712     2.575
 241   1 H      0.071  0.929  0.000  0.000     2.077     2.254
 242   1 H      0.037  0.963  0.000  0.000     2.489     2.467
 243   1 H      0.086  0.914  0.000  0.000     1.921     2.167
 244   1 H      0.337  0.663  0.000  0.000     0.619     1.236
 245   1 H      0.184  0.816  0.000  0.000     1.191     1.710
 246   1 H      0.099  0.901  0.000  0.000     1.791     2.093
 247   1 H      0.181  0.819  0.000  0.000     1.207     1.721
 248   1 H      0.086  0.914  0.000  0.000     1.918     2.166
 249   1 H      0.191  0.809  0.000  0.000     1.153     1.682
 250   1 H      0.087  0.913  0.000  0.000     1.906     2.159
 251   1 H      0.181  0.819  0.000  0.000     1.210     1.723
 252   1 H      0.078  0.922  0.000  0.000     1.995     2.209
 253   1 H      0.176  0.824  0.000  0.000     1.234     1.740
 254   1 H      0.097  0.903  0.000  0.000     1.815     2.106

 Mol. C6AA /au·bohr⁶  :     595163.581026
 Mol. C8AA /au·bohr⁸  :   13228920.103886
 Mol. α(0) /au        :       1157.239552

 
molecular dipole:
                 x           y           z       tot (Debye)
 q only:        3.847      -6.696      -6.362
   full:        4.097      -6.267      -6.168      24.659
molecular quadrupole (traceless):
                xx          xy          yy          xz          yz          zz
 q only:     1997.992     158.381    -538.909     200.217   -2515.551   -1459.083
  q+dip:     1936.818     227.930    -484.347     245.621   -2406.800   -1452.471
   full:     1935.756     226.335    -482.050     245.801   -2405.794   -1453.706
speedup  1.96
cpu  time for grad    7.31 s
wall time for grad    3.72 s

SCC energy    :    -397.5014785
rep           :       4.7718615
ES            :       1.5188364
AES           :      -0.0640712
AXC           :       0.1366631
disp          :      -0.3256308
XB            :       0.0000000
fix           :       0.0000000
Gborn         :       0.0000000
Gsasa         :       0.0000000
Ghb           :       0.0000000
Gshift        :       0.0000000
Gsolv         :      -0.4511306     -283.09
Etot ala COSMO:    -397.5014785
grad norm     :       0.5502596
total E       :    -392.7019461
atomizationE  :      71.0478737    44583.21
(atE without considering molecular charge,
 total energy contains solvation terms)
H-L gap (eV)  :          1.4156

------------------------------------------------------------------------
 * finished run on 2019/05/05 at 22:33:30.294     
------------------------------------------------------------------------
 total:
 * wall-time:     0 d,  0 h,  0 min,  4.162 sec
 *  cpu-time:     0 d,  0 h,  0 min,  7.925 sec
 * ratio c/w:     1.904 speedup
 SCF:
 * wall-time:     0 d,  0 h,  0 min,  3.911 sec
 *  cpu-time:     0 d,  0 h,  0 min,  7.687 sec
 * ratio c/w:     1.965 speedup

