      -----------------------------------------------------------      
     |                   =====================                   |     
     |                           x T B                           |     
     |                   =====================                   |     
     |                         S. Grimme                         |     
     |          Mulliken Center for Theoretical Chemistry        |     
     |                    University of Bonn                     |     
     |                 Version 6.0.1 (SAW181210)                 |     
      -----------------------------------------------------------      

   This program is distributed in the hope that it will be useful,
   but WITHOUT ANY WARRANTY; without even the implied warranty of
   MERCHANTABILITY or FITNESS FOR A PARTICULAR PURPOSE.
   
   FOR NON-COMMERCIAL, ACADEMIA USE ONLY.
   
   Cite this work as:
   S. Grimme, C. Bannwarth, P. Shushkov, J. Comput. Theory Chem., 2017,
   13, 1989-2009.
   C. Bannwarth, S. Ehlert and S. Grimme., ChemRxiv, 2018, preprint.
   http://doi.org/10.26434/chemrxiv.7246238.v1
   
   for sTDA-xTB:
   S. Grimme and C. Bannwarth, J. Chem. Phys., 2016, 145, 054103.
   
   in the mass-spec context:
   V. Asgeirsson, C. Bauer and S. Grimme, Chem. Sci., 2017, 8, 4879.
   
   if GBSA is used:
   P. Shushkov, F. März and S. Grimme, unpublished.
   
   for ANC optimizer:
   S. Grimme, unpublished.
   Rational Function algorithm used in ANCopt:
   F. Eckert, P. Pulay, H.-J. Werner, J. Comput. Chem., 1997, 18, 1473.
   
   with help from (in alphabetical order)
   C. Bannwarth, F. Bohle, G. Brandenburg, E. Caldeweyher, M. Checinski,
   S. Dohm, S. Ehlert, S. Ehrlich, F. März, H. Neugebauer, J. Pisarek,
   P. Pracht, P. Shushkov, and S. Spicher.
   
 * started run on 2019/05/10 at 10:20:06.607     
========================================================================
 # omp threads = 2
========================================================================
number of atoms            : 306
number of electrons        : 786
charge                     : 3
spin                       : .0
first test random number   : .9784

########################################################################
# WARNING! Please study the warnings concerning your input carefully
#  - Process number higher than OMP_NUM_THREADS, I hope you know what you are doing.
########################################################################

           ------------------------------------------------- 
          |                 G F N 2 - x T B                 |
          | Geometry, Frequencies, Noncovalent interactions |
          |            JCTC 2018 parametrisation            |
           ------------------------------------------------- 
 
      method parameters     
 k(s)        :  1.8500
 k(p)        :  2.2300
 k(d)        :  2.2300
 k(f)        :  2.0000
 kEN (H0ij)  : -2.0000
 D4 a1       :  0.5200
 D4 a2       :  5.0000
 D4 s6       :  1.0000
 D4 s8       :  2.7000
 D4 s9       :  5.0000
 alphaj      :  2.0000

 Solvent             : h2o
 Using internal parameter file: .param_gbsa2_h2o
 Gsolv ref. state (COSMO-RS): gsolv [1 M gas/solution]
 temperature (mdtemp)       :    298.150000000000     
 dielectric constant        :    80.2000000000000     
 rho                        :    1.00000000000000     
 mass                       :    18.0000000000000     
 surface tension            :    15.5689454083859     
 probe radius               :   0.975313790000000     
 vdW radii scaling          :    1.00000000000000     
 Gshift (Eh)                :   1.857443126794793E-003
 c1                         :    1.55243817000000     
 soset                      :   0.130326360000000     
 HB correction              :  T

            Z     q(EN)     CN     RAES       Cart. coordinates
     1  N   5.0   -0.21    3.22    1.96    84.60640    31.43386    17.59985
     2  C   4.0    0.03    4.32    4.23    82.92294    33.36538    18.57864
     3  C   4.0    0.15    3.46    3.10    83.64324    36.00330    17.62253
     4  O   6.0   -0.31    1.25    1.80    82.08617    37.38856    16.60615
     5  C   4.0   -0.03    4.35    4.29    83.02304    33.26970    21.47630
     6  C   4.0   -0.00    3.57    3.15    81.81635    35.50960    22.73620
     7  C   4.0   -0.02    3.46    3.10    79.21491    35.85829    22.67472
     8  C   4.0   -0.03    3.47    3.10    83.29503    37.22133    24.06856
     9  C   4.0   -0.02    3.37    3.07    78.10964    37.86830    23.92949
    10  C   4.0   -0.03    3.37    3.07    82.18625    39.21114    25.35732
    11  C   4.0   -0.03    3.37    3.07    79.58898    39.54194    25.29457
    12  H   1.0    0.10    1.03    1.43    85.33393    30.17012    18.84507
    13  H   1.0    0.05    1.05    1.44    80.99467    33.00977    17.89171
    14  H   1.0    0.06    1.03    1.43    82.09749    31.52540    22.08069
    15  H   1.0    0.05    1.04    1.43    85.00840    33.17804    22.01809
    16  H   1.0    0.06    1.03    1.43    78.04418    34.52422    21.66761
    17  H   1.0    0.06    1.03    1.43    85.31756    36.94975    24.12683
    18  H   1.0    0.07    1.03    1.43    76.08309    38.09428    23.87270
    19  H   1.0    0.06    1.03    1.43    83.35571    40.42741    26.50653
    20  H   1.0    0.07    1.03    1.43    78.69855    41.05216    26.33592
    21  N   5.0   -0.15    3.49    2.07    86.00681    36.72733    18.13353
    22  C   4.0    0.03    4.49    4.53    86.84801    39.22626    17.39120
    23  C   4.0    0.15    3.50    3.11    86.74892    39.51622    14.50429
    24  O   6.0   -0.31    1.29    1.80    85.75133    41.37169    13.53292
    25  C   4.0   -0.03    4.30    4.20    89.42056    39.99017    18.54083
    26  C   4.0   -0.05    4.21    4.03    90.30124    42.47862    17.33300
    27  C   4.0   -0.06    4.12    3.84    91.44295    37.96054    18.27133
    28  C   4.0   -0.07    4.01    3.64    92.47040    43.72637    18.76307
    29  H   1.0    0.08    1.06    1.44    87.25790    35.46742    18.84435
    30  H   1.0    0.05    1.06    1.44    85.40920    40.55455    18.08325
    31  H   1.0    0.04    1.05    1.44    89.11935    40.28807    20.56674
    32  H   1.0    0.05    1.03    1.43    90.89492    42.09473    15.39543
    33  H   1.0    0.04    1.03    1.43    88.71850    43.79477    17.21650
    34  H   1.0    0.05    1.00    1.43    93.20668    38.63955    19.07040
    35  H   1.0    0.05    1.00    1.43    90.92086    36.26233    19.29633
    36  H   1.0    0.05    1.00    1.43    91.76158    37.47334    16.30286
    37  H   1.0    0.05    1.00    1.43    92.88246    45.56301    17.94248
    38  H   1.0    0.05    1.00    1.43    91.99365    43.97814    20.74314
    39  H   1.0    0.06    1.00    1.43    94.18263    42.60052    18.64427
    40  N   5.0   -0.15    3.48    2.06    87.76752    37.64470    13.16007
    41  C   4.0    0.03    4.44    4.45    87.64623    37.65302    10.42221
    42  C   4.0    0.17    3.53    3.13    84.99927    38.43686     9.54121
    43  O   6.0   -0.30    1.26    1.80    84.67570    40.13694     7.99896
    44  C   4.0   -0.04    4.34    4.27    88.30343    35.01498     9.41226
    45  C   4.0   -0.01    3.57    3.15    87.96145    34.86713     6.59573
    46  C   4.0   -0.03    3.46    3.10    89.88360    35.61060     4.97037
    47  C   4.0   -0.03    3.47    3.10    85.69941    34.02585     5.56279
    48  C   4.0   -0.02    3.37    3.07    89.55639    35.51223     2.37835
    49  C   4.0   -0.03    3.37    3.07    85.35831    33.94756     2.97135
    50  C   4.0   -0.03    3.37    3.07    87.28910    34.68656     1.36875
    51  H   1.0    0.08    1.06    1.44    88.48212    36.07650    14.00298
    52  H   1.0    0.06    1.05    1.44    88.96733    39.06099     9.65288
    53  H   1.0    0.05    1.03    1.43    90.25523    34.59846     9.93326
    54  H   1.0    0.05    1.03    1.43    87.07130    33.65559    10.34976
    55  H   1.0    0.06    1.03    1.43    91.65660    36.26751     5.74128
    56  H   1.0    0.05    1.03    1.43    84.18948    33.42831     6.79921
    57  H   1.0    0.07    1.03    1.43    91.07489    36.08261     1.13875
    58  H   1.0    0.06    1.03    1.43    83.57699    33.31445     2.20180
    59  H   1.0    0.06    1.03    1.43    87.03471    34.62483    -0.65545
    60  N   5.0   -0.14    3.51    2.08    83.13335    37.05820    10.52666
    61  C   4.0    0.04    4.50    4.54    80.52962    37.37770     9.75717
    62  C   4.0    0.16    3.54    3.13    79.67996    40.09473    10.19100
    63  O   6.0   -0.30    1.32    1.80    78.72955    41.36251     8.49762
    64  C   4.0   -0.02    4.28    4.15    78.79203    35.53233    11.17969
    65  C   4.0   -0.06    4.14    3.88    76.02320    36.25111    10.78208
    66  C   4.0   -0.07    4.11    3.82    79.24873    32.82808    10.28423
    67  H   1.0    0.08    1.07    1.44    83.52123    35.67808    11.79822
    68  H   1.0    0.05    1.05    1.44    80.37617    37.05597     7.70833
    69  H   1.0    0.06    1.05    1.44    79.26247    35.66506    13.19082
    70  H   1.0    0.05    1.00    1.43    74.80252    34.81781    11.60172
    71  H   1.0    0.06    1.00    1.43    75.58781    38.06073    11.65134
    72  H   1.0    0.06    1.00    1.43    75.62061    36.40523     8.77094
    73  H   1.0    0.05    1.00    1.43    77.98634    31.54288    11.27062
    74  H   1.0    0.05    1.00    1.43    78.88573    32.67226     8.26746
    75  H   1.0    0.05    1.00    1.43    81.18031    32.25107    10.66618
    76  N   5.0   -0.14    3.50    2.08    79.91994    40.98596    12.54371
    77  C   4.0    0.04    4.43    4.44    78.70905    43.38125    13.11459
    78  C   4.0    0.17    3.48    3.11    79.74218    45.45330    11.36735
    79  O   6.0   -0.28    1.23    1.80    78.33765    47.00590    10.38236
    80  C   4.0   -0.04    4.25    4.10    78.85163    44.01078    15.92997
    81  C   4.0   -0.04    4.18    3.96    81.47101    44.71899    16.91566
    82  C   4.0   -0.05    4.18    3.96    81.43672    44.72504    19.80894
    83  C   4.0   -0.04    4.12    3.84    83.92087    45.68492    20.90890
    84  N   5.0   -0.11    4.01    2.90    83.77693    45.72585    23.71861
    85  H   1.0    0.11    1.07    1.44    80.63720    39.92158    13.96731
    86  H   1.0    0.06    1.06    1.44    76.70016    43.21791    12.59472
    87  H   1.0    0.05    1.03    1.43    77.54183    45.56320    16.28491
    88  H   1.0    0.05    1.03    1.43    78.16278    42.35048    16.94581
    89  H   1.0    0.06    1.03    1.43    82.86084    43.37033    16.21721
    90  H   1.0    0.05    1.03    1.43    81.97858    46.58619    16.20862
    91  H   1.0    0.05    1.03    1.43    79.88477    45.93377    20.42554
    92  H   1.0    0.05    1.03    1.43    81.06615    42.80359    20.46692
    93  H   1.0    0.04    1.02    1.43    85.47440    44.45605    20.33942
    94  H   1.0    0.05    1.02    1.43    84.30383    47.59258    20.22888
    95  H   1.0    0.07    1.02    1.43    85.47104    46.30811    24.48851
    96  H   1.0    0.07    1.02    1.43    82.37851    46.95278    24.29818
    97  H   1.0    0.06    1.02    1.43    83.34648    43.94484    24.39756
    98  N   5.0   -0.14    3.50    2.08    82.25706    45.47333    11.07371
    99  C   4.0    0.04    4.51    4.55    83.45160    47.31056     9.42527
   100  C   4.0    0.16    3.50    3.12    82.40682    47.07366     6.73400
   101  O   6.0   -0.30    1.26    1.80    81.49116    48.88213     5.60092
   102  C   4.0   -0.02    4.34    4.27    86.34276    47.01476     9.47856
   103  C   4.0   -0.04    4.19    3.98    87.33618    47.58742    12.14208
   104  C   4.0   -0.07    4.14    3.88    87.55350    48.73908     7.50527
   105  C   4.0   -0.07    4.02    3.66    90.20080    47.36118    12.35462
   106  H   1.0    0.11    1.08    1.44    83.31807    44.01178    11.70863
   107  H   1.0    0.06    1.05    1.44    82.91593    49.20900    10.07332
   108  H   1.0    0.06    1.05    1.44    86.77969    45.04554     9.01243
   109  H   1.0    0.05    1.03    1.43    86.76717    49.49655    12.67678
   110  H   1.0    0.05    1.03    1.43    86.46719    46.25647    13.45157
   111  H   1.0    0.05    1.00    1.43    89.55120    48.32001     7.30756
   112  H   1.0    0.05    1.01    1.43    86.66900    48.48628     5.66761
   113  H   1.0    0.05    1.00    1.43    87.34305    50.70887     8.05346
   114  H   1.0    0.05    1.00    1.43    90.77350    47.59665    14.31089
   115  H   1.0    0.05    1.00    1.43    90.82756    45.51668    11.70349
   116  H   1.0    0.05    1.00    1.43    91.14931    48.80152    11.24298
   117  N   5.0   -0.14    3.50    2.08    82.64329    44.78753     5.69879
   118  C   4.0    0.04    4.36    4.30    81.89115    44.33379     3.10456
   119  C   4.0    0.16    3.50    3.11    79.22765    45.36431     2.62781
   120  O   6.0   -0.29    1.26    1.80    78.75555    46.77608     0.85241
   121  C   4.0   -0.06    4.12    3.84    81.97214    41.51728     2.52984
   122  H   1.0    0.11    1.09    1.44    83.31476    43.29020     6.68896
   123  H   1.0    0.06    1.05    1.44    83.16360    45.38554     1.84096
   124  H   1.0    0.05    1.00    1.43    81.50660    41.19843     0.55831
   125  H   1.0    0.06    1.00    1.43    83.84640    40.77520     2.92570
   126  H   1.0    0.06    1.00    1.43    80.60641    40.54044     3.71257
   127  N   5.0   -0.13    3.52    2.09    77.49204    44.53338     4.25692
   128  C   4.0    0.05    4.44    4.45    74.82679    45.01227     3.89947
   129  C   4.0    0.16    3.48    3.11    74.34425    47.79661     3.29331
   130  O   6.0   -0.29    1.23    1.80    72.94945    48.45250     1.57031
   131  C   4.0   -0.03    4.32    4.23    73.35791    44.24014     6.26286
   132  C   4.0    0.16    3.22    3.04    73.08764    41.37013     6.44552
   133  O   6.0   -0.29    1.22    1.80    74.20447    39.89783     5.09078
   134  N   5.0   -0.18    3.18    1.95    71.48878    40.61237     8.27345
   135  H   1.0    0.12    1.11    1.44    77.96518    43.28597     5.63224
   136  H   1.0    0.06    1.05    1.44    74.13521    43.92060     2.26836
   137  H   1.0    0.07    1.03    1.43    74.35698    44.93489     7.93139
   138  H   1.0    0.05    1.03    1.43    71.48268    45.09420     6.21399
   139  H   1.0    0.10    1.03    1.43    71.10345    38.75621     8.45678
   140  H   1.0    0.09    1.03    1.43    70.47053    41.85424     9.28655
   141  N   5.0   -0.12    3.52    2.09    75.45660    49.44669     4.85534
   142  C   4.0    0.05    4.51    4.54    74.98920    52.12024     4.55478
   143  C   4.0    0.15    3.45    3.10    76.22357    53.13984     2.14844
   144  O   6.0   -0.28    1.23    1.80    75.13918    54.65909     0.76960
   145  C   4.0    0.05    4.24    4.07    75.89788    53.55163     6.90805
   146  O   6.0   -0.23    2.13    1.84    74.51533    52.54991     8.95759
   147  C   4.0   -0.06    4.08    3.77    75.48139    56.39220     6.62555
   148  H   1.0    0.11    1.07    1.44    76.58316    48.86440     6.28254
   149  H   1.0    0.07    1.06    1.44    72.94387    52.40423     4.33870
   150  H   1.0    0.05    1.03    1.43    77.92649    53.13600     7.15676
   151  H   1.0    0.13    1.03    1.43    74.84690    53.55172    10.44714
   152  H   1.0    0.06    1.00    1.43    76.16083    57.38650     8.28959
   153  H   1.0    0.06    1.00    1.43    76.46671    57.10523     4.97357
   154  H   1.0    0.07    1.00    1.43    73.47547    56.76997     6.38759
   155  N   5.0   -0.14    3.50    2.08    78.57609    52.34371     1.72617
   156  C   4.0    0.04    4.42    4.41    80.10451    53.31477    -0.32300
   157  C   4.0    0.16    3.38    3.07    79.80962    51.83840    -2.80667
   158  O   6.0   -0.30    1.26    1.80    81.61017    51.34489    -4.17188
   159  C   4.0   -0.04    4.36    4.31    82.85443    53.47326     0.54135
   160  C   4.0   -0.02    4.18    3.96    83.34700    55.73830     2.28590
   161  C   4.0   -0.07    4.10    3.80    85.71914    55.27511     3.86189
   162  C   4.0   -0.07    4.10    3.80    83.61473    58.17749     0.76847
   163  H   1.0    0.11    1.08    1.44    79.34079    50.95961     2.80514
   164  H   1.0    0.06    1.07    1.44    79.34607    55.20282    -0.75283
   165  H   1.0    0.06    1.03    1.43    83.29035    51.72458     1.54638
   166  H   1.0    0.06    1.03    1.43    84.06239    53.56054    -1.12486
   167  H   1.0    0.05    1.05    1.44    81.73545    55.90919     3.57667
   168  H   1.0    0.05    1.00    1.43    86.08826    56.87853     5.09200
   169  H   1.0    0.05    1.00    1.43    85.47232    53.60055     5.02486
   170  H   1.0    0.05    1.00    1.43    87.34927    54.98982     2.64504
   171  H   1.0    0.06    1.00    1.43    83.88235    59.77943     2.02670
   172  H   1.0    0.05    1.00    1.43    85.24402    58.03618    -0.47312
   173  H   1.0    0.05    1.00    1.43    81.93243    58.52031    -0.35938
   174  N   5.0   -0.13    3.46    2.05    77.42206    51.35180    -3.48317
   175  C   4.0    0.04    4.42    4.41    76.81559    49.94506    -5.75612
   176  C   4.0    0.16    3.41    3.08    76.47638    51.73043    -8.04300
   177  O   6.0   -0.27    1.23    1.80    74.44501    52.09337    -9.07714
   178  C   4.0   -0.03    4.33    4.25    74.50035    48.26203    -5.39006
   179  C   4.0   -0.03    4.07    3.74    75.16990    45.92396    -3.86182
   180  S   6.0   -0.03    2.45    3.10    72.67477    43.57179    -3.70778
   181  C   4.0   -0.05    3.88    3.44    72.65965    42.53074    -6.98986
   182  H   1.0    0.11    1.08    1.44    75.97622    51.89742    -2.36469
   183  H   1.0    0.06    1.07    1.44    78.47783    48.77334    -6.17396
   184  H   1.0    0.07    1.03    1.43    73.00972    49.33109    -4.44100
   185  H   1.0    0.06    1.04    1.43    73.79200    47.74618    -7.25930
   186  H   1.0    0.05    1.07    1.44    76.82344    44.97901    -4.64916
   187  H   1.0    0.08    1.09    1.44    75.56863    46.43710    -1.91051
   188  H   1.0    0.06    1.04    1.43    71.50465    40.84205    -7.09204
   189  H   1.0    0.06    1.03    1.43    71.81674    43.96374    -8.19374
   190  H   1.0    0.05    1.04    1.43    74.58486    42.13347    -7.56868
   191  N   5.0   -0.13    3.49    2.07    78.63539    52.83710    -8.78026
   192  C   4.0    0.04    4.40    4.39    78.81607    54.12036   -11.19732
   193  C   4.0    0.16    3.42    3.09    78.57785    52.15307   -13.32712
   194  O   6.0   -0.28    1.25    1.80    78.84046    49.89820   -12.93144
   195  C   4.0   -0.04    4.27    4.14    81.35817    55.48634   -11.41733
   196  C   4.0   -0.04    4.18    3.97    81.54773    57.74714    -9.62849
   197  C   4.0   -0.04    4.17    3.94    84.11290    59.05736    -9.88606
   198  C   4.0   -0.03    4.12    3.84    84.22359    61.42584    -8.24633
   199  N   5.0   -0.11    4.01    2.89    86.73298    62.68407    -8.48132
   200  H   1.0    0.10    1.08    1.44    80.26428    52.27633    -7.94044
   201  H   1.0    0.06    1.05    1.44    77.23101    55.44458   -11.33893
   202  H   1.0    0.06    1.03    1.43    82.85572    54.12802   -11.00315
   203  H   1.0    0.06    1.03    1.43    81.60079    56.12636   -13.36357
   204  H   1.0    0.05    1.03    1.43    80.03519    59.07412   -10.07526
   205  H   1.0    0.05    1.03    1.43    81.27573    57.10282    -7.69021
   206  H   1.0    0.05    1.03    1.43    85.58385    57.73077    -9.31717
   207  H   1.0    0.06    1.03    1.43    84.39605    59.55237   -11.86705
   208  H   1.0    0.06    1.02    1.43    82.75985    62.75175    -8.83439
   209  H   1.0    0.05    1.02    1.43    83.90573    60.92654    -6.27253
   210  H   1.0    0.08    1.02    1.43    86.79449    64.29686    -7.39233
   211  H   1.0    0.07    1.02    1.43    88.14817    61.48223    -7.90074
   212  H   1.0    0.08    1.02    1.43    87.06301    63.16863   -10.33983
   213  N   5.0   -0.13    3.47    2.06    78.09618    53.10911   -15.64382
   214  C   4.0    0.04    4.32    4.23    78.61919    51.63347   -17.89268
   215  C   4.0    0.09    3.21    3.04    80.63817    53.06384   -19.40580
   216  O   6.0   -0.25    1.15    1.80    81.08990    55.29766   -18.94867
   217  C   4.0   -0.03    4.22    4.05    76.20103    51.18192   -19.45526
   218  C   4.0   -0.04    4.16    3.92    75.95588    48.50836   -20.52573
   219  C   4.0   -0.04    4.16    3.93    75.60155    46.49910   -18.46989
   220  C   4.0   -0.03    4.12    3.83    75.08527    43.91682   -19.64179
   221  N   5.0   -0.11    4.01    2.90    74.86741    41.91230   -17.68945
   222  H   1.0    0.10    1.09    1.44    78.28373    54.99400   -15.92782
   223  H   1.0    0.06    1.07    1.44    79.42078    49.83604   -17.25933
   224  H   1.0    0.06    1.03    1.43    74.59186    51.55801   -18.22156
   225  H   1.0    0.06    1.03    1.43    76.14592    52.53874   -21.00882
   226  H   1.0    0.06    1.03    1.43    74.31323    48.49082   -21.77270
   227  H   1.0    0.06    1.02    1.43    77.60520    48.07290   -21.68923
   228  H   1.0    0.06    1.03    1.43    77.28885    46.40289   -17.29286
   229  H   1.0    0.05    1.03    1.43    74.02543    47.04335   -17.25858
   230  H   1.0    0.05    1.02    1.43    73.34146    43.99128   -20.73682
   231  H   1.0    0.06    1.02    1.43    76.62831    43.42864   -20.92289
   232  H   1.0    0.08    1.02    1.43    74.66410    40.17537   -18.52084
   233  H   1.0    0.07    1.03    1.43    76.47532    41.88865   -16.60574
   234  H   1.0    0.10    1.08    1.44    73.30831    42.11541   -16.38035
   235  N   5.0   -0.17    3.23    1.96    67.66244    40.22756   -21.93491
   236  C   4.0    0.04    4.26    4.11    67.18455    40.60803   -19.27091
   237  C   4.0    0.10    3.25    3.04    64.39861    40.00371   -18.80958
   238  O   6.0   -0.24    1.15    1.80    62.82883    40.36668   -20.48612
   239  C   4.0   -0.04    4.25    4.10    67.74162    43.33150   -18.42903
   240  C   4.0   -0.03    4.17    3.95    67.54611    43.64341   -15.55987
   241  C   4.0    0.25    3.14    3.03    68.93146    41.50614   -14.12771
   242  O   6.0   -0.31    1.30    1.80    71.28791    41.53072   -14.15742
   243  O   6.0   -0.28    1.18    1.80    67.61628    39.84122   -13.07501
   244  H   1.0    0.13    1.05    1.44    66.05451    40.26934   -22.97472
   245  H   1.0    0.06    1.06    1.44    68.38480    39.29639   -18.20750
   246  H   1.0    0.05    1.03    1.43    69.64188    43.81068   -19.05650
   247  H   1.0    0.06    1.02    1.43    66.40343    44.61680   -19.33679
   248  H   1.0    0.06    1.02    1.43    68.38960    45.44234   -15.00849
   249  H   1.0    0.06    1.02    1.43    65.56943    43.67345   -14.97623
   250  N   5.0   -0.18    3.21    1.96    62.08553    40.74421   -11.67358
   251  C   4.0    0.04    4.23    4.05    61.60914    42.61012    -9.69021
   252  C   4.0    0.15    3.39    3.08    63.91476    42.54812    -7.92251
   253  O   6.0   -0.28    1.21    1.80    65.82012    43.75797    -8.41692
   254  C   4.0   -0.06    4.12    3.84    59.08280    42.11076    -8.38787
   255  H   1.0    0.12    1.05    1.44    63.87141    40.05544   -11.77108
   256  H   1.0    0.07    1.05    1.44    61.57573    44.49572   -10.56713
   257  H   1.0    0.06    1.00    1.43    58.89014    43.32731    -6.74709
   258  H   1.0    0.07    1.00    1.43    57.57411    42.51804    -9.71759
   259  H   1.0    0.06    1.00    1.43    58.92759    40.13884    -7.83401
   260  N   5.0   -0.13    3.53    2.10    63.65430    41.12615    -5.84405
   261  C   4.0    0.03    4.41    4.40    65.66192    40.60525    -4.07451
   262  C   4.0    0.15    3.46    3.10    66.29155    37.80076    -4.27904
   263  O   6.0   -0.27    1.26    1.80    64.87479    36.32217    -5.36358
   264  C   4.0   -0.04    4.35    4.30    64.81948    41.16148    -1.34720
   265  C   4.0   -0.02    4.19    3.97    63.67084    43.79987    -1.00978
   266  C   4.0   -0.06    4.10    3.81    62.77677    44.10190     1.71868
   267  C   4.0   -0.06    4.10    3.81    65.54749    45.87980    -1.69646
   268  H   1.0    0.09    1.08    1.44    62.12015    40.00934    -5.65484
   269  H   1.0    0.05    1.06    1.44    67.28423    41.76864    -4.60414
   270  H   1.0    0.06    1.03    1.43    63.40923    39.75709    -0.79026
   271  H   1.0    0.05    1.03    1.43    66.44265    40.95466    -0.09226
   272  H   1.0    0.05    1.06    1.44    62.03296    43.96237    -2.26473
   273  H   1.0    0.06    1.00    1.43    61.86499    45.92397     1.97883
   274  H   1.0    0.06    1.00    1.43    61.43214    42.63101     2.22251
   275  H   1.0    0.05    1.00    1.43    64.37876    43.98831     3.00019
   276  H   1.0    0.06    1.00    1.43    64.74394    47.72571    -1.28286
   277  H   1.0    0.05    1.00    1.43    67.28863    45.68019    -0.62218
   278  H   1.0    0.06    1.00    1.43    66.00435    45.83320    -3.69920
   279  N   5.0   -0.14    3.49    2.07    68.45601    37.06830    -3.20006
   280  C   4.0    0.04    4.34    4.27    69.01701    34.38601    -2.95625
   281  C   4.0    0.10    3.22    3.04    67.25141    33.39497    -0.86361
   282  O   6.0   -0.26    1.12    1.80    67.64221    33.75359     1.37385
   283  C   4.0   -0.04    4.24    4.09    71.81922    33.97647    -2.44638
   284  C   4.0   -0.05    4.21    4.02    73.40522    35.23964    -4.51832
   285  C   4.0   -0.05    4.17    3.93    75.95004    33.92649    -4.89225
   286  C   4.0   -0.03    4.13    3.85    77.47503    35.29246    -6.92247
   287  N   5.0   -0.11    4.01    2.89    79.78574    33.83399    -7.60147
   288  H   1.0    0.08    1.06    1.44    69.48701    38.29040    -2.15971
   289  H   1.0    0.06    1.06    1.44    68.48938    33.50783    -4.75537
   290  H   1.0    0.06    1.02    1.43    72.29499    34.72075    -0.58478
   291  H   1.0    0.06    1.03    1.43    72.15639    31.94355    -2.41179
   292  H   1.0    0.05    1.03    1.43    72.35022    35.17516    -6.28955
   293  H   1.0    0.04    1.03    1.43    73.70777    37.21985    -4.03926
   294  H   1.0    0.05    1.03    1.43    76.96209    33.91925    -3.09903
   295  H   1.0    0.05    1.03    1.43    75.59864    31.97791    -5.46404
   296  H   1.0    0.05    1.02    1.43    76.32088    35.52463    -8.61469
   297  H   1.0    0.04    1.02    1.43    78.02979    37.15567    -6.24109
   298  H   1.0    0.07    1.02    1.43    80.82794    34.78738    -8.93640
   299  H   1.0    0.06    1.02    1.43    80.89432    33.54876    -6.02439
   300  H   1.0    0.07    1.02    1.43    79.28914    32.09257    -8.32205
   301  H   1.0    0.10    1.07    1.44    83.78368    30.49663    16.44345
   302  H   1.0    0.07    1.04    1.43    81.59650    52.17990   -20.77377
   303  H   1.0    0.10    1.08    1.44    68.69179    41.45421   -22.50790
   304  H   1.0    0.07    1.04    1.43    63.84588    39.31076   -17.14064
   305  H   1.0    0.11    1.08    1.44    61.07388    39.39706   -11.44052
   306  H   1.0    0.08    1.05    1.44    65.70528    32.40908    -1.32028

  Z AO/shell   Hii/eV     exponent
  1     Wed Apr 25 08:07:45 CEST 2018   EN: 2.200 GM2: 0.406  GM3: 0.0800  RAES: 1.40
     1s    -10.707211    1.230000
  6     Wed Apr 25 08:07:45 CEST 2018   EN: 2.550 GM2: 0.538  GM3: 0.1500  RAES: 3.00
     2s    -13.970922    2.096432
     2p    -10.063292    1.800000
  7     Wed Apr 25 08:07:45 CEST 2018   EN: 3.040 GM2: 0.461  GM3:-0.0640  RAES: 1.90
     2s    -16.686243    2.339881
     2p    -12.523956    2.014332
  8     Wed Apr 25 08:07:45 CEST 2018   EN: 3.440 GM2: 0.452  GM3:-0.0517  RAES: 1.80
     2s    -20.229985    2.439742
     2p    -15.503117    2.137023
 16     Tue Apr 24 11:44:34 CEST 2018   EN: 2.580 GM2: 0.340  GM3:-0.0502  RAES: 3.10
     3s    -20.029654    1.981333
     3p    -11.377694    2.025643
     3d     -0.420282    1.702555
 no old-style atom pair restraining (fixing) potential

molecular fragmentation (1/2 indicates fragments):
111111111111111111111111111111111111111111111111111111111111111111111111
111111111111111111111111111111111111111111111111111111111111111111111111
111111111111111111111111111111111111111111111111111111111111111111111111
111111111111111111222222222222222222222222222222222222222222222222222222
222222222222112222
# atoms in fragment 1/2:   236    70
 fragment masses (1/2) :     1540.00      445.56
CMA distance (Bohr)    :  19.516
constraining FC (au)   :  0.0500
           ------------------------------------------------- 
          |        Self-Consistent Charge Iterations        |
           ------------------------------------------------- 

 Ncao       : 729
 Nao        : 728
 Nshell     : 446
 Nel        : 786
 T(el)      :   500.0
 intcut     :    35.0
 scfconv/Eh :  0.100E-06
   qconv/e  :  0.100E-04
 intneglect :  0.100E-08
 broydamp   :      0.400
 iter      E             dE          RMSdq      gap      omega  full diag
   1   -445.4886943 -0.445489E+03  0.429E+00    2.91       0.0  T
   2   -446.3631960 -0.874502E+00  0.209E+00    1.63       1.0  T
   3   -446.4112046 -0.480086E-01  0.113E+00    1.90       1.0  T
   4   -446.4741721 -0.629675E-01  0.250E-01    1.46       1.0  T
   5   -446.4782288 -0.405672E-02  0.118E-01    1.59       1.0  T
   6   -446.4790032 -0.774379E-03  0.522E-02    1.59       1.0  T
   7   -446.4792353 -0.232080E-03  0.218E-02    1.60       1.0  T
   8   -446.4792588 -0.235053E-04  0.105E-02    1.60       1.0  T
   9   -446.4792653 -0.647700E-05  0.434E-03    1.60       1.3  T
  10   -446.4792663 -0.108541E-05  0.206E-03    1.60       2.8  T
  11   -446.4792666 -0.214681E-06  0.862E-04    1.60       6.6  T
  12   -446.4792666 -0.424738E-07  0.386E-04    1.60      14.8  T
  13   -446.4792666 -0.130705E-07  0.178E-04    1.60      32.1  T
  14   -446.4792666 -0.125056E-08  0.768E-05    1.60      74.4  T
  15   -446.4792666 -0.288821E-09  0.301E-05    1.60     189.7  T
speedup  1.92
cpu  time for SCC    8.89 s
wall time for SCC    4.64 s

   *** convergence criteria satisfied after 15 iterations ***

          eigenvalues
 #    :         381        382        383        384        385        386        387        388
 occ. :        2.000      2.000      2.000      2.000      2.000      2.000      2.000      2.000
 eps  :       -10.863    -10.861    -10.820    -10.787    -10.754    -10.690    -10.668    -10.527
 #    :         389        390        391        392        393        394        395        396
 occ. :        2.000      2.000      2.000      2.000      2.000      0.000      0.000      0.000
 eps  :       -10.436    -10.156     -9.935     -9.859     -9.609     -8.010     -7.982     -7.735
 #    :         397        398        399        400        401        402        403        404
 occ. :        0.000      0.000      0.000      0.000      0.000      0.000      0.000      0.000
 eps  :        -6.665     -6.468     -6.373     -6.331     -6.330     -6.284     -6.249     -6.213


   #   Z            q   n(s)   n(p)   n(d)      C6AA      α(0)
   1   7 N     -0.396  1.310  4.086  0.000    30.255     8.169
   2   6 C      0.034  1.059  2.908  0.000    20.023     6.374
   3   6 C      0.262  1.050  2.688  0.000    22.576     7.781
   4   8 O     -0.491  1.742  4.749  0.000    23.580     6.511
   5   6 C     -0.076  1.058  3.018  0.000    21.933     6.666
   6   6 C      0.005  1.084  2.911  0.000    27.904     8.665
   7   6 C     -0.035  1.080  2.955  0.000    28.875     8.812
   8   6 C     -0.047  1.084  2.963  0.000    29.156     8.855
   9   6 C     -0.032  1.081  2.950  0.000    28.795     8.800
  10   6 C     -0.047  1.080  2.967  0.000    29.172     8.857
  11   6 C     -0.042  1.082  2.961  0.000    29.055     8.839
  12   1 H      0.166  0.834  0.000  0.000     1.299     1.786
  13   1 H      0.030  0.970  0.000  0.000     2.583     2.514
  14   1 H      0.048  0.952  0.000  0.000     2.349     2.397
  15   1 H      0.056  0.944  0.000  0.000     2.248     2.345
  16   1 H      0.023  0.977  0.000  0.000     2.694     2.567
  17   1 H      0.050  0.950  0.000  0.000     2.322     2.383
  18   1 H      0.030  0.970  0.000  0.000     2.581     2.512
  19   1 H      0.060  0.940  0.000  0.000     2.203     2.321
  20   1 H      0.052  0.948  0.000  0.000     2.301     2.372
  21   7 N     -0.166  1.240  3.926  0.000    24.594     7.365
  22   6 C      0.002  1.071  2.927  0.000    20.552     6.454
  23   6 C      0.274  1.043  2.683  0.000    22.367     7.745
  24   8 O     -0.477  1.744  4.733  0.000    23.273     6.468
  25   6 C     -0.035  1.070  2.965  0.000    21.161     6.543
  26   6 C     -0.066  1.050  3.015  0.000    21.759     6.641
  27   6 C     -0.125  1.037  3.087  0.000    22.951     6.831
  28   6 C     -0.117  1.038  3.079  0.000    22.806     6.810
  29   1 H      0.213  0.787  0.000  0.000     1.040     1.598
  30   1 H      0.094  0.906  0.000  0.000     1.840     2.121
  31   1 H      0.074  0.926  0.000  0.000     2.041     2.234
  32   1 H      0.037  0.963  0.000  0.000     2.487     2.466
  33   1 H      0.054  0.946  0.000  0.000     2.274     2.358
  34   1 H      0.064  0.936  0.000  0.000     2.153     2.294
  35   1 H      0.044  0.956  0.000  0.000     2.393     2.419
  36   1 H      0.043  0.957  0.000  0.000     2.409     2.427
  37   1 H      0.043  0.957  0.000  0.000     2.412     2.428
  38   1 H      0.054  0.946  0.000  0.000     2.270     2.356
  39   1 H      0.037  0.963  0.000  0.000     2.492     2.469
  40   7 N     -0.180  1.245  3.935  0.000    24.904     7.412
  41   6 C      0.021  1.064  2.915  0.000    20.216     6.402
  42   6 C      0.285  1.038  2.677  0.000    22.174     7.711
  43   8 O     -0.484  1.742  4.742  0.000    23.429     6.490
  44   6 C     -0.083  1.058  3.025  0.000    22.066     6.686
  45   6 C      0.006  1.079  2.915  0.000    27.884     8.662
  46   6 C     -0.041  1.081  2.960  0.000    29.011     8.833
  47   6 C     -0.044  1.082  2.962  0.000    29.092     8.845
  48   6 C     -0.033  1.082  2.952  0.000    28.832     8.805
  49   6 C     -0.036  1.082  2.954  0.000    28.897     8.815
  50   6 C     -0.037  1.083  2.955  0.000    28.931     8.820
  51   1 H      0.214  0.786  0.000  0.000     1.038     1.596
  52   1 H      0.075  0.925  0.000  0.000     2.035     2.231
  53   1 H      0.072  0.928  0.000  0.000     2.066     2.248
  54   1 H      0.057  0.943  0.000  0.000     2.238     2.340
  55   1 H      0.036  0.964  0.000  0.000     2.509     2.477
  56   1 H      0.034  0.966  0.000  0.000     2.530     2.487
  57   1 H      0.037  0.963  0.000  0.000     2.483     2.464
  58   1 H      0.051  0.949  0.000  0.000     2.308     2.376
  59   1 H      0.051  0.949  0.000  0.000     2.304     2.374
  60   7 N     -0.170  1.238  3.932  0.000    24.684     7.379
  61   6 C      0.020  1.064  2.916  0.000    20.233     6.404
  62   6 C      0.281  1.040  2.678  0.000    22.238     7.723
  63   8 O     -0.497  1.746  4.751  0.000    23.717     6.529
  64   6 C     -0.023  1.064  2.960  0.000    20.953     6.510
  65   6 C     -0.119  1.039  3.080  0.000    22.836     6.814
  66   6 C     -0.120  1.041  3.079  0.000    22.852     6.816
  67   1 H      0.200  0.800  0.000  0.000     1.107     1.648
  68   1 H      0.071  0.929  0.000  0.000     2.072     2.251
  69   1 H      0.057  0.943  0.000  0.000     2.235     2.338
  70   1 H      0.058  0.942  0.000  0.000     2.221     2.331
  71   1 H      0.033  0.967  0.000  0.000     2.538     2.491
  72   1 H      0.051  0.949  0.000  0.000     2.303     2.373
  73   1 H      0.056  0.944  0.000  0.000     2.252     2.347
  74   1 H      0.055  0.945  0.000  0.000     2.259     2.350
  75   1 H      0.042  0.958  0.000  0.000     2.416     2.431
  76   7 N     -0.184  1.251  3.933  0.000    24.983     7.423
  77   6 C      0.023  1.062  2.915  0.000    20.191     6.397
  78   6 C      0.283  1.040  2.677  0.000    22.209     7.717
  79   8 O     -0.506  1.754  4.752  0.000    23.911     6.556
  80   6 C     -0.083  1.057  3.026  0.000    22.078     6.689
  81   6 C     -0.081  1.051  3.031  0.000    22.053     6.686
  82   6 C     -0.094  1.055  3.039  0.000    22.287     6.721
  83   6 C     -0.051  1.059  2.992  0.000    21.589     6.632
  84   7 N     -0.140  1.226  3.913  0.000    24.011     7.278
  85   1 H      0.233  0.767  0.000  0.000     0.952     1.528
  86   1 H      0.055  0.945  0.000  0.000     2.258     2.350
  87   1 H      0.066  0.934  0.000  0.000     2.133     2.284
  88   1 H      0.074  0.926  0.000  0.000     2.044     2.236
  89   1 H      0.068  0.932  0.000  0.000     2.112     2.272
  90   1 H      0.055  0.945  0.000  0.000     2.253     2.347
  91   1 H      0.080  0.920  0.000  0.000     1.976     2.198
  92   1 H      0.073  0.927  0.000  0.000     2.058     2.243
  93   1 H      0.113  0.887  0.000  0.000     1.675     2.024
  94   1 H      0.125  0.875  0.000  0.000     1.575     1.963
  95   1 H      0.306  0.694  0.000  0.000     0.695     1.306
  96   1 H      0.298  0.702  0.000  0.000     0.720     1.330
  97   1 H      0.278  0.722  0.000  0.000     0.783     1.386
  98   7 N     -0.184  1.249  3.935  0.000    24.979     7.423
  99   6 C      0.019  1.066  2.914  0.000    20.246     6.406
 100   6 C      0.281  1.043  2.676  0.000    22.249     7.724
 101   8 O     -0.512  1.748  4.764  0.000    24.060     6.576
 102   6 C     -0.026  1.067  2.959  0.000    20.996     6.517
 103   6 C     -0.070  1.053  3.017  0.000    21.840     6.653
 104   6 C     -0.113  1.037  3.076  0.000    22.722     6.797
 105   6 C     -0.113  1.037  3.076  0.000    22.720     6.797
 106   1 H      0.226  0.774  0.000  0.000     0.983     1.553
 107   1 H      0.067  0.933  0.000  0.000     2.117     2.275
 108   1 H      0.048  0.952  0.000  0.000     2.342     2.393
 109   1 H      0.045  0.955  0.000  0.000     2.383     2.414
 110   1 H      0.059  0.941  0.000  0.000     2.216     2.328
 111   1 H      0.062  0.938  0.000  0.000     2.178     2.308
 112   1 H      0.025  0.975  0.000  0.000     2.654     2.548
 113   1 H      0.048  0.952  0.000  0.000     2.345     2.395
 114   1 H      0.053  0.947  0.000  0.000     2.281     2.362
 115   1 H      0.038  0.962  0.000  0.000     2.478     2.462
 116   1 H      0.041  0.959  0.000  0.000     2.430     2.438
 117   7 N     -0.187  1.251  3.935  0.000    25.046     7.433
 118   6 C      0.030  1.058  2.913  0.000    20.076     6.380
 119   6 C      0.284  1.039  2.677  0.000    22.190     7.714
 120   8 O     -0.507  1.752  4.755  0.000    23.938     6.560
 121   6 C     -0.134  1.043  3.090  0.000    23.125     6.856
 122   1 H      0.232  0.768  0.000  0.000     0.956     1.532
 123   1 H      0.062  0.938  0.000  0.000     2.180     2.309
 124   1 H      0.076  0.924  0.000  0.000     2.024     2.225
 125   1 H      0.080  0.920  0.000  0.000     1.980     2.200
 126   1 H      0.066  0.934  0.000  0.000     2.135     2.285
 127   7 N     -0.186  1.249  3.937  0.000    25.040     7.432
 128   6 C      0.039  1.052  2.909  0.000    19.923     6.355
 129   6 C      0.284  1.039  2.677  0.000    22.195     7.715
 130   8 O     -0.500  1.751  4.749  0.000    23.774     6.537
 131   6 C     -0.108  1.063  3.045  0.000    22.545     6.759
 132   6 C      0.293  1.034  2.673  0.000    22.024     7.684
 133   8 O     -0.463  1.737  4.727  0.000    22.991     6.429
 134   7 N     -0.292  1.263  4.028  0.000    27.523     7.792
 135   1 H      0.238  0.762  0.000  0.000     0.930     1.511
 136   1 H      0.068  0.932  0.000  0.000     2.107     2.270
 137   1 H      0.087  0.913  0.000  0.000     1.906     2.159
 138   1 H      0.069  0.931  0.000  0.000     2.100     2.266
 139   1 H      0.232  0.768  0.000  0.000     0.956     1.531
 140   1 H      0.224  0.776  0.000  0.000     0.991     1.560
 141   7 N     -0.173  1.239  3.935  0.000    24.755     7.389
 142   6 C      0.025  1.060  2.915  0.000    20.153     6.391
 143   6 C      0.274  1.042  2.684  0.000    22.375     7.746
 144   8 O     -0.505  1.748  4.757  0.000    23.899     6.554
 145   6 C      0.118  1.046  2.836  0.000    18.748     6.182
 146   8 O     -0.486  1.729  4.757  0.000    22.582     6.415
 147   6 C     -0.134  1.044  3.091  0.000    23.141     6.860
 148   1 H      0.213  0.787  0.000  0.000     1.044     1.601
 149   1 H      0.070  0.930  0.000  0.000     2.089     2.260
 150   1 H      0.031  0.969  0.000  0.000     2.576     2.510
 151   1 H      0.349  0.651  0.000  0.000     0.590     1.206
 152   1 H      0.070  0.930  0.000  0.000     2.080     2.255
 153   1 H      0.050  0.950  0.000  0.000     2.320     2.382
 154   1 H      0.059  0.941  0.000  0.000     2.216     2.328
 155   7 N     -0.170  1.245  3.925  0.000    24.672     7.377
 156   6 C      0.023  1.060  2.917  0.000    20.191     6.399
 157   6 C      0.273  1.046  2.681  0.000    22.390     7.748
 158   8 O     -0.470  1.729  4.740  0.000    23.119     6.447
 159   6 C     -0.077  1.056  3.021  0.000    21.962     6.671
 160   6 C     -0.011  1.057  2.954  0.000    20.740     6.478
 161   6 C     -0.118  1.042  3.076  0.000    22.814     6.810
 162   6 C     -0.125  1.044  3.081  0.000    22.950     6.831
 163   1 H      0.216  0.784  0.000  0.000     1.027     1.587
 164   1 H      0.078  0.922  0.000  0.000     1.998     2.211
 165   1 H      0.051  0.949  0.000  0.000     2.309     2.376
 166   1 H      0.081  0.919  0.000  0.000     1.964     2.191
 167   1 H      0.020  0.980  0.000  0.000     2.736     2.587
 168   1 H      0.047  0.953  0.000  0.000     2.357     2.401
 169   1 H      0.035  0.965  0.000  0.000     2.521     2.483
 170   1 H      0.051  0.949  0.000  0.000     2.311     2.377
 171   1 H      0.049  0.951  0.000  0.000     2.330     2.387
 172   1 H      0.061  0.939  0.000  0.000     2.185     2.312
 173   1 H      0.036  0.964  0.000  0.000     2.502     2.474
 174   7 N     -0.172  1.242  3.929  0.000    24.720     7.384
 175   6 C      0.020  1.065  2.915  0.000    20.240     6.406
 176   6 C      0.276  1.043  2.681  0.000    22.338     7.739
 177   8 O     -0.493  1.754  4.738  0.000    23.621     6.516
 178   6 C     -0.049  1.043  3.007  0.000    21.442     6.589
 179   6 C     -0.007  1.065  2.942  0.000    20.714     6.480
 180  16 S     -0.233  1.914  4.264  0.055   151.041    20.685
 181   6 C     -0.055  1.053  3.002  0.000    21.629     6.634
 182   1 H      0.189  0.811  0.000  0.000     1.161     1.688
 183   1 H      0.078  0.922  0.000  0.000     1.998     2.210
 184   1 H      0.036  0.964  0.000  0.000     2.501     2.473
 185   1 H      0.053  0.947  0.000  0.000     2.285     2.364
 186   1 H      0.055  0.945  0.000  0.000     2.257     2.349
 187   1 H      0.061  0.939  0.000  0.000     2.183     2.310
 188   1 H      0.063  0.937  0.000  0.000     2.164     2.301
 189   1 H      0.035  0.965  0.000  0.000     2.516     2.480
 190   1 H      0.081  0.919  0.000  0.000     1.965     2.192
 191   7 N     -0.171  1.249  3.922  0.000    24.696     7.381
 192   6 C      0.014  1.064  2.922  0.000    20.344     6.423
 193   6 C      0.273  1.047  2.680  0.000    22.390     7.749
 194   8 O     -0.472  1.744  4.728  0.000    23.166     6.453
 195   6 C     -0.081  1.058  3.023  0.000    22.032     6.682
 196   6 C     -0.076  1.051  3.025  0.000    21.946     6.669
 197   6 C     -0.095  1.055  3.040  0.000    22.304     6.724
 198   6 C     -0.049  1.059  2.990  0.000    21.552     6.626
 199   7 N     -0.148  1.230  3.918  0.000    24.189     7.305
 200   1 H      0.221  0.779  0.000  0.000     1.006     1.571
 201   1 H      0.074  0.926  0.000  0.000     2.037     2.232
 202   1 H      0.068  0.932  0.000  0.000     2.111     2.272
 203   1 H      0.069  0.931  0.000  0.000     2.098     2.265
 204   1 H      0.058  0.942  0.000  0.000     2.219     2.329
 205   1 H      0.055  0.945  0.000  0.000     2.259     2.351
 206   1 H      0.083  0.917  0.000  0.000     1.952     2.185
 207   1 H      0.081  0.919  0.000  0.000     1.966     2.193
 208   1 H      0.117  0.883  0.000  0.000     1.641     2.003
 209   1 H      0.115  0.885  0.000  0.000     1.652     2.010
 210   1 H      0.302  0.698  0.000  0.000     0.706     1.317
 211   1 H      0.300  0.700  0.000  0.000     0.713     1.323
 212   1 H      0.298  0.702  0.000  0.000     0.719     1.328
 213   7 N     -0.185  1.261  3.924  0.000    25.010     7.428
 214   6 C      0.018  1.063  2.918  0.000    20.277     6.413
 215   6 C      0.193  1.091  2.717  0.000    23.881     8.003
 216   8 O     -0.367  1.758  4.609  0.000    21.031     6.149
 217   6 C     -0.074  1.057  3.017  0.000    21.910     6.664
 218   6 C     -0.078  1.053  3.025  0.000    21.993     6.677
 219   6 C     -0.086  1.052  3.034  0.000    22.140     6.699
 220   6 C     -0.036  1.054  2.982  0.000    21.309     6.589
 221   7 N     -0.170  1.244  3.927  0.000    24.673     7.377
 222   1 H      0.215  0.785  0.000  0.000     1.031     1.591
 223   1 H      0.109  0.891  0.000  0.000     1.701     2.040
 224   1 H      0.075  0.925  0.000  0.000     2.031     2.229
 225   1 H      0.059  0.941  0.000  0.000     2.206     2.323
 226   1 H      0.064  0.936  0.000  0.000     2.158     2.298
 227   1 H      0.067  0.933  0.000  0.000     2.119     2.276
 228   1 H      0.076  0.924  0.000  0.000     2.017     2.221
 229   1 H      0.061  0.939  0.000  0.000     2.191     2.315
 230   1 H      0.088  0.912  0.000  0.000     1.895     2.153
 231   1 H      0.115  0.885  0.000  0.000     1.656     2.012
 232   1 H      0.280  0.720  0.000  0.000     0.777     1.381
 233   1 H      0.288  0.712  0.000  0.000     0.750     1.357
 234   1 H      0.293  0.707  0.000  0.000     0.735     1.344
 235   7 N     -0.392  1.326  4.065  0.000    30.142     8.154
 236   6 C      0.042  1.053  2.905  0.000    19.887     6.352
 237   6 C      0.208  1.086  2.707  0.000    23.591     7.955
 238   8 O     -0.388  1.759  4.629  0.000    21.435     6.207
 239   6 C     -0.059  1.059  3.000  0.000    21.635     6.622
 240   6 C     -0.097  1.062  3.035  0.000    22.355     6.732
 241   6 C      0.369  1.027  2.604  0.000    20.749     7.455
 242   8 O     -0.583  1.729  4.853  0.000    25.694     6.796
 243   8 O     -0.633  1.784  4.849  0.000    26.952     6.960
 244   1 H      0.166  0.834  0.000  0.000     1.300     1.786
 245   1 H      0.055  0.945  0.000  0.000     2.264     2.353
 246   1 H      0.071  0.929  0.000  0.000     2.076     2.253
 247   1 H      0.039  0.961  0.000  0.000     2.462     2.454
 248   1 H      0.035  0.965  0.000  0.000     2.511     2.478
 249   1 H      0.010  0.990  0.000  0.000     2.885     2.656
 250   7 N     -0.394  1.326  4.067  0.000    30.199     8.162
 251   6 C      0.036  1.059  2.905  0.000    19.983     6.368
 252   6 C      0.273  1.048  2.679  0.000    22.383     7.747
 253   8 O     -0.507  1.753  4.753  0.000    23.930     6.559
 254   6 C     -0.128  1.045  3.083  0.000    23.012     6.841
 255   1 H      0.156  0.844  0.000  0.000     1.362     1.828
 256   1 H      0.036  0.964  0.000  0.000     2.510     2.477
 257   1 H      0.054  0.946  0.000  0.000     2.275     2.359
 258   1 H      0.065  0.935  0.000  0.000     2.141     2.288
 259   1 H      0.047  0.953  0.000  0.000     2.360     2.402
 260   7 N     -0.172  1.237  3.935  0.000    24.722     7.385
 261   6 C      0.020  1.058  2.921  0.000    20.239     6.406
 262   6 C      0.268  1.045  2.688  0.000    22.483     7.765
 263   8 O     -0.498  1.751  4.746  0.000    23.732     6.532
 264   6 C     -0.074  1.062  3.012  0.000    21.899     6.661
 265   6 C     -0.007  1.056  2.951  0.000    20.664     6.466
 266   6 C     -0.118  1.043  3.075  0.000    22.814     6.810
 267   6 C     -0.109  1.037  3.072  0.000    22.640     6.785
 268   1 H      0.201  0.799  0.000  0.000     1.099     1.642
 269   1 H      0.080  0.920  0.000  0.000     1.976     2.198
 270   1 H      0.045  0.955  0.000  0.000     2.385     2.415
 271   1 H      0.059  0.941  0.000  0.000     2.210     2.325
 272   1 H      0.028  0.972  0.000  0.000     2.619     2.531
 273   1 H      0.044  0.956  0.000  0.000     2.395     2.420
 274   1 H      0.043  0.957  0.000  0.000     2.411     2.428
 275   1 H      0.048  0.952  0.000  0.000     2.347     2.396
 276   1 H      0.037  0.963  0.000  0.000     2.495     2.470
 277   1 H      0.044  0.956  0.000  0.000     2.393     2.419
 278   1 H      0.032  0.968  0.000  0.000     2.560     2.502
 279   7 N     -0.164  1.247  3.917  0.000    24.547     7.358
 280   6 C      0.023  1.063  2.913  0.000    20.185     6.397
 281   6 C      0.204  1.087  2.710  0.000    23.671     7.968
 282   8 O     -0.351  1.749  4.602  0.000    20.727     6.104
 283   6 C     -0.080  1.054  3.026  0.000    22.026     6.681
 284   6 C     -0.079  1.052  3.027  0.000    22.003     6.678
 285   6 C     -0.096  1.055  3.040  0.000    22.321     6.726
 286   6 C     -0.051  1.060  2.991  0.000    21.591     6.632
 287   7 N     -0.148  1.230  3.918  0.000    24.198     7.306
 288   1 H      0.214  0.786  0.000  0.000     1.036     1.595
 289   1 H      0.084  0.916  0.000  0.000     1.938     2.177
 290   1 H      0.076  0.924  0.000  0.000     2.021     2.223
 291   1 H      0.077  0.923  0.000  0.000     2.006     2.215
 292   1 H      0.052  0.948  0.000  0.000     2.298     2.370
 293   1 H      0.062  0.938  0.000  0.000     2.171     2.304
 294   1 H      0.086  0.914  0.000  0.000     1.914     2.163
 295   1 H      0.082  0.918  0.000  0.000     1.962     2.190
 296   1 H      0.115  0.885  0.000  0.000     1.654     2.011
 297   1 H      0.117  0.883  0.000  0.000     1.636     2.000
 298   1 H      0.305  0.695  0.000  0.000     0.698     1.309
 299   1 H      0.301  0.699  0.000  0.000     0.709     1.319
 300   1 H      0.298  0.702  0.000  0.000     0.718     1.328
 301   1 H      0.175  0.825  0.000  0.000     1.242     1.745
 302   1 H      0.090  0.910  0.000  0.000     1.883     2.146
 303   1 H      0.195  0.805  0.000  0.000     1.130     1.665
 304   1 H      0.053  0.947  0.000  0.000     2.284     2.363
 305   1 H      0.180  0.820  0.000  0.000     1.212     1.724
 306   1 H      0.068  0.932  0.000  0.000     2.108     2.270

 Mol. C6AA /au·bohr⁶  :     817393.448438
 Mol. C8AA /au·bohr⁸  :   18327070.485204
 Mol. α(0) /au        :       1357.517393

 
molecular dipole:
                 x           y           z       tot (Debye)
 q only:      264.397     135.811      15.005
   full:      263.749     134.579      16.829     753.840
molecular quadrupole (traceless):
                xx          xy          yy          xz          yz          zz
 q only:    19257.928   18052.845   -5396.081    1797.025     796.022  -13861.847
  q+dip:    19219.822   17851.536   -5456.955    2017.227     876.382  -13762.867
   full:    19215.941   17852.663   -5454.559    2015.632     878.457  -13761.382
speedup  1.94
cpu  time for grad   12.34 s
wall time for grad    6.37 s

SCC energy    :    -446.4968265
rep           :       5.5561301
ES            :       1.5208043
AES           :      -0.0974064
AXC           :       0.1737334
disp          :      -0.3653347
XB            :       0.0000000
fix           :       0.0000000
Gborn         :       0.0000000
Gsasa         :       0.0000000
Ghb           :       0.0000000
Gshift        :       0.0000000
Gsolv         :      -0.6323684     -396.82
Etot ala COSMO:    -446.4968265
grad norm     :       0.3865726
total E       :    -440.9146653
atomizationE  :      83.1283218    52163.81
(atE without considering molecular charge,
 total energy contains solvation terms)
H-L gap (eV)  :          1.5992

------------------------------------------------------------------------
 * finished run on 2019/05/10 at 10:20:13.623     
------------------------------------------------------------------------
 total:
 * wall-time:     0 d,  0 h,  0 min,  7.014 sec
 *  cpu-time:     0 d,  0 h,  0 min, 13.456 sec
 * ratio c/w:     1.919 speedup
 SCF:
 * wall-time:     0 d,  0 h,  0 min,  6.842 sec
 *  cpu-time:     0 d,  0 h,  0 min, 13.284 sec
 * ratio c/w:     1.942 speedup

