      -----------------------------------------------------------      
     |                   =====================                   |     
     |                           x T B                           |     
     |                   =====================                   |     
     |                         S. Grimme                         |     
     |          Mulliken Center for Theoretical Chemistry        |     
     |                    University of Bonn                     |     
     |                 Version 6.0.1 (SAW181210)                 |     
      -----------------------------------------------------------      

   This program is distributed in the hope that it will be useful,
   but WITHOUT ANY WARRANTY; without even the implied warranty of
   MERCHANTABILITY or FITNESS FOR A PARTICULAR PURPOSE.
   
   FOR NON-COMMERCIAL, ACADEMIA USE ONLY.
   
   Cite this work as:
   S. Grimme, C. Bannwarth, P. Shushkov, J. Comput. Theory Chem., 2017,
   13, 1989-2009.
   C. Bannwarth, S. Ehlert and S. Grimme., ChemRxiv, 2018, preprint.
   http://doi.org/10.26434/chemrxiv.7246238.v1
   
   for sTDA-xTB:
   S. Grimme and C. Bannwarth, J. Chem. Phys., 2016, 145, 054103.
   
   in the mass-spec context:
   V. Asgeirsson, C. Bauer and S. Grimme, Chem. Sci., 2017, 8, 4879.
   
   if GBSA is used:
   P. Shushkov, F. März and S. Grimme, unpublished.
   
   for ANC optimizer:
   S. Grimme, unpublished.
   Rational Function algorithm used in ANCopt:
   F. Eckert, P. Pulay, H.-J. Werner, J. Comput. Chem., 1997, 18, 1473.
   
   with help from (in alphabetical order)
   C. Bannwarth, F. Bohle, G. Brandenburg, E. Caldeweyher, M. Checinski,
   S. Dohm, S. Ehlert, S. Ehrlich, F. März, H. Neugebauer, J. Pisarek,
   P. Pracht, P. Shushkov, and S. Spicher.
   
 * started run on 2019/05/06 at 00:09:58.892     
========================================================================
 # omp threads = 2
========================================================================
number of atoms            : 2051
number of electrons        : 5488
charge                     : 7
spin                       : .0
first test random number   : .8962

########################################################################
# WARNING! Please study the warnings concerning your input carefully
#  - Process number higher than OMP_NUM_THREADS, I hope you know what you are doing.
########################################################################

           ------------------------------------------------- 
          |                 G F N 2 - x T B                 |
          | Geometry, Frequencies, Noncovalent interactions |
          |            JCTC 2018 parametrisation            |
           ------------------------------------------------- 
 
      method parameters     
 k(s)        :  1.8500
 k(p)        :  2.2300
 k(d)        :  2.2300
 k(f)        :  2.0000
 kEN (H0ij)  : -2.0000
 D4 a1       :  0.5200
 D4 a2       :  5.0000
 D4 s6       :  1.0000
 D4 s8       :  2.7000
 D4 s9       :  5.0000
 alphaj      :  2.0000

 Solvent             : h2o
 Using internal parameter file: .param_gbsa2_h2o
 Gsolv ref. state (COSMO-RS): gsolv [1 M gas/solution]
 temperature (mdtemp)       :    298.150000000000     
 dielectric constant        :    80.2000000000000     
 rho                        :    1.00000000000000     
 mass                       :    18.0000000000000     
 surface tension            :    15.5689454083859     
 probe radius               :   0.975313790000000     
 vdW radii scaling          :    1.00000000000000     
 Gshift (Eh)                :   1.857443126794793E-003
 c1                         :    1.55243817000000     
 soset                      :   0.130326360000000     
 HB correction              :  T

            Z     q(EN)     CN     RAES       Cart. coordinates
     1  N   5.0   -0.11    4.03    2.95    75.73644    38.40868   170.60257
     2  C   4.0    0.00    4.29    4.18    74.44386    37.74917   168.14970
     3  C   4.0    0.14    3.37    3.07    72.91319    39.79196   166.70028
     4  O   6.0   -0.30    1.26    1.80    70.60394    40.01306   167.00642
     5  C   4.0   -0.03    4.33    4.25    72.77335    35.40213   168.47663
     6  C   4.0   -0.02    3.55    3.14    72.82815    33.70137   166.20707
     7  C   4.0   -0.04    3.47    3.10    71.52424    34.34199   164.02821
     8  C   4.0   -0.04    3.46    3.10    74.31158    31.50362   166.21463
     9  C   4.0   -0.04    3.41    3.08    71.66219    32.79808   161.92306
    10  C   4.0   -0.03    3.35    3.06    74.46654    29.95216   164.10758
    11  C   4.0   -0.04    3.37    3.07    73.12484    30.60600   161.96274
    12  H   1.0    0.06    1.02    1.43    75.02590    37.27484   172.04254
    13  H   1.0    0.07    1.01    1.43    77.66963    38.10821   170.42493
    14  H   1.0    0.07    1.01    1.43    75.40384    40.29841   171.03154
    15  H   1.0    0.05    1.07    1.44    76.05013    37.42791   166.90060
    16  H   1.0    0.04    1.04    1.43    73.44042    34.32309   170.09990
    17  H   1.0    0.06    1.04    1.43    70.82504    36.00117   168.78087
    18  H   1.0    0.06    1.03    1.43    70.40174    36.04463   163.97341
    19  H   1.0    0.06    1.03    1.43    75.35471    31.00851   167.89648
    20  H   1.0    0.05    1.04    1.43    70.62851    33.29508   160.23553
    21  H   1.0    0.06    1.03    1.43    75.61360    28.26463   164.14160
    22  H   1.0    0.05    1.03    1.43    73.20987    29.41358   160.30923
    23  N   5.0   -0.14    3.45    2.05    74.18308    41.16012   165.01654
    24  C   4.0    0.03    4.55    4.60    73.06814    43.36732   163.74286
    25  C   4.0    0.17    3.63    3.19    70.50001    42.83442   162.69218
    26  O   6.0   -0.32    1.37    1.80    70.21466    41.28484   161.00087
    27  C   4.0   -0.02    4.39    4.36    74.53268    44.16290   161.39393
    28  C   4.0   -0.07    4.15    3.90    74.00923    46.90678   160.85914
    29  C   4.0   -0.07    4.17    3.94    77.34459    43.70369   161.70574
    30  H   1.0    0.07    1.09    1.44    75.99911    40.79729   164.48175
    31  H   1.0    0.05    1.06    1.44    73.03602    44.78650   165.23386
    32  H   1.0    0.05    1.09    1.44    73.91663    43.02528   159.79145
    33  H   1.0    0.05    1.00    1.43    75.05802    47.47370   159.17918
    34  H   1.0    0.08    1.03    1.43    71.98911    47.15433   160.54356
    35  H   1.0    0.05    1.00    1.43    74.61205    48.03116   162.47675
    36  H   1.0    0.05    1.00    1.43    78.31591    44.29707   159.98798
    37  H   1.0    0.05    1.00    1.43    78.02867    44.79595   163.31201
    38  H   1.0    0.04    1.01    1.43    77.66396    41.69491   162.03455
    39  N   5.0   -0.12    3.57    2.13    68.60272    44.14211   163.63704
    40  C   4.0    0.04    4.59    4.66    66.19899    44.04762   162.35580
    41  C   4.0    0.16    3.59    3.16    66.64874    45.41011   159.95396
    42  O   6.0   -0.30    1.36    1.80    68.37028    46.94268   159.85381
    43  C   4.0   -0.04    4.44    4.44    64.19777    45.53106   163.75798
    44  C   4.0   -0.04    4.06    3.73    62.82016    44.02495   165.75731
    45  S   6.0   -0.05    2.64    3.10    61.45200    41.21114   164.42694
    46  C   4.0   -0.07    3.88    3.44    58.66276    42.36388   162.87548
    47  H   1.0    0.08    1.06    1.44    68.67075    45.23815   165.22063
    48  H   1.0    0.05    1.11    1.44    65.52625    42.11065   162.16872
    49  H   1.0    0.05    1.04    1.43    65.09539    47.13354   164.68962
    50  H   1.0    0.05    1.05    1.44    62.79937    46.19813   162.40116
    51  H   1.0    0.05    1.07    1.44    64.14486    43.47315   167.23508
    52  H   1.0    0.04    1.07    1.44    61.30838    45.17012   166.56045
    53  H   1.0    0.04    1.04    1.43    57.68199    40.78029   161.99676
    54  H   1.0    0.05    1.04    1.43    57.44011    43.25961   164.27010
    55  H   1.0    0.05    1.04    1.43    59.21267    43.73393   161.43929
    56  N   5.0   -0.13    3.49    2.07    65.08972    44.92445   158.05479
    57  C   4.0    0.04    4.73    4.78    65.49034    46.13577   155.62838
    58  C   4.0    0.16    3.89    3.45    63.60818    48.22014   155.15028
    59  O   6.0   -0.31    1.34    1.80    62.13041    48.75871   156.74521
    60  C   4.0   -0.02    4.56    4.61    64.74957    44.46336   153.46086
    61  C   4.0   -0.05    4.26    4.13    66.62229    44.97926   151.29335
    62  C   4.0   -0.07    4.49    4.52    62.00380    45.03028   152.82592
    63  C   4.0   -0.08    4.18    3.95    68.70855    46.78772   152.03790
    64  H   1.0    0.07    1.05    1.44    63.57605    43.73393   158.13983
    65  H   1.0    0.06    1.13    1.45    67.46322    46.71969   155.73043
    66  H   1.0    0.06    1.09    1.44    64.85917    42.45080   153.88605
    67  H   1.0    0.05    1.06    1.44    67.49345    43.20102   150.72265
    68  H   1.0    0.04    1.03    1.43    65.59995    45.80318   149.70598
    69  H   1.0    0.03    1.04    1.43    61.41987    43.83597   151.25178
    70  H   1.0    0.05    1.01    1.43    60.83784    44.63533   154.47754
    71  H   1.0    0.06    1.28    1.49    61.83183    47.01449   152.30246
    72  H   1.0    0.04    1.00    1.43    69.95954    47.06740   150.42597
    73  H   1.0    0.04    1.04    1.43    67.87140    48.58485   152.59726
    74  H   1.0    0.05    1.01    1.43    69.76301    45.98270   153.61393
    75  N   5.0   -0.15    3.80    2.41    63.67810    49.40122   152.94308
    76  C   4.0    0.01    4.31    4.22    61.81483    51.34574   152.40073
    77  C   4.0    0.14    3.33    3.06    61.00035    50.87520   149.69842
    78  O   6.0   -0.31    1.24    1.80    62.40820    49.75270   148.20176
    79  H   1.0    0.08    1.11    1.44    64.95744    49.06484   151.54090
    80  H   1.0    0.06    1.04    1.43    60.19722    51.19646   153.66685
    81  H   1.0    0.05    1.02    1.43    62.63497    53.22791   152.58025
    82  N   5.0   -0.13    3.46    2.05    58.69489    51.71235   149.11827
    83  C   4.0    0.03    4.34    4.27    57.02815    50.89032   147.07359
    84  C   4.0    0.14    3.47    3.10    56.70123    53.19201   145.29536
    85  O   6.0   -0.26    1.26    1.80    57.68577    55.23291   145.85850
    86  C   4.0    0.03    4.17    3.95    54.41655    50.19301   148.09593
    87  O   6.0   -0.28    2.26    1.87    52.93689    49.04973   146.19676
    88  H   1.0    0.09    1.07    1.44    57.83884    53.10697   150.13684
    89  H   1.0    0.05    1.05    1.44    57.82183    49.25382   146.10794
    90  H   1.0    0.05    1.02    1.43    54.63765    48.87209   149.66063
    91  H   1.0    0.05    1.02    1.43    53.47169    51.90321   148.74600
    92  H   1.0    0.12    1.01    1.43    51.27015    48.60753   146.87328
    93  N   5.0   -0.10    3.63    2.19    55.39165    52.88209   143.11084
    94  C   4.0    0.04    4.56    4.62    54.90788    55.00992   141.39307
    95  C   4.0    0.17    3.45    3.10    54.00837    57.44956   142.57037
    96  O   6.0   -0.27    1.23    1.80    55.24047    59.39220   142.29447
    97  C   4.0   -0.05    4.40    4.39    52.67044    54.07829   139.77169
    98  C   4.0   -0.04    4.28    4.16    52.16400    51.39110   140.54648
    99  C   4.0   -0.01    4.40    4.38    54.44300    50.51048   141.99590
   100  H   1.0    0.06    1.05    1.44    56.67666    55.29905   140.37829
   101  H   1.0    0.04    1.05    1.44    51.02260    55.25937   140.13452
   102  H   1.0    0.05    1.02    1.43    53.18067    54.17277   137.77803
   103  H   1.0    0.04    1.03    1.43    50.48214    51.32496   141.73512
   104  H   1.0    0.04    1.03    1.43    51.88621    50.23270   138.86651
   105  H   1.0    0.07    1.17    1.46    53.91388    49.16311   143.46044
   106  H   1.0    0.04    1.02    1.43    55.84140    49.67145   140.73923
   107  N   5.0   -0.14    3.46    2.05    51.86920    57.29460   143.89129
   108  C   4.0    0.03    4.35    4.28    50.53505    59.48101   144.97977
   109  C   4.0    0.16    3.39    3.08    50.04750    61.63341   143.12784
   110  O   6.0   -0.29    1.29    1.80    50.82796    63.80660   143.56059
   111  C   4.0    0.05    4.12    3.84    51.68211    60.42777   147.50634
   112  O   6.0   -0.21    2.03    1.83    54.36364    60.38241   147.53657
   113  H   1.0    0.07    1.06    1.44    50.97536    55.62786   144.25790
   114  H   1.0    0.04    1.07    1.44    48.66800    58.73268   145.42953
   115  H   1.0    0.06    1.02    1.43    51.06228    62.36663   147.81436
   116  H   1.0    0.05    1.01    1.43    50.99425    59.21834   149.02568
   117  H   1.0    0.15    1.02    1.43    55.02882    61.28003   146.05881
   118  N   5.0   -0.14    3.44    2.04    48.75682    60.98713   141.06237
   119  C   4.0    0.03    4.48    4.51    48.06329    62.85417   139.12918
   120  C   4.0    0.16    3.42    3.08    46.87843    65.29003   140.14775
   121  O   6.0   -0.28    1.24    1.80    45.17768    65.19932   141.69165
   122  C   4.0   -0.02    4.29    4.17    46.11876    61.80538   137.21867
   123  C   4.0   -0.07    4.08    3.77    47.35086    59.89108   135.41776
   124  C   4.0   -0.06    4.14    3.88    43.87377    60.66398   138.59817
   125  H   1.0    0.07    1.06    1.44    48.16156    59.19756   140.66553
   126  H   1.0    0.05    1.06    1.44    49.89821    63.26614   138.28826
   127  H   1.0    0.05    1.06    1.44    45.41956    63.35873   136.06027
   128  H   1.0    0.05    1.00    1.43    45.92601    59.19378   134.10251
   129  H   1.0    0.05    1.00    1.43    48.86642    60.82461   134.38219
   130  H   1.0    0.04    1.00    1.43    48.11242    58.32828   136.52136
   131  H   1.0    0.05    1.00    1.43    42.53206    59.94022   137.21300
   132  H   1.0    0.05    1.00    1.43    44.53706    59.12952   139.80382
   133  H   1.0    0.07    1.01    1.43    42.97993    62.12285   139.74523
   134  N   5.0   -0.13    3.39    2.02    47.80251    67.43487   139.23501
   135  C   4.0    0.03    4.34    4.27    47.89132    69.94821   140.45577
   136  C   4.0    0.15    3.40    3.08    45.41200    71.14251   141.48945
   137  O   6.0   -0.28    1.22    1.80    43.47504    71.08960   140.20822
   138  C   4.0   -0.04    4.27    4.13    49.18579    71.78502   138.61896
   139  C   4.0   -0.04    4.16    3.91    50.69190    73.90340   139.85106
   140  C   4.0    0.00    4.19    3.97    53.23736    73.02846   140.92253
   141  N   5.0   -0.14    3.38    2.01    53.25626    72.84894   143.69854
   142  C   4.0    0.09    3.37    3.07    53.07106    70.71355   145.04025
   143  N   5.0   -0.17    3.28    1.98    52.84430    68.48745   143.89129
   144  N   5.0   -0.18    3.23    1.96    53.10886    70.80614   147.56303
   145  H   1.0    0.07    1.08    1.44    48.59052    67.53692   137.47945
   146  H   1.0    0.05    1.09    1.44    48.92689    69.63829   142.20944
   147  H   1.0    0.05    1.04    1.43    50.48781    70.71166   137.43788
   148  H   1.0    0.06    1.03    1.43    47.73448    72.66185   137.44922
   149  H   1.0    0.06    1.03    1.43    51.06606    75.36038   138.44510
   150  H   1.0    0.06    1.03    1.43    49.59019    74.68953   141.40441
   151  H   1.0    0.05    1.04    1.43    53.67578    71.16330   140.16475
   152  H   1.0    0.06    1.02    1.43    54.69434    74.37394   140.36695
   153  H   1.0    0.09    1.06    1.44    53.42444    74.49678   144.68498
   154  H   1.0    0.09    1.03    1.43    52.81028    68.39485   141.96566
   155  H   1.0    0.11    1.05    1.44    52.70446    66.87362   144.93631
   156  H   1.0    0.09    1.02    1.43    53.27893    72.50312   148.46254
   157  H   1.0    0.09    1.02    1.43    52.96713    69.18098   148.58915
   158  N   5.0   -0.10    3.61    2.16    45.48759    72.23477   143.81759
   159  C   4.0    0.04    4.65    4.72    43.29551    73.50089   144.91741
   160  C   4.0    0.16    3.49    3.11    41.68924    75.35471   143.52658
   161  O   6.0   -0.33    1.50    1.80    42.62844    77.09704   142.36439
   162  C   4.0   -0.03    4.46    4.48    44.48982    75.28857   146.83549
   163  C   4.0   -0.04    4.28    4.16    46.68001    73.75222   147.83137
   164  C   4.0   -0.01    4.35    4.29    47.35653    71.78124   145.84149
   165  H   1.0    0.07    1.07    1.44    42.18624    71.84549   145.44087
   166  H   1.0    0.05    1.04    1.43    45.13421    77.01389   145.91141
   167  H   1.0    0.05    1.02    1.43    43.14811    75.74777   148.32837
   168  H   1.0    0.05    1.03    1.43    48.28250    75.00133   148.17341
   169  H   1.0    0.04    1.03    1.43    46.11876    72.83004   149.58504
   170  H   1.0    0.05    1.07    1.44    49.27271    72.07226   145.14607
   171  H   1.0    0.05    1.02    1.43    47.16378    69.87640   146.60305
   172  N   5.0   -0.14    3.59    2.15    39.24016    74.92385   143.73822
   173  C   4.0    0.03    4.46    4.48    37.21626    75.62305   142.04314
   174  C   4.0    0.15    3.51    3.12    36.19581    78.18552   142.76124
   175  O   6.0   -0.27    1.30    1.80    34.43270    79.16251   141.55559
   176  C   4.0   -0.03    4.42    4.41    35.10733    73.73522   142.32660
   177  C   4.0   -0.00    3.64    3.19    32.69982    74.54780   141.10206
   178  C   4.0   -0.02    3.53    3.13    30.88190    76.01612   142.40786
   179  C   4.0   -0.04    3.46    3.10    32.22550    73.84104   138.64919
   180  C   4.0   -0.03    3.35    3.07    28.65391    76.75500   141.22867
   181  C   4.0   -0.03    3.38    3.07    29.98428    74.54402   137.49457
   182  C   4.0   -0.02    3.36    3.07    28.21361    76.01990   138.75880
   183  H   1.0    0.10    1.11    1.45    38.51261    73.97710   145.25190
   184  H   1.0    0.05    1.07    1.44    37.85310    75.62683   140.08538
   185  H   1.0    0.05    1.04    1.43    35.68558    71.95698   141.46299
   186  H   1.0    0.05    1.04    1.43    34.73127    73.45365   144.33160
   187  H   1.0    0.05    1.03    1.43    31.23150    76.56792   144.34105
   188  H   1.0    0.05    1.03    1.43    33.60122    72.73744   137.62118
   189  H   1.0    0.06    1.03    1.43    27.28386    77.88883   142.22833
   190  H   1.0    0.06    1.03    1.43    29.60445    73.93742   135.58406
   191  H   1.0    0.07    1.03    1.43    26.49774    76.59059   137.81393
   192  N   5.0   -0.14    3.56    2.13    37.17847    79.06424   144.90608
   193  C   4.0    0.04    4.35    4.29    37.52240    81.71931   145.54858
   194  C   4.0    0.16    3.39    3.07    39.04552    82.93818   143.38863
   195  O   6.0   -0.25    1.19    1.80    38.33309    84.91106   142.38140
   196  C   4.0   -0.05    4.27    4.14    39.02284    81.89316   148.06570
   197  C   4.0   -0.05    4.15    3.89    37.51673    81.87427   150.53746
   198  C   4.0   -0.04    4.20    4.00    36.21093    84.41784   150.90029
   199  C   4.0   -0.03    4.11    3.82    34.46293    84.52744   153.18308
   200  N   5.0   -0.11    4.00    2.87    32.43904    86.45496   152.72009
   201  H   1.0    0.08    1.09    1.44    37.79263    77.91151   146.32526
   202  H   1.0    0.07    1.05    1.44    35.72527    82.69063   145.80747
   203  H   1.0    0.04    1.03    1.43    40.30785    80.28501   148.14318
   204  H   1.0    0.05    1.04    1.43    40.09432    83.65250   148.03924
   205  H   1.0    0.05    1.04    1.43    36.08243    80.39650   150.46754
   206  H   1.0    0.05    1.03    1.43    38.78851    81.54923   152.12483
   207  H   1.0    0.05    1.03    1.43    37.65090    85.87104   151.14595
   208  H   1.0    0.05    1.04    1.43    35.07898    84.82413   149.22788
   209  H   1.0    0.04    1.02    1.43    33.58043    82.69063   153.47787
   210  H   1.0    0.05    1.02    1.43    35.53252    85.07168   154.85737
   211  H   1.0    0.07    1.01    1.43    32.13290    87.51321   154.34715
   212  H   1.0    0.07    1.02    1.43    32.98139    87.66250   151.26689
   213  H   1.0    0.07    1.01    1.43    30.76285    85.56112   152.21554
   214  N   5.0   -0.14    3.53    2.10    41.08642    81.63049   142.66108
   215  C   4.0    0.04    4.41    4.40    43.04229    82.44118   140.85639
   216  C   4.0    0.16    3.43    3.09    42.69080    81.79490   138.08983
   217  O   6.0   -0.26    1.24    1.80    44.19691    82.59803   136.52703
   218  C   4.0   -0.02    4.44    4.45    45.46870    81.08247   141.54047
   219  C   4.0   -0.03    4.23    4.07    47.19213    82.52055   143.28658
   220  C   4.0    0.16    3.23    3.04    49.90766    81.65128   143.01824
   221  O   6.0   -0.29    1.22    1.80    50.41222    79.42140   142.55337
   222  N   5.0   -0.16    3.17    1.95    51.68023    83.41439   143.29603
   223  H   1.0    0.11    1.17    1.46    41.47193    79.86738   143.33760
   224  H   1.0    0.07    1.06    1.44    43.08575    84.49532   141.01324
   225  H   1.0    0.08    1.11    1.45    44.98493    79.30991   142.47022
   226  H   1.0    0.08    1.06    1.44    46.51749    80.70642   139.80759
   227  H   1.0    0.06    1.04    1.43    47.10520    84.52744   142.83305
   228  H   1.0    0.05    1.03    1.43    46.60064    82.21253   145.23489
   229  H   1.0    0.10    1.02    1.43    51.17567    85.23798   143.66831
   230  H   1.0    0.11    1.02    1.43    53.54161    82.94196   143.13540
   231  N   5.0   -0.13    3.48    2.06    40.82753    80.20942   137.54937
   232  C   4.0    0.04    4.31    4.22    40.29085    79.14928   135.05871
   233  C   4.0    0.11    3.26    3.05    38.45214    80.86137   133.74913
   234  O   6.0   -0.24    1.13    1.80    37.80208    80.54012   131.55705
   235  C   4.0   -0.04    4.31    4.22    39.04930    76.54902   135.33839
   236  C   4.0   -0.04    4.19    3.99    40.61210    74.36072   134.38597
   237  C   4.0   -0.01    4.19    3.98    39.03607    71.99100   133.97023
   238  N   5.0   -0.13    3.37    2.01    40.18880    70.42064   131.97846
   239  C   4.0    0.10    3.32    3.06    39.91479    70.73622   129.46890
   240  N   5.0   -0.16    3.23    1.96    41.08075    69.18287   127.86642
   241  N   5.0   -0.16    3.24    1.97    38.48994    72.57681   128.52026
   242  H   1.0    0.09    1.07    1.44    39.57653    79.58014   138.87407
   243  H   1.0    0.07    1.06    1.44    42.01617    78.89228   133.96267
   244  H   1.0    0.05    1.05    1.44    38.67324    76.21643   137.33583
   245  H   1.0    0.06    1.05    1.44    37.28240    76.55280   134.28015
   246  H   1.0    0.06    1.04    1.43    41.47571    74.87850   132.58884
   247  H   1.0    0.06    1.03    1.43    42.07475    73.92230   135.76925
   248  H   1.0    0.05    1.02    1.43    38.95670    70.89496   135.71256
   249  H   1.0    0.05    1.03    1.43    37.13311    72.51634   133.38064
   250  H   1.0    0.08    1.06    1.44    41.29996    68.95610   132.55672
   251  H   1.0    0.09    1.02    1.43    42.18246    67.75234   128.54105
   252  H   1.0    0.10    1.02    1.43    40.87099    69.42475   125.96535
   253  H   1.0    0.10    1.03    1.43    37.57153    73.79191   129.70134
   254  H   1.0    0.11    1.03    1.43    38.31419    72.77335   126.61164
   255  N   5.0   -0.18    3.30    1.98    15.76220    69.60806   149.72866
   256  C   4.0    0.03    4.51    4.55    18.02610    69.42475   151.21965
   257  C   4.0    0.15    3.52    3.13    20.28243    68.92020   149.59071
   258  O   6.0   -0.28    1.28    1.80    20.10101    67.52936   147.71799
   259  C   4.0   -0.02    4.36    4.31    17.80689    67.28936   153.08670
   260  C   4.0   -0.07    4.19    3.98    20.35046    66.78292   154.32258
   261  C   4.0   -0.08    4.15    3.91    15.83779    67.98667   155.01989
   262  H   1.0    0.14    1.12    1.45    15.20851    67.97911   148.85938
   263  H   1.0    0.05    1.07    1.44    18.29066    71.24078   152.15506
   264  H   1.0    0.05    1.06    1.44    17.23619    65.55081   152.13995
   265  H   1.0    0.04    1.00    1.43    20.14826    65.23334   155.66429
   266  H   1.0    0.05    1.02    1.43    21.71484    66.27647   152.86560
   267  H   1.0    0.06    1.00    1.43    20.97029    68.48556   155.30335
   268  H   1.0    0.04    1.00    1.43    15.66394    66.45221   156.38238
   269  H   1.0    0.04    1.00    1.43    16.41983    69.71388   155.97798
   270  H   1.0    0.05    1.00    1.43    14.03688    68.28525   154.06558
   271  N   5.0   -0.14    3.53    2.10    22.38002    70.08427   150.33337
   272  C   4.0    0.04    4.55    4.60    24.82911    69.49845   149.29024
   273  C   4.0    0.14    3.58    3.15    26.20483    67.96399   151.24233
   274  O   6.0   -0.32    1.34    1.80    26.46750    68.79547   153.40795
   275  C   4.0   -0.02    4.34    4.27    26.40703    71.88140   148.91040
   276  C   4.0   -0.07    4.16    3.93    29.19816    71.20676   148.66285
   277  C   4.0   -0.07    4.10    3.81    25.47917    73.37239   146.63329
   278  H   1.0    0.10    1.08    1.44    22.42349    71.46377   151.67885
   279  H   1.0    0.07    1.07    1.44    24.56644    68.49312   147.51201
   280  H   1.0    0.05    1.06    1.44    26.19727    73.09460   150.56203
   281  H   1.0    0.04    1.00    1.43    30.28475    72.93586   148.39451
   282  H   1.0    0.05    1.02    1.43    29.81232    70.25056   150.38061
   283  H   1.0    0.04    1.00    1.43    29.44571    69.96143   147.03958
   284  H   1.0    0.04    1.00    1.43    26.64325    75.05802   146.41597
   285  H   1.0    0.05    1.00    1.43    25.63035    72.19131   144.95143
   286  H   1.0    0.06    1.00    1.43    23.51386    73.91096   146.93942
   287  N   5.0   -0.15    3.46    2.06    27.13835    65.75868   150.51100
   288  C   4.0    0.04    4.56    4.62    28.46872    64.20533   152.35160
   289  C   4.0    0.14    3.52    3.12    31.16347    63.76691   151.50122
   290  O   6.0   -0.31    1.32    1.80    31.60189    62.07183   149.97810
   291  C   4.0   -0.01    4.35    4.29    27.21772    61.62207   152.61238
   292  C   4.0   -0.07    4.20    4.00    28.98840    59.88731   154.01833
   293  C   4.0   -0.08    4.11    3.82    24.64959    61.82805   153.88227
   294  H   1.0    0.10    1.07    1.44    27.00796    65.02925   148.73088
   295  H   1.0    0.06    1.08    1.44    28.50085    65.26547   154.11660
   296  H   1.0    0.05    1.06    1.44    26.85490    60.81705   150.75100
   297  H   1.0    0.03    1.00    1.43    28.10400    58.03726   154.20920
   298  H   1.0    0.06    1.04    1.43    30.74584    59.71912   152.95631
   299  H   1.0    0.04    1.00    1.43    29.36634    60.68099   155.88160
   300  H   1.0    0.03    1.00    1.43    23.82189    59.94778   154.03156
   301  H   1.0    0.04    1.00    1.43    24.89336    62.63875   155.76066
   302  H   1.0    0.05    1.00    1.43    23.43449    63.04126   152.74466
   303  N   5.0   -0.13    3.44    2.04    32.97761    65.24846   152.42530
   304  C   4.0    0.04    4.38    4.35    35.62889    64.76469   151.69586
   305  C   4.0    0.16    3.43    3.09    36.94792    63.15464   153.70275
   306  O   6.0   -0.31    1.31    1.80    36.55108    63.57038   155.97042
   307  C   4.0   -0.03    4.25    4.10    37.18036    67.18921   151.25366
   308  C   4.0   -0.03    4.17    3.94    35.78952    69.71010   150.97210
   309  C   4.0    0.23    3.11    3.03    37.32587    71.61305   149.41496
   310  O   6.0   -0.31    1.22    1.80    38.14034    70.85905   147.32304
   311  O   6.0   -0.31    1.15    1.80    37.74161    73.81836   150.24833
   312  H   1.0    0.11    1.09    1.44    32.69982    66.73000   153.62527
   313  H   1.0    0.06    1.07    1.44    35.58354    63.74424   149.90629
   314  H   1.0    0.06    1.04    1.43    38.45781    67.40652   152.85426
   315  H   1.0    0.06    1.04    1.43    38.26128    66.92464   149.52079
   316  H   1.0    0.04    1.03    1.43    33.99239    69.39263   150.01589
   317  H   1.0    0.05    1.03    1.43    35.46071    70.51701   152.83915
   318  N   5.0   -0.14    3.47    2.06    38.51639    61.34995   152.88828
   319  C   4.0    0.03    4.49    4.52    40.25305    60.06305   154.62872
   320  C   4.0    0.16    3.61    3.17    41.82152    62.03970   155.87404
   321  O   6.0   -0.29    1.31    1.80    42.23726    64.05982   154.81769
   322  C   4.0   -0.04    4.32    4.24    42.04829    58.32261   153.24166
   323  C   4.0   -0.04    4.26    4.11    43.58842    56.68233   155.00666
   324  C   4.0   -0.01    4.19    3.99    43.90211    53.95168   154.08258
   325  N   5.0   -0.13    3.37    2.01    45.59342    53.61341   151.91507
   326  C   4.0    0.10    3.34    3.06    47.88566    54.63765   151.66374
   327  N   5.0   -0.15    3.30    1.98    48.83997    56.15321   153.44575
   328  N   5.0   -0.18    3.23    1.96    49.22169    54.17466   149.57937
   329  H   1.0    0.07    1.05    1.44    38.63167    60.74146   151.06280
   330  H   1.0    0.05    1.09    1.44    39.17024    58.93866   155.97231
   331  H   1.0    0.04    1.04    1.43    40.95981    57.08295   152.00767
   332  H   1.0    0.06    1.04    1.43    43.35409    59.45834   152.12483
   333  H   1.0    0.06    1.09    1.44    45.46870    57.49869   155.20130
   334  H   1.0    0.05    1.04    1.43    42.65489    56.61997   156.84158
   335  H   1.0    0.05    1.03    1.43    44.65989    52.82540   155.63216
   336  H   1.0    0.05    1.03    1.43    42.05018    53.23547   153.53078
   337  H   1.0    0.08    1.06    1.44    44.96414    52.49848   150.47321
   338  H   1.0    0.09    1.08    1.44    47.81385    56.54438   155.02934
   339  H   1.0    0.11    1.02    1.43    50.59552    56.91855   153.22087
   340  H   1.0    0.08    1.03    1.43    48.49037    53.04839   148.19609
   341  H   1.0    0.09    1.02    1.43    50.97536    54.94756   149.36772
   342  N   5.0   -0.14    3.57    2.13    42.71726    61.50113   158.13227
   343  C   4.0    0.03    4.57    4.63    44.55785    63.18488   159.22831
   344  C   4.0    0.15    3.64    3.19    46.77639    63.08094   157.47086
   345  O   6.0   -0.30    1.27    1.80    47.46236    61.02492   156.55624
   346  C   4.0   -0.04    4.38    4.34    45.28917    62.27025   161.80967
   347  C   4.0   -0.02    3.55    3.14    47.19024    63.83116   163.25909
   348  C   4.0   -0.04    3.48    3.11    46.91245    66.42765   163.56712
   349  C   4.0   -0.04    3.50    3.11    49.18957    62.63119   164.47608
   350  C   4.0   -0.02    3.43    3.09    48.65477    67.77880   164.96930
   351  C   4.0   -0.05    3.49    3.11    50.91489    63.94455   165.88770
   352  C   4.0    0.07    3.49    3.11    50.64843    66.49757   166.12959
   353  O   6.0   -0.23    2.12    1.84    52.41344    67.69754   167.56956
   354  H   1.0    0.10    1.09    1.44    42.22593    59.97612   159.20563
   355  H   1.0    0.04    1.10    1.44    43.86054    65.11051   159.45130
   356  H   1.0    0.05    1.04    1.43    43.58275    62.18899   162.96052
   357  H   1.0    0.05    1.05    1.44    46.09420    60.38430   161.60936
   358  H   1.0    0.05    1.03    1.43    45.33075    67.39141   162.70918
   359  H   1.0    0.05    1.03    1.43    49.38610    60.60729   164.30222
   360  H   1.0    0.07    1.03    1.43    48.47525    69.80270   165.16394
   361  H   1.0    0.05    1.03    1.43    52.46446    62.97323   166.79666
   362  H   1.0    0.12    1.03    1.43    53.64554    66.47300   168.21207
   363  N   5.0   -0.10    3.71    2.29    47.80251    65.31649   156.87560
   364  C   4.0    0.03    4.55    4.60    50.01727    65.61128   155.25988
   365  C   4.0    0.16    3.45    3.09    52.06573    63.85573   156.22175
   366  O   6.0   -0.27    1.21    1.80    52.89532    62.17009   154.84414
   367  C   4.0   -0.05    4.36    4.31    50.76371    68.39674   155.63216
   368  C   4.0   -0.04    4.28    4.16    48.91934    69.48711   157.52000
   369  C   4.0   -0.01    4.40    4.38    46.67434    67.76557   157.55590
   370  H   1.0    0.06    1.05    1.44    49.60531    65.31460   153.26433
   371  H   1.0    0.05    1.03    1.43    52.68934    68.50257   156.35593
   372  H   1.0    0.04    1.02    1.43    50.63143    69.39074   153.83314
   373  H   1.0    0.04    1.03    1.43    49.80373    69.56081   159.37949
   374  H   1.0    0.04    1.03    1.43    48.36754    71.38062   156.92662
   375  H   1.0    0.03    1.05    1.44    45.82207    67.69565   159.43051
   376  H   1.0    0.05    1.02    1.43    45.27027    68.34761   156.16506
   377  N   5.0   -0.15    3.49    2.07    52.70446    64.15620   158.64060
   378  C   4.0    0.03    4.40    4.37    54.82662    62.86173   159.83302
   379  C   4.0    0.16    3.36    3.07    54.51670    60.01014   160.38104
   380  O   6.0   -0.30    1.22    1.80    56.37241    58.67977   160.87804
   381  C   4.0   -0.05    4.34    4.26    55.50125    64.27714   162.24431
   382  C   4.0   -0.04    4.27    4.15    57.87664    65.82860   162.03644
   383  C   4.0   -0.00    4.24    4.07    59.98935    64.53981   163.49531
   384  N   5.0   -0.13    3.38    2.01    61.81294    66.38040   164.46285
   385  C   4.0    0.10    3.36    3.07    61.22523    68.47422   165.74786
   386  N   5.0   -0.18    3.32    1.99    58.83851    69.07137   166.21652
   387  N   5.0   -0.17    3.23    1.96    63.03748    70.01813   166.53210
   388  H   1.0    0.07    1.07    1.44    51.76148    65.31649   159.85570
   389  H   1.0    0.06    1.07    1.44    56.39320    62.92032   158.49698
   390  H   1.0    0.04    1.05    1.44    53.95546    65.55459   162.71674
   391  H   1.0    0.05    1.05    1.44    55.77337    62.90898   163.75987
   392  H   1.0    0.05    1.03    1.43    58.43411    65.99112   160.05979
   393  H   1.0    0.05    1.09    1.44    57.56105    67.70132   162.83580
   394  H   1.0    0.05    1.03    1.43    59.19000    63.51558   165.09402
   395  H   1.0    0.05    1.02    1.43    60.98335    63.23590   162.24809
   396  H   1.0    0.09    1.06    1.44    63.67999    66.03836   164.13026
   397  H   1.0    0.08    1.07    1.44    57.41932    67.92620   165.59480
   398  H   1.0    0.10    1.03    1.43    58.42088    70.67575   167.19917
   399  H   1.0    0.10    1.03    1.43    64.88185    69.60806   166.15415
   400  H   1.0    0.10    1.03    1.43    62.58583    71.61494   167.51287
   401  N   5.0   -0.13    3.43    2.04    52.18289    59.09173   160.26199
   402  C   4.0    0.04    4.43    4.43    51.54039    56.49714   160.95930
   403  C   4.0    0.16    3.77    3.31    52.46068    54.28994   159.40594
   404  O   6.0   -0.29    1.37    1.80    52.17911    54.31072   157.15906
   405  C   4.0   -0.02    4.52    4.57    48.79461    55.97179   160.22608
   406  C   4.0   -0.03    4.37    4.33    48.09542    53.17311   160.12593
   407  C   4.0    0.23    3.15    3.03    48.12943    51.90699   162.72808
   408  O   6.0   -0.32    1.28    1.80    48.58863    49.56184   162.87170
   409  O   6.0   -0.32    1.28    1.80    47.70991    53.28271   164.63481
   410  H   1.0    0.09    1.07    1.44    50.65788    60.11407   159.67806
   411  H   1.0    0.05    1.06    1.44    52.25659    56.50659   162.89060
   412  H   1.0    0.05    1.03    1.43    47.56251    56.87130   161.60936
   413  H   1.0    0.06    1.05    1.44    48.45257    56.76548   158.35714
   414  H   1.0    0.04    1.03    1.43    46.19624    52.98414   159.35303
   415  H   1.0    0.07    1.12    1.45    49.44657    52.18856   158.92217
   416  N   5.0   -0.15    3.52    2.09    53.50948    52.36053   160.60025
   417  C   4.0    0.04    4.41    4.39    55.07984    50.43490   159.40405
   418  C   4.0    0.16    3.41    3.08    54.02915    47.72125   159.39271
   419  O   6.0   -0.29    1.25    1.80    54.46001    46.35876   157.59370
   420  C   4.0    0.05    4.18    3.96    57.74625    50.36687   160.59458
   421  O   6.0   -0.25    2.09    1.84    57.88609    48.44501   162.54289
   422  C   4.0   -0.05    4.05    3.71    58.57206    53.04461   161.54700
   423  H   1.0    0.09    1.06    1.44    53.29972    52.05817   162.49187
   424  H   1.0    0.07    1.07    1.44    55.22535    51.01126   157.43118
   425  H   1.0    0.07    1.06    1.44    59.12952    49.84341   159.16028
   426  H   1.0    0.11    1.00    1.43    59.58306    48.41478   163.28177
   427  H   1.0    0.05    0.99    1.43    60.45422    52.94823   162.37659
   428  H   1.0    0.07    0.99    1.43    58.60229    54.37308   159.97286
   429  H   1.0    0.06    1.00    1.43    57.24925    53.72491   162.97186
   430  N   5.0   -0.13    3.46    2.05    52.74981    46.87465   161.38638
   431  C   4.0    0.04    4.38    4.35    51.70290    44.28762   161.33913
   432  C   4.0    0.16    3.43    3.09    49.23303    44.18179   159.82924
   433  O   6.0   -0.30    1.27    1.80    48.39777    42.17679   159.04312
   434  C   4.0   -0.04    4.24    4.08    51.43267    43.14622   164.04333
   435  C   4.0   -0.01    3.49    3.11    50.29128    40.47793   164.13782
   436  C   4.0   -0.04    3.46    3.10    51.67645    38.33876   163.38760
   437  C   4.0   -0.03    3.44    3.09    47.83841    40.10376   165.04677
   438  C   4.0   -0.04    3.37    3.07    50.60875    35.92180   163.48775
   439  C   4.0   -0.04    3.35    3.06    46.77828    37.69625   165.17339
   440  C   4.0   -0.03    3.35    3.06    48.15967    35.60622   164.38915
   441  H   1.0    0.10    1.06    1.44    52.41155    47.87432   162.99831
   442  H   1.0    0.06    1.06    1.44    53.04461    43.02339   160.41884
   443  H   1.0    0.04    1.03    1.43    53.30350    43.04796   164.90127
   444  H   1.0    0.05    1.03    1.43    50.21191    44.38021   165.15260
   445  H   1.0    0.04    1.03    1.43    53.59263    38.56364   162.72430
   446  H   1.0    0.05    1.03    1.43    46.74426    41.71192   165.66283
   447  H   1.0    0.05    1.03    1.43    51.68400    34.30231   162.86603
   448  H   1.0    0.05    1.03    1.43    44.87910    37.45437   165.88203
   449  H   1.0    0.05    1.03    1.43    47.33386    33.74106   164.47986
   450  N   5.0   -0.12    3.53    2.10    48.05951    46.32663   159.35492
   451  C   4.0    0.04    4.51    4.55    45.61420    46.20758   158.15494
   452  C   4.0    0.14    3.46    3.10    45.73326    46.67623   155.31658
   453  O   6.0   -0.28    1.20    1.80    47.12221    48.35809   154.41518
   454  C   4.0   -0.04    4.38    4.34    43.78684    48.05006   159.43429
   455  C   4.0   -0.02    4.19    3.97    42.29585    47.26583   161.78511
   456  C   4.0   -0.07    4.13    3.85    41.89711    49.44657   163.61625
   457  C   4.0   -0.08    4.15    3.90    39.76739    46.30962   160.88560
   458  H   1.0    0.11    1.11    1.45    48.72280    48.09164   159.75932
   459  H   1.0    0.05    1.13    1.45    44.85831    44.30274   158.36281
   460  H   1.0    0.05    1.06    1.44    44.88666    49.70168   159.98798
   461  H   1.0    0.04    1.05    1.44    42.38088    48.57918   158.02455
   462  H   1.0    0.04    1.06    1.44    43.34086    45.82396   162.82068
   463  H   1.0    0.04    1.00    1.43    40.82942    48.77005   165.24142
   464  H   1.0    0.05    1.01    1.43    43.73204    50.15333   164.22663
   465  H   1.0    0.04    1.00    1.43    40.85021    50.94134   162.66005
   466  H   1.0    0.04    1.00    1.43    38.65056    45.73326   162.51643
   467  H   1.0    0.04    1.00    1.43    38.80174    47.81952   159.87082
   468  H   1.0    0.04    1.00    1.43    40.06597    44.70147   159.63460
   469  N   5.0   -0.09    3.63    2.19    44.25360    45.18902   153.89550
   470  C   4.0    0.03    4.52    4.57    43.52417    45.48381   151.18563
   471  C   4.0    0.15    3.63    3.19    41.60988    47.45669   150.45998
   472  O   6.0   -0.30    1.33    1.80    39.69936    47.63999   151.69586
   473  C   4.0   -0.03    4.52    4.56    41.74972    43.25016   150.70942
   474  C   4.0   -0.04    4.31    4.22    41.25461    42.11254   153.26811
   475  C   4.0   -0.01    4.44    4.44    43.46559    42.74182   154.92540
   476  H   1.0    0.05    1.04    1.44    45.36854    45.68412   150.29179
   477  H   1.0    0.06    1.08    1.44    39.99983    43.92101   149.85338
   478  H   1.0    0.04    1.02    1.43    42.66434    41.88767   149.46598
   479  H   1.0    0.05    1.03    1.43    39.52551    42.91568   154.04668
   480  H   1.0    0.03    1.03    1.43    41.05997    40.07164   153.07914
   481  H   1.0    0.04    1.05    1.44    42.89678    42.91001   156.89828
   482  H   1.0    0.05    1.02    1.43    44.96036    41.33776   154.74021
   483  N   5.0   -0.09    3.69    2.26    42.06341    48.91934   148.45687
   484  C   4.0    0.03    4.58    4.64    40.41368    51.12276   148.03546
   485  C   4.0    0.15    3.51    3.12    38.38600    50.53505   146.06637
   486  O   6.0   -0.27    1.26    1.80    38.66001    48.69257   144.65852
   487  C   4.0   -0.04    4.41    4.40    42.04640    52.90099   146.40085
   488  C   4.0   -0.04    4.29    4.18    44.29329    51.31740   145.59205
   489  C   4.0   -0.01    4.34    4.28    43.80007    48.59808   146.33093
   490  H   1.0    0.06    1.06    1.44    39.80330    51.80495   149.88172
   491  H   1.0    0.05    1.05    1.44    40.96737    53.53783   144.76624
   492  H   1.0    0.04    1.02    1.43    42.65111    54.52048   147.51957
   493  H   1.0    0.04    1.03    1.43    44.52005    51.46669   143.55114
   494  H   1.0    0.03    1.04    1.43    45.98270    52.01471   146.54258
   495  H   1.0    0.06    1.02    1.43    42.91568    47.55306   144.79269
   496  H   1.0    0.04    1.02    1.43    45.53484    47.65511   146.91674
   497  N   5.0   -0.13    3.47    2.06    36.38100    52.03927   145.95865
   498  C   4.0    0.04    4.45    4.46    33.91113    51.29283   145.03836
   499  C   4.0    0.16    3.43    3.09    33.80153    51.48558   142.20755
   500  O   6.0   -0.26    1.23    1.80    35.03741    53.07673   141.02269
   501  C   4.0   -0.04    4.45    4.46    31.87590    52.67233   146.46321
   502  C   4.0   -0.02    4.22    4.04    31.28252    51.82951   149.10883
   503  C   4.0   -0.07    4.14    3.88    31.05009    54.21246   150.68864
   504  C   4.0   -0.08    4.13    3.86    28.85612    50.29695   149.04269
   505  H   1.0    0.08    1.06    1.44    36.41502    53.88176   146.52557
   506  H   1.0    0.05    1.08    1.44    33.50862    49.30673   145.40496
   507  H   1.0    0.05    1.06    1.44    32.43337    54.65087   146.58604
   508  H   1.0    0.05    1.05    1.44    30.12979    52.49659   145.38418
   509  H   1.0    0.05    1.06    1.44    32.72816    50.62387   149.94408
   510  H   1.0    0.04    1.00    1.43    30.61734    53.68900   152.63316
   511  H   1.0    0.04    1.00    1.43    32.83399    55.24047   150.61872
   512  H   1.0    0.04    1.00    1.43    29.53642    55.38031   149.92141
   513  H   1.0    0.04    1.00    1.43    28.40447    49.67523   150.95320
   514  H   1.0    0.04    1.00    1.43    27.33678    51.47802   148.31136
   515  H   1.0    0.05    1.00    1.43    29.12824    48.66422   147.81814
   516  N   5.0   -0.14    3.53    2.10    32.12534    49.94735   141.14552
   517  C   4.0    0.04    4.41    4.41    31.38457    50.15522   138.51502
   518  C   4.0    0.15    3.45    3.10    30.26585    52.76493   137.98968
   519  O   6.0   -0.28    1.24    1.80    30.84789    53.90632   136.04704
   520  C   4.0   -0.03    4.30    4.20    29.47217    48.09730   137.83472
   521  C   4.0    0.25    3.19    3.03    29.94082    45.64822   139.24446
   522  O   6.0   -0.28    1.21    1.80    29.03375    45.40445   141.41008
   523  O   6.0   -0.24    1.17    1.80    31.21638    43.96825   138.18810
   524  H   1.0    0.10    1.11    1.45    31.23339    48.51493   142.07716
   525  H   1.0    0.08    1.06    1.44    33.04753    49.88310   137.33016
   526  H   1.0    0.04    1.04    1.43    27.57866    48.75493   138.31093
   527  H   1.0    0.06    1.03    1.43    29.59500    47.70613   135.81649
   528  N   5.0   -0.14    3.47    2.06    28.67470    53.73247   139.69043
   529  C   4.0    0.04    4.43    4.43    27.64291    56.24391   139.25579
   530  C   4.0    0.15    3.50    3.12    26.97017    57.84640   141.54614
   531  O   6.0   -0.31    1.30    1.80    26.39191    56.86752   143.53602
   532  C   4.0   -0.04    4.40    4.38    24.90092    56.09463   138.28448
   533  C   4.0   -0.04    4.25    4.10    24.16582    53.80428   136.69900
   534  C   4.0   -0.04    4.18    3.95    24.73273    54.09341   133.87763
   535  C   4.0   -0.02    4.13    3.86    23.83511    51.77660   132.43388
   536  N   5.0   -0.11    4.06    3.04    24.22440    49.46925   134.02503
   537  H   1.0    0.08    1.05    1.44    28.09834    52.85752   141.30804
   538  H   1.0    0.07    1.08    1.44    29.16036    57.04705   138.11818
   539  H   1.0    0.05    1.06    1.44    23.65181    56.10785   139.92098
   540  H   1.0    0.04    1.04    1.43    24.55321    57.75758   137.12040
   541  H   1.0    0.04    1.05    1.44    25.21083    52.16400   137.38119
   542  H   1.0    0.04    1.03    1.43    22.14192    53.48302   136.89931
   543  H   1.0    0.05    1.03    1.43    23.75197    55.74692   133.14064
   544  H   1.0    0.06    1.03    1.43    26.76419    54.29561   133.59796
   545  H   1.0    0.06    1.02    1.43    21.83011    51.95613   132.00114
   546  H   1.0    0.06    1.02    1.43    24.91604    51.57629   130.69345
   547  H   1.0    0.07    1.01    1.43    24.04676    47.85353   132.92143
   548  H   1.0    0.06    1.02    1.43    26.01964    49.49948   134.82628
   549  H   1.0    0.05    1.02    1.43    22.88458    49.41066   135.46311
   550  N   5.0   -0.14    3.48    2.06    26.94938    60.32950   141.17576
   551  C   4.0    0.04    4.37    4.32    27.46906    62.36285   142.93698
   552  C   4.0    0.07    3.25    3.04    25.15603    63.92754   143.50201
   553  O   6.0   -0.31    1.17    1.80    24.84990    64.90642   145.59394
   554  C   4.0    0.05    4.25    4.11    29.49295    64.09950   141.82393
   555  O   6.0   -0.24    2.11    1.84    31.58866    62.56316   141.09261
   556  C   4.0   -0.07    4.09    3.78    30.36034    66.06104   143.75712
   557  H   1.0    0.08    1.07    1.44    26.52419    61.07783   139.45233
   558  H   1.0    0.06    1.06    1.44    28.18337    61.58995   144.70765
   559  H   1.0    0.04    1.04    1.43    28.74273    65.12752   140.20444
   560  H   1.0    0.12    1.01    1.43    32.92470    63.61951   140.36506
   561  H   1.0    0.04    1.00    1.43    31.80031    67.27802   142.92753
   562  H   1.0    0.05    1.00    1.43    28.76352    67.22133   144.34861
   563  H   1.0    0.06    1.00    1.43    31.15024    65.11996   145.41063
   564  N   5.0   -0.17    3.40    2.02    18.26987    63.71211   144.61506
   565  C   4.0    0.03    4.31    4.21    15.94551    62.30049   145.10639
   566  C   4.0    0.09    3.26    3.05    13.81579    64.10328   145.52780
   567  O   6.0   -0.28    1.27    1.80    14.18617    66.14986   146.56903
   568  C   4.0   -0.03    4.44    4.44    16.21574    60.73201   147.45532
   569  C   4.0   -0.02    3.65    3.20    18.55522    59.27692   147.46854
   570  C   4.0   -0.04    3.63    3.19    20.85880    60.52414   147.22855
   571  C   4.0   -0.04    3.48    3.10    18.49286    56.69178   147.58760
   572  C   4.0   -0.02    3.38    3.07    23.11135    59.20889   147.14162
   573  C   4.0   -0.04    3.38    3.07    20.73407    55.34629   147.52335
   574  C   4.0   -0.03    3.41    3.08    23.05466    56.59918   147.30603
   575  H   1.0    0.11    1.09    1.44    19.15804    64.37540   146.19109
   576  H   1.0    0.05    1.06    1.44    15.53544    61.07972   143.49823
   577  H   1.0    0.05    1.04    1.43    16.22141    61.97356   149.09938
   578  H   1.0    0.04    1.04    1.44    14.63782    59.41298   147.57248
   579  H   1.0    0.06    1.09    1.44    20.88525    62.56127   147.10761
   580  H   1.0    0.05    1.03    1.43    16.70896    55.71101   147.73122
   581  H   1.0    0.07    1.03    1.43    24.88580    60.19911   146.94887
   582  H   1.0    0.05    1.03    1.43    20.69250    53.30917   147.64240
   583  H   1.0    0.06    1.03    1.43    24.79509    55.53338   147.26634
   584  N   5.0   -0.20    3.24    1.96    11.26844    58.96890   170.36635
   585  C   4.0    0.03    4.32    4.23    13.84980    58.47757   169.66149
   586  C   4.0    0.08    3.25    3.04    14.48286    55.69589   169.88069
   587  O   6.0   -0.32    1.47    1.80    15.80378    54.69434   168.24797
   588  C   4.0   -0.04    4.49    4.53    15.59213    59.86841   171.39625
   589  C   4.0   -0.05    4.10    3.81    15.59024    62.63308   170.84256
   590  S   6.0   -0.06    2.57    3.10    17.84846    63.29070   168.38970
   591  C   4.0   -0.07    3.91    3.48    20.60557    61.47467   169.25708
   592  H   1.0    0.08    1.03    1.43    11.04356    60.44855   171.58145
   593  H   1.0    0.04    1.07    1.44    14.09925    59.12952   167.72263
   594  H   1.0    0.04    1.04    1.43    14.97986    59.59251   173.34456
   595  H   1.0    0.04    1.10    1.44    17.51020    59.15598   171.15248
   596  H   1.0    0.04    1.08    1.44    13.72130    63.21700   170.20384
   597  H   1.0    0.04    1.07    1.44    16.11558    63.68565   172.53387
   598  H   1.0    0.04    1.04    1.43    22.07767    61.77514   167.84735
   599  H   1.0    0.05    1.04    1.43    21.26698    62.10017   171.10524
   600  H   1.0    0.04    1.05    1.44    20.09913    59.47912   169.33078
   601  N   5.0   -0.19    3.23    1.96    12.24542    52.90477   164.17372
   602  C   4.0    0.04    4.41    4.40    13.86681    53.87987   162.21030
   603  C   4.0    0.15    3.54    3.13    16.40471    52.64588   162.27833
   604  O   6.0   -0.31    1.29    1.80    17.32501    51.69156   160.32435
   605  C   4.0   -0.04    4.40    4.39    14.34680    56.66721   162.36147
   606  C   4.0   -0.02    3.56    3.15    15.64504    57.66688   160.03144
   607  C   4.0   -0.03    3.48    3.11    14.89671    56.89776   157.61826
   608  C   4.0   -0.05    3.46    3.10    17.60847    59.36574   160.21097
   609  C   4.0   -0.04    3.37    3.07    16.08913    57.83128   155.46397
   610  C   4.0   -0.05    3.38    3.07    18.78388    60.35218   158.03778
   611  C   4.0   -0.05    3.37    3.07    18.05633    59.55471   155.66618
   612  H   1.0    0.09    1.02    1.43    11.34402    54.23325   165.24142
   613  H   1.0    0.05    1.07    1.44    12.83691    53.49625   160.46797
   614  H   1.0    0.04    1.04    1.43    12.54967    57.65176   162.56745
   615  H   1.0    0.05    1.04    1.44    15.55244    57.05650   163.98475
   616  H   1.0    0.06    1.03    1.43    13.36981    55.55794   157.41984
   617  H   1.0    0.04    1.03    1.43    18.25853    59.95156   162.05345
   618  H   1.0    0.05    1.03    1.43    15.47686    57.20767   153.61960
   619  H   1.0    0.04    1.03    1.43    20.26542    61.74302   158.22864
   620  H   1.0    0.04    1.03    1.43    18.99930    60.25769   153.99755
   621  N   5.0   -0.15    3.54    2.11    17.55555    52.70824   164.51198
   622  C   4.0    0.04    4.32    4.23    19.95362    51.42511   164.85402
   623  C   4.0    0.09    3.29    3.05    19.74197    48.77572   163.70885
   624  O   6.0   -0.32    1.23    1.80    21.23863    48.11620   162.03644
   625  C   4.0   -0.05    4.31    4.21    20.78699    51.32307   167.61680
   626  C   4.0   -0.03    4.15    3.90    23.61213    50.97914   168.27632
   627  C   4.0   -0.07    4.08    3.77    23.98629    50.95646   171.15248
   628  C   4.0   -0.07    4.08    3.76    24.92926    48.66044   167.13114
   629  H   1.0    0.13    1.33    1.51    16.88659    53.61153   166.07857
   630  H   1.0    0.04    1.06    1.44    21.43516    52.50037   163.91105
   631  H   1.0    0.05    1.04    1.43    20.20495    53.09374   168.49363
   632  H   1.0    0.05    1.04    1.43    19.79677    49.74326   168.49363
   633  H   1.0    0.04    1.06    1.44    24.53998    52.59863   167.40704
   634  H   1.0    0.05    1.00    1.43    25.98940    50.71269   171.56633
   635  H   1.0    0.04    1.00    1.43    23.32111    52.74414   171.92916
   636  H   1.0    0.05    1.00    1.43    22.90726    49.39744   171.95750
   637  H   1.0    0.05    1.00    1.43    26.89836    48.63966   167.73774
   638  H   1.0    0.05    1.00    1.43    23.97495    46.95591   167.78499
   639  H   1.0    0.05    1.00    1.43    24.82911    48.77761   165.07701
   640  N   5.0   -0.19    3.26    1.97    20.01220    48.39588   157.05890
   641  C   4.0    0.03    4.51    4.55    22.54443    48.67745   156.15561
   642  C   4.0    0.15    3.60    3.16    24.28109    46.44379   156.56002
   643  O   6.0   -0.33    1.31    1.80    25.38469    45.57263   154.74210
   644  C   4.0   -0.02    4.48    4.51    23.86157    50.91111   157.30457
   645  C   4.0   -0.05    4.28    4.17    23.06788    53.23169   155.86082
   646  C   4.0   -0.08    4.27    4.15    26.66403    50.62009   157.09103
   647  C   4.0   -0.08    4.05    3.71    22.07578    55.24047   157.59936
   648  H   1.0    0.13    1.08    1.44    19.60213    49.14421   158.78611
   649  H   1.0    0.04    1.08    1.44    22.21940    48.90800   154.13550
   650  H   1.0    0.05    1.07    1.44    23.35512    51.05851   159.29634
   651  H   1.0    0.03    1.04    1.43    24.69116    53.99325   154.84792
   652  H   1.0    0.04    1.05    1.44    21.57878    52.73091   154.53045
   653  H   1.0    0.03    1.00    1.43    27.57488    52.26226   157.93574
   654  H   1.0    0.05    1.04    1.43    27.23851    48.90989   158.08502
   655  H   1.0    0.04    1.01    1.43    27.17426    50.48025   155.10115
   656  H   1.0    0.04    1.02    1.43    21.52398    56.88075   156.48254
   657  H   1.0    0.06    1.00    1.43    20.44306    54.50159   158.61604
   658  H   1.0    0.03    1.00    1.43    23.55543    55.76392   158.93351
   659  N   5.0   -0.15    3.50    2.08    24.48518    45.47437   158.86926
   660  C   4.0    0.03    4.41    4.40    25.90625    43.13866   159.32279
   661  C   4.0    0.16    3.48    3.11    25.11635    41.04674   157.48976
   662  O   6.0   -0.30    1.24    1.80    26.61679    39.42346   156.78489
   663  C   4.0   -0.05    4.30    4.20    25.57555    42.17679   162.02510
   664  C   4.0   -0.04    4.21    4.02    26.93615    39.65023   162.51643
   665  C   4.0   -0.01    4.23    4.05    27.09678    38.90946   165.28488
   666  N   5.0   -0.13    3.45    2.05    27.62401    41.12044   166.84201
   667  C   4.0    0.10    3.34    3.06    28.19093    41.03351   169.27976
   668  N   5.0   -0.16    3.26    1.97    28.33455    38.77907   170.39092
   669  N   5.0   -0.19    3.23    1.96    28.61612    43.18402   170.56855
   670  H   1.0    0.10    1.10    1.44    23.70283    46.24348   160.45474
   671  H   1.0    0.04    1.06    1.44    27.89991    43.58464   159.06012
   672  H   1.0    0.04    1.05    1.44    26.34278    43.57519   163.32901
   673  H   1.0    0.05    1.03    1.43    23.56866    41.89711   162.39360
   674  H   1.0    0.06    1.03    1.43    25.92137    38.15357   161.52999
   675  H   1.0    0.05    1.03    1.43    28.86178    39.78818   161.79834
   676  H   1.0    0.04    1.03    1.43    25.30343    38.09310   165.88581
   677  H   1.0    0.06    1.03    1.43    28.61612    37.54319   165.54755
   678  H   1.0    0.07    1.10    1.44    27.55220    42.85143   165.99731
   679  H   1.0    0.09    1.05    1.44    28.01141    37.17847   169.36669
   680  H   1.0    0.09    1.02    1.43    28.76730    38.65434   172.26553
   681  H   1.0    0.08    1.02    1.43    28.50274    44.88477   169.66904
   682  H   1.0    0.08    1.03    1.43    29.05265    43.11221   172.44505
   683  N   5.0   -0.14    3.50    2.08    22.73340    41.10910   156.72820
   684  C   4.0    0.05    4.39    4.37    21.73185    39.41212   154.82903
   685  C   4.0    0.18    3.46    3.10    23.05844    39.32898   152.24010
   686  O   6.0   -0.25    1.24    1.80    22.96584    37.35988   151.01745
   687  C   4.0    0.04    4.18    3.96    18.97285    40.03951   154.36415
   688  O   6.0   -0.23    2.11    1.84    18.56845    40.32486   151.72043
   689  H   1.0    0.08    1.08    1.44    21.41815    42.34309   157.40661
   690  H   1.0    0.07    1.06    1.44    22.01153    37.53941   155.63972
   691  H   1.0    0.06    1.01    1.43    17.79177    38.50884   155.07658
   692  H   1.0    0.05    1.02    1.43    18.49853    41.79885   155.32413
   693  H   1.0    0.13    1.01    1.43    16.79210    40.72926   151.39161
   694  N   5.0   -0.14    3.51    2.08    24.15448    41.42279   151.33681
   695  C   4.0    0.04    4.43    4.43    25.35634    41.46626   148.81403
   696  C   4.0    0.16    3.36    3.07    28.21928    41.11666   148.83482
   697  O   6.0   -0.26    1.20    1.80    29.44949    41.29618   146.84304
   698  C   4.0   -0.03    4.35    4.29    24.68549    43.88511   147.42130
   699  C   4.0   -0.04    4.24    4.09    22.01153    44.70903   147.92019
   700  C   4.0   -0.01    4.25    4.10    21.77720    47.38866   147.00556
   701  N   5.0   -0.14    3.37    2.01    20.43361    47.67590   144.58860
   702  C   4.0    0.10    3.33    3.06    21.52587    47.78361   142.31337
   703  N   5.0   -0.17    3.27    1.97    24.00141    47.56251   142.07527
   704  N   5.0   -0.17    3.23    1.96    20.13881    48.10675   140.23845
   705  H   1.0    0.10    1.08    1.44    24.24329    43.09898   152.28546
   706  H   1.0    0.08    1.07    1.44    24.58156    39.87133   147.76712
   707  H   1.0    0.05    1.04    1.43    25.94783    45.39122   148.03924
   708  H   1.0    0.07    1.03    1.43    24.89525    43.57708   145.39551
   709  H   1.0    0.06    1.03    1.43    20.68872    43.51472   146.88840
   710  H   1.0    0.05    1.04    1.43    21.60335    44.63533   149.93842
   711  H   1.0    0.04    1.03    1.43    20.74730    48.47714   148.41908
   712  H   1.0    0.04    1.05    1.44    23.66882    48.16533   146.75801
   713  H   1.0    0.08    1.06    1.44    18.51176    47.80251   144.65474
   714  H   1.0    0.09    1.04    1.43    25.10123    47.30740   143.63807
   715  H   1.0    0.09    1.03    1.43    24.81399    47.64755   140.32916
   716  H   1.0    0.09    1.02    1.43    18.22263    48.27494   140.37640
   717  H   1.0    0.08    1.03    1.43    20.99108    48.18612   138.51124
   718  N   5.0   -0.11    3.64    2.19    29.17737    40.59131   151.10060
   719  C   4.0    0.03    4.39    4.36    31.78141    40.22849   151.79791
   720  C   4.0    0.15    3.48    3.11    31.97227    37.34287   151.93208
   721  O   6.0   -0.26    1.35    1.80    30.12223    36.09943   151.37839
   722  C   4.0   -0.04    4.39    4.36    32.07054    41.44736   154.37738
   723  C   4.0   -0.04    4.06    3.73    31.64913    44.31029   154.44919
   724  S   6.0   -0.03    2.52    3.10    34.56876    46.00916   154.97265
   725  C   4.0   -0.07    3.90    3.46    33.55208    48.29951   157.24599
   726  H   1.0    0.11    1.10    1.44    28.04920    40.38722   152.65017
   727  H   1.0    0.05    1.04    1.44    33.20248    41.03540   150.54502
   728  H   1.0    0.06    1.04    1.43    30.70049    40.59320   155.65673
   729  H   1.0    0.04    1.06    1.44    33.98294    41.09020   155.05390
   730  H   1.0    0.05    1.07    1.44    30.85734    44.92634   152.65017
   731  H   1.0    0.05    1.07    1.44    30.35278    44.76761   155.98176
   732  H   1.0    0.04    1.07    1.44    35.15079    49.49192   157.75810
   733  H   1.0    0.04    1.04    1.43    32.05542    49.44846   156.41829
   734  H   1.0    0.04    1.04    1.43    32.84533    47.32063   158.91461
   735  N   5.0   -0.15    3.40    2.02    34.10199    36.21849   152.61805
   736  C   4.0    0.03    4.60    4.66    34.48183    33.58043   151.80358
   737  C   4.0    0.14    3.54    3.13    35.12245    31.58488   153.73110
   738  O   6.0   -0.34    1.74    1.81    37.31642    31.36378   154.44919
   739  C   4.0   -0.01    4.37    4.33    36.63423    33.32721   149.90818
   740  C   4.0   -0.06    4.33    4.26    39.09654    33.69003   151.32358
   741  C   4.0   -0.07    4.16    3.93    36.57754    30.68348   148.73655
   742  H   1.0    0.07    1.04    1.44    35.51173    37.01217   153.66496
   743  H   1.0    0.07    1.12    1.45    32.55620    33.18170   151.18941
   744  H   1.0    0.05    1.05    1.44    36.45848    34.72371   148.40396
   745  H   1.0    0.04    1.00    1.43    40.66312    33.51618   149.99889
   746  H   1.0    0.04    1.00    1.43    39.10788    35.56275   152.18152
   747  H   1.0    0.09    1.27    1.48    39.24772    32.24628   152.78623
   748  H   1.0    0.05    1.00    1.43    38.12144    30.51529   147.38351
   749  H   1.0    0.05    1.02    1.43    36.79863    29.28319   150.23132
   750  H   1.0    0.05    1.00    1.43    34.77285    30.41325   147.78035
   751  N   5.0   -0.15    3.35    2.00    33.23650    29.98050   154.24132
   752  C   4.0    0.03    4.21    4.03    33.09477    27.98495   156.24443
   753  C   4.0    0.15    3.33    3.06    33.39524    28.86367   159.04878
   754  O   6.0   -0.28    1.24    1.80    34.42892    27.49173   160.64371
   755  C   4.0   -0.03    4.18    3.96    34.49884    25.42059   155.57358
   756  C   4.0   -0.02    4.10    3.81    36.08054    24.33400   153.30591
   757  C   4.0   -0.06    4.05    3.72    34.92025    24.61179   150.65840
   758  C   4.0   -0.07    4.06    3.73    38.88111    25.05021   153.28701
   759  H   1.0    0.08    1.06    1.44    31.60189    29.98806   153.21898
   760  H   1.0    0.05    1.07    1.44    31.09544    27.49173   156.22175
   761  H   1.0    0.06    1.05    1.44    35.82542    25.20139   157.13260
   762  H   1.0    0.05    1.04    1.43    32.99650    24.02031   155.72476
   763  H   1.0    0.05    1.07    1.44    35.99172    22.31766   153.72165
   764  H   1.0    0.05    1.00    1.43    36.20148    23.78598   149.27512
   765  H   1.0    0.06    1.00    1.43    33.10989    23.62913   150.61305
   766  H   1.0    0.05    1.01    1.43    34.64435    26.61301   150.25400
   767  H   1.0    0.05    1.00    1.43    39.78062    24.19794   151.64106
   768  H   1.0    0.05    1.00    1.43    39.04741    27.10056   153.19441
   769  H   1.0    0.05    1.00    1.43    39.76361    24.35101   155.01233
   770  N   5.0   -0.14    3.39    2.02    32.31998    31.09544   159.61948
   771  C   4.0    0.03    4.35    4.29    33.22894    32.73194   161.67550
   772  C   4.0    0.14    3.40    3.08    32.19715    33.57854   164.30411
   773  O   6.0   -0.30    1.33    1.80    32.80753    35.64023   165.21874
   774  C   4.0   -0.03    4.27    4.14    34.55742    35.03174   160.46986
   775  C   4.0   -0.04    4.21    4.01    37.11800    35.75739   161.55645
   776  C   4.0   -0.01    4.21    4.02    39.36866    34.33443   160.45096
   777  N   5.0   -0.12    3.48    2.06    39.95070    32.00629   161.82290
   778  C   4.0    0.12    3.40    3.08    39.72771    29.69137   160.86481
   779  N   5.0   -0.17    3.35    2.00    38.97371    29.36634   158.49887
   780  N   5.0   -0.16    3.27    1.97    40.27006    27.68637   162.27077
   781  H   1.0    0.09    1.05    1.44    30.80253    31.82298   158.67840
   782  H   1.0    0.09    1.21    1.47    34.03963    31.07843   162.59958
   783  H   1.0    0.05    1.04    1.43    34.84466    34.62734   158.47053
   784  H   1.0    0.05    1.03    1.43    33.32532    36.66824   160.68907
   785  H   1.0    0.04    1.03    1.43    37.42980    37.76428   161.20874
   786  H   1.0    0.05    1.15    1.45    37.09532    35.38890   163.58224
   787  H   1.0    0.05    1.05    1.44    38.95103    33.83176   158.49698
   788  H   1.0    0.04    1.03    1.43    41.03162    35.54763   160.52655
   789  H   1.0    0.08    1.08    1.44    40.57053    32.16880   163.64082
   790  H   1.0    0.11    1.11    1.45    38.55986    30.89513   157.40094
   791  H   1.0    0.09    1.03    1.43    38.80741    27.58811   157.77700
   792  H   1.0    0.10    1.03    1.43    40.85965    27.91692   164.09057
   793  H   1.0    0.09    1.03    1.43    40.09621    25.91570   161.52999
   794  N   5.0   -0.13    3.40    2.02    30.69293    31.97038   165.54188
   795  C   4.0    0.03    4.31    4.21    29.09989    32.73950   167.70751
   796  C   4.0    0.15    3.39    3.08    29.80476    31.67748   170.32856
   797  O   6.0   -0.28    1.22    1.80    28.56510    32.28597   172.21262
   798  C   4.0   -0.06    4.14    3.89    26.38246    31.83243   167.39003
   799  H   1.0    0.09    1.05    1.44    30.52474    30.10333   165.09591
   800  H   1.0    0.06    1.08    1.44    29.29831    34.78985   167.69239
   801  H   1.0    0.07    1.01    1.43    25.27886    32.43715   169.02087
   802  H   1.0    0.05    1.00    1.43    25.59823    32.65068   165.67038
   803  H   1.0    0.06    1.00    1.43    26.37302    29.77641   167.25775
   804  N   5.0   -0.12    3.57    2.13    31.77952    30.10711   170.43438
   805  C   4.0    0.06    4.40    4.37    33.36311    29.52130   172.68316
   806  C   4.0    0.17    3.34    3.06    35.10355    31.77385   173.45794
   807  O   6.0   -0.26    1.20    1.80    36.39612    31.75118   175.40247
   808  C   4.0    0.06    4.14    3.88    34.46671    26.79253   172.49796
   809  O   6.0   -0.21    2.07    1.84    36.74005    26.58089   173.96817
   810  C   4.0   -0.05    4.12    3.85    35.00339    26.01208   169.69739
   811  H   1.0    0.10    1.13    1.45    32.39746    29.12635   168.89426
   812  H   1.0    0.07    1.07    1.44    32.27274    29.29642   174.41604
   813  H   1.0    0.05    1.04    1.43    33.06453    25.48106   173.24630
   814  H   1.0    0.13    1.01    1.43    37.41657    24.86123   173.84345
   815  H   1.0    0.06    0.99    1.43    35.77062    24.10156   169.63314
   816  H   1.0    0.05    1.01    1.43    33.25918    26.06877   168.60324
   817  H   1.0    0.09    1.04    1.43    36.36400    27.30843   168.85268
   818  N   5.0   -0.11    3.59    2.15    35.08276    33.71838   171.86680
   819  C   4.0    0.04    4.36    4.30    36.94414    35.74228   171.60979
   820  C   4.0    0.14    3.40    3.08    35.40024    38.12522   171.09768
   821  O   6.0   -0.28    1.23    1.80    33.93003    38.24994   169.24197
   822  C   4.0   -0.03    4.21    4.01    38.87355    35.17347   169.48574
   823  C   4.0   -0.03    4.28    4.16    37.80019    34.36656   166.88548
   824  C   4.0    0.25    3.16    3.03    36.73060    31.65102   166.73430
   825  O   6.0   -0.29    1.40    1.80    36.92336    30.35845   164.75765
   826  O   6.0   -0.31    1.60    1.81    35.62511    30.74773   168.57489
   827  H   1.0    0.11    1.11    1.45    33.65413    33.97349   170.59879
   828  H   1.0    0.05    1.06    1.44    38.06097    35.99550   173.32188
   829  H   1.0    0.04    1.03    1.43    39.98849    36.87611   169.17016
   830  H   1.0    0.06    1.03    1.43    40.09243    33.64279   170.13014
   831  H   1.0    0.08    1.08    1.44    36.26762    35.65157   166.39226
   832  H   1.0    0.04    1.06    1.44    39.31197    34.50451   165.49275
   833  N   5.0   -0.13    3.42    2.03    35.64212    39.91479   172.86835
   834  C   4.0    0.03    4.35    4.30    34.12467    42.24860   172.94394
   835  C   4.0    0.15    3.47    3.10    35.68181    44.47092   172.14648
   836  O   6.0   -0.29    1.27    1.80    37.99294    44.39722   172.17293
   837  C   4.0   -0.07    4.10    3.80    32.99273    42.73426   175.56499
   838  H   1.0    0.08    1.06    1.44    36.90824    39.80330   174.31777
   839  H   1.0    0.06    1.09    1.44    32.55809    42.03884   171.62302
   840  H   1.0    0.04    1.00    1.43    31.89479    44.47659   175.50830
   841  H   1.0    0.05    1.00    1.43    31.77574    41.15256   176.07333
   842  H   1.0    0.05    1.00    1.43    34.52151    42.91190   176.93315
   843  N   5.0   -0.14    3.61    2.17    34.39868    46.45135   171.39625
   844  C   4.0    0.04    4.52    4.57    35.71582    48.68123   170.65737
   845  C   4.0    0.16    3.55    3.14    33.91680    50.74481   171.31878
   846  O   6.0   -0.30    1.29    1.80    31.62267    50.40844   171.12980
   847  C   4.0   -0.03    4.34    4.28    36.32998    48.65099   167.84168
   848  C   4.0   -0.01    3.56    3.14    34.04341    48.66422   166.14282
   849  C   4.0   -0.04    3.45    3.10    32.52029    46.51182   165.88203
   850  C   4.0   -0.03    3.45    3.10    33.41602    50.82040   164.77087
   851  C   4.0   -0.05    3.36    3.07    30.41325    46.54395   164.30600
   852  C   4.0   -0.05    3.36    3.07    31.30520    50.85253   163.19862
   853  C   4.0   -0.05    3.36    3.07    29.81043    48.72469   162.95485
   854  H   1.0    0.09    1.09    1.44    32.47683    46.55340   171.28665
   855  H   1.0    0.06    1.07    1.44    37.52240    48.93823   171.61357
   856  H   1.0    0.05    1.04    1.43    37.44870    50.32151   167.39381
   857  H   1.0    0.05    1.03    1.43    37.40901    46.94646   167.42216
   858  H   1.0    0.06    1.03    1.43    32.98517    44.81296   166.91382
   859  H   1.0    0.06    1.03    1.43    34.58010    52.48903   164.92772
   860  H   1.0    0.04    1.04    1.43    29.24540    44.87910   164.13026
   861  H   1.0    0.04    1.03    1.43    30.83466    52.54761   162.16494
   862  H   1.0    0.04    1.03    1.43    28.18337    48.75115   161.72275
   863  N   5.0   -0.12    3.57    2.13    34.95993    52.83674   172.20128
   864  C   4.0    0.04    4.48    4.50    33.46894    54.95512   172.99685
   865  C   4.0    0.15    3.47    3.10    32.58832    56.29872   170.64603
   866  O   6.0   -0.30    1.27    1.80    33.75051    56.04360   168.64481
   867  C   4.0   -0.04    4.37    4.33    35.13190    56.67477   174.54832
   868  C   4.0   -0.02    3.56    3.14    36.58698    55.33118   176.62702
   869  C   4.0   -0.05    3.46    3.10    35.34732    54.38820   178.74162
   870  C   4.0   -0.04    3.46    3.10    39.20048    55.05528   176.50607
   871  C   4.0   -0.05    3.43    3.09    36.66068    53.19012   180.68237
   872  C   4.0   -0.04    3.45    3.09    40.53840    53.87798   178.43548
   873  C   4.0    0.07    3.47    3.10    39.26473    52.93689   180.51985
   874  O   6.0   -0.26    2.27    1.88    40.58753    51.76148   182.43981
   875  H   1.0    0.10    1.08    1.44    36.85910    53.10886   172.38458
   876  H   1.0    0.04    1.06    1.44    31.83810    54.41277   174.13258
   877  H   1.0    0.05    1.04    1.43    36.50573    57.56861   173.29921
   878  H   1.0    0.03    1.03    1.43    33.95082    58.10907   175.43649
   879  H   1.0    0.05    1.03    1.43    33.32154    54.58851   178.88335
   880  H   1.0    0.06    1.03    1.43    40.20770    55.76959   174.88091
   881  H   1.0    0.05    1.03    1.43    35.65724    52.46257   182.30375
   882  H   1.0    0.07    1.03    1.43    42.56797    53.69656   178.31076
   883  H   1.0    0.16    1.11    1.45    42.39600    51.73503   182.03919
   884  N   5.0   -0.15    3.45    2.04    30.49451    57.67066   170.85201
   885  C   4.0    0.03    4.51    4.56    29.64224    59.26370   168.76576
   886  C   4.0    0.14    3.42    3.09    29.26997    61.93010   169.77298
   887  O   6.0   -0.31    1.21    1.80    27.45961    62.44032   171.21106
   888  C   4.0   -0.04    4.41    4.40    27.19883    58.26592   167.64893
   889  C   4.0   -0.03    4.26    4.11    26.40703    59.87408   165.41527
   890  C   4.0   -0.07    4.22    4.04    28.61990    59.90242   163.60113
   891  C   4.0   -0.08    4.11    3.82    24.05999    58.83473   164.11703
   892  H   1.0    0.08    1.05    1.44    29.36634    57.71790   172.41482
   893  H   1.0    0.05    1.09    1.44    31.08221    59.30149   167.29366
   894  H   1.0    0.04    1.03    1.43    27.47473    56.32895   167.00642
   895  H   1.0    0.04    1.03    1.43    25.71161    58.33206   169.07189
   896  H   1.0    0.05    1.06    1.44    25.91759    61.77703   166.03132
   897  H   1.0    0.04    1.00    1.43    28.12668    61.04382   161.95896
   898  H   1.0    0.06    1.04    1.43    30.25640    60.71123   164.55356
   899  H   1.0    0.03    1.01    1.43    29.03186    57.97112   163.01532
   900  H   1.0    0.04    1.01    1.43    23.57433    60.05549   162.52966
   901  H   1.0    0.03    1.00    1.43    24.45494    56.92988   163.44240
   902  H   1.0    0.04    1.00    1.43    22.50853    58.79315   165.47007
   903  N   5.0   -0.14    3.43    2.03    31.03497    63.58361   169.05110
   904  C   4.0    0.04    4.44    4.44    31.18426    66.20466   170.00353
   905  C   4.0    0.15    3.48    3.11    30.20160    68.15297   168.18939
   906  O   6.0   -0.31    1.30    1.80    30.87812    68.16430   165.91227
   907  C   4.0   -0.04    4.47    4.49    33.89412    66.95110   170.51753
   908  C   4.0   -0.03    4.24    4.09    35.17536    65.29948   172.44694
   909  C   4.0   -0.06    4.13    3.86    37.99672    65.32405   171.95939
   910  C   4.0   -0.07    4.18    3.97    34.54797    66.38418   175.02831
   911  H   1.0    0.10    1.07    1.44    32.42392    63.16598   167.78121
   912  H   1.0    0.06    1.07    1.44    30.00507    66.21789   171.69294
   913  H   1.0    0.05    1.04    1.43    34.96371    66.82071   168.76198
   914  H   1.0    0.05    1.05    1.44    33.92814    68.88807   171.21862
   915  H   1.0    0.04    1.06    1.44    34.54797    63.33983   172.35812
   916  H   1.0    0.04    1.00    1.43    38.92835    64.12785   173.35401
   917  H   1.0    0.05    1.00    1.43    38.35577    64.60217   170.06400
   918  H   1.0    0.07    1.00    1.43    38.68836    67.25724   172.11813
   919  H   1.0    0.03    1.01    1.43    35.44937    65.23145   176.47773
   920  H   1.0    0.05    1.00    1.43    35.25095    68.31737   175.13224
   921  H   1.0    0.05    1.00    1.43    32.50518    66.36529   175.28531
   922  N   5.0   -0.14    3.51    2.09    28.69738    69.87451   169.20984
   923  C   4.0    0.04    4.61    4.67    27.86401    71.95509   167.69428
   924  C   4.0    0.15    3.52    3.12    30.00129    73.85805   167.49964
   925  O   6.0   -0.32    1.29    1.80    31.09544    74.66496   169.40826
   926  C   4.0   -0.02    4.31    4.22    25.44138    73.12484   168.67883
   927  C   4.0   -0.06    4.18    3.95    24.80454    75.40951   167.09146
   928  C   4.0   -0.08    4.14    3.89    23.31166    71.21054   168.46907
   929  H   1.0    0.10    1.08    1.44    28.05676    69.85939   171.02776
   930  H   1.0    0.05    1.08    1.44    27.43504    71.26534   165.80078
   931  H   1.0    0.05    1.06    1.44    25.67004    73.68419   170.64792
   932  H   1.0    0.05    1.00    1.43    23.06222    76.25233   167.79822
   933  H   1.0    0.08    1.03    1.43    26.34656    76.76823   167.22374
   934  H   1.0    0.05    1.00    1.43    24.55510    74.81803   165.13370
   935  H   1.0    0.04    1.00    1.43    21.57500    72.05903   169.17961
   936  H   1.0    0.04    1.00    1.43    23.07733    70.68142   166.49242
   937  H   1.0    0.04    1.00    1.43    23.78976    69.54947   169.58779
   938  N   5.0   -0.14    3.52    2.09    30.61734    74.48922   165.14126
   939  C   4.0    0.04    4.44    4.44    32.51085    76.37516   164.54978
   940  C   4.0    0.15    3.50    3.12    35.08276    75.48699   165.39259
   941  O   6.0   -0.31    1.28    1.80    36.80241    76.99877   165.64771
   942  C   4.0   -0.02    4.35    4.29    31.88346    78.89984   165.84424
   943  C   4.0    0.15    3.22    3.04    29.44760    80.07525   164.85969
   944  O   6.0   -0.29    1.21    1.80    27.58622    80.31335   166.26187
   945  N   5.0   -0.18    3.16    1.95    29.43626    80.80846   162.42950
   946  H   1.0    0.10    1.07    1.44    29.80854    73.69931   163.58035
   947  H   1.0    0.05    1.06    1.44    32.55242    76.70398   162.51643
   948  H   1.0    0.07    1.04    1.43    31.66614    78.58236   167.86814
   949  H   1.0    0.05    1.03    1.43    33.41791    80.23020   165.50220
   950  H   1.0    0.10    1.02    1.43    27.85456    81.60782   161.67172
   951  H   1.0    0.08    1.02    1.43    31.00851    80.56658   161.34291
   952  N   5.0   -0.13    3.53    2.10    35.34732    73.02279   165.81967
   953  C   4.0    0.05    4.45    4.45    37.65846    71.96832   166.89304
   954  C   4.0    0.15    3.43    3.09    38.23294    72.91508   169.51409
   955  O   6.0   -0.28    1.28    1.80    40.16046    72.21588   170.61391
   956  C   4.0   -0.02    4.33    4.25    39.87133    71.99478   165.02977
   957  C   4.0    0.17    3.27    3.05    42.31474    70.96866   166.15604
   958  O   6.0   -0.26    1.27    1.80    42.37899    68.83516   167.08768
   959  N   5.0   -0.17    3.18    1.95    44.33108    72.45965   166.05400
   960  H   1.0    0.10    1.07    1.44    33.99239    71.70565   165.44173
   961  H   1.0    0.05    1.08    1.44    37.33910    69.95765   167.20862
   962  H   1.0    0.06    1.10    1.44    39.38756    70.83071   163.40082
   963  H   1.0    0.06    1.04    1.43    40.21715    73.93553   164.43072
   964  H   1.0    0.12    1.04    1.43    46.01105    71.85872   166.78154
   965  H   1.0    0.09    1.02    1.43    44.19880    74.20576   165.24709
   966  N   5.0   -0.13    3.51    2.08    36.56998    74.51189   170.50808
   967  C   4.0    0.04    4.40    4.37    37.06508    75.81014   172.86646
   968  C   4.0    0.14    3.36    3.07    35.48716    74.89740   175.10579
   969  O   6.0   -0.33    1.32    1.80    36.35455    74.96732   177.24685
   970  C   4.0   -0.04    4.27    4.14    38.23294    78.43308   172.34679
   971  C   4.0   -0.04    4.18    3.96    36.56053    80.33603   170.94083
   972  C   4.0   -0.04    4.16    3.93    37.55074    83.02322   171.24697
   973  C   4.0   -0.03    4.14    3.87    36.64557    84.14950   173.74140
   974  N   5.0   -0.10    4.03    2.95    38.63167    85.48742   175.23429
   975  H   1.0    0.11    1.11    1.45    34.86544    74.93897   169.71440
   976  H   1.0    0.06    1.22    1.47    38.65623    75.54179   174.14581
   977  H   1.0    0.05    1.03    1.43    38.72615    79.28345   174.15714
   978  H   1.0    0.06    1.03    1.43    39.92991    78.16473   171.20917
   979  H   1.0    0.06    1.03    1.43    36.53974    79.87683   168.93394
   980  H   1.0    0.05    1.03    1.43    34.64813    80.25855   171.70050
   981  H   1.0    0.05    1.03    1.43    39.61055    83.00621   171.24319
   982  H   1.0    0.05    1.03    1.43    36.85344    84.19674   169.70495
   983  H   1.0    0.05    1.02    1.43    35.15268    85.51199   173.34078
   984  H   1.0    0.05    1.03    1.43    35.91046    82.62638   174.91870
   985  H   1.0    0.10    1.05    1.44    37.86066    86.19418   176.89725
   986  H   1.0    0.08    1.02    1.43    40.08676    84.24398   175.68404
   987  H   1.0    0.07    1.01    1.43    39.36866    86.98031   174.18738
   988  N   5.0   -0.13    3.55    2.11    33.18170    74.03379   174.66548
   989  C   4.0    0.04    4.34    4.27    30.78742    74.31536   176.01852
   990  C   4.0    0.15    3.45    3.09    30.15247    71.50156   176.25474
   991  O   6.0   -0.32    1.28    1.80    29.64224    70.20143   174.38580
   992  C   4.0    0.04    4.13    3.85    29.05832    76.13895   174.57666
   993  O   6.0   -0.24    2.04    1.83    27.23473    77.24444   176.18482
   994  H   1.0    0.10    1.10    1.44    32.83966    72.93964   173.11590
   995  H   1.0    0.06    1.07    1.44    30.70238    75.16952   177.89124
   996  H   1.0    0.05    1.02    1.43    30.21105    77.63372   173.75274
   997  H   1.0    0.06    1.02    1.43    28.08700    75.09582   173.08945
   998  H   1.0    0.12    1.01    1.43    25.85145    77.95686   175.17949
   999  N   5.0   -0.13    3.56    2.12    30.20538    70.56237   178.57721
  1000  C   4.0    0.04    4.57    4.63    28.98462    68.24934   179.38979
  1001  C   4.0    0.15    3.52    3.12    26.39380    68.81248   180.33088
  1002  O   6.0   -0.29    1.46    1.80    26.07066    70.48867   181.93526
[...]
1765   6 C     -0.004  1.035  2.969  0.000    20.666     6.475
1766   6 C      0.277  1.045  2.678  0.000    22.308     7.734
1767   8 O     -0.496  1.751  4.745  0.000    23.693     6.526
1768   6 C     -0.059  1.062  2.997  0.000    21.638     6.622
1769   6 C     -0.077  1.053  3.023  0.000    21.960     6.672
1770   6 C     -0.093  1.056  3.037  0.000    22.280     6.720
1771   6 C     -0.043  1.058  2.985  0.000    21.432     6.608
1772   7 N     -0.146  1.240  3.907  0.000    24.155     7.300
1773   1 H      0.176  0.824  0.000  0.000     1.234     1.740
1774   1 H      0.080  0.920  0.000  0.000     1.978     2.199
1775   1 H      0.033  0.967  0.000  0.000     2.539     2.492
1776   1 H      0.040  0.960  0.000  0.000     2.448     2.447
1777   1 H      0.063  0.937  0.000  0.000     2.165     2.301
1778   1 H      0.051  0.949  0.000  0.000     2.307     2.375
1779   1 H      0.068  0.932  0.000  0.000     2.103     2.268
1780   1 H      0.091  0.909  0.000  0.000     1.870     2.139
1781   1 H      0.128  0.872  0.000  0.000     1.548     1.946
1782   1 H      0.093  0.907  0.000  0.000     1.855     2.130
1783   1 H      0.311  0.689  0.000  0.000     0.682     1.294
1784   1 H      0.262  0.738  0.000  0.000     0.837     1.433
1785   1 H      0.295  0.705  0.000  0.000     0.728     1.336
1786   7 N     -0.200  1.228  3.971  0.000    25.333     7.475
1787   6 C      0.017  1.060  2.923  0.000    20.308     6.419
1788   6 C      0.274  1.043  2.683  0.000    22.374     7.748
1789   8 O     -0.501  1.736  4.765  0.000    23.807     6.542
1790   6 C      0.077  1.037  2.886  0.000    19.512     6.329
1791   8 O     -0.456  1.714  4.742  0.000    21.969     6.327
1792   1 H      0.213  0.787  0.000  0.000     1.043     1.600
1793   1 H      0.077  0.923  0.000  0.000     2.011     2.218
1794   1 H      0.044  0.956  0.000  0.000     2.395     2.420
1795   1 H      0.049  0.951  0.000  0.000     2.329     2.387
1796   1 H      0.331  0.669  0.000  0.000     0.636     1.253
1797   7 N     -0.171  1.244  3.927  0.000    24.708     7.383
1798   6 C      0.036  1.046  2.919  0.000    19.961     6.358
1799   6 C      0.275  1.036  2.689  0.000    22.360     7.745
1800   8 O     -0.454  1.746  4.708  0.000    22.797     6.402
1801   6 C     -0.065  1.048  3.016  0.000    21.696     6.624
1802   6 C     -0.034  1.052  2.982  0.000    21.137     6.537
1803   6 C     -0.130  1.048  3.083  0.000    23.050     6.844
1804   6 C     -0.130  1.047  3.083  0.000    23.029     6.839
1805   1 H      0.227  0.773  0.000  0.000     0.980     1.551
1806   1 H      0.059  0.941  0.000  0.000     2.207     2.323
1807   1 H      0.055  0.945  0.000  0.000     2.262     2.352
1808   1 H      0.047  0.953  0.000  0.000     2.363     2.404
1809   1 H      0.043  0.957  0.000  0.000     2.414     2.430
1810   1 H      0.070  0.930  0.000  0.000     2.088     2.260
1811   1 H      0.023  0.977  0.000  0.000     2.689     2.564
1812   1 H      0.039  0.961  0.000  0.000     2.460     2.453
1813   1 H      0.037  0.963  0.000  0.000     2.485     2.465
1814   1 H      0.060  0.940  0.000  0.000     2.195     2.317
1815   1 H      0.033  0.967  0.000  0.000     2.548     2.496
1816   7 N     -0.165  1.236  3.929  0.000    24.566     7.361
1817   6 C      0.009  1.059  2.932  0.000    20.423     6.433
1818   6 C      0.273  1.043  2.684  0.000    22.379     7.747
1819   8 O     -0.478  1.746  4.732  0.000    23.304     6.472
1820   6 C     -0.024  1.060  2.965  0.000    20.967     6.512
1821   6 C     -0.119  1.041  3.078  0.000    22.818     6.809
1822   6 C     -0.119  1.038  3.082  0.000    22.833     6.812
1823   1 H      0.201  0.799  0.000  0.000     1.099     1.642
1824   1 H      0.089  0.911  0.000  0.000     1.885     2.147
1825   1 H      0.073  0.927  0.000  0.000     2.056     2.243
1826   1 H      0.064  0.936  0.000  0.000     2.154     2.295
1827   1 H      0.052  0.948  0.000  0.000     2.291     2.367
1828   1 H      0.023  0.977  0.000  0.000     2.689     2.565
1829   1 H      0.064  0.936  0.000  0.000     2.153     2.294
1830   1 H      0.026  0.974  0.000  0.000     2.638     2.540
1831   1 H      0.063  0.937  0.000  0.000     2.159     2.298
1832   7 N     -0.157  1.233  3.924  0.000    24.393     7.335
1833   6 C      0.013  1.052  2.935  0.000    20.359     6.423
1834   6 C      0.278  1.036  2.686  0.000    22.307     7.736
1835   8 O     -0.474  1.753  4.721  0.000    23.225     6.461
1836   6 C      0.055  1.039  2.906  0.000    19.843     6.377
1837   8 O     -0.478  1.723  4.755  0.000    22.417     6.391
1838   1 H      0.221  0.779  0.000  0.000     1.004     1.569
1839   1 H      0.094  0.906  0.000  0.000     1.841     2.122
1840   1 H      0.072  0.928  0.000  0.000     2.063     2.246
1841   1 H      0.058  0.942  0.000  0.000     2.217     2.329
1842   1 H      0.370  0.630  0.000  0.000     0.545     1.159
1843   7 N     -0.175  1.247  3.927  0.000    24.784     7.394
1844   6 C     -0.003  1.067  2.937  0.000    20.652     6.473
1845   6 C      0.270  1.039  2.691  0.000    22.447     7.758
1846   8 O     -0.480  1.743  4.737  0.000    23.339     6.477
1847   6 C     -0.082  1.058  3.024  0.000    22.060     6.686
1848   6 C     -0.013  1.063  2.950  0.000    20.824     6.499
1849  16 S     -0.244  1.910  4.278  0.055   151.523    20.718
1850   6 C     -0.074  1.059  3.015  0.000    21.985     6.689
1851   1 H      0.224  0.776  0.000  0.000     0.992     1.561
1852   1 H      0.105  0.895  0.000  0.000     1.738     2.062
1853   1 H      0.074  0.926  0.000  0.000     2.045     2.236
1854   1 H      0.096  0.904  0.000  0.000     1.818     2.109
1855   1 H      0.061  0.939  0.000  0.000     2.186     2.312
1856   1 H      0.051  0.949  0.000  0.000     2.306     2.375
1857   1 H      0.030  0.970  0.000  0.000     2.592     2.518
1858   1 H      0.107  0.893  0.000  0.000     1.723     2.053
1859   1 H      0.019  0.981  0.000  0.000     2.742     2.589
1860   7 N     -0.168  1.234  3.934  0.000    24.640     7.372
1861   6 C     -0.008  1.054  2.954  0.000    20.725     6.482
1862   6 C      0.269  1.035  2.695  0.000    22.449     7.758
1863   8 O     -0.455  1.738  4.717  0.000    22.811     6.404
1864   6 C      0.066  1.043  2.891  0.000    19.697     6.360
1865   8 O     -0.495  1.721  4.774  0.000    22.779     6.443
1866   1 H      0.227  0.773  0.000  0.000     0.980     1.551
1867   1 H      0.097  0.903  0.000  0.000     1.811     2.105
1868   1 H      0.046  0.954  0.000  0.000     2.371     2.408
1869   1 H      0.074  0.926  0.000  0.000     2.040     2.234
1870   1 H      0.351  0.649  0.000  0.000     0.586     1.203
1871   7 N     -0.150  1.220  3.930  0.000    24.246     7.313
1872   6 C      0.020  1.049  2.931  0.000    20.244     6.407
1873   6 C      0.197  1.085  2.718  0.000    23.804     7.991
1874   8 O     -0.361  1.759  4.602  0.000    20.910     6.131
1875   6 C     -0.138  1.047  3.092  0.000    23.204     6.866
1876   1 H      0.199  0.801  0.000  0.000     1.112     1.652
1877   1 H      0.110  0.890  0.000  0.000     1.694     2.035
1878   1 H      0.087  0.913  0.000  0.000     1.908     2.160
1879   1 H      0.082  0.918  0.000  0.000     1.958     2.188
1880   1 H      0.067  0.933  0.000  0.000     2.119     2.276
1881   7 N     -0.398  1.331  4.066  0.000    30.316     8.177
1882   6 C      0.039  1.054  2.907  0.000    19.935     6.360
1883   6 C      0.197  1.090  2.713  0.000    23.796     7.989
1884   8 O     -0.401  1.769  4.633  0.000    21.710     6.247
1885   6 C     -0.069  1.050  3.019  0.000    21.805     6.646
1886   6 C     -0.001  1.079  2.922  0.000    28.046     8.687
1887   6 C     -0.062  1.092  2.970  0.000    29.530     8.912
1888   6 C     -0.045  1.086  2.959  0.000    29.128     8.851
1889   6 C     -0.061  1.070  2.991  0.000    29.510     8.908
1890   6 C     -0.085  1.077  3.008  0.000    30.125     9.000
1891   6 C      0.141  1.046  2.813  0.000    24.921     8.182
1892   8 O     -0.429  1.717  4.712  0.000    21.420     6.248
1893   1 H      0.172  0.828  0.000  0.000     1.262     1.760
1894   1 H      0.079  0.921  0.000  0.000     1.987     2.204
1895   1 H      0.040  0.960  0.000  0.000     2.453     2.449
1896   1 H      0.058  0.942  0.000  0.000     2.226     2.333
1897   1 H      0.083  0.917  0.000  0.000     1.947     2.182
1898   1 H      0.034  0.966  0.000  0.000     2.524     2.484
1899   1 H      0.055  0.945  0.000  0.000     2.253     2.347
1900   1 H      0.039  0.961  0.000  0.000     2.458     2.452
1901   1 H      0.334  0.666  0.000  0.000     0.628     1.245
1902   7 N     -0.394  1.307  4.087  0.000    30.198     8.162
1903   6 C      0.059  1.035  2.907  0.000    19.597     6.303
1904   6 C      0.281  1.039  2.680  0.000    22.251     7.726
1905   8 O     -0.499  1.754  4.744  0.000    23.754     6.534
1906   6 C     -0.075  1.050  3.025  0.000    21.910     6.660
1907   6 C      0.002  1.078  2.920  0.000    27.970     8.675
1908   6 C     -0.042  1.078  2.964  0.000    29.039     8.838
1909   6 C     -0.037  1.083  2.954  0.000    28.930     8.821
1910   6 C     -0.077  1.077  3.001  0.000    29.927     8.971
1911   6 C     -0.057  1.070  2.988  0.000    29.427     8.895
1912   6 C      0.145  1.046  2.810  0.000    24.851     8.171
1913   8 O     -0.445  1.724  4.721  0.000    21.743     6.295
1914   1 H      0.168  0.832  0.000  0.000     1.283     1.774
1915   1 H      0.019  0.981  0.000  0.000     2.756     2.596
1916   1 H      0.041  0.959  0.000  0.000     2.433     2.439
1917   1 H      0.060  0.940  0.000  0.000     2.204     2.322
1918   1 H      0.040  0.960  0.000  0.000     2.445     2.445
1919   1 H      0.023  0.977  0.000  0.000     2.689     2.564
1920   1 H      0.045  0.955  0.000  0.000     2.386     2.416
1921   1 H      0.044  0.956  0.000  0.000     2.397     2.421
1922   1 H      0.350  0.650  0.000  0.000     0.589     1.206
1923   7 N     -0.182  1.246  3.936  0.000    24.936     7.416
1924   6 C      0.026  1.052  2.922  0.000    20.150     6.393
1925   6 C      0.268  1.044  2.688  0.000    22.477     7.764
1926   8 O     -0.475  1.738  4.737  0.000    23.230     6.462
1927   6 C     -0.109  1.039  3.070  0.000    22.639     6.783
1928   1 H      0.206  0.794  0.000  0.000     1.078     1.626
1929   1 H      0.070  0.930  0.000  0.000     2.083     2.257
1930   1 H      0.053  0.947  0.000  0.000     2.288     2.366
1931   1 H      0.061  0.939  0.000  0.000     2.189     2.314
1932   1 H      0.050  0.950  0.000  0.000     2.314     2.379
1933   7 N     -0.185  1.246  3.938  0.000    25.004     7.427
1934   6 C      0.015  1.061  2.924  0.000    20.326     6.420
1935   6 C      0.284  1.037  2.679  0.000    22.193     7.714
1936   8 O     -0.468  1.736  4.732  0.000    23.084     6.442
1937   6 C      0.066  1.042  2.891  0.000    19.686     6.357
1938   8 O     -0.489  1.728  4.761  0.000    22.656     6.425
1939   1 H      0.215  0.785  0.000  0.000     1.034     1.593
1940   1 H      0.092  0.908  0.000  0.000     1.858     2.131
1941   1 H      0.068  0.932  0.000  0.000     2.108     2.270
1942   1 H      0.058  0.942  0.000  0.000     2.225     2.332
1943   1 H      0.356  0.644  0.000  0.000     0.575     1.191
1944   7 N     -0.166  1.238  3.928  0.000    24.591     7.365
1945   6 C      0.035  1.051  2.914  0.000    19.981     6.364
1946   6 C      0.276  1.029  2.695  0.000    22.338     7.742
1947   8 O     -0.514  1.738  4.776  0.000    24.093     6.581
1948   6 C     -0.045  1.042  3.003  0.000    21.368     6.579
1949   6 C     -0.099  1.053  3.045  0.000    22.376     6.734
1950   6 C      0.287  1.039  2.674  0.000    22.140     7.704
1951   8 O     -0.516  1.758  4.758  0.000    24.149     6.589
1952   7 N     -0.283  1.272  4.011  0.000    27.320     7.763
1953   1 H      0.191  0.809  0.000  0.000     1.155     1.684
1954   1 H      0.050  0.950  0.000  0.000     2.321     2.383
1955   1 H      0.054  0.946  0.000  0.000     2.266     2.354
1956   1 H      0.055  0.945  0.000  0.000     2.253     2.348
1957   1 H      0.077  0.923  0.000  0.000     2.011     2.218
1958   1 H      0.062  0.938  0.000  0.000     2.174     2.306
1959   1 H      0.231  0.769  0.000  0.000     0.962     1.537
1960   1 H      0.245  0.755  0.000  0.000     0.903     1.488
1961   7 N     -0.216  1.283  3.933  0.000    25.691     7.528
1962   6 C     -0.001  1.031  2.969  0.000    20.575     6.455
1963   6 C      0.273  1.041  2.686  0.000    22.405     7.763
1964   8 O     -0.436  1.731  4.705  0.000    22.408     6.347
1965   6 C     -0.039  1.046  2.993  0.000    21.263     6.564
1966   6 C     -0.083  1.056  3.027  0.000    22.074     6.688
1967   6 C      0.371  1.019  2.610  0.000    20.717     7.449
1968   8 O     -0.629  1.761  4.868  0.000    26.851     6.947
1969   8 O     -0.674  1.775  4.899  0.000    28.015     7.096
1970   1 H      0.280  0.720  0.000  0.000     0.774     1.379
1971   1 H      0.083  0.917  0.000  0.000     1.952     2.185
1972   1 H      0.056  0.944  0.000  0.000     2.251     2.346
1973   1 H      0.032  0.968  0.000  0.000     2.562     2.503
1974   1 H      0.015  0.985  0.000  0.000     2.803     2.618
1975   1 H      0.019  0.981  0.000  0.000     2.749     2.593
1976   7 N     -0.175  1.227  3.948  0.000    24.794     7.395
1977   6 C      0.027  1.060  2.913  0.000    20.127     6.389
1978   6 C      0.275  1.040  2.685  0.000    22.352     7.742
1979   8 O     -0.517  1.758  4.759  0.000    24.168     6.591
1980   6 C      0.118  1.041  2.841  0.000    18.742     6.179
1981   8 O     -0.483  1.740  4.743  0.000    22.533     6.408
1982   6 C     -0.149  1.048  3.101  0.000    23.433     6.903
1983   1 H      0.194  0.806  0.000  0.000     1.135     1.669
1984   1 H      0.062  0.938  0.000  0.000     2.171     2.304
1985   1 H      0.016  0.984  0.000  0.000     2.792     2.613
1986   1 H      0.348  0.652  0.000  0.000     0.593     1.209
1987   1 H      0.086  0.914  0.000  0.000     1.918     2.166
1988   1 H      0.052  0.948  0.000  0.000     2.291     2.367
1989   1 H      0.075  0.925  0.000  0.000     2.028     2.227
1990   7 N     -0.168  1.249  3.918  0.000    24.629     7.371
1991   6 C      0.020  1.071  2.910  0.000    20.258     6.411
1992   6 C      0.359  1.024  2.617  0.000    20.912     7.484
1993   8 O     -0.619  1.761  4.858  0.000    26.580     6.912
1994   6 C     -0.059  1.052  3.006  0.000    21.625     6.620
1995   6 C      0.012  1.086  2.902  0.000    27.736     8.638
1996   6 C     -0.038  1.078  2.960  0.000    28.951     8.824
1997   6 C     -0.057  1.095  2.962  0.000    29.415     8.894
1998   6 C     -0.023  1.079  2.944  0.000    28.573     8.766
1999   6 C     -0.035  1.080  2.955  0.000    28.869     8.811
2000   6 C     -0.031  1.077  2.954  0.000    28.770     8.796
2001   8 O     -0.592  1.731  4.862  0.000    25.929     6.827
2002   1 H      0.205  0.795  0.000  0.000     1.083     1.630
2003   1 H      0.032  0.968  0.000  0.000     2.564     2.504
2004   1 H      0.044  0.956  0.000  0.000     2.403     2.424
2005   1 H      0.047  0.953  0.000  0.000     2.362     2.404
2006   1 H      0.005  0.995  0.000  0.000     2.966     2.693
2007   1 H      0.080  0.920  0.000  0.000     1.983     2.202
2008   1 H      0.006  0.994  0.000  0.000     2.948     2.685
2009   1 H      0.030  0.970  0.000  0.000     2.580     2.512
2010   1 H      0.025  0.975  0.000  0.000     2.658     2.550
2011   1 H      0.186  0.814  0.000  0.000     1.180     1.701
2012   1 H      0.060  0.940  0.000  0.000     2.193     2.316
2013   1 H      0.165  0.835  0.000  0.000     1.304     1.789
2014   1 H      0.091  0.909  0.000  0.000     1.864     2.135
2015   1 H      0.179  0.821  0.000  0.000     1.219     1.729
2016   1 H      0.062  0.938  0.000  0.000     2.176     2.307
2017   1 H      0.177  0.823  0.000  0.000     1.230     1.737
2018   1 H      0.091  0.909  0.000  0.000     1.864     2.135
2019   1 H      0.180  0.820  0.000  0.000     1.211     1.724
2020   1 H      0.074  0.926  0.000  0.000     2.043     2.235
2021   1 H      0.174  0.826  0.000  0.000     1.251     1.752
2022   1 H      0.100  0.900  0.000  0.000     1.784     2.089
2023   1 H      0.178  0.822  0.000  0.000     1.227     1.735
2024   1 H      0.080  0.920  0.000  0.000     1.981     2.201
2025   1 H      0.183  0.817  0.000  0.000     1.197     1.713
2026   1 H      0.072  0.928  0.000  0.000     2.060     2.244
2027   1 H      0.175  0.825  0.000  0.000     1.245     1.747
2028   1 H      0.070  0.930  0.000  0.000     2.085     2.258
2029   1 H      0.186  0.814  0.000  0.000     1.180     1.701
2030   1 H      0.162  0.838  0.000  0.000     1.321     1.800
2031   1 H      0.072  0.928  0.000  0.000     2.063     2.246
2032   1 H      0.192  0.808  0.000  0.000     1.150     1.680
2033   1 H      0.071  0.929  0.000  0.000     2.074     2.252
2034   1 H      0.184  0.816  0.000  0.000     1.191     1.710
2035   1 H      0.062  0.938  0.000  0.000     2.176     2.307
2036   1 H      0.175  0.825  0.000  0.000     1.241     1.745
2037   1 H      0.076  0.924  0.000  0.000     2.018     2.221
2038   1 H      0.189  0.811  0.000  0.000     1.166     1.691
2039   1 H      0.060  0.940  0.000  0.000     2.201     2.320
2040   1 H      0.188  0.812  0.000  0.000     1.168     1.693
2041   1 H      0.070  0.930  0.000  0.000     2.087     2.259
2042   1 H      0.179  0.821  0.000  0.000     1.219     1.729
2043   1 H      0.064  0.936  0.000  0.000     2.154     2.295
2044   1 H      0.184  0.816  0.000  0.000     1.193     1.711
2045   1 H      0.074  0.926  0.000  0.000     2.043     2.235
2046   1 H      0.184  0.816  0.000  0.000     1.191     1.709
2047   1 H      0.064  0.936  0.000  0.000     2.147     2.291
2048   1 H      0.173  0.827  0.000  0.000     1.255     1.755
2049   1 H      0.087  0.913  0.000  0.000     1.905     2.158
2050   1 H      0.190  0.810  0.000  0.000     1.157     1.685
2051   1 H      0.073  0.927  0.000  0.000     2.053     2.241

 Mol. C6AA /au·bohr⁶  :   39245820.735638
 Mol. C8AA /au·bohr⁸  :  889361060.384934
 Mol. α(0) /au        :       9432.979058

 
molecular dipole:
                 x           y           z       tot (Debye)
 q only:      368.261     314.315    1027.929
   full:      364.694     321.342    1036.882    2910.761
molecular quadrupole (traceless):
                xx          xy          yy          xz          yz          zz
 q only:   -61525.834   23863.594  -69438.511   85132.077   65517.378  130964.345
  q+dip:   -63569.044   23959.454  -70147.406   84689.648   68147.481  133716.449
   full:   -63557.860   23967.448  -70148.500   84689.817   68147.799  133706.360
speedup  1.78
cpu  time for grad   17 m  8.8 s
wall time for grad    9 m 37.0 s

SCC energy    :   -3129.5799463
rep           :      38.6330616
ES            :       9.4686595
AES           :      -0.2801193
AXC           :       1.1116226
disp          :      -2.9422582
XB            :       0.0000000
fix           :       0.0000000
Gborn         :       0.0000000
Gsasa         :       0.0000000
Ghb           :       0.0000000
Gshift        :       0.0000000
Gsolv         :      -2.8597864    -1794.54
Etot ala COSMO:   -3129.5799463
grad norm     :       1.2623348
total E       :   -3090.5827809
atomizationE  :     573.1967667   359686.40
(atE without considering molecular charge,
 total energy contains solvation terms)
H-L gap (eV)  :          0.4197

------------------------------------------------------------------------
 * finished run on 2019/05/06 at 00:19:57.207     
------------------------------------------------------------------------
 total:
 * wall-time:     0 d,  0 h,  9 min, 58.312 sec
 *  cpu-time:     0 d,  0 h, 17 min, 27.557 sec
 * ratio c/w:     1.751 speedup
 SCF:
 * wall-time:     0 d,  0 h,  9 min, 44.123 sec
 *  cpu-time:     0 d,  0 h, 17 min, 16.916 sec
 * ratio c/w:     1.775 speedup

