      -----------------------------------------------------------      
     |                   =====================                   |     
     |                           x T B                           |     
     |                   =====================                   |     
     |                         S. Grimme                         |     
     |          Mulliken Center for Theoretical Chemistry        |     
     |                    University of Bonn                     |     
     |                 Version 6.0.1 (SAW181210)                 |     
      -----------------------------------------------------------      

   This program is distributed in the hope that it will be useful,
   but WITHOUT ANY WARRANTY; without even the implied warranty of
   MERCHANTABILITY or FITNESS FOR A PARTICULAR PURPOSE.
   
   FOR NON-COMMERCIAL, ACADEMIA USE ONLY.
   
   Cite this work as:
   S. Grimme, C. Bannwarth, P. Shushkov, J. Comput. Theory Chem., 2017,
   13, 1989-2009.
   C. Bannwarth, S. Ehlert and S. Grimme., ChemRxiv, 2018, preprint.
   http://doi.org/10.26434/chemrxiv.7246238.v1
   
   for sTDA-xTB:
   S. Grimme and C. Bannwarth, J. Chem. Phys., 2016, 145, 054103.
   
   in the mass-spec context:
   V. Asgeirsson, C. Bauer and S. Grimme, Chem. Sci., 2017, 8, 4879.
   
   if GBSA is used:
   P. Shushkov, F. März and S. Grimme, unpublished.
   
   for ANC optimizer:
   S. Grimme, unpublished.
   Rational Function algorithm used in ANCopt:
   F. Eckert, P. Pulay, H.-J. Werner, J. Comput. Chem., 1997, 18, 1473.
   
   with help from (in alphabetical order)
   C. Bannwarth, F. Bohle, G. Brandenburg, E. Caldeweyher, M. Checinski,
   S. Dohm, S. Ehlert, S. Ehrlich, F. März, H. Neugebauer, J. Pisarek,
   P. Pracht, P. Shushkov, and S. Spicher.
   
 * started run on 2019/05/12 at 03:17:37.373     
========================================================================
 # omp threads = 2
========================================================================
number of atoms            : 105
number of electrons        : 288
charge                     : -1
spin                       : .0
first test random number   : .5532

########################################################################
# WARNING! Please study the warnings concerning your input carefully
#  - Process number higher than OMP_NUM_THREADS, I hope you know what you are doing.
########################################################################

           ------------------------------------------------- 
          |                 G F N 2 - x T B                 |
          | Geometry, Frequencies, Noncovalent interactions |
          |            JCTC 2018 parametrisation            |
           ------------------------------------------------- 
 
      method parameters     
 k(s)        :  1.8500
 k(p)        :  2.2300
 k(d)        :  2.2300
 k(f)        :  2.0000
 kEN (H0ij)  : -2.0000
 D4 a1       :  0.5200
 D4 a2       :  5.0000
 D4 s6       :  1.0000
 D4 s8       :  2.7000
 D4 s9       :  5.0000
 alphaj      :  2.0000

 Solvent             : h2o
 Using internal parameter file: .param_gbsa2_h2o
 Gsolv ref. state (COSMO-RS): gsolv [1 M gas/solution]
 temperature (mdtemp)       :    298.150000000000     
 dielectric constant        :    80.2000000000000     
 rho                        :    1.00000000000000     
 mass                       :    18.0000000000000     
 surface tension            :    15.5689454083859     
 probe radius               :   0.975313790000000     
 vdW radii scaling          :    1.00000000000000     
 Gshift (Eh)                :   1.857443126794793E-003
 c1                         :    1.55243817000000     
 soset                      :   0.130326360000000     
 HB correction              :  T

            Z     q(EN)     CN     RAES       Cart. coordinates
     1  N   5.0   -0.21    3.22    1.96    48.35301    59.45328   175.91838
     2  C   4.0    0.03    4.34    4.27    48.89214    62.06058   175.27763
     3  C   4.0    0.15    3.45    3.09    49.09778    63.64962   177.65689
     4  O   6.0   -0.32    1.31    1.80    47.57504    63.39518   179.37801
     5  C   4.0   -0.04    4.30    4.20    46.75671    63.28261   173.73564
     6  C   4.0   -0.03    4.21    4.02    47.76005    65.58050   172.36461
     7  C   4.0    0.24    3.09    3.02    45.71971    67.17430   170.95134
     8  O   6.0   -0.32    1.17    1.80    43.47349    66.57400   171.15701
     9  O   6.0   -0.31    1.17    1.80    46.65496    68.98954   169.74409
    10  H   1.0    0.13    1.08    1.44    48.24588    58.98462   177.78871
    11  H   1.0    0.03    1.05    1.44    50.64369    62.11340   174.17535
    12  H   1.0    0.04    1.03    1.43    46.02250    61.94713   172.35347
    13  H   1.0    0.06    1.03    1.43    45.20143    63.82399   174.97869
    14  H   1.0    0.06    1.03    1.43    48.64854    66.91616   173.66540
    15  H   1.0    0.04    1.03    1.43    49.14630    65.01252   170.95030
    16  N   5.0   -0.13    3.51    2.08    50.96868    65.33590   177.70569
    17  C   4.0    0.04    4.46    4.48    51.48811    67.07584   179.74930
    18  C   4.0    0.15    3.43    3.09    50.90063    69.75939   178.88038
    19  O   6.0   -0.30    1.25    1.80    51.21338    70.33536   176.65292
    20  C   4.0    0.06    4.25    4.10    54.32335    66.79309   180.39913
    21  O   6.0   -0.26    2.11    1.84    54.91303    64.24381   180.87826
    22  C   4.0   -0.07    4.08    3.77    55.06837    68.53327   182.55183
    23  H   1.0    0.08    1.07    1.44    52.02289    65.59932   176.14116
    24  H   1.0    0.06    1.06    1.44    50.29562    66.56227   181.35184
    25  H   1.0    0.05    1.04    1.43    55.38513    67.26867   178.67960
    26  H   1.0    0.14    1.04    1.43    54.31550    63.76586   182.55136
    27  H   1.0    0.04    1.00    1.43    57.03427    68.19770   183.04165
    28  H   1.0    0.06    1.00    1.43    54.82504    70.49587   182.00652
    29  H   1.0    0.06    1.01    1.43    53.87400    68.13264   184.17583
    30  N   5.0   -0.14    3.48    2.07    50.13955    71.37614   180.64749
    31  C   4.0    0.04    4.36    4.32    49.44077    73.95695   180.08206
    32  C   4.0    0.24    3.16    3.03    51.09341    75.86531   181.66545
    33  O   6.0   -0.32    1.17    1.80    50.26054    78.00171   182.09698
    34  C   4.0   -0.03    4.32    4.23    46.60876    74.42060   180.53281
    35  C   4.0   -0.01    3.57    3.15    45.01587    72.49191   179.20956
    36  C   4.0   -0.04    3.46    3.10    44.17332    72.84201   176.75260
    37  C   4.0   -0.04    3.49    3.11    44.40907    70.23620   180.40256
    38  C   4.0   -0.03    3.38    3.07    42.81775    70.97595   175.51588
    39  C   4.0   -0.04    3.38    3.07    43.04899    68.36775   179.17722
    40  C   4.0   -0.04    3.37    3.07    42.26105    68.72017   176.71697
    41  O   6.0   -0.33    1.37    1.80    53.18878    75.00857   182.40014
    42  H   1.0    0.10    1.09    1.44    49.88109    70.74823   182.43530
    43  H   1.0    0.06    1.06    1.44    49.88240    74.26433   178.07912
    44  H   1.0    0.04    1.03    1.43    46.23823    74.33944   182.56380
    45  H   1.0    0.04    1.03    1.43    46.18690    76.32622   179.87631
    46  H   1.0    0.05    1.03    1.43    44.61418    74.57549   175.75939
    47  H   1.0    0.05    1.03    1.43    45.00736    69.93065   182.33164
    48  H   1.0    0.06    1.03    1.43    42.23241    71.26035   173.57856
    49  H   1.0    0.05    1.03    1.43    42.62462    66.62956   180.15560
    50  H   1.0    0.05    1.03    1.43    41.25445    67.27046   175.69312
    51  N   5.0   -0.23    3.25    1.97    46.45736    68.64342   191.46443
    52  C   4.0    0.02    4.31    4.21    47.30253    69.80700   189.14392
    53  C   4.0    0.14    3.42    3.08    48.33991    67.88846   187.26397
    54  O   6.0   -0.33    1.29    1.80    49.57272    68.56569   185.43133
    55  C   4.0   -0.05    4.27    4.13    49.18299    71.97209   189.62181
    56  C   4.0   -0.05    4.19    3.97    51.54048    71.10495   191.05693
    57  C   4.0   -0.06    4.14    3.88    53.70352    73.01714   190.86628
    58  C   4.0   -0.04    4.11    3.83    54.76610    73.16722   188.16077
    59  N   5.0   -0.12    4.01    2.88    54.61891    75.74648   187.04241
    60  H   1.0    0.07    1.02    1.43    47.57717    67.31517   192.27747
    61  H   1.0    0.03    1.05    1.44    45.61122    70.63899   188.25897
    62  H   1.0    0.05    1.03    1.43    49.67007    72.75167   187.77503
    63  H   1.0    0.03    1.03    1.43    48.19212    73.41980   190.70359
    64  H   1.0    0.02    1.03    1.43    51.02635    70.85009   193.03162
    65  H   1.0    0.04    1.03    1.43    52.17359    69.29020   190.30584
    66  H   1.0    0.03    1.03    1.43    52.98569    74.85273   191.46714
    67  H   1.0    0.02    1.02    1.43    55.18038    72.46486   192.18620
    68  H   1.0    0.03    1.02    1.43    56.73152    72.56535   188.11717
    69  H   1.0    0.05    1.03    1.43    53.69785    71.90190   186.93477
    70  H   1.0    0.10    1.13    1.45    54.29302    75.61780   185.00455
    71  H   1.0    0.05    1.03    1.43    53.07363    76.69396   187.72570
    72  H   1.0    0.04    1.02    1.43    56.20822    76.77914   187.42584
    73  N   5.0   -0.15    3.49    2.07    47.75498    65.44521   187.62858
    74  C   4.0    0.04    4.37    4.33    49.12046    63.51283   186.22042
    75  C   4.0    0.15    3.37    3.07    47.37535    61.17426   185.91614
    76  O   6.0   -0.32    1.22    1.80    47.17252    59.60210   187.62182
    77  C   4.0    0.04    4.15    3.90    51.59515    63.01515   187.67899
    78  O   6.0   -0.26    2.06    1.83    53.62216    62.46583   186.07023
    79  H   1.0    0.08    1.08    1.44    47.09248    64.89518   189.33235
    80  H   1.0    0.06    1.06    1.44    49.56026    64.27774   184.35457
    81  H   1.0    0.04    1.02    1.43    52.00731    64.73099   188.77483
    82  H   1.0    0.04    1.01    1.43    51.26657    61.47556   189.02489
    83  H   1.0    0.11    1.02    1.43    55.05594    62.00466   187.10524
    84  N   5.0   -0.13    3.47    2.06    46.02371    61.06703   183.77680
    85  C   4.0    0.03    4.33    4.26    44.59478    58.81230   183.07822
    86  C   4.0    0.08    3.26    3.05    46.51225    56.86112   182.15235
    87  O   6.0   -0.30    1.21    1.80    48.27187    57.50844   180.79951
    88  C   4.0   -0.05    4.39    4.36    42.80650    59.31145   180.89825
    89  C   4.0   -0.03    4.19    3.97    40.52971    60.93841   181.60229
    90  C   4.0   -0.09    4.11    3.82    39.39393    62.06074   179.19131
    91  C   4.0   -0.09    4.11    3.83    38.55996    59.36183   182.97373
    92  H   1.0    0.11    1.12    1.45    46.46738    62.21921   182.30327
    93  H   1.0    0.04    1.05    1.44    43.61077    58.13462   184.76618
    94  H   1.0    0.05    1.04    1.43    43.89316    60.25530   179.41711
    95  H   1.0    0.03    1.03    1.43    42.14147    57.50811   180.14490
    96  H   1.0    0.04    1.05    1.44    41.17634    62.50156   182.78762
    97  H   1.0    0.03    1.00    1.43    37.92731    63.41280   179.66169
    98  H   1.0    0.04    1.00    1.43    40.82722    63.05510   178.10148
    99  H   1.0    0.03    1.00    1.43    38.59880    60.57572   178.01175
   100  H   1.0    0.03    1.00    1.43    36.89497    60.47968   183.40705
   101  H   1.0    0.03    1.00    1.43    37.99023    57.79115   181.78733
   102  H   1.0    0.03    1.00    1.43    39.29911    58.62007   184.74349
   103  H   1.0    0.09    1.08    1.44    46.84785    59.00741   175.26396
   104  H   1.0    0.08    1.08    1.44    46.25957    69.83764   192.65912
   105  H   1.0    0.04    1.04    1.43    46.33132    55.04766   182.65201

  Z AO/shell   Hii/eV     exponent
  1     Wed Apr 25 08:07:45 CEST 2018   EN: 2.200 GM2: 0.406  GM3: 0.0800  RAES: 1.40
     1s    -10.707211    1.230000
  6     Wed Apr 25 08:07:45 CEST 2018   EN: 2.550 GM2: 0.538  GM3: 0.1500  RAES: 3.00
     2s    -13.970922    2.096432
     2p    -10.063292    1.800000
  7     Wed Apr 25 08:07:45 CEST 2018   EN: 3.040 GM2: 0.461  GM3:-0.0640  RAES: 1.90
     2s    -16.686243    2.339881
     2p    -12.523956    2.014332
  8     Wed Apr 25 08:07:45 CEST 2018   EN: 3.440 GM2: 0.452  GM3:-0.0517  RAES: 1.80
     2s    -20.229985    2.439742
     2p    -15.503117    2.137023
 no old-style atom pair restraining (fixing) potential

molecular fragmentation (1/2 indicates fragments):
111111111111111111111111111111111111111111111111112222222222222222222222
222222222222222222222222222222122
# atoms in fragment 1/2:    51    54
 fragment masses (1/2) :      393.40      331.43
CMA distance (Bohr)    :   8.978
constraining FC (au)   :  0.0500
           ------------------------------------------------- 
          |        Self-Consistent Charge Iterations        |
           ------------------------------------------------- 

 Ncao       : 258
 Nao        : 258
 Nshell     : 156
 Nel        : 288
 T(el)      :   500.0
 intcut     :    35.0
 scfconv/Eh :  0.100E-06
   qconv/e  :  0.100E-04
 intneglect :  0.100E-08
 broydamp   :      0.400
 iter      E             dE          RMSdq      gap      omega  full diag
   1   -165.3127631 -0.165313E+03  0.467E+00    3.89       0.0  T
   2   -165.7089843 -0.396221E+00  0.221E+00    2.12       1.0  T
   3   -165.7305610 -0.215767E-01  0.120E+00    2.17       1.0  T
   4   -165.7528105 -0.222495E-01  0.260E-01    1.29       1.0  T
   5   -165.7543023 -0.149184E-02  0.131E-01    1.48       1.0  T
   6   -165.7545289 -0.226583E-03  0.537E-02    1.49       1.0  T
   7   -165.7546004 -0.715533E-04  0.223E-02    1.52       1.0  T
   8   -165.7546076 -0.719395E-05  0.107E-02    1.53       1.0  T
   9   -165.7546107 -0.307782E-05  0.483E-03    1.54       2.0  T
  10   -165.7546112 -0.483786E-06  0.213E-03    1.54       4.6  T
  11   -165.7546113 -0.926197E-07  0.780E-04    1.54      12.5  T
  12   -165.7546113 -0.105358E-07  0.327E-04    1.54      29.8  T
  13   -165.7546113 -0.222244E-08  0.163E-04    1.54      59.8  T
  14   -165.7546113 -0.615330E-09  0.639E-05    1.54     152.8  T
  15   -165.7546113 -0.122697E-09  0.274E-05    1.54     356.8  T
speedup  2.00
cpu  time for SCC    0.38 s
wall time for SCC    0.19 s

   *** convergence criteria satisfied after 15 iterations ***

          eigenvalues
 #    :         132        133        134        135        136        137        138        139
 occ. :        2.000      2.000      2.000      2.000      2.000      2.000      2.000      2.000
 eps  :       -11.134    -11.083    -10.971    -10.917    -10.907    -10.808    -10.674    -10.569
 #    :         140        141        142        143        144        145        146        147
 occ. :        2.000      2.000      2.000      2.000      2.000      0.000      0.000      0.000
 eps  :       -10.232    -10.192    -10.146     -9.900     -9.504     -7.962     -6.382     -6.355
 #    :         148        149        150        151        152        153        154        155
 occ. :        0.000      0.000      0.000      0.000      0.000      0.000      0.000      0.000
 eps  :        -6.041     -5.980     -5.954     -5.826     -5.299     -4.372     -2.480     -1.378


   #   Z            q   n(s)   n(p)   n(d)      C6AA      α(0)
   1   7 N     -0.401  1.323  4.078  0.000    30.399     8.189
   2   6 C      0.040  1.056  2.903  0.000    19.905     6.354
   3   6 C      0.277  1.047  2.676  0.000    22.323     7.737
   4   8 O     -0.489  1.719  4.770  0.000    23.542     6.505
   5   6 C     -0.040  1.049  2.991  0.000    21.276     6.565
   6   6 C     -0.088  1.064  3.024  0.000    22.179     6.705
   7   6 C      0.373  1.024  2.603  0.000    20.680     7.442
   8   8 O     -0.625  1.761  4.863  0.000    26.738     6.933
   9   8 O     -0.671  1.780  4.892  0.000    27.935     7.086
  10   1 H      0.190  0.810  0.000  0.000     1.159     1.686
  11   1 H      0.023  0.977  0.000  0.000     2.683     2.561
  12   1 H      0.036  0.964  0.000  0.000     2.506     2.476
  13   1 H      0.023  0.977  0.000  0.000     2.684     2.562
  14   1 H      0.006  0.994  0.000  0.000     2.963     2.692
  15   1 H      0.014  0.986  0.000  0.000     2.832     2.632
  16   7 N     -0.171  1.243  3.928  0.000    24.696     7.381
  17   6 C      0.015  1.067  2.918  0.000    20.332     6.421
  18   6 C      0.275  1.041  2.684  0.000    22.342     7.740
  19   8 O     -0.536  1.763  4.773  0.000    24.594     6.649
  20   6 C      0.120  1.044  2.836  0.000    18.707     6.174
  21   8 O     -0.477  1.723  4.754  0.000    22.401     6.389
  22   6 C     -0.148  1.046  3.102  0.000    23.425     6.902
  23   1 H      0.187  0.813  0.000  0.000     1.174     1.697
  24   1 H      0.074  0.926  0.000  0.000     2.043     2.235
  25   1 H      0.029  0.971  0.000  0.000     2.594     2.519
  26   1 H      0.334  0.666  0.000  0.000     0.627     1.244
  27   1 H      0.082  0.918  0.000  0.000     1.960     2.189
  28   1 H      0.060  0.940  0.000  0.000     2.200     2.319
  29   1 H      0.073  0.927  0.000  0.000     2.053     2.241
  30   7 N     -0.172  1.248  3.924  0.000    24.733     7.386
  31   6 C      0.020  1.069  2.911  0.000    20.252     6.409
  32   6 C      0.361  1.028  2.612  0.000    20.880     7.478
  33   8 O     -0.577  1.763  4.813  0.000    25.551     6.777
  34   6 C     -0.067  1.053  3.014  0.000    21.770     6.642
  35   6 C      0.012  1.082  2.906  0.000    27.736     8.639
  36   6 C     -0.038  1.079  2.959  0.000    28.939     8.822
  37   6 C     -0.045  1.079  2.965  0.000    29.108     8.848
  38   6 C     -0.022  1.079  2.943  0.000    28.556     8.763
  39   6 C     -0.034  1.079  2.955  0.000    28.838     8.806
  40   6 C     -0.027  1.076  2.950  0.000    28.674     8.781
  41   8 O     -0.575  1.742  4.832  0.000    25.502     6.771
  42   1 H      0.227  0.773  0.000  0.000     0.977     1.549
  43   1 H      0.032  0.968  0.000  0.000     2.557     2.501
  44   1 H      0.053  0.947  0.000  0.000     2.279     2.361
  45   1 H      0.055  0.945  0.000  0.000     2.254     2.348
  46   1 H      0.016  0.984  0.000  0.000     2.787     2.611
  47   1 H      0.038  0.962  0.000  0.000     2.471     2.458
  48   1 H      0.006  0.994  0.000  0.000     2.950     2.686
  49   1 H      0.044  0.956  0.000  0.000     2.396     2.421
  50   1 H      0.022  0.978  0.000  0.000     2.709     2.574
  51   7 N     -0.396  1.320  4.077  0.000    30.270     8.171
  52   6 C      0.027  1.058  2.915  0.000    20.140     6.392
  53   6 C      0.273  1.048  2.680  0.000    22.394     7.749
  54   8 O     -0.491  1.741  4.750  0.000    23.580     6.510
  55   6 C     -0.079  1.057  3.022  0.000    22.009     6.679
  56   6 C     -0.066  1.049  3.016  0.000    21.758     6.641
  57   6 C     -0.088  1.056  3.032  0.000    22.187     6.706
  58   6 C     -0.037  1.054  2.982  0.000    21.325     6.592
  59   7 N     -0.182  1.253  3.929  0.000    24.934     7.416
  60   1 H      0.156  0.844  0.000  0.000     1.358     1.826
  61   1 H      0.060  0.940  0.000  0.000     2.201     2.320
  62   1 H      0.048  0.952  0.000  0.000     2.342     2.393
  63   1 H      0.054  0.946  0.000  0.000     2.269     2.356
  64   1 H      0.059  0.941  0.000  0.000     2.214     2.327
  65   1 H      0.034  0.966  0.000  0.000     2.532     2.488
  66   1 H      0.076  0.924  0.000  0.000     2.023     2.224
  67   1 H      0.082  0.918  0.000  0.000     1.957     2.188
  68   1 H      0.107  0.893  0.000  0.000     1.721     2.051
  69   1 H      0.093  0.907  0.000  0.000     1.850     2.127
  70   1 H      0.300  0.700  0.000  0.000     0.713     1.323
  71   1 H      0.259  0.741  0.000  0.000     0.848     1.443
  72   1 H      0.279  0.721  0.000  0.000     0.778     1.382
  73   7 N     -0.190  1.266  3.924  0.000    25.121     7.444
  74   6 C      0.017  1.067  2.916  0.000    20.299     6.416
  75   6 C      0.267  1.048  2.686  0.000    22.501     7.767
  76   8 O     -0.488  1.746  4.742  0.000    23.522     6.502
  77   6 C      0.083  1.035  2.882  0.000    19.411     6.312
  78   8 O     -0.489  1.725  4.764  0.000    22.659     6.426
  79   1 H      0.218  0.782  0.000  0.000     1.020     1.582
  80   1 H      0.072  0.928  0.000  0.000     2.063     2.246
  81   1 H      0.037  0.963  0.000  0.000     2.488     2.467
  82   1 H      0.048  0.952  0.000  0.000     2.350     2.397
  83   1 H      0.364  0.636  0.000  0.000     0.557     1.172
  84   7 N     -0.175  1.261  3.915  0.000    24.792     7.395
  85   6 C      0.032  1.058  2.910  0.000    20.050     6.377
  86   6 C      0.199  1.086  2.715  0.000    23.760     7.984
  87   8 O     -0.364  1.757  4.607  0.000    20.972     6.140
  88   6 C     -0.068  1.056  3.011  0.000    21.783     6.642
  89   6 C     -0.008  1.055  2.953  0.000    20.691     6.470
  90   6 C     -0.108  1.040  3.068  0.000    22.618     6.781
  91   6 C     -0.122  1.041  3.080  0.000    22.881     6.820
  92   1 H      0.231  0.769  0.000  0.000     0.959     1.534
  93   1 H      0.091  0.909  0.000  0.000     1.871     2.139
  94   1 H      0.055  0.945  0.000  0.000     2.259     2.351
  95   1 H      0.060  0.940  0.000  0.000     2.194     2.316
  96   1 H      0.039  0.961  0.000  0.000     2.468     2.457
  97   1 H      0.046  0.954  0.000  0.000     2.374     2.410
  98   1 H      0.020  0.980  0.000  0.000     2.740     2.589
  99   1 H      0.043  0.957  0.000  0.000     2.412     2.428
 100   1 H      0.052  0.948  0.000  0.000     2.290     2.367
 101   1 H      0.049  0.951  0.000  0.000     2.327     2.385
 102   1 H      0.047  0.953  0.000  0.000     2.357     2.401
 103   1 H      0.175  0.825  0.000  0.000     1.240     1.744
 104   1 H      0.196  0.804  0.000  0.000     1.126     1.662
 105   1 H      0.086  0.914  0.000  0.000     1.922     2.168

 Mol. C6AA /au·bohr⁶  :     103397.526111
 Mol. C8AA /au·bohr⁸  :    2293676.211625
 Mol. α(0) /au        :        481.449649

 
molecular dipole:
                 x           y           z       tot (Debye)
 q only:      -43.834     -67.721    -162.560
   full:      -43.842     -67.468    -162.852     461.705
molecular quadrupole (traceless):
                xx          xy          yy          xz          yz          zz
 q only:    13495.370   -4408.002    9413.641  -10551.497  -16444.732  -22909.012
  q+dip:    13521.052   -4388.981    9497.537  -10570.166  -16408.004  -23018.588
   full:    13523.084   -4390.836    9496.578  -10570.341  -16407.849  -23019.662
speedup  1.94
cpu  time for grad    0.54 s
wall time for grad    0.28 s

SCC energy    :    -165.7576197
rep           :       1.9532349
ES            :       0.6912003
AES           :      -0.0276592
AXC           :       0.0460103
disp          :      -0.1264451
XB            :       0.0000000
fix           :       0.0000000
Gborn         :       0.0000000
Gsasa         :       0.0000000
Ghb           :       0.0000000
Gshift        :       0.0000000
Gsolv         :      -0.2248964     -141.12
Etot ala COSMO:    -165.7576197
grad norm     :       0.2940105
total E       :    -163.7955173
atomizationE  :      29.8539699    18733.65
(atE without considering molecular charge,
 total energy contains solvation terms)
H-L gap (eV)  :          1.5422

------------------------------------------------------------------------
 * finished run on 2019/05/12 at 03:17:37.869     
------------------------------------------------------------------------
 total:
 * wall-time:     0 d,  0 h,  0 min,  0.495 sec
 *  cpu-time:     0 d,  0 h,  0 min,  0.735 sec
 * ratio c/w:     1.484 speedup
 SCF:
 * wall-time:     0 d,  0 h,  0 min,  0.311 sec
 *  cpu-time:     0 d,  0 h,  0 min,  0.606 sec
 * ratio c/w:     1.949 speedup

