      -----------------------------------------------------------      
     |                   =====================                   |     
     |                           x T B                           |     
     |                   =====================                   |     
     |                         S. Grimme                         |     
     |          Mulliken Center for Theoretical Chemistry        |     
     |                    University of Bonn                     |     
     |                 Version 6.0.1 (SAW181210)                 |     
      -----------------------------------------------------------      

   This program is distributed in the hope that it will be useful,
   but WITHOUT ANY WARRANTY; without even the implied warranty of
   MERCHANTABILITY or FITNESS FOR A PARTICULAR PURPOSE.
   
   FOR NON-COMMERCIAL, ACADEMIA USE ONLY.
   
   Cite this work as:
   S. Grimme, C. Bannwarth, P. Shushkov, J. Comput. Theory Chem., 2017,
   13, 1989-2009.
   C. Bannwarth, S. Ehlert and S. Grimme., ChemRxiv, 2018, preprint.
   http://doi.org/10.26434/chemrxiv.7246238.v1
   
   for sTDA-xTB:
   S. Grimme and C. Bannwarth, J. Chem. Phys., 2016, 145, 054103.
   
   in the mass-spec context:
   V. Asgeirsson, C. Bauer and S. Grimme, Chem. Sci., 2017, 8, 4879.
   
   if GBSA is used:
   P. Shushkov, F. März and S. Grimme, unpublished.
   
   for ANC optimizer:
   S. Grimme, unpublished.
   Rational Function algorithm used in ANCopt:
   F. Eckert, P. Pulay, H.-J. Werner, J. Comput. Chem., 1997, 18, 1473.
   
   with help from (in alphabetical order)
   C. Bannwarth, F. Bohle, G. Brandenburg, E. Caldeweyher, M. Checinski,
   S. Dohm, S. Ehlert, S. Ehrlich, F. März, H. Neugebauer, J. Pisarek,
   P. Pracht, P. Shushkov, and S. Spicher.
   
 * started run on 2019/05/12 at 12:15:07.837     
========================================================================
 # omp threads = 2
========================================================================
number of atoms            : 538
number of electrons        : 1394
charge                     : 2
spin                       : .0
first test random number   : .0037

########################################################################
# WARNING! Please study the warnings concerning your input carefully
#  - Process number higher than OMP_NUM_THREADS, I hope you know what you are doing.
########################################################################

           ------------------------------------------------- 
          |                 G F N 2 - x T B                 |
          | Geometry, Frequencies, Noncovalent interactions |
          |            JCTC 2018 parametrisation            |
           ------------------------------------------------- 
 
      method parameters     
 k(s)        :  1.8500
 k(p)        :  2.2300
 k(d)        :  2.2300
 k(f)        :  2.0000
 kEN (H0ij)  : -2.0000
 D4 a1       :  0.5200
 D4 a2       :  5.0000
 D4 s6       :  1.0000
 D4 s8       :  2.7000
 D4 s9       :  5.0000
 alphaj      :  2.0000

 Solvent             : h2o
 Using internal parameter file: .param_gbsa2_h2o
 Gsolv ref. state (COSMO-RS): gsolv [1 M gas/solution]
 temperature (mdtemp)       :    298.150000000000     
 dielectric constant        :    80.2000000000000     
 rho                        :    1.00000000000000     
 mass                       :    18.0000000000000     
 surface tension            :    15.5689454083859     
 probe radius               :   0.975313790000000     
 vdW radii scaling          :    1.00000000000000     
 Gshift (Eh)                :   1.857443126794793E-003
 c1                         :    1.55243817000000     
 soset                      :   0.130326360000000     
 HB correction              :  T

            Z     q(EN)     CN     RAES       Cart. coordinates
     1  N   5.0   -0.19    3.20    1.96    27.01022    65.73970   150.77752
     2  C   4.0    0.03    4.29    4.18    28.49866    64.07742   152.44858
     3  C   4.0    0.08    3.23    3.04    31.17960    63.83512   151.26331
     4  O   6.0   -0.27    1.11    1.80    31.46782    62.95690   149.06072
     5  C   4.0   -0.02    4.28    4.16    27.33201    61.39503   152.65385
     6  C   4.0   -0.08    4.17    3.93    29.05994    59.79441   154.06487
     7  C   4.0   -0.08    4.12    3.84    24.72451    61.47614   153.83230
     8  H   1.0    0.10    1.03    1.43    26.83624    65.22052   148.96942
     9  H   1.0    0.04    1.05    1.44    28.68117    65.03806   154.25366
    10  H   1.0    0.05    1.07    1.44    27.21982    60.68515   150.73787
    11  H   1.0    0.03    1.01    1.43    28.27960    57.93793   154.44357
    12  H   1.0    0.05    1.01    1.43    30.93357    59.61794   153.30837
    13  H   1.0    0.03    0.95    1.42    29.37397    60.62308   156.08042
    14  H   1.0    0.04    1.02    1.43    23.95207    59.63785   153.88055
    15  H   1.0    0.04    0.99    1.43    24.84719    62.22277   155.78392
    16  H   1.0    0.04    1.00    1.43    23.49244    62.75769   152.77282
    17  N   5.0   -0.18    3.24    1.96    47.53129    45.79147   159.36160
    18  C   4.0    0.03    4.37    4.33    45.19682    45.54202   157.95155
    19  C   4.0    0.15    3.49    3.11    45.60844    46.07125   155.13529
    20  O   6.0   -0.25    1.24    1.80    47.09016    47.65576   154.23894
    21  C   4.0   -0.04    4.39    4.36    43.31470    47.49343   158.97152
    22  C   4.0   -0.02    4.19    3.98    42.45357    46.98342   161.66029
    23  C   4.0   -0.07    4.10    3.80    41.72572    49.43086   162.99414
    24  C   4.0   -0.08    4.11    3.82    40.25848    45.12408   161.62803
    25  H   1.0    0.10    1.03    1.43    47.88664    47.29606   160.44315
    26  H   1.0    0.03    1.08    1.44    44.50566    43.63951   158.21433
    27  H   1.0    0.06    1.03    1.43    44.25294    49.34688   158.85737
    28  H   1.0    0.05    1.03    1.43    41.67626    47.58211   157.69366
    29  H   1.0    0.05    1.06    1.44    44.02202    46.12931   162.68301
    30  H   1.0    0.04    1.01    1.43    41.03532    49.07775   164.86949
    31  H   1.0    0.05    1.00    1.43    43.33188    50.69529   163.10335
    32  H   1.0    0.04    0.99    1.43    40.22917    50.40490   161.91572
    33  H   1.0    0.04    0.99    1.43    39.65023    44.70187   163.57950
    34  H   1.0    0.04    0.99    1.43    38.61951    45.93205   160.64992
    35  H   1.0    0.04    1.01    1.43    40.76848    43.37386   160.75101
    36  N   5.0   -0.09    3.61    2.16    44.07397    44.80385   153.69205
    37  C   4.0    0.04    4.40    4.38    43.83366    45.58422   150.90910
    38  C   4.0    0.10    3.19    3.03    42.35839    48.05675   150.67109
    39  O   6.0   -0.27    1.14    1.80    41.40719    49.14933   152.41534
    40  C   4.0   -0.05    4.20    3.99    42.32930    43.38225   149.57148
    41  C   4.0   -0.04    4.18    3.95    40.67031    42.43894   151.79630
    42  C   4.0   -0.02    4.26    4.13    42.33289    42.80964   154.37678
    43  H   1.0    0.07    1.04    1.43    45.77283    45.77140   150.23275
    44  H   1.0    0.05    1.05    1.44    41.30538    43.98760   148.05689
    45  H   1.0    0.05    1.01    1.43    43.69384    41.86239   149.10606
    46  H   1.0    0.05    1.03    1.43    39.02728    43.59599   151.95764
    47  H   1.0    0.04    1.01    1.43    40.16702    40.45502   151.60364
    48  H   1.0    0.04    1.04    1.43    41.10412    43.31406   155.83708
    49  H   1.0    0.04    1.02    1.43    43.36431    41.07319   154.71866
    50  N   5.0   -0.18    3.19    1.95    36.43250    52.09588   146.32258
    51  C   4.0    0.03    4.20    4.00    33.89303    51.44816   145.36623
    52  C   4.0    0.09    3.20    3.04    33.64404    51.88721   142.52316
    53  O   6.0   -0.25    1.12    1.80    34.85112    53.44261   141.32590
    54  C   4.0   -0.05    4.37    4.32    31.84575    52.97092   146.68604
    55  C   4.0   -0.03    4.18    3.95    31.24549    52.03777   149.36464
    56  C   4.0   -0.08    4.11    3.82    29.97253    54.23321   150.78577
    57  C   4.0   -0.08    4.10    3.81    29.48491    49.77604   149.29448
    58  H   1.0    0.11    1.04    1.43    36.89323    53.88271   146.33713
    59  H   1.0    0.04    1.04    1.44    33.64028    49.40940   145.74854
    60  H   1.0    0.05    1.03    1.43    32.49381    54.93795   146.73840
    61  H   1.0    0.04    1.03    1.43    30.12538    52.94726   145.55908
    62  H   1.0    0.04    1.06    1.44    32.98406    51.50609   150.31288
    63  H   1.0    0.03    0.99    1.43    29.56395    53.66202   152.73884
    64  H   1.0    0.04    1.00    1.43    31.23133    55.84856   150.87540
    65  H   1.0    0.04    1.01    1.43    28.24566    54.79343   149.88122
    66  H   1.0    0.04    1.00    1.43    29.13921    49.03596   151.18389
    67  H   1.0    0.04    1.00    1.43    27.65778    50.32109   148.48480
    68  H   1.0    0.04    1.00    1.43    30.25927    48.26481   148.15228
    69  N   5.0   -0.18    3.22    1.96    17.84865    64.24420   144.34538
    70  C   4.0    0.04    4.18    3.96    15.70203    62.73929   144.94023
    71  C   4.0    0.08    3.21    3.04    13.37492    64.39905   145.67443
    72  O   6.0   -0.26    1.11    1.80    13.62201    66.30688   147.03099
    73  C   4.0   -0.04    4.34    4.27    16.09377    61.21471   147.49833
    74  C   4.0   -0.02    3.55    3.14    18.32678    59.48126   147.41900
    75  C   4.0   -0.04    3.48    3.11    20.77760    60.48133   147.39776
    76  C   4.0   -0.05    3.44    3.09    17.96994    56.87379   147.37340
    77  C   4.0   -0.04    3.36    3.07    22.88524    58.88776   147.37554
    78  C   4.0   -0.04    3.37    3.07    20.07886    55.31629   147.29335
    79  C   4.0   -0.04    3.36    3.07    22.51657    56.29232   147.31399
    80  H   1.0    0.10    1.03    1.43    18.20289    65.67106   145.55674
    81  H   1.0    0.05    1.04    1.43    15.23980    61.46388   143.39592
    82  H   1.0    0.05    1.04    1.43    16.37149    62.58728   148.97150
    83  H   1.0    0.04    1.04    1.43    14.40572    60.12703   147.83575
    84  H   1.0    0.05    1.03    1.43    21.08267    62.49579   147.53415
    85  H   1.0    0.05    1.04    1.43    16.13734    56.10438   147.32151
    86  H   1.0    0.05    1.03    1.43    24.74569    59.65960   147.33489
    87  H   1.0    0.05    1.02    1.43    19.83140    53.27867   147.25232
    88  H   1.0    0.05    1.03    1.43    24.14947    55.07081   147.24405
    89  N   5.0   -0.18    3.23    1.96     0.68815    61.47303   164.11980
    90  C   4.0    0.04    4.22    4.03     2.30050    59.21673   164.25624
    91  C   4.0    0.09    3.21    3.04     4.17527    59.66145   166.45458
    92  O   6.0   -0.27    1.13    1.80     5.14820    61.74485   166.75003
    93  C   4.0   -0.04    4.35    4.30     3.82129    58.91153   161.78374
    94  C   4.0   -0.02    4.17    3.94     4.68342    56.20775   161.33481
    95  C   4.0   -0.06    4.10    3.81     2.41727    54.44055   160.90336
    96  C   4.0   -0.08    4.10    3.80     6.41311    56.17982   158.99416
    97  H   1.0    0.11    1.04    1.43     1.50310    63.09784   163.90230
    98  H   1.0    0.06    1.06    1.44     1.12268    57.60391   164.63545
    99  H   1.0    0.05    1.04    1.43     2.61137    59.52645   160.25782
   100  H   1.0    0.05    1.03    1.43     5.44623    60.16673   161.87314
   101  H   1.0    0.04    1.04    1.43     5.74012    55.54114   163.00486
   102  H   1.0    0.05    1.00    1.43     3.06581    52.63677   160.17163
   103  H   1.0    0.06    1.00    1.43     1.43676    54.09533   162.68573
   104  H   1.0    0.05    1.01    1.43     1.10716    55.28349   159.59656
   105  H   1.0    0.04    0.99    1.43     7.14859    54.22560   158.75031
   106  H   1.0    0.05    1.02    1.43     5.42019    56.71428   157.37516
   107  H   1.0    0.04    1.00    1.43     8.04369    57.38715   159.32966
   108  N   5.0   -0.20    3.23    1.96    10.83965    58.89508   170.39178
   109  C   4.0    0.03    4.38    4.35    13.51882    58.70077   169.85022
   110  C   4.0    0.15    3.47    3.10    14.40598    55.92150   170.09650
   111  O   6.0   -0.33    1.32    1.80    16.13646    55.15098   168.82480
   112  C   4.0   -0.04    4.46    4.48    15.07686    60.21272   171.62226
   113  C   4.0   -0.04    4.09    3.79    15.37689    62.87854   170.79139
   114  S   6.0   -0.02    2.71    3.10    17.54808    63.14403   168.45072
   115  C   4.0   -0.06    3.92    3.49    20.24083    61.52049   169.56682
   116  H   1.0    0.09    1.01    1.43    10.24432    60.20863   171.69917
   117  H   1.0    0.04    1.08    1.44    13.90708    59.28119   167.93834
   118  H   1.0    0.05    0.99    1.43    14.07141    60.22989   173.56316
   119  H   1.0    0.05    1.07    1.44    16.89140    59.36379   172.03102
   120  H   1.0    0.05    1.08    1.44    13.57666    63.72460   170.17423
   121  H   1.0    0.05    1.06    1.44    16.03023    64.09979   172.42606
   122  H   1.0    0.05    1.03    1.43    21.89735    62.15735   168.44073
   123  H   1.0    0.05    1.05    1.44    20.56560    62.09326   171.52236
   124  H   1.0    0.04    1.05    1.44    20.01935    59.53024   169.38257
   125  N   5.0   -0.14    3.50    2.08    13.21493    54.47029   171.78512
   126  C   4.0    0.04    4.50    4.54    14.02538    51.83631   171.96566
   127  C   4.0    0.15    3.56    3.14    13.29322    50.55691   169.57298
   128  O   6.0   -0.31    1.30    1.80    14.84164    49.13794   168.41174
   129  C   4.0    0.05    4.20    4.00    12.85844    50.43854   174.29235
   130  O   6.0   -0.25    2.08    1.84    13.92721    51.39711   176.62367
   131  C   4.0   -0.06    4.10    3.80    13.39822    47.62817   174.15676
   132  H   1.0    0.10    1.06    1.44    11.94610    55.17383   173.02191
   133  H   1.0    0.06    1.06    1.44    16.08494    51.78009   172.16788
   134  H   1.0    0.05    1.03    1.43    10.81383    50.79178   174.28023
   135  H   1.0    0.15    1.06    1.44    13.16260    53.04424   176.95164
   136  H   1.0    0.06    1.00    1.43    12.67842    46.74863   175.88582
   137  H   1.0    0.05    1.01    1.43    12.52290    46.80383   172.53247
   138  H   1.0    0.06    1.00    1.43    15.43171    47.32941   174.09256
   139  N   5.0   -0.15    3.53    2.10    10.96271    50.90697   168.80573
   140  C   4.0    0.03    4.41    4.39    10.00721    49.75789   166.47308
   141  C   4.0    0.16    3.48    3.11    11.85470    50.44307   164.32698
   142  O   6.0   -0.32    1.29    1.80    12.66260    48.91692   162.84083
   143  C   4.0   -0.04    4.26    4.12     7.37071    50.71246   165.87714
   144  C   4.0   -0.04    4.19    3.97     5.34248    49.38272   167.46060
   145  C   4.0    0.15    3.19    3.03     2.74077    50.73834   167.35802
   146  O   6.0   -0.30    1.19    1.80     2.42930    53.04401   166.75939
   147  N   5.0   -0.17    3.17    1.95     0.78249    49.34677   167.96530
   148  H   1.0    0.08    1.07    1.44     9.81354    52.16573   169.67617
   149  H   1.0    0.05    1.05    1.44    10.04586    47.70197   166.62546
   150  H   1.0    0.05    1.03    1.43     7.29122    52.75356   166.22292
   151  H   1.0    0.04    1.03    1.43     6.95272    50.40884   163.88312
   152  H   1.0    0.05    1.03    1.43     5.08410    47.45855   166.84274
   153  H   1.0    0.05    1.03    1.43     5.90127    49.39524   169.44289
   154  H   1.0    0.09    1.02    1.43     0.96684    47.45381   168.40944
   155  H   1.0    0.11    1.03    1.43    -0.96229    50.09109   167.97755
   156  N   5.0   -0.15    3.51    2.08    12.50401    53.00476   164.28789
   157  C   4.0    0.04    4.49    4.52    14.09049    53.82436   162.25859
   158  C   4.0    0.15    3.48    3.11    16.63510    52.49850   162.26639
   159  O   6.0   -0.31    1.24    1.80    17.55142    51.58684   160.23944
   160  C   4.0   -0.04    4.37    4.33    14.45037    56.64527   162.41816
   161  C   4.0   -0.01    3.59    3.16    15.63126    57.70270   160.03231
   162  C   4.0   -0.04    3.49    3.11    14.84493    57.00080   157.66205
   163  C   4.0   -0.04    3.49    3.11    17.53252    59.47263   160.27920
   164  C   4.0   -0.04    3.42    3.09    15.99859    57.99332   155.62254
   165  C   4.0   -0.04    3.40    3.08    18.62948    60.54791   158.03208
   166  C   4.0   -0.04    3.38    3.07    17.94143    59.77211   155.81012
   167  H   1.0    0.08    1.07    1.44    11.68503    54.19380   165.43910
   168  H   1.0    0.05    1.06    1.44    13.20047    53.27278   160.45392
   169  H   1.0    0.04    1.03    1.43    12.56293    57.48132   162.65314
   170  H   1.0    0.05    1.04    1.43    15.58538    57.12773   164.05190
   171  H   1.0    0.04    1.04    1.43    13.32080    55.66935   157.41745
   172  H   1.0    0.05    1.02    1.43    18.22488    60.07052   162.09705
   173  H   1.0    0.04    0.99    1.43    15.38600    57.39493   153.65846
   174  H   1.0    0.05    1.02    1.43    20.14019    61.93510   158.34572
   175  H   1.0    0.05    1.01    1.43    18.76281    60.58561   154.04827
   176  N   5.0   -0.14    3.52    2.09    17.77908    52.43342   164.54589
   177  C   4.0    0.03    4.40    4.38    20.21932    51.17376   164.98008
   178  C   4.0    0.16    3.49    3.11    19.99719    48.47760   163.83807
   179  O   6.0   -0.32    1.32    1.80    21.61559    47.66594   162.32151
   180  C   4.0   -0.04    4.35    4.28    20.88845    51.25196   167.62316
   181  C   4.0   -0.03    4.16    3.91    23.79396    51.12976   168.12288
   182  C   4.0   -0.07    4.07    3.74    24.30584    51.39795   171.01503
   183  C   4.0   -0.07    4.08    3.77    25.04311    48.66041   167.16376
   184  H   1.0    0.12    1.12    1.45    17.01001    53.28308   166.04617
   185  H   1.0    0.04    1.04    1.43    21.65672    52.16486   163.77103
   186  H   1.0    0.05    1.05    1.44    20.20650    52.97099   168.47383
   187  H   1.0    0.05    1.02    1.43    19.99846    49.65443   168.65549
   188  H   1.0    0.03    1.06    1.44    24.65158    52.71386   167.16659
   189  H   1.0    0.05    1.00    1.43    26.33188    51.38587   171.35345
   190  H   1.0    0.04    1.00    1.43    23.51512    53.14698   171.70120
   191  H   1.0    0.05    1.00    1.43    23.45519    49.83597   172.02932
   192  H   1.0    0.05    1.00    1.43    27.03942    48.75227   167.58070
   193  H   1.0    0.05    1.00    1.43    24.18173    47.05897   168.12257
   194  H   1.0    0.05    1.02    1.43    24.77025    48.49469   165.16111
   195  N   5.0   -0.14    3.49    2.07    18.00159    47.15170   164.54734
   196  C   4.0    0.05    4.44    4.44    17.56990    44.64965   163.60381
   197  C   4.0    0.18    3.51    3.12    17.70733    44.48148   160.70121
   198  O   6.0   -0.31    1.30    1.80    18.93941    42.89971   159.63674
   199  C   4.0    0.04    4.18    3.95    15.03681    43.63437   164.44933
   200  O   6.0   -0.23    2.07    1.83    14.69755    41.26599   163.24181
   201  H   1.0    0.12    1.11    1.45    16.75660    47.89793   165.79948
   202  H   1.0    0.06    1.05    1.44    19.08191    43.36703   164.28897
   203  H   1.0    0.05    1.01    1.43    15.01457    43.44448   166.51879
   204  H   1.0    0.06    1.02    1.43    13.54014    44.95164   163.87333
   205  H   1.0    0.12    1.01    1.43    13.13182    40.49543   163.87232
   206  N   5.0   -0.14    3.53    2.10    16.27444    46.21437   159.54487
   207  C   4.0    0.04    4.52    4.56    16.04789    46.14611   156.79027
   208  C   4.0    0.16    3.47    3.10    18.69233    46.63251   155.58631
   209  O   6.0   -0.32    1.27    1.80    19.32622    45.58218   153.64738
   210  C   4.0   -0.02    4.34    4.27    14.09447    47.95022   155.72245
   211  C   4.0   -0.04    4.23    4.05    11.58811    47.73134   157.05642
   212  C   4.0   -0.07    4.17    3.95    13.79840    47.43544   152.95132
   213  C   4.0   -0.08    4.02    3.66     9.64007    49.65157   156.15622
   214  H   1.0    0.11    1.09    1.44    15.29687    47.51011   160.50699
   215  H   1.0    0.05    1.06    1.44    15.54371    44.20579   156.24897
   216  H   1.0    0.05    1.04    1.43    14.85057    49.90755   156.02105
   217  H   1.0    0.05    1.03    1.43    10.82874    45.83742   156.75429
   218  H   1.0    0.07    1.05    1.44    11.81148    47.99462   159.09038
   219  H   1.0    0.04    0.99    1.43    12.83383    49.03016   151.98704
   220  H   1.0    0.06    1.01    1.43    15.62777    47.22013   152.00516
   221  H   1.0    0.05    1.01    1.43    12.70606    45.75806   152.62254
   222  H   1.0    0.04    1.00    1.43     7.94309    49.58886   157.29121
   223  H   1.0    0.04    0.99    1.43    10.41792    51.57505   156.27088
   224  H   1.0    0.04    1.00    1.43     9.10849    49.32043   154.19308
   225  N   5.0   -0.14    3.53    2.10    20.17826    48.26668   156.78081
   226  C   4.0    0.04    4.53    4.57    22.69104    48.74447   155.86824
   227  C   4.0    0.15    3.49    3.11    24.36595    46.39403   156.28758
   228  O   6.0   -0.31    1.27    1.80    25.57833    45.51723   154.46481
   229  C   4.0   -0.02    4.36    4.31    23.70261    51.12636   157.17756
   230  C   4.0   -0.05    4.21    4.01    22.55521    53.42958   155.78067
   231  C   4.0   -0.08    4.14    3.88    26.57012    51.26088   157.15599
   232  C   4.0   -0.08    4.03    3.68    22.44523    55.67942   157.51486
   233  H   1.0    0.11    1.10    1.44    19.52520    49.23092   158.30238
   234  H   1.0    0.05    1.06    1.44    22.62033    49.02165   153.80468
   235  H   1.0    0.06    1.07    1.44    23.04560    51.08248   159.12217
   236  H   1.0    0.03    1.04    1.43    23.60742    53.83779   154.11598
   237  H   1.0    0.05    1.03    1.43    20.58462    52.99360   155.29116
   238  H   1.0    0.03    1.00    1.43    27.20641    53.08677   157.81711
   239  H   1.0    0.04    1.01    1.43    27.36012    49.80587   158.33425
   240  H   1.0    0.04    1.00    1.43    27.26394    50.99194   155.22673
   241  H   1.0    0.04    1.02    1.43    21.74734    57.33932   156.55451
   242  H   1.0    0.05    1.00    1.43    21.27702    55.35286   159.15856
   243  H   1.0    0.03    0.98    1.43    24.38103    56.17050   158.21130
   244  N   5.0   -0.14    3.51    2.09    24.46921    45.42171   158.55165
   245  C   4.0    0.04    4.48    4.50    25.84926    43.13788   159.08917
   246  C   4.0    0.16    3.52    3.12    25.19287    41.01976   157.23623
   247  O   6.0   -0.30    1.29    1.80    26.81661    39.65851   156.34651
   248  C   4.0   -0.04    4.30    4.20    25.30226    42.23174   161.67466
   249  C   4.0   -0.04    4.20    4.00    27.05990    40.07193   162.44486
   250  C   4.0   -0.00    4.21    4.03    26.97770    39.34259   165.34799
   251  N   5.0   -0.13    3.47    2.06    27.83534    41.43562   166.81747
   252  C   4.0    0.10    3.37    3.07    28.22366    41.34630   169.25623
   253  N   5.0   -0.16    3.29    1.98    27.85292    39.34541   170.46499
   254  N   5.0   -0.18    3.25    1.97    28.89716    43.56266   170.37447
   255  H   1.0    0.12    1.12    1.45    23.25548    46.11011   159.91123
   256  H   1.0    0.05    1.07    1.44    27.85526    43.51191   158.84255
   257  H   1.0    0.04    1.02    1.43    25.50194    43.83463   163.02447
   258  H   1.0    0.06    1.02    1.43    23.31409    41.60211   161.85659
   259  H   1.0    0.06    1.03    1.43    26.58038    38.39266   161.37605
   260  H   1.0    0.05    1.03    1.43    28.99995    40.54580   162.02529
   261  H   1.0    0.05    1.01    1.43    24.99382    38.87980   165.81867
   262  H   1.0    0.07    1.06    1.44    28.17122    37.73860   165.55564
   263  H   1.0    0.07    1.07    1.44    28.21131    43.09547   165.85290
   264  H   1.0    0.10    1.04    1.43    27.72212    37.61363   169.67689
   265  H   1.0    0.09    1.01    1.43    28.31771    39.23378   172.42426
   266  H   1.0    0.09    1.03    1.43    28.74445    45.22521   169.50343
   267  H   1.0    0.08    1.02    1.43    28.79170    43.61718   172.33477
   268  N   5.0   -0.14    3.52    2.09    22.74597    40.79448   156.65436
   269  C   4.0    0.05    4.36    4.31    21.76425    38.92272   154.90990
   270  C   4.0    0.18    3.47    3.10    23.25048    38.88157   152.35509
   271  O   6.0   -0.25    1.21    1.80    23.72305    36.92752   151.23454
   272  C   4.0    0.04    4.17    3.94    19.00772    39.60050   154.32624
   273  O   6.0   -0.23    2.08    1.84    18.26542    38.52688   151.98660
   274  H   1.0    0.12    1.12    1.45    21.43730    41.80976   157.59629
   275  H   1.0    0.07    1.05    1.44    21.89746    37.01604   155.67019
   276  H   1.0    0.06    1.02    1.43    17.79318    38.98722   155.84803
   277  H   1.0    0.07    1.03    1.43    18.89883    41.66962   154.10376
   278  H   1.0    0.13    1.03    1.43    16.53244    38.83051   151.68123
   279  N   5.0   -0.14    3.55    2.12    23.78074    41.19692   151.44376
   280  C   4.0    0.04    4.42    4.42    24.99512    41.56480   149.07850
   281  C   4.0    0.15    3.41    3.08    27.83100    40.98946   149.21346
   282  O   6.0   -0.28    1.20    1.80    29.16988    41.05946   147.19274
   283  C   4.0   -0.04    4.32    4.24    24.63188    44.24707   148.13795
   284  C   4.0   -0.04    4.18    3.97    21.91220    44.81286   147.46938
   285  C   4.0   -0.01    4.18    3.97    21.72002    47.55119   146.66194
   286  N   5.0   -0.14    3.34    2.00    20.17632    47.95007   144.33505
   287  C   4.0    0.10    3.30    3.05    20.76745    47.73756   142.01829
   288  N   5.0   -0.19    3.19    1.95    23.42946    47.33478   141.20301
   289  N   5.0   -0.17    3.24    1.97    19.24483    48.06887   140.18123
   290  H   1.0    0.11    1.10    1.44    23.53414    42.69110   152.60531
   291  H   1.0    0.07    1.06    1.44    24.23407    40.19203   147.73471
   292  H   1.0    0.05    1.02    1.43    25.28869    45.51444   149.66273
   293  H   1.0    0.05    1.03    1.43    25.91513    44.49944   146.52800
   294  H   1.0    0.05    1.03    1.43    21.35601    43.58401   145.91316
   295  H   1.0    0.06    1.04    1.43    20.72646    44.47267   149.07321
   296  H   1.0    0.04    1.03    1.43    20.90374    48.72802   148.12343
   297  H   1.0    0.04    1.02    1.43    23.61596    48.34992   146.21462
   298  H   1.0    0.08    1.07    1.44    18.25236    48.02397   144.71120
   299  H   1.0    0.09    1.03    1.43    24.70000    47.06618   142.53025
   300  H   1.0    0.11    1.05    1.44    23.69646    46.96275   139.52198
   301  H   1.0    0.09    1.01    1.43    17.29454    48.19997   140.61037
   302  H   1.0    0.10    1.03    1.43    19.59697    47.65158   138.35915
   303  N   5.0   -0.12    3.50    2.08    28.86836    40.50393   151.47806
   304  C   4.0    0.03    4.40    4.38    31.47576    39.71187   151.82594
   305  C   4.0    0.16    3.37    3.07    31.62202    36.80307   152.31257
   306  O   6.0   -0.27    1.24    1.80    29.86915    35.47090   152.74648
   307  C   4.0   -0.04    4.34    4.28    32.64832    41.20122   153.90385
   308  C   4.0   -0.04    4.06    3.73    32.56922    44.02306   153.41256
   309  S   6.0   -0.05    2.46    3.10    34.39698    45.79059   155.87111
   310  C   4.0   -0.07    3.89    3.44    32.27514    48.27144   156.67606
   311  H   1.0    0.13    1.13    1.45    27.72901    40.15452   152.95316
   312  H   1.0    0.06    1.06    1.44    32.42755    40.10107   150.00213
   313  H   1.0    0.06    1.02    1.43    31.59696    40.80169   155.67638
   314  H   1.0    0.04    1.04    1.43    34.60781    40.61598   154.21321
   315  H   1.0    0.04    1.06    1.44    33.41637    44.46587   151.60064
   316  H   1.0    0.06    1.07    1.44    30.64946    44.73908   153.50269
   317  H   1.0    0.04    1.06    1.44    32.96267    49.10830   158.40580
   318  H   1.0    0.04    1.04    1.43    32.30111    49.68835   155.16842
   319  H   1.0    0.04    1.05    1.44    30.40480    47.49272   156.90727
   320  N   5.0   -0.15    3.46    2.05    33.99605    35.85824   152.07936
   321  C   4.0    0.03    4.51    4.55    34.36255    33.25964   151.30305
   322  C   4.0    0.15    3.43    3.09    34.96045    31.59730   153.53653
   323  O   6.0   -0.33    1.32    1.80    37.05428    31.61638   154.54653
   324  C   4.0   -0.02    4.26    4.12    36.39146    33.12312   149.20480
   325  C   4.0   -0.06    4.12    3.83    39.00278    33.99408   150.05245
   326  C   4.0   -0.07    4.11    3.83    36.51843    30.43396   148.15258
   327  H   1.0    0.07    1.07    1.44    35.42321    37.06161   151.65774
   328  H   1.0    0.06    1.07    1.44    32.56083    32.61927   150.49370
   329  H   1.0    0.05    1.05    1.44    35.73606    34.39081   147.69743
   330  H   1.0    0.05    1.00    1.43    40.25385    34.08785   148.42821
   331  H   1.0    0.04    1.00    1.43    38.96110    35.84341   150.94127
   332  H   1.0    0.06    1.00    1.43    39.79137    32.65434   151.41710
   333  H   1.0    0.05    1.00    1.43    37.85704    30.37645   146.58159
   334  H   1.0    0.05    1.00    1.43    37.17350    29.13809   149.59418
   335  H   1.0    0.05    1.00    1.43    34.69407    29.82361   147.46144
   336  N   5.0   -0.15    3.42    2.03    33.05010    30.13012   154.32099
   337  C   4.0    0.03    4.30    4.21    33.21717    28.18203   156.31823
   338  C   4.0    0.15    3.37    3.07    33.82238    29.32566   158.96854
   339  O   6.0   -0.29    1.25    1.80    34.85249    28.05066   160.62808
   340  C   4.0   -0.04    4.32    4.24    35.15518    26.04377   155.73900
   341  C   4.0   -0.02    4.14    3.89    34.21956    23.82682   154.11280
   342  C   4.0   -0.07    4.08    3.77    34.04976    24.52237   151.28799
   343  C   4.0   -0.06    4.11    3.81    36.00972    21.58673   154.46424
   344  H   1.0    0.09    1.07    1.44    31.36255    30.29626   153.48775
   345  H   1.0    0.05    1.05    1.44    31.34530    27.32255   156.48838
   346  H   1.0    0.06    1.03    1.43    36.78930    26.92073   154.82665
   347  H   1.0    0.06    1.06    1.44    35.70803    25.32255   157.57137
   348  H   1.0    0.05    1.05    1.44    32.32813    23.30237   154.77760
   349  H   1.0    0.05    1.01    1.43    33.30142    22.94486   150.24860
   350  H   1.0    0.05    1.00    1.43    32.80918    26.14832   151.01724
   351  H   1.0    0.05    1.00    1.43    35.91099    24.98149   150.58562
   352  H   1.0    0.06    1.00    1.43    35.37019    20.01784   153.30884
   353  H   1.0    0.05    1.00    1.43    37.90548    22.09860   153.85965
   354  H   1.0    0.06    1.00    1.43    36.06017    20.99773   156.41526
   355  N   5.0   -0.14    3.45    2.05    33.08951    31.73125   159.35165
   356  C   4.0    0.04    4.39    4.36    33.94958    33.13909   161.52103
   357  C   4.0    0.16    3.39    3.08    31.85572    33.58775   163.51451
   358  O   6.0   -0.31    1.27    1.80    30.98900    35.71154   163.93264
   359  C   4.0   -0.03    4.27    4.14    35.06204    35.71460   160.67498
   360  C   4.0   -0.04    4.16    3.93    37.17340    35.54135   158.76939
   361  C   4.0   -0.01    4.17    3.95    39.78731    34.81348   159.81883
   362  N   5.0   -0.13    3.39    2.02    39.84826    32.48676   161.36843
   363  C   4.0    0.12    3.34    3.06    40.15973    30.21923   160.66655
   364  N   5.0   -0.17    3.23    1.96    40.31369    29.45763   158.20194
   365  N   5.0   -0.16    3.23    1.96    40.53302    28.31048   162.50031
   366  H   1.0    0.09    1.07    1.44    32.15781    32.68368   157.98779
   367  H   1.0    0.08    1.08    1.44    35.35924    31.97204   162.48081
   368  H   1.0    0.05    1.03    1.43    33.50420    36.79662   159.89971
   369  H   1.0    0.05    1.02    1.43    35.68859    36.67255   162.40665
   370  H   1.0    0.07    1.06    1.44    36.64835    34.18701   157.30134
   371  H   1.0    0.04    1.04    1.43    37.41616    37.36358   157.90901
   372  H   1.0    0.05    1.02    1.43    41.07939    34.51765   158.23297
   373  H   1.0    0.04    1.04    1.43    40.50687    36.28372   161.01383
   374  H   1.0    0.09    1.13    1.45    39.78813    32.78112   163.26967
   375  H   1.0    0.12    1.07    1.44    39.47377    30.57445   156.90966
   376  H   1.0    0.09    1.03    1.43    40.50698    27.63115   157.79711
   377  H   1.0    0.14    1.10    1.44    40.58034    28.94301   164.31585
   378  H   1.0    0.11    1.04    1.43    40.61125    26.57822   162.03100
   379  N   5.0   -0.13    3.42    2.03    31.04445    31.50689   164.80678
   380  C   4.0    0.04    4.26    4.11    29.20252    31.80499   166.75699
   381  C   4.0    0.09    3.19    3.03    30.22912    31.70591   169.47292
   382  O   6.0   -0.27    1.12    1.80    29.08209    32.72524   171.20249
   383  C   4.0   -0.06    4.10    3.80    27.07994    29.85173   166.44648
   384  H   1.0    0.10    1.07    1.44    31.90521    29.87368   164.50537
   385  H   1.0    0.06    1.07    1.44    28.39891    33.71326   166.54351
   386  H   1.0    0.06    0.99    1.43    25.68742    30.17001   167.97525
   387  H   1.0    0.05    1.01    1.43    26.15095    30.13101   164.66286
   388  H   1.0    0.06    1.01    1.43    27.81066    27.97460   166.61983
   389  N   5.0   -0.18    3.24    1.96    35.49473    33.91863   171.81541
   390  C   4.0    0.03    4.28    4.17    37.33114    35.94773   172.12881
   391  C   4.0    0.15    3.42    3.08    35.85823    38.40925   171.49366
   392  O   6.0   -0.29    1.23    1.80    34.60168    38.66034   169.51383
   393  C   4.0   -0.04    4.21    4.02    39.66643    35.67312   170.40140
   394  C   4.0   -0.03    4.16    3.91    38.95952    35.21022   167.60755
   395  C   4.0    0.23    3.14    3.03    38.44083    32.35735   167.01628
   396  O   6.0   -0.30    1.27    1.80    40.33171    30.94747   166.82232
   397  O   6.0   -0.29    1.18    1.80    36.15983    31.64799   166.62466
   398  H   1.0    0.11    1.03    1.43    34.38655    34.12625   170.23415
   399  H   1.0    0.05    1.06    1.44    37.93535    35.90739   174.08515
   400  H   1.0    0.05    1.03    1.43    40.75329    37.39329   170.53765
   401  H   1.0    0.06    1.03    1.43    40.78463    34.08001   171.06333
   402  H   1.0    0.07    1.03    1.43    37.30039    36.31939   167.08809
   403  H   1.0    0.05    1.03    1.43    40.55109    35.77095   166.42639
   404  N   5.0   -0.13    3.43    2.04    35.88841    40.13903   173.34472
   405  C   4.0    0.04    4.37    4.34    34.60157    42.51641   173.04890
   406  C   4.0    0.15    3.44    3.09    36.30758    44.58696   172.00678
   407  O   6.0   -0.28    1.21    1.80    38.62415    44.60843   172.14764
   408  C   4.0   -0.06    4.12    3.84    33.54790    43.46748   175.54739
   409  H   1.0    0.09    1.05    1.44    37.18364    39.97375   174.77629
   410  H   1.0    0.06    1.09    1.44    33.11487    42.13559   171.68735
   411  H   1.0    0.05    1.01    1.43    32.45264    45.13752   175.33808
   412  H   1.0    0.05    0.98    1.43    32.34704    41.96197   176.42915
   413  H   1.0    0.06    1.00    1.43    35.08247    43.80899   176.88434
   414  N   5.0   -0.14    3.61    2.16    34.95162    46.45568   170.92544
   415  C   4.0    0.04    4.38    4.35    36.01219    48.82355   170.48072
   416  C   4.0    0.08    3.28    3.05    34.05920    50.78266   171.27822
   417  O   6.0   -0.30    1.19    1.80    31.85654    50.13608   171.39315
   418  C   4.0   -0.03    4.32    4.24    36.63297    49.07682   167.66567
   419  C   4.0   -0.01    3.58    3.15    34.29179    48.87129   165.99821
   420  C   4.0   -0.04    3.46    3.10    33.42628    46.53801   165.23171
   421  C   4.0   -0.04    3.47    3.10    32.97871    51.03747   165.23599
   422  C   4.0   -0.04    3.39    3.08    31.30619    46.36093   163.70197
   423  C   4.0   -0.05    3.39    3.07    30.82102    50.81793   163.75700
   424  C   4.0   -0.05    3.39    3.08    30.01674    48.52598   162.98901
   425  H   1.0    0.10    1.11    1.45    33.06430    46.43794   171.05114
   426  H   1.0    0.06    1.06    1.44    37.76284    49.13930   171.52645
   427  H   1.0    0.04    1.01    1.43    37.55097    50.93240   167.28925
   428  H   1.0    0.05    1.03    1.43    37.94909    47.58894   167.15785
   429  H   1.0    0.06    1.02    1.43    34.47621    44.84358   165.76910
   430  H   1.0    0.04    1.03    1.43    33.66345    52.84482   165.90252
   431  H   1.0    0.05    1.03    1.43    30.73530    44.51053   163.03716
   432  H   1.0    0.04    1.04    1.43    29.86418    52.52441   163.21494
   433  H   1.0    0.05    1.04    1.43    28.34992    48.33515   161.83968
   434  N   5.0   -0.19    3.27    1.97    30.39355    57.82629   170.07042
   435  C   4.0    0.03    4.27    4.13    29.44584    59.56038   168.11957
   436  C   4.0    0.09    3.23    3.04    29.25538    62.10690   169.48789
   437  O   6.0   -0.29    1.16    1.80    27.91792    62.30189   171.27787
   438  C   4.0   -0.05    4.38    4.34    26.98148    58.55466   167.20969
   439  C   4.0   -0.03    4.17    3.95    25.91993    59.96811   164.94837
   440  C   4.0   -0.08    4.09    3.78    27.80847    60.14295   162.66843
   441  C   4.0   -0.08    4.11    3.81    23.54633    58.62395   163.98003
   442  H   1.0    0.10    1.03    1.43    29.29929    57.63823   171.58631
   443  H   1.0    0.03    1.04    1.43    30.92726    59.66026   166.65293
   444  H   1.0    0.03    1.04    1.43    27.27300    56.59042   166.64586
   445  H   1.0    0.05    1.05    1.44    25.63202    58.65909   168.72615
   446  H   1.0    0.04    1.05    1.44    25.40665    61.90196   165.47298
   447  H   1.0    0.04    1.00    1.43    26.82720    60.95250   161.04804
   448  H   1.0    0.04    1.00    1.43    29.39438    61.31503   163.14201
   449  H   1.0    0.03    1.00    1.43    28.42718    58.26395   162.17433
   450  H   1.0    0.04    1.00    1.43    22.63911    59.70088   162.47279
   451  H   1.0    0.03    1.00    1.43    24.01686    56.77087   163.23873
   452  H   1.0    0.04    1.00    1.43    22.17422    58.38996   165.50104
   453  N   5.0   -0.20    3.18    1.95    16.02334    60.50717   180.79786
   454  C   4.0    0.03    4.25    4.09    15.51502    58.41688   179.11636
   455  C   4.0    0.09    3.18    3.03    12.69844    57.77357   179.06771
   456  O   6.0   -0.30    1.17    1.80    11.89909    56.16598   177.57443
   457  C   4.0   -0.04    4.28    4.16    17.24410    56.10228   179.52327
   458  C   4.0   -0.04    4.03    3.67    20.02345    56.73595   179.04723
   459  S   6.0   -0.05    2.55    3.10    20.66994    57.67907   175.78282
   460  C   4.0   -0.06    3.88    3.43    24.07405    58.01171   175.61438
   461  H   1.0    0.09    1.01    1.43    16.87375    60.06331   182.50671
   462  H   1.0    0.04    1.07    1.44    15.94168    59.13766   177.18947
   463  H   1.0    0.05    1.02    1.43    17.06639    55.53138   181.51378
   464  H   1.0    0.06    1.05    1.44    16.66869    54.60743   178.31552
   465  H   1.0    0.05    1.06    1.44    20.69153    58.34582   180.19818
   466  H   1.0    0.05    1.08    1.44    21.19739    55.11015   179.40753
   467  H   1.0    0.05    1.06    1.44    24.45981    58.96278   173.88015
   468  H   1.0    0.06    1.06    1.44    24.62155    59.06940   177.23389
   469  H   1.0    0.05    1.04    1.43    24.84294    56.09258   175.62185
   470  N   5.0   -0.19    3.28    1.98    36.04014    61.25519   161.26314
   471  C   4.0    0.04    4.27    4.13    36.11842    58.99561   162.69970
   472  C   4.0    0.09    3.23    3.04    38.82035    58.14775   163.13897
   473  O   6.0   -0.26    1.15    1.80    40.38710    58.37910   161.53516
   474  C   4.0   -0.04    4.37    4.33    34.44893    56.99280   161.58373
   475  C   4.0   -0.01    3.62    3.18    35.34141    56.01379   159.16639
   476  C   4.0   -0.04    3.52    3.13    34.90270    57.38630   157.03586
   477  C   4.0   -0.04    3.48    3.11    36.62615    53.67998   158.94973
   478  C   4.0   -0.04    3.44    3.09    35.64412    56.53235   154.71354
   479  C   4.0   -0.03    3.44    3.09    37.37578    52.81205   156.63305
   480  C   4.0    0.07    3.48    3.10    36.83846    54.22375   154.51142
   481  O   6.0   -0.22    2.09    1.84    37.41725    53.17817   152.17164
   482  H   1.0    0.11    1.04    1.43    37.09444    61.48448   159.76010
   483  H   1.0    0.04    1.03    1.43    35.32585    59.45513   164.64455
   484  H   1.0    0.03    1.00    1.43    34.34889    55.38691   163.01899
   485  H   1.0    0.03    1.04    1.44    32.55585    57.73435   161.43803
   486  H   1.0    0.04    1.03    1.43    33.90455    59.18612   157.16986
   487  H   1.0    0.05    1.03    1.43    36.98376    52.59308   160.63848
   488  H   1.0    0.05    1.01    1.43    35.17786    57.61939   152.99446
   489  H   1.0    0.07    1.03    1.43    38.33448    51.02576   156.39695
   490  H   1.0    0.11    1.02    1.43    36.57844    54.26262   150.88342
   491  N   5.0   -0.18    3.31    1.99     6.59067    54.78736   143.95313
   492  C   4.0    0.03    4.48    4.51     6.94308    53.57799   146.42760
   493  C   4.0    0.15    3.47    3.10     5.17934    51.28441   146.79923
   494  O   6.0   -0.26    1.24    1.80     3.96049    50.29682   145.02305
   495  C   4.0   -0.02    4.48    4.51     6.35526    55.65082   148.17719
   496  C   4.0   -0.05    4.18    3.96     7.67044    55.48903   150.71741
   497  C   4.0   -0.06    4.19    3.97     3.48908    56.02889   148.24800
   498  C   4.0   -0.08    4.04    3.69    10.48312    54.99699   150.36980
   499  H   1.0    0.09    1.06    1.44     5.30306    56.09698   143.86357
   500  H   1.0    0.04    1.05    1.44     8.88746    52.84730   146.43134
   501  H   1.0    0.04    1.09    1.44     7.21109    57.34539   147.32032
   502  H   1.0    0.04    1.02    1.43     7.43568    57.34998   151.66580
   503  H   1.0    0.05    1.02    1.43     6.80935    54.13592   152.03950
   504  H   1.0    0.07    1.02    1.43     2.67833    55.37978   150.01191
   505  H   1.0    0.05    0.99    1.43     3.09789    58.08148   148.06584
   506  H   1.0    0.06    1.02    1.43     2.54481    55.09770   146.71501
   507  H   1.0    0.03    0.96    1.43    11.44516    55.31829   152.27927
   508  H   1.0    0.04    1.01    1.43    10.86545    53.06605   149.91610
   509  H   1.0    0.04    1.02    1.43    11.29584    56.28744   149.09149
   510  N   5.0   -0.14    3.43    2.03     5.06656    50.38225   149.07218
   511  C   4.0    0.02    4.17    3.94     2.88970    48.85800   149.85077
   512  C   4.0    0.09    3.12    3.03     1.33566    50.38215   151.75558
   513  O   6.0   -0.30    1.17    1.80     2.03825    52.41346   152.52676
   514  H   1.0    0.08    1.11    1.45     5.84092    51.36070   150.49094
   515  H   1.0    0.07    1.04    1.43     1.78488    48.39072   148.19325
   516  H   1.0    0.05    1.01    1.43     3.53725    47.07666   150.75843
   517  H   1.0    0.09    1.07    1.44    25.41972    65.86080   151.36760
   518  H   1.0    0.06    1.04    1.43    32.69978    64.37735   152.24622
   519  H   1.0    0.10    1.07    1.44    47.67656    44.49525   160.45306
   520  H   1.0    0.06    1.05    1.44    42.13714    48.86575   148.97768
   521  H   1.0    0.10    1.07    1.44    36.58255    51.57343   147.93413
   522  H   1.0    0.06    1.05    1.44    32.42235    50.85970   141.51184
   523  H   1.0    0.10    1.10    1.44    19.24061    63.26706   144.33080
   524  H   1.0    0.06    1.04    1.43    11.65101    63.93660   145.05368
   525  H   1.0    0.10    1.07    1.44    -0.37554    61.33175   162.80027
   526  H   1.0    0.06    1.04    1.43     4.59600    58.24939   167.63785
   527  H   1.0    0.10    1.07    1.44     9.99995    59.29336   168.96740
   528  H   1.0    0.07    1.04    1.44    31.84811    30.80252   169.83869
   529  H   1.0    0.11    1.07    1.44    36.30922    32.43181   171.67918
   530  H   1.0    0.05    1.04    1.43    34.60253    52.54508   171.69018
   531  H   1.0    0.09    1.07    1.44    30.56818    56.26899   169.40943
   532  H   1.0    0.06    1.05    1.44    30.25367    63.58805   168.87090
   533  H   1.0    0.10    1.07    1.44    17.06559    61.61149   180.03186
   534  H   1.0    0.07    1.04    1.43    11.50794    58.65307   180.24256
   535  H   1.0    0.09    1.09    1.44    34.46465    61.49631   160.66964
   536  H   1.0    0.05    1.05    1.44    39.31260    57.38047   164.79428
   537  H   1.0    0.09    1.07    1.44     8.04420    55.52688   143.47050
   538  H   1.0    0.06    1.05    1.44    -0.30751    49.70164   152.39430

  Z AO/shell   Hii/eV     exponent
  1     Wed Apr 25 08:07:45 CEST 2018   EN: 2.200 GM2: 0.406  GM3: 0.0800  RAES: 1.40
     1s    -10.707211    1.230000
  6     Wed Apr 25 08:07:45 CEST 2018   EN: 2.550 GM2: 0.538  GM3: 0.1500  RAES: 3.00
     2s    -13.970922    2.096432
     2p    -10.063292    1.800000
  7     Wed Apr 25 08:07:45 CEST 2018   EN: 3.040 GM2: 0.461  GM3:-0.0640  RAES: 1.90
     2s    -16.686243    2.339881
     2p    -12.523956    2.014332
  8     Wed Apr 25 08:07:45 CEST 2018   EN: 3.440 GM2: 0.452  GM3:-0.0517  RAES: 1.80
     2s    -20.229985    2.439742
     2p    -15.503117    2.137023
 16     Tue Apr 24 11:44:34 CEST 2018   EN: 2.580 GM2: 0.340  GM3:-0.0502  RAES: 3.10
     3s    -20.029654    1.981333
     3p    -11.377694    2.025643
     3d     -0.420282    1.702555
 no old-style atom pair restraining (fixing) potential

molecular fragmentation (1/2 indicates fragments):
111111111111111122222222222222222222222222222222222222222222222222222222
222222222222222222222222222222222222222222222222222222222222222222222222
222222222222222222222222222222222222222222222222222222222222222222222222
222222222222222222222222222222222222222222222222222222222222222222222222
222222222222222222222222222222222222222222222222222222222222222222222222
222222222222222222222222222222222222222222222222222222222222222222222222
222222222222222222222222222222222222222222222222222222222222222222222222
2222222222221122222222222222222222
# atoms in fragment 1/2:    18   520
 fragment masses (1/2) :      101.15     3435.41
CMA distance (Bohr)    :  17.431
constraining FC (au)   :  0.0500
           ------------------------------------------------- 
          |        Self-Consistent Charge Iterations        |
           ------------------------------------------------- 

 Ncao       : 1294
 Nao        : 1291
 Nshell     : 787
 Nel        : 1394
 T(el)      :   500.0
 intcut     :    35.0
 scfconv/Eh :  0.100E-06
   qconv/e  :  0.100E-04
 intneglect :  0.100E-08
 broydamp   :      0.400
 iter      E             dE          RMSdq      gap      omega  full diag
   1   -789.1506833 -0.789151E+03  0.447E+00    2.64       0.0  T
   2   -790.8515807 -0.170090E+01  0.213E+00    1.34       1.0  T
   3   -790.9466644 -0.950837E-01  0.119E+00    1.64       1.0  T
   4   -791.0791731 -0.132509E+00  0.248E-01    1.08       1.0  T
   5   -791.0860416 -0.686855E-02  0.119E-01    1.13       1.0  T
   6   -791.0875171 -0.147554E-02  0.502E-02    1.09       1.0  T
   7   -791.0878458 -0.328698E-03  0.221E-02    1.06       1.0  T
   8   -791.0878880 -0.421812E-04  0.109E-02    1.05       1.0  T
   9   -791.0879032 -0.151446E-04  0.524E-03    1.04       1.0  T
  10   -791.0879065 -0.332883E-05  0.266E-03    1.04       1.6  T
  11   -791.0879073 -0.847431E-06  0.128E-03    1.03       3.4  T
  12   -791.0879075 -0.180718E-06  0.620E-04    1.03       7.0  T
  13   -791.0879076 -0.515427E-07  0.285E-04    1.03      15.2  T
  14   -791.0879076 -0.692239E-08  0.132E-04    1.03      32.7  T
  15   -791.0879076 -0.219200E-08  0.502E-05    1.03      85.9  T
  16   -791.0879076 -0.284444E-09  0.232E-05    1.03     186.2  T
speedup  1.97
cpu  time for SCC   40.05 s
wall time for SCC   20.29 s

   *** convergence criteria satisfied after 16 iterations ***

          eigenvalues
 #    :         685        686        687        688        689        690        691        692
 occ. :        2.000      2.000      2.000      2.000      2.000      2.000      2.000      2.000
 eps  :       -10.120    -10.066    -10.063    -10.058     -9.993     -9.988     -9.933     -9.930
 #    :         693        694        695        696        697        698        699        700
 occ. :        2.000      2.000      2.000      2.000      2.000      0.000      0.000      0.000
 eps  :        -9.920     -9.778     -9.684     -9.502     -9.357     -8.327     -8.101     -8.073
 #    :         701        702        703        704        705        706        707        708
 occ. :        0.000      0.000      0.000      0.000      0.000      0.000      0.000      0.000
 eps  :        -7.911     -7.841     -7.826     -7.810     -7.525     -7.453     -7.435     -7.254


   #   Z            q   n(s)   n(p)   n(d)      C6AA      α(0)
   1   7 N     -0.393  1.325  4.067  0.000    30.168     8.157
   2   6 C      0.033  1.071  2.897  0.000    20.041     6.376
   3   6 C      0.197  1.102  2.701  0.000    23.798     7.989
   4   8 O     -0.392  1.779  4.613  0.000    21.516     6.219
   5   6 C     -0.009  1.049  2.960  0.000    20.697     6.470
   6   6 C     -0.105  1.040  3.065  0.000    22.570     6.775
   7   6 C     -0.112  1.037  3.075  0.000    22.692     6.791
   8   1 H      0.157  0.843  0.000  0.000     1.354     1.823
   9   1 H      0.057  0.943  0.000  0.000     2.239     2.340
  10   1 H      0.049  0.951  0.000  0.000     2.330     2.387
  11   1 H      0.066  0.934  0.000  0.000     2.132     2.283
  12   1 H      0.031  0.969  0.000  0.000     2.575     2.509
  13   1 H      0.021  0.979  0.000  0.000     2.721     2.580
  14   1 H      0.070  0.930  0.000  0.000     2.089     2.260
  15   1 H      0.039  0.961  0.000  0.000     2.462     2.454
  16   1 H      0.033  0.967  0.000  0.000     2.539     2.492
  17   7 N     -0.398  1.306  4.092  0.000    30.315     8.177
  18   6 C      0.035  1.058  2.907  0.000    19.999     6.368
  19   6 C      0.266  1.044  2.689  0.000    22.505     7.769
  20   8 O     -0.549  1.770  4.779  0.000    24.895     6.690
  21   6 C     -0.059  1.058  3.001  0.000    21.622     6.618
  22   6 C     -0.008  1.052  2.956  0.000    20.689     6.469
  23   6 C     -0.111  1.040  3.071  0.000    22.685     6.791
  24   6 C     -0.116  1.043  3.073  0.000    22.771     6.804
  25   1 H      0.153  0.847  0.000  0.000     1.380     1.840
  26   1 H      0.043  0.957  0.000  0.000     2.413     2.429
  27   1 H      0.026  0.974  0.000  0.000     2.650     2.546
  28   1 H      0.039  0.961  0.000  0.000     2.460     2.453
  29   1 H      0.026  0.974  0.000  0.000     2.642     2.542
  30   1 H      0.050  0.950  0.000  0.000     2.325     2.385
  31   1 H      0.025  0.975  0.000  0.000     2.656     2.549
  32   1 H      0.037  0.963  0.000  0.000     2.493     2.469
  33   1 H      0.036  0.964  0.000  0.000     2.498     2.472
  34   1 H      0.051  0.949  0.000  0.000     2.311     2.377
  35   1 H      0.043  0.957  0.000  0.000     2.403     2.424
  36   7 N     -0.080  1.237  3.843  0.000    22.789     7.090
  37   6 C      0.011  1.087  2.902  0.000    20.402     6.431
  38   6 C      0.211  1.075  2.714  0.000    23.527     7.943
  39   8 O     -0.346  1.743  4.604  0.000    20.636     6.091
  40   6 C     -0.080  1.058  3.022  0.000    22.032     6.684
  41   6 C     -0.078  1.068  3.010  0.000    21.986     6.676
  42   6 C     -0.029  1.059  2.970  0.000    21.198     6.573
  43   1 H      0.088  0.912  0.000  0.000     1.900     2.156
  44   1 H      0.089  0.911  0.000  0.000     1.884     2.146
  45   1 H      0.077  0.923  0.000  0.000     2.016     2.220
  46   1 H      0.069  0.931  0.000  0.000     2.092     2.262
  47   1 H      0.072  0.928  0.000  0.000     2.063     2.246
  48   1 H      0.084  0.916  0.000  0.000     1.942     2.179
  49   1 H      0.075  0.925  0.000  0.000     2.027     2.227
  50   7 N     -0.392  1.316  4.075  0.000    30.142     8.154
  51   6 C      0.034  1.061  2.905  0.000    20.024     6.375
  52   6 C      0.198  1.086  2.715  0.000    23.776     7.986
  53   8 O     -0.387  1.763  4.624  0.000    21.418     6.205
  54   6 C     -0.069  1.059  3.010  0.000    21.809     6.647
  55   6 C     -0.012  1.055  2.957  0.000    20.749     6.479
  56   6 C     -0.113  1.043  3.071  0.000    22.719     6.795
  57   6 C     -0.114  1.040  3.074  0.000    22.737     6.799
  58   1 H      0.154  0.846  0.000  0.000     1.377     1.838
  59   1 H      0.068  0.932  0.000  0.000     2.109     2.271
  60   1 H      0.039  0.961  0.000  0.000     2.462     2.454
  61   1 H      0.052  0.948  0.000  0.000     2.298     2.371
  62   1 H      0.034  0.966  0.000  0.000     2.530     2.487
  63   1 H      0.044  0.956  0.000  0.000     2.396     2.421
  64   1 H      0.029  0.971  0.000  0.000     2.600     2.522
  65   1 H      0.052  0.948  0.000  0.000     2.292     2.368
  66   1 H      0.043  0.957  0.000  0.000     2.407     2.426
  67   1 H      0.048  0.952  0.000  0.000     2.346     2.395
  68   1 H      0.037  0.963  0.000  0.000     2.484     2.465
  69   7 N     -0.377  1.314  4.063  0.000    29.750     8.101
  70   6 C      0.040  1.063  2.897  0.000    19.924     6.360
  71   6 C      0.192  1.096  2.712  0.000    23.904     8.007
  72   8 O     -0.394  1.774  4.620  0.000    21.559     6.225
  73   6 C     -0.071  1.056  3.015  0.000    21.849     6.653
  74   6 C      0.011  1.082  2.907  0.000    27.774     8.645
  75   6 C     -0.044  1.082  2.962  0.000    29.097     8.846
  76   6 C     -0.044  1.080  2.965  0.000    29.103     8.846
  77   6 C     -0.034  1.081  2.952  0.000    28.841     8.806
  78   6 C     -0.035  1.085  2.951  0.000    28.879     8.813
  79   6 C     -0.036  1.082  2.954  0.000    28.891     8.814
  80   1 H      0.162  0.838  0.000  0.000     1.325     1.803
  81   1 H      0.063  0.937  0.000  0.000     2.160     2.298
  82   1 H      0.051  0.949  0.000  0.000     2.313     2.378
  83   1 H      0.046  0.954  0.000  0.000     2.368     2.407
  84   1 H      0.024  0.976  0.000  0.000     2.669     2.555
  85   1 H      0.053  0.947  0.000  0.000     2.278     2.360
  86   1 H      0.031  0.969  0.000  0.000     2.574     2.509
  87   1 H      0.056  0.944  0.000  0.000     2.252     2.347
  88   1 H      0.044  0.956  0.000  0.000     2.401     2.423
  89   7 N     -0.401  1.314  4.087  0.000    30.407     8.190
  90   6 C      0.032  1.063  2.905  0.000    20.058     6.380
  91   6 C      0.204  1.091  2.705  0.000    23.659     7.966
  92   8 O     -0.380  1.758  4.622  0.000    21.290     6.186
  93   6 C     -0.067  1.059  3.008  0.000    21.775     6.642
  94   6 C     -0.013  1.061  2.952  0.000    20.773     6.483
  95   6 C     -0.118  1.041  3.077  0.000    22.818     6.811
  96   6 C     -0.117  1.042  3.075  0.000    22.792     6.807
  97   1 H      0.165  0.835  0.000  0.000     1.305     1.789
  98   1 H      0.073  0.927  0.000  0.000     2.054     2.241
  99   1 H      0.050  0.950  0.000  0.000     2.323     2.383
 100   1 H      0.037  0.963  0.000  0.000     2.489     2.467
 101   1 H      0.027  0.973  0.000  0.000     2.632     2.537
 102   1 H      0.042  0.958  0.000  0.000     2.426     2.436
 103   1 H      0.048  0.952  0.000  0.000     2.350     2.397
 104   1 H      0.038  0.962  0.000  0.000     2.476     2.461
 105   1 H      0.039  0.961  0.000  0.000     2.460     2.453
 106   1 H      0.055  0.945  0.000  0.000     2.259     2.350
 107   1 H      0.036  0.964  0.000  0.000     2.507     2.476
 108   7 N     -0.386  1.309  4.077  0.000    29.975     8.131
 109   6 C      0.031  1.048  2.921  0.000    20.068     6.379
 110   6 C      0.265  1.050  2.685  0.000    22.530     7.774
 111   8 O     -0.468  1.722  4.747  0.000    23.097     6.444
 112   6 C     -0.051  1.048  3.003  0.000    21.424     6.579
 113   6 C      0.018  1.042  2.940  0.000    20.277     6.412
 114  16 S     -0.227  1.886  4.275  0.066   150.753    20.665
 115   6 C     -0.046  1.044  3.002  0.000    21.473     6.610
 116   1 H      0.156  0.844  0.000  0.000     1.361     1.828
 117   1 H      0.054  0.946  0.000  0.000     2.264     2.353
 118   1 H      0.022  0.978  0.000  0.000     2.700     2.570
 119   1 H      0.061  0.939  0.000  0.000     2.188     2.313
 120   1 H      0.049  0.951  0.000  0.000     2.333     2.389
 121   1 H      0.019  0.981  0.000  0.000     2.746     2.592
 122   1 H      0.067  0.933  0.000  0.000     2.124     2.279
 123   1 H      0.048  0.952  0.000  0.000     2.344     2.394
 124   1 H      0.064  0.936  0.000  0.000     2.147     2.291
 125   7 N     -0.182  1.244  3.938  0.000    24.935     7.416
 126   6 C      0.006  1.067  2.927  0.000    20.464     6.439
 127   6 C      0.266  1.042  2.692  0.000    22.507     7.769
 128   8 O     -0.501  1.751  4.750  0.000    23.800     6.541
 129   6 C      0.109  1.056  2.835  0.000    18.897     6.209
 130   8 O     -0.482  1.736  4.746  0.000    22.510     6.405
 131   6 C     -0.132  1.040  3.092  0.000    23.088     6.852
 132   1 H      0.216  0.784  0.000  0.000     1.029     1.589
 133   1 H      0.103  0.897  0.000  0.000     1.758     2.074
 134   1 H      0.036  0.964  0.000  0.000     2.508     2.477
 135   1 H      0.323  0.677  0.000  0.000     0.656     1.272
 136   1 H      0.073  0.927  0.000  0.000     2.057     2.243
 137   1 H      0.060  0.940  0.000  0.000     2.199     2.319
 138   1 H      0.074  0.926  0.000  0.000     2.043     2.235
 139   7 N     -0.164  1.242  3.922  0.000    24.550     7.359
 140   6 C      0.008  1.067  2.925  0.000    20.447     6.439
 141   6 C      0.274  1.050  2.676  0.000    22.366     7.745
 142   8 O     -0.432  1.727  4.705  0.000    22.333     6.336
 143   6 C     -0.067  1.049  3.018  0.000    21.776     6.643
 144   6 C     -0.108  1.062  3.046  0.000    22.560     6.762
 145   6 C      0.274  1.049  2.677  0.000    22.359     7.742
 146   8 O     -0.530  1.777  4.753  0.000    24.464     6.631
 147   7 N     -0.264  1.264  4.000  0.000    26.849     7.696
 148   1 H      0.215  0.785  0.000  0.000     1.032     1.592
 149   1 H      0.098  0.902  0.000  0.000     1.805     2.101
 150   1 H      0.067  0.933  0.000  0.000     2.114     2.274
 151   1 H      0.074  0.926  0.000  0.000     2.040     2.234
 152   1 H      0.084  0.916  0.000  0.000     1.935     2.175
 153   1 H      0.084  0.916  0.000  0.000     1.935     2.175
 154   1 H      0.234  0.766  0.000  0.000     0.947     1.525
 155   1 H      0.235  0.765  0.000  0.000     0.943     1.521
 156   7 N     -0.199  1.243  3.956  0.000    25.325     7.474
 157   6 C      0.034  1.052  2.914  0.000    19.998     6.366
 158   6 C      0.261  1.052  2.686  0.000    22.593     7.784
 159   8 O     -0.502  1.759  4.742  0.000    23.822     6.544
 160   6 C     -0.077  1.053  3.024  0.000    21.955     6.668
 161   6 C      0.012  1.077  2.911  0.000    27.730     8.638
 162   6 C     -0.032  1.067  2.965  0.000    28.805     8.802
 163   6 C     -0.048  1.091  2.958  0.000    29.204     8.863
 164   6 C     -0.026  1.085  2.941  0.000    28.647     8.779
 165   6 C     -0.024  1.078  2.946  0.000    28.603     8.771
 166   6 C     -0.022  1.072  2.951  0.000    28.564     8.764
 167   1 H      0.194  0.806  0.000  0.000     1.134     1.668
 168   1 H      0.076  0.924  0.000  0.000     2.022     2.224
 169   1 H      0.056  0.944  0.000  0.000     2.243     2.342
 170   1 H      0.062  0.938  0.000  0.000     2.171     2.304
 171   1 H      0.037  0.963  0.000  0.000     2.494     2.469
 172   1 H      0.046  0.954  0.000  0.000     2.370     2.408
 173   1 H      0.031  0.969  0.000  0.000     2.568     2.507
 174   1 H      0.032  0.968  0.000  0.000     2.563     2.504
 175   1 H      0.031  0.969  0.000  0.000     2.574     2.509
 176   7 N     -0.186  1.259  3.927  0.000    25.035     7.431
 177   6 C      0.032  1.062  2.906  0.000    20.047     6.377
 178   6 C      0.272  1.049  2.679  0.000    22.409     7.752
 179   8 O     -0.494  1.736  4.758  0.000    23.660     6.522
 180   6 C     -0.083  1.048  3.035  0.000    22.079     6.689
 181   6 C     -0.024  1.069  2.954  0.000    20.964     6.513
 182   6 C     -0.124  1.044  3.080  0.000    22.942     6.831
 183   6 C     -0.135  1.044  3.091  0.000    23.156     6.862
 184   1 H      0.233  0.767  0.000  0.000     0.951     1.527
 185   1 H      0.073  0.927  0.000  0.000     2.054     2.241
 186   1 H      0.074  0.926  0.000  0.000     2.044     2.236
 187   1 H      0.056  0.944  0.000  0.000     2.251     2.347
 188   1 H      0.043  0.957  0.000  0.000     2.404     2.425
 189   1 H      0.054  0.946  0.000  0.000     2.267     2.355
 190   1 H      0.035  0.965  0.000  0.000     2.512     2.478
 191   1 H      0.047  0.953  0.000  0.000     2.357     2.401
 192   1 H      0.052  0.948  0.000  0.000     2.300     2.371
 193   1 H      0.047  0.953  0.000  0.000     2.356     2.400
 194   1 H      0.053  0.947  0.000  0.000     2.277     2.360
 195   7 N     -0.171  1.244  3.928  0.000    24.709     7.383
 196   6 C      0.018  1.059  2.923  0.000    20.271     6.410
 197   6 C      0.294  1.033  2.674  0.000    22.023     7.685
 198   8 O     -0.473  1.723  4.750  0.000    23.186     6.456
 199   6 C      0.066  1.041  2.893  0.000    19.673     6.352
 200   8 O     -0.491  1.739  4.752  0.000    22.693     6.431
 201   1 H      0.235  0.765  0.000  0.000     0.943     1.521
 202   1 H      0.080  0.920  0.000  0.000     1.981     2.201
 203   1 H      0.050  0.950  0.000  0.000     2.315     2.380
 204   1 H      0.054  0.946  0.000  0.000     2.273     2.357
 205   1 H      0.352  0.648  0.000  0.000     0.584     1.200
 206   7 N     -0.189  1.247  3.943  0.000    25.105     7.442
 207   6 C      0.014  1.069  2.916  0.000    20.331     6.419
 208   6 C      0.270  1.044  2.686  0.000    22.442     7.758
 209   8 O     -0.485  1.733  4.752  0.000    23.453     6.493
 210   6 C     -0.015  1.056  2.958  0.000    20.801     6.487
 211   6 C     -0.071  1.048  3.023  0.000    21.849     6.654
 212   6 C     -0.123  1.040  3.084  0.000    22.906     6.822
 213   6 C     -0.106  1.038  3.068  0.000    22.582     6.777
 214   1 H      0.223  0.777  0.000  0.000     0.998     1.565
 215   1 H      0.062  0.938  0.000  0.000     2.177     2.307
 216   1 H      0.042  0.958  0.000  0.000     2.418     2.432
 217   1 H      0.040  0.960  0.000  0.000     2.443     2.444
 218   1 H      0.052  0.948  0.000  0.000     2.298     2.370
 219   1 H      0.052  0.948  0.000  0.000     2.300     2.372
 220   1 H      0.053  0.947  0.000  0.000     2.279     2.361
 221   1 H      0.052  0.948  0.000  0.000     2.291     2.367
 222   1 H      0.035  0.965  0.000  0.000     2.523     2.484
 223   1 H      0.032  0.968  0.000  0.000     2.552     2.498
 224   1 H      0.045  0.955  0.000  0.000     2.387     2.416
 225   7 N     -0.183  1.248  3.935  0.000    24.957     7.420
 226   6 C      0.019  1.068  2.913  0.000    20.253     6.407
 227   6 C      0.267  1.046  2.687  0.000    22.500     7.768
 228   8 O     -0.520  1.754  4.766  0.000    24.237     6.601
 229   6 C     -0.030  1.068  2.962  0.000    21.066     6.528
 230   6 C     -0.068  1.049  3.018  0.000    21.794     6.646
 231   6 C     -0.118  1.038  3.080  0.000    22.811     6.810
 232   6 C     -0.108  1.038  3.070  0.000    22.632     6.784
 233   1 H      0.227  0.773  0.000  0.000     0.977     1.549
 234   1 H      0.078  0.922  0.000  0.000     2.001     2.212
 235   1 H      0.058  0.942  0.000  0.000     2.221     2.330
 236   1 H      0.056  0.944  0.000  0.000     2.247     2.344
 237   1 H      0.040  0.960  0.000  0.000     2.451     2.448
 238   1 H      0.060  0.940  0.000  0.000     2.198     2.318
 239   1 H      0.042  0.958  0.000  0.000     2.424     2.435
 240   1 H      0.041  0.959  0.000  0.000     2.431     2.438
 241   1 H      0.042  0.958  0.000  0.000     2.421     2.433
 242   1 H      0.032  0.968  0.000  0.000     2.552     2.498
 243   1 H      0.035  0.965  0.000  0.000     2.512     2.479
 244   7 N     -0.181  1.251  3.931  0.000    24.930     7.416
 245   6 C      0.027  1.050  2.923  0.000    20.106     6.383
 246   6 C      0.283  1.038  2.679  0.000    22.202     7.716
 247   8 O     -0.487  1.742  4.745  0.000    23.493     6.499
 248   6 C     -0.086  1.055  3.030  0.000    22.123     6.695
 249   6 C     -0.082  1.056  3.025  0.000    22.059     6.687
 250   6 C     -0.043  1.055  2.988  0.000    21.424     6.605
 251   7 N     -0.128  1.202  3.926  0.000    23.784     7.243
 252   6 C      0.238  1.004  2.758  0.000    23.028     7.857
 253   7 N     -0.201  1.220  3.982  0.000    25.378     7.482
 254   7 N     -0.279  1.248  4.031  0.000    27.203     7.746
 255   1 H      0.244  0.756  0.000  0.000     0.906     1.491
 256   1 H      0.080  0.920  0.000  0.000     1.974     2.197
 257   1 H      0.076  0.924  0.000  0.000     2.019     2.222
 258   1 H      0.062  0.938  0.000  0.000     2.171     2.304
 259   1 H      0.060  0.940  0.000  0.000     2.196     2.317
 260   1 H      0.074  0.926  0.000  0.000     2.044     2.236
 261   1 H      0.081  0.919  0.000  0.000     1.968     2.194
 262   1 H      0.106  0.894  0.000  0.000     1.734     2.059
 263   1 H      0.225  0.775  0.000  0.000     0.988     1.557
 264   1 H      0.240  0.760  0.000  0.000     0.923     1.505
 265   1 H      0.250  0.750  0.000  0.000     0.884     1.473
 266   1 H      0.230  0.770  0.000  0.000     0.966     1.539
 267   1 H      0.234  0.766  0.000  0.000     0.946     1.524
 268   7 N     -0.201  1.251  3.949  0.000    25.364     7.480
 269   6 C      0.019  1.063  2.917  0.000    20.263     6.411
 270   6 C      0.290  1.040  2.670  0.000    22.092     7.697
 271   8 O     -0.487  1.753  4.734  0.000    23.494     6.499
 272   6 C      0.067  1.042  2.890  0.000    19.656     6.350
 273   8 O     -0.499  1.726  4.773  0.000    22.875     6.456
 274   1 H      0.231  0.769  0.000  0.000     0.960     1.535
 275   1 H      0.062  0.938  0.000  0.000     2.175     2.306
 276   1 H      0.045  0.955  0.000  0.000     2.379     2.412
 277   1 H      0.064  0.936  0.000  0.000     2.151     2.293
 278   1 H      0.355  0.645  0.000  0.000     0.576     1.192
 279   7 N     -0.176  1.235  3.941  0.000    24.821     7.399
 280   6 C      0.032  1.050  2.918  0.000    20.043     6.374
 281   6 C      0.256  1.063  2.681  0.000    22.700     7.802
 282   8 O     -0.537  1.773  4.763  0.000    24.615     6.652
 283   6 C     -0.077  1.057  3.021  0.000    21.966     6.671
 284   6 C     -0.086  1.047  3.039  0.000    22.141     6.698
 285   6 C     -0.026  1.066  2.960  0.000    21.115     6.557
 286   7 N     -0.116  1.215  3.901  0.000    23.532     7.205
 287   6 C      0.229  1.026  2.745  0.000    23.183     7.883
 288   7 N     -0.314  1.237  4.076  0.000    28.074     7.869
 289   7 N     -0.226  1.240  3.986  0.000    25.945     7.565
 290   1 H      0.219  0.781  0.000  0.000     1.014     1.578
 291   1 H      0.079  0.921  0.000  0.000     1.989     2.206
 292   1 H      0.072  0.928  0.000  0.000     2.064     2.247
 293   1 H      0.072  0.928  0.000  0.000     2.060     2.245
 294   1 H      0.074  0.926  0.000  0.000     2.043     2.235
 295   1 H      0.085  0.915  0.000  0.000     1.926     2.170
 296   1 H      0.098  0.902  0.000  0.000     1.804     2.100
 297   1 H      0.088  0.912  0.000  0.000     1.898     2.155
 298   1 H      0.248  0.752  0.000  0.000     0.891     1.479
 299   1 H      0.218  0.782  0.000  0.000     1.018     1.580
 300   1 H      0.231  0.769  0.000  0.000     0.961     1.536
 301   1 H      0.256  0.744  0.000  0.000     0.859     1.452
 302   1 H      0.265  0.735  0.000  0.000     0.826     1.423
 303   7 N     -0.161  1.244  3.917  0.000    24.486     7.349
 304   6 C      0.016  1.065  2.919  0.000    20.320     6.420
 305   6 C      0.277  1.044  2.679  0.000    22.309     7.734
 306   8 O     -0.442  1.736  4.706  0.000    22.530     6.364
 307   6 C     -0.073  1.050  3.023  0.000    21.866     6.653
 308   6 C     -0.017  1.072  2.945  0.000    20.889     6.509
 309  16 S     -0.220  1.915  4.258  0.047   150.437    20.643
 310   6 C     -0.052  1.047  3.004  0.000    21.567     6.624
 311   1 H      0.218  0.782  0.000  0.000     1.019     1.581
 312   1 H      0.080  0.920  0.000  0.000     1.982     2.202
 313   1 H      0.068  0.932  0.000  0.000     2.110     2.272
 314   1 H      0.068  0.932  0.000  0.000     2.103     2.268
 315   1 H      0.050  0.950  0.000  0.000     2.324     2.384
 316   1 H      0.062  0.938  0.000  0.000     2.174     2.306
 317   1 H      0.067  0.933  0.000  0.000     2.117     2.275
 318   1 H      0.047  0.953  0.000  0.000     2.362     2.404
 319   1 H      0.060  0.940  0.000  0.000     2.197     2.318
 320   7 N     -0.197  1.257  3.940  0.000    25.274     7.467
 321   6 C      0.019  1.062  2.918  0.000    20.248     6.406
 322   6 C      0.274  1.041  2.685  0.000    22.375     7.746
 323   8 O     -0.455  1.727  4.728  0.000    22.808     6.403
 324   6 C     -0.018  1.064  2.954  0.000    20.860     6.496
 325   6 C     -0.126  1.041  3.086  0.000    22.980     6.836
 326   6 C     -0.120  1.040  3.080  0.000    22.852     6.816
 327   1 H      0.205  0.795  0.000  0.000     1.080     1.628
 328   1 H      0.052  0.948  0.000  0.000     2.297     2.370
 329   1 H      0.045  0.955  0.000  0.000     2.379     2.412
 330   1 H      0.055  0.945  0.000  0.000     2.264     2.353
 331   1 H      0.047  0.953  0.000  0.000     2.356     2.400
 332   1 H      0.072  0.928  0.000  0.000     2.067     2.248
 333   1 H      0.055  0.945  0.000  0.000     2.259     2.350
 334   1 H      0.049  0.951  0.000  0.000     2.331     2.388
 335   1 H      0.040  0.960  0.000  0.000     2.442     2.444
 336   7 N     -0.176  1.248  3.928  0.000    24.806     7.397
 337   6 C      0.009  1.076  2.915  0.000    20.456     6.444
 338   6 C      0.267  1.049  2.684  0.000    22.497     7.767
 339   8 O     -0.483  1.758  4.725  0.000    23.403     6.486
 340   6 C     -0.081  1.059  3.022  0.000    22.042     6.684
 341   6 C     -0.014  1.062  2.952  0.000    20.797     6.487
 342   6 C     -0.119  1.041  3.077  0.000    22.830     6.813
 343   6 C     -0.119  1.041  3.078  0.000    22.832     6.812
 344   1 H      0.205  0.795  0.000  0.000     1.081     1.629
 345   1 H      0.079  0.921  0.000  0.000     1.985     2.203
 346   1 H      0.065  0.935  0.000  0.000     2.145     2.291
 347   1 H      0.074  0.926  0.000  0.000     2.037     2.232
 348   1 H      0.032  0.968  0.000  0.000     2.560     2.502
 349   1 H      0.043  0.957  0.000  0.000     2.411     2.428
 350   1 H      0.037  0.963  0.000  0.000     2.493     2.469
 351   1 H      0.046  0.954  0.000  0.000     2.370     2.407
 352   1 H      0.042  0.958  0.000  0.000     2.422     2.434
 353   1 H      0.045  0.955  0.000  0.000     2.379     2.412
 354   1 H      0.040  0.960  0.000  0.000     2.452     2.449
 355   7 N     -0.170  1.240  3.929  0.000    24.670     7.377
 356   6 C      0.012  1.063  2.925  0.000    20.387     6.430
 357   6 C      0.262  1.058  2.680  0.000    22.591     7.783
 358   8 O     -0.452  1.734  4.719  0.000    22.755     6.396
 359   6 C     -0.076  1.051  3.025  0.000    21.954     6.671
 360   6 C     -0.092  1.050  3.042  0.000    22.253     6.716
 361   6 C     -0.029  1.060  2.969  0.000    21.179     6.568
 362   7 N     -0.118  1.206  3.912  0.000    23.573     7.211
 363   6 C      0.237  1.031  2.732  0.000    23.048     7.860
 364   7 N     -0.273  1.250  4.023  0.000    27.054     7.725
 365   7 N     -0.316  1.259  4.057  0.000    28.135     7.878
 366   1 H      0.204  0.796  0.000  0.000     1.087     1.633
 367   1 H      0.087  0.913  0.000  0.000     1.911     2.162
 368   1 H      0.075  0.925  0.000  0.000     2.034     2.230
 369   1 H      0.063  0.937  0.000  0.000     2.162     2.299
 370   1 H      0.078  0.922  0.000  0.000     1.996     2.209
 371   1 H      0.088  0.912  0.000  0.000     1.902     2.157
 372   1 H      0.100  0.900  0.000  0.000     1.787     2.091
 373   1 H      0.084  0.916  0.000  0.000     1.941     2.179
 374   1 H      0.207  0.793  0.000  0.000     1.071     1.621
 375   1 H      0.256  0.744  0.000  0.000     0.861     1.453
 376   1 H      0.228  0.772  0.000  0.000     0.976     1.547
 377   1 H      0.238  0.762  0.000  0.000     0.932     1.513
 378   1 H      0.228  0.772  0.000  0.000     0.976     1.547
 379   7 N     -0.163  1.231  3.933  0.000    24.531     7.356
 380   6 C      0.026  1.054  2.920  0.000    20.139     6.390
 381   6 C      0.201  1.088  2.711  0.000    23.723     7.976
 382   8 O     -0.353  1.743  4.610  0.000    20.769     6.110
 383   6 C     -0.134  1.045  3.089  0.000    23.134     6.858
 384   1 H      0.200  0.800  0.000  0.000     1.106     1.647
 385   1 H      0.107  0.893  0.000  0.000     1.726     2.055
 386   1 H      0.076  0.924  0.000  0.000     2.022     2.224
 387   1 H      0.086  0.914  0.000  0.000     1.920     2.167
 388   1 H      0.063  0.937  0.000  0.000     2.168     2.303
 389   7 N     -0.377  1.320  4.057  0.000    29.739     8.099
 390   6 C      0.029  1.063  2.908  0.000    20.101     6.387
 391   6 C      0.262  1.056  2.682  0.000    22.591     7.783
 392   8 O     -0.479  1.751  4.727  0.000    23.315     6.474
 393   6 C     -0.055  1.051  3.004  0.000    21.564     6.612
 394   6 C     -0.093  1.064  3.029  0.000    22.278     6.721
 395   6 C      0.356  1.035  2.609  0.000    20.958     7.492
 396   8 O     -0.616  1.772  4.844  0.000    26.517     6.904
 397   8 O     -0.631  1.785  4.846  0.000    26.898     6.953
 398   1 H      0.158  0.842  0.000  0.000     1.351     1.821
 399   1 H      0.036  0.964  0.000  0.000     2.501     2.473
 400   1 H      0.032  0.968  0.000  0.000     2.556     2.500
 401   1 H      0.025  0.975  0.000  0.000     2.663     2.552
 402   1 H      0.047  0.953  0.000  0.000     2.357     2.401
 403   1 H      0.021  0.979  0.000  0.000     2.711     2.575
 404   7 N     -0.159  1.245  3.914  0.000    24.439     7.342
 405   6 C      0.004  1.057  2.940  0.000    20.513     6.448
 406   6 C      0.271  1.042  2.687  0.000    22.424     7.755
 407   8 O     -0.491  1.761  4.730  0.000    23.597     6.513
 408   6 C     -0.142  1.046  3.096  0.000    23.281     6.879
 409   1 H      0.201  0.799  0.000  0.000     1.102     1.644
 410   1 H      0.103  0.897  0.000  0.000     1.761     2.075
 411   1 H      0.085  0.915  0.000  0.000     1.932     2.173
 412   1 H      0.077  0.923  0.000  0.000     2.009     2.217
 413   1 H      0.059  0.941  0.000  0.000     2.209     2.324
 414   7 N     -0.164  1.232  3.932  0.000    24.543     7.358
 415   6 C      0.030  1.044  2.926  0.000    20.063     6.376
 416   6 C      0.192  1.086  2.722  0.000    23.902     8.007
 417   8 O     -0.338  1.736  4.603  0.000    20.490     6.069
 418   6 C     -0.071  1.060  3.011  0.000    21.854     6.654
 419   6 C      0.005  1.084  2.911  0.000    27.911     8.666
 420   6 C     -0.038  1.083  2.955  0.000    28.953     8.824
 421   6 C     -0.043  1.084  2.959  0.000    29.074     8.843
 422   6 C     -0.044  1.083  2.961  0.000    29.089     8.845
 423   6 C     -0.029  1.073  2.956  0.000    28.719     8.788
 424   6 C     -0.033  1.073  2.960  0.000    28.815     8.803
 425   1 H      0.225  0.775  0.000  0.000     0.989     1.557
 426   1 H      0.081  0.919  0.000  0.000     1.972     2.196
 427   1 H      0.054  0.946  0.000  0.000     2.275     2.359
 428   1 H      0.069  0.931  0.000  0.000     2.095     2.263
 429   1 H      0.046  0.954  0.000  0.000     2.375     2.410
 430   1 H      0.031  0.969  0.000  0.000     2.576     2.510
 431   1 H      0.054  0.946  0.000  0.000     2.274     2.358
 432   1 H      0.047  0.953  0.000  0.000     2.358     2.401
 433   1 H      0.047  0.953  0.000  0.000     2.351     2.398
 434   7 N     -0.390  1.319  4.071  0.000    30.080     8.146
 435   6 C      0.033  1.058  2.909  0.000    20.036     6.376
 436   6 C      0.215  1.079  2.707  0.000    23.462     7.933
 437   8 O     -0.355  1.735  4.620  0.000    20.805     6.115
 438   6 C     -0.067  1.050  3.017  0.000    21.767     6.640
 439   6 C     -0.016  1.061  2.955  0.000    20.830     6.492
 440   6 C     -0.120  1.043  3.077  0.000    22.866     6.819
 441   6 C     -0.115  1.043  3.071  0.000    22.751     6.801
 442   1 H      0.157  0.843  0.000  0.000     1.352     1.821
 443   1 H      0.051  0.949  0.000  0.000     2.306     2.375
 444   1 H      0.061  0.939  0.000  0.000     2.188     2.313
 445   1 H      0.048  0.952  0.000  0.000     2.340     2.392
 446   1 H      0.013  0.987  0.000  0.000     2.839     2.635
 447   1 H      0.044  0.956  0.000  0.000     2.401     2.423
 448   1 H      0.033  0.967  0.000  0.000     2.541     2.493
 449   1 H      0.050  0.950  0.000  0.000     2.323     2.383
 450   1 H      0.043  0.957  0.000  0.000     2.415     2.430
 451   1 H      0.048  0.952  0.000  0.000     2.342     2.393
 452   1 H      0.035  0.965  0.000  0.000     2.510     2.478
 453   7 N     -0.387  1.323  4.064  0.000    30.020     8.137
 454   6 C      0.039  1.056  2.905  0.000    19.948     6.363
 455   6 C      0.194  1.101  2.705  0.000    23.860     7.999
 456   8 O     -0.386  1.746  4.640  0.000    21.396     6.202
 457   6 C     -0.072  1.053  3.018  0.000    21.851     6.652
 458   6 C     -0.003  1.066  2.938  0.000    20.646     6.471
 459  16 S     -0.251  1.910  4.285  0.055   151.819    20.738
 460   6 C     -0.054  1.049  3.005  0.000    21.602     6.629
 461   1 H      0.161  0.839  0.000  0.000     1.332     1.808
 462   1 H      0.081  0.919  0.000  0.000     1.969     2.195
 463   1 H      0.057  0.943  0.000  0.000     2.229     2.335
 464   1 H      0.088  0.912  0.000  0.000     1.901     2.156
 465   1 H      0.036  0.964  0.000  0.000     2.501     2.473
 466   1 H      0.058  0.942  0.000  0.000     2.225     2.333
 467   1 H      0.073  0.927  0.000  0.000     2.054     2.241
 468   1 H      0.054  0.946  0.000  0.000     2.274     2.358
 469   1 H      0.062  0.938  0.000  0.000     2.176     2.307
 470   7 N     -0.383  1.291  4.093  0.000    29.916     8.123
 471   6 C      0.047  1.052  2.901  0.000    19.798     6.338
 472   6 C      0.208  1.075  2.717  0.000    23.583     7.953
 473   8 O     -0.369  1.749  4.621  0.000    21.078     6.155
 474   6 C     -0.071  1.052  3.019  0.000    21.852     6.653
 475   6 C      0.005  1.067  2.929  0.000    27.914     8.667
 476   6 C     -0.039  1.075  2.964  0.000    28.962     8.826
 477   6 C     -0.042  1.085  2.957  0.000    29.037     8.837
 478   6 C     -0.067  1.076  2.991  0.000    29.670     8.933
 479   6 C     -0.045  1.072  2.974  0.000    29.128     8.850
 480   6 C      0.142  1.048  2.809  0.000    24.903     8.180
 481   8 O     -0.434  1.744  4.690  0.000    21.528     6.263
 482   1 H      0.160  0.840  0.000  0.000     1.333     1.809
 483   1 H      0.048  0.952  0.000  0.000     2.343     2.394
 484   1 H      0.048  0.952  0.000  0.000     2.342     2.394
 485   1 H      0.073  0.927  0.000  0.000     2.055     2.242
 486   1 H      0.042  0.958  0.000  0.000     2.420     2.433
 487   1 H      0.037  0.963  0.000  0.000     2.488     2.467
 488   1 H      0.022  0.978  0.000  0.000     2.711     2.575
 489   1 H      0.053  0.947  0.000  0.000     2.285     2.364
 490   1 H      0.313  0.687  0.000  0.000     0.683     1.299
 491   7 N     -0.403  1.310  4.093  0.000    30.447     8.195
 492   6 C      0.027  1.058  2.916  0.000    20.130     6.388
 493   6 C      0.271  1.047  2.682  0.000    22.419     7.754
 494   8 O     -0.528  1.773  4.755  0.000    24.403     6.623
 495   6 C     -0.022  1.059  2.962  0.000    20.908     6.500
 496   6 C     -0.069  1.055  3.014  0.000    21.820     6.651
 497   6 C     -0.115  1.038  3.078  0.000    22.760     6.802
 498   6 C     -0.113  1.038  3.075  0.000    22.727     6.800
 499   1 H      0.155  0.845  0.000  0.000     1.365     1.830
 500   1 H      0.061  0.939  0.000  0.000     2.187     2.313
 501   1 H      0.038  0.962  0.000  0.000     2.473     2.459
 502   1 H      0.038  0.962  0.000  0.000     2.478     2.462
 503   1 H      0.040  0.960  0.000  0.000     2.449     2.447
 504   1 H      0.057  0.943  0.000  0.000     2.232     2.336
 505   1 H      0.026  0.974  0.000  0.000     2.643     2.542
 506   1 H      0.034  0.966  0.000  0.000     2.524     2.484
 507   1 H      0.037  0.963  0.000  0.000     2.495     2.471
 508   1 H      0.050  0.950  0.000  0.000     2.315     2.379
 509   1 H      0.049  0.951  0.000  0.000     2.330     2.387
 510   7 N     -0.155  1.241  3.915  0.000    24.364     7.331
 511   6 C     -0.038  1.059  2.979  0.000    21.327     6.587
 512   6 C      0.199  1.080  2.721  0.000    23.755     7.982
 513   8 O     -0.354  1.742  4.612  0.000    20.779     6.112
 514   1 H      0.217  0.783  0.000  0.000     1.024     1.586
 515   1 H      0.119  0.881  0.000  0.000     1.624     1.993
 516   1 H      0.118  0.882  0.000  0.000     1.630     1.997
 517   1 H      0.187  0.813  0.000  0.000     1.174     1.697
 518   1 H      0.070  0.930  0.000  0.000     2.086     2.258
 519   1 H      0.177  0.823  0.000  0.000     1.232     1.739
 520   1 H      0.071  0.929  0.000  0.000     2.079     2.255
 521   1 H      0.183  0.817  0.000  0.000     1.196     1.713
 522   1 H      0.073  0.927  0.000  0.000     2.047     2.237
 523   1 H      0.196  0.804  0.000  0.000     1.128     1.664
 524   1 H      0.069  0.931  0.000  0.000     2.097     2.265
 525   1 H      0.180  0.820  0.000  0.000     1.212     1.725
 526   1 H      0.067  0.933  0.000  0.000     2.114     2.274
 527   1 H      0.171  0.829  0.000  0.000     1.263     1.761
 528   1 H      0.064  0.936  0.000  0.000     2.150     2.293
 529   1 H      0.162  0.838  0.000  0.000     1.319     1.799
 530   1 H      0.082  0.918  0.000  0.000     1.960     2.189
 531   1 H      0.182  0.818  0.000  0.000     1.201     1.716
 532   1 H      0.052  0.948  0.000  0.000     2.292     2.368
 533   1 H      0.184  0.816  0.000  0.000     1.193     1.711
 534   1 H      0.087  0.913  0.000  0.000     1.912     2.162
 535   1 H      0.186  0.814  0.000  0.000     1.180     1.701
 536   1 H      0.059  0.941  0.000  0.000     2.209     2.324
 537   1 H      0.183  0.817  0.000  0.000     1.199     1.715
 538   1 H      0.078  0.922  0.000  0.000     2.004     2.213

 Mol. C6AA /au·bohr⁶  :    2609866.413915
 Mol. C8AA /au·bohr⁸  :   58914551.866645
 Mol. α(0) /au        :       2434.714466

 
molecular dipole:
                 x           y           z       tot (Debye)
 q only:       35.368      91.046     320.030
   full:       33.451      92.692     323.332     859.167
molecular quadrupole (traceless):
                xx          xy          yy          xz          yz          zz
 q only:   -27254.606    2295.702  -21957.400    8433.343   22006.346   49212.007
  q+dip:   -27952.609    2205.577  -22278.838    8114.656   22656.993   50231.447
   full:   -27951.634    2204.946  -22281.587    8115.029   22655.083   50233.222
speedup  1.98
cpu  time for grad   52.49 s
wall time for grad   26.51 s

SCC energy    :    -791.1173660
rep           :      10.2695735
ES            :       1.8905898
AES           :      -0.0348842
AXC           :       0.3239077
disp          :      -0.6905587
XB            :       0.0000000
fix           :       0.0000000
Gborn         :       0.0000000
Gsasa         :       0.0000000
Ghb           :       0.0000000
Gshift        :       0.0000000
Gsolv         :      -0.4524934     -283.94
Etot ala COSMO:    -791.1173660
grad norm     :       0.9658976
total E       :    -780.7781105
atomizationE  :     146.4878336    91922.50
(atE without considering molecular charge,
 total energy contains solvation terms)
H-L gap (eV)  :          1.0303

------------------------------------------------------------------------
 * finished run on 2019/05/12 at 12:15:35.928     
------------------------------------------------------------------------
 total:
 * wall-time:     0 d,  0 h,  0 min, 28.089 sec
 *  cpu-time:     0 d,  0 h,  0 min, 55.139 sec
 * ratio c/w:     1.963 speedup
 SCF:
 * wall-time:     0 d,  0 h,  0 min, 27.617 sec
 *  cpu-time:     0 d,  0 h,  0 min, 54.458 sec
 * ratio c/w:     1.972 speedup

