      -----------------------------------------------------------      
     |                   =====================                   |     
     |                           x T B                           |     
     |                   =====================                   |     
     |                         S. Grimme                         |     
     |          Mulliken Center for Theoretical Chemistry        |     
     |                    University of Bonn                     |     
     |                 Version 6.0.1 (SAW181210)                 |     
      -----------------------------------------------------------      

   This program is distributed in the hope that it will be useful,
   but WITHOUT ANY WARRANTY; without even the implied warranty of
   MERCHANTABILITY or FITNESS FOR A PARTICULAR PURPOSE.
   
   FOR NON-COMMERCIAL, ACADEMIA USE ONLY.
   
   Cite this work as:
   S. Grimme, C. Bannwarth, P. Shushkov, J. Comput. Theory Chem., 2017,
   13, 1989-2009.
   C. Bannwarth, S. Ehlert and S. Grimme., ChemRxiv, 2018, preprint.
   http://doi.org/10.26434/chemrxiv.7246238.v1
   
   for sTDA-xTB:
   S. Grimme and C. Bannwarth, J. Chem. Phys., 2016, 145, 054103.
   
   in the mass-spec context:
   V. Asgeirsson, C. Bauer and S. Grimme, Chem. Sci., 2017, 8, 4879.
   
   if GBSA is used:
   P. Shushkov, F. März and S. Grimme, unpublished.
   
   for ANC optimizer:
   S. Grimme, unpublished.
   Rational Function algorithm used in ANCopt:
   F. Eckert, P. Pulay, H.-J. Werner, J. Comput. Chem., 1997, 18, 1473.
   
   with help from (in alphabetical order)
   C. Bannwarth, F. Bohle, G. Brandenburg, E. Caldeweyher, M. Checinski,
   S. Dohm, S. Ehlert, S. Ehrlich, F. März, H. Neugebauer, J. Pisarek,
   P. Pracht, P. Shushkov, and S. Spicher.
   
 * started run on 2019/05/10 at 08:26:43.579     
========================================================================
 # omp threads = 2
========================================================================
number of atoms            : 288
number of electrons        : 814
charge                     : -1
spin                       : .0
first test random number   : .7689

########################################################################
# WARNING! Please study the warnings concerning your input carefully
#  - Process number higher than OMP_NUM_THREADS, I hope you know what you are doing.
########################################################################

           ------------------------------------------------- 
          |                 G F N 2 - x T B                 |
          | Geometry, Frequencies, Noncovalent interactions |
          |            JCTC 2018 parametrisation            |
           ------------------------------------------------- 
 
      method parameters     
 k(s)        :  1.8500
 k(p)        :  2.2300
 k(d)        :  2.2300
 k(f)        :  2.0000
 kEN (H0ij)  : -2.0000
 D4 a1       :  0.5200
 D4 a2       :  5.0000
 D4 s6       :  1.0000
 D4 s8       :  2.7000
 D4 s9       :  5.0000
 alphaj      :  2.0000

 Solvent             : h2o
 Using internal parameter file: .param_gbsa2_h2o
 Gsolv ref. state (COSMO-RS): gsolv [1 M gas/solution]
 temperature (mdtemp)       :    298.150000000000     
 dielectric constant        :    80.2000000000000     
 rho                        :    1.00000000000000     
 mass                       :    18.0000000000000     
 surface tension            :    15.5689454083859     
 probe radius               :   0.975313790000000     
 vdW radii scaling          :    1.00000000000000     
 Gshift (Eh)                :   1.857443126794793E-003
 c1                         :    1.55243817000000     
 soset                      :   0.130326360000000     
 HB correction              :  T

            Z     q(EN)     CN     RAES       Cart. coordinates
     1  N   5.0   -0.20    3.24    1.96    98.54569    75.43442   161.57290
     2  C   4.0    0.03    4.31    4.22   100.16282    75.98939   159.43119
     3  C   4.0    0.15    3.47    3.10    98.51857    77.34964   157.49778
     4  O   6.0   -0.30    1.26    1.80    96.47544    76.45814   156.87912
     5  C   4.0   -0.03    4.26    4.13   101.28453    73.64624   158.14403
     6  C   4.0   -0.03    4.18    3.95   102.69475    71.94795   159.98179
     7  C   4.0    0.25    3.09    3.02   104.54392    70.06044   158.66174
     8  O   6.0   -0.29    1.16    1.80   106.05435    68.95112   160.09273
     9  O   6.0   -0.28    1.18    1.80   104.40038    69.83494   156.31939
    10  H   1.0    0.09    1.03    1.43    96.90478    74.54050   161.18900
    11  H   1.0    0.04    1.05    1.44   101.70041    77.17247   160.15104
    12  H   1.0    0.06    1.03    1.43    99.77780    72.56976   157.23053
    13  H   1.0    0.06    1.03    1.43   102.58635    74.24445   156.65384
    14  H   1.0    0.05    1.03    1.43   103.83195    73.06132   161.29660
    15  H   1.0    0.05    1.02    1.43   101.39322    70.80870   161.11817
    16  N   5.0   -0.14    3.43    2.04    99.36113    79.59263   156.62054
    17  C   4.0    0.03    4.46    4.48    97.97406    80.76601   154.54445
    18  C   4.0    0.15    3.50    3.11    98.59510    79.35448   152.08715
    19  O   6.0   -0.28    1.24    1.80   100.69645    78.41555   151.78267
    20  C   4.0   -0.05    4.30    4.20    98.55005    83.59022   154.24639
    21  C   4.0   -0.04    4.04    3.70    96.46837    85.19832   155.42028
    22  S   6.0   -0.05    2.45    3.10    96.87250    88.56343   154.91669
    23  C   4.0   -0.07    3.87    3.42    99.64180    89.28426   156.83716
    24  H   1.0    0.08    1.06    1.44   101.23408    79.94346   156.73217
    25  H   1.0    0.05    1.08    1.44    95.98341    80.47343   155.01605
    26  H   1.0    0.04    1.03    1.43   100.36554    83.98761   155.14328
    27  H   1.0    0.05    1.04    1.43    98.73540    84.04100   152.23942
    28  H   1.0    0.04    1.08    1.44    94.64205    84.78510   154.55985
    29  H   1.0    0.04    1.06    1.44    96.32222    84.84743   157.44580
    30  H   1.0    0.04    1.05    1.44    99.92971    91.30466   156.67460
    31  H   1.0    0.04    1.03    1.43    99.29113    88.75670   158.78998
    32  H   1.0    0.04    1.04    1.43   101.27417    88.28722   156.10051
    33  N   5.0   -0.09    3.69    2.26    96.75051    79.22402   150.37178
    34  C   4.0    0.03    4.60    4.67    97.13325    78.03575   147.93342
    35  C   4.0    0.15    3.41    3.08    98.23081    79.97601   146.07484
    36  O   6.0   -0.30    1.23    1.80    98.48192    82.19804   146.61574
    37  C   4.0   -0.04    4.35    4.29    94.47395    77.22874   147.16786
    38  C   4.0   -0.04    4.27    4.15    92.87670    79.42687   148.14869
    39  C   4.0   -0.01    4.37    4.33    94.19915    80.22066   150.60100
    40  H   1.0    0.06    1.05    1.44    98.48983    76.48745   148.13530
    41  H   1.0    0.04    1.02    1.43    94.30879    76.98897   145.13699
    42  H   1.0    0.06    1.03    1.43    93.95707    75.47273   148.10951
    43  H   1.0    0.05    1.02    1.43    92.92513    80.98030   146.79690
    44  H   1.0    0.05    1.02    1.43    90.92518    78.88363   148.49126
    45  H   1.0    0.04    1.02    1.43    94.23281    82.27198   150.80300
    46  H   1.0    0.04    1.02    1.43    93.28367    79.36932   152.24496
    47  N   5.0   -0.15    3.44    2.04    98.79427    79.00001   143.78332
    48  C   4.0    0.03    4.41    4.40   100.41119    80.31440   141.97782
    49  C   4.0    0.15    3.37    3.07    99.02299    80.54767   139.43885
    50  O   6.0   -0.29    1.22    1.80    98.78870    78.71576   138.02084
    51  C   4.0   -0.04    4.25    4.09   102.92910    78.90718   141.67677
    52  C   4.0   -0.02    4.17    3.94   105.11993    80.68998   141.12832
    53  C   4.0    0.26    3.10    3.02   105.04999    81.79080   138.39613
    54  O   6.0   -0.29    1.17    1.80   104.64600    84.10107   138.17082
    55  O   6.0   -0.28    1.16    1.80   105.44077    80.26624   136.63654
    56  H   1.0    0.08    1.07    1.44    98.71772    77.10701   143.56068
    57  H   1.0    0.05    1.07    1.44   100.75016    82.20036   142.74061
    58  H   1.0    0.05    1.03    1.43   103.33581    77.89369   143.43393
    59  H   1.0    0.07    1.03    1.43   102.76724    77.54980   140.12659
    60  H   1.0    0.05    1.03    1.43   105.12463    82.25202   142.46613
    61  H   1.0    0.06    1.02    1.43   106.90394    79.67292   141.33050
    62  N   5.0   -0.13    3.47    2.06    97.95407    82.75645   138.91341
    63  C   4.0    0.03    4.26    4.13    97.54244    84.96483   140.45929
    64  C   4.0    0.25    3.20    3.04    94.93666    86.13984   139.59932
    65  O   6.0   -0.30    1.28    1.80    93.95773    85.17758   137.68152
    66  C   4.0   -0.05    4.09    3.78    99.59134    86.97061   140.12644
    67  O   6.0   -0.29    1.17    1.80    94.10710    87.89903   140.88956
    68  H   1.0    0.12    1.10    1.44    96.97360    82.89545   137.25279
    69  H   1.0    0.06    1.05    1.44    97.38205    84.44232   142.45679
    70  H   1.0    0.06    1.00    1.43    99.28116    88.48763   141.47317
    71  H   1.0    0.06    1.00    1.43   101.46569    86.16703   140.39746
    72  H   1.0    0.06    1.00    1.43    99.51471    87.73716   138.21974
    73  N   5.0   -0.12    4.15    3.29    87.85468    79.53632   130.24564
    74  C   4.0    0.01    4.31    4.22    90.50274    80.36640   129.73882
    75  C   4.0    0.15    3.35    3.06    92.32502    80.04282   132.00227
    76  O   6.0   -0.28    1.22    1.80    94.07799    81.48663   132.33897
    77  C   4.0    0.04    4.18    3.95    90.32580    83.16309   128.97836
    78  O   6.0   -0.27    2.13    1.84    88.32105    83.30623   127.22297
    79  H   1.0    0.07    1.07    1.44    86.79634    80.54077   128.90490
    80  H   1.0    0.06    1.01    1.43    87.57802    77.62630   130.00442
    81  H   1.0    0.07    1.02    1.43    87.28817    80.08567   132.03084
    82  H   1.0    0.05    1.04    1.44    91.24487    79.29053   128.13540
    83  H   1.0    0.05    1.01    1.43    89.95509    84.32415   130.65606
    84  H   1.0    0.05    1.01    1.43    92.12519    83.77351   128.17316
    85  H   1.0    0.12    1.02    1.43    88.20852    84.98589   126.53363
    86  N   5.0   -0.12    3.56    2.12    91.77628    78.02794   133.43466
    87  C   4.0    0.04    4.41    4.40    92.76228    77.53089   135.92677
    88  C   4.0    0.14    3.52    3.12    92.29990    74.72353   136.37965
    89  O   6.0   -0.30    1.33    1.80    90.74113    73.59320   135.09787
    90  C   4.0    0.06    4.22    4.04    91.08095    79.07981   137.85460
    91  O   6.0   -0.24    2.15    1.85    90.43853    81.42701   136.82313
    92  C   4.0   -0.07    4.05    3.70    92.28947    79.25443   140.46642
    93  H   1.0    0.10    1.11    1.44    90.47949    76.69184   132.94766
    94  H   1.0    0.07    1.04    1.43    94.74676    78.08171   136.09356
    95  H   1.0    0.05    1.04    1.43    89.25110    78.09841   137.99242
    96  H   1.0    0.16    1.07    1.44    91.78316    82.66755   137.06877
    97  H   1.0    0.05    1.00    1.43    91.13187    80.44469   141.67776
    98  H   1.0    0.04    1.00    1.43    92.48103    77.40520   141.33681
    99  H   1.0    0.06    1.00    1.43    94.15351    80.11244   140.33705
   100  N   5.0   -0.15    3.48    2.06    93.43728    73.68229   138.38595
   101  C   4.0    0.04    4.34    4.27    92.77789    71.12078   139.14098
   102  C   4.0    0.16    3.45    3.09    89.90186    70.85954   139.52068
   103  O   6.0   -0.31    1.22    1.80    88.87615    68.81228   139.37212
   104  C   4.0   -0.07    4.09    3.79    94.17171    70.35565   141.54378
   105  H   1.0    0.08    1.06    1.44    94.94748    74.53680   139.17627
   106  H   1.0    0.06    1.05    1.44    93.26900    69.80404   137.61517
   107  H   1.0    0.05    1.00    1.43    93.70328    68.41211   142.01012
   108  H   1.0    0.04    1.00    1.43    96.20208    70.47542   141.24948
   109  H   1.0    0.05    1.00    1.43    93.66324    71.56119   143.13165
   110  N   5.0   -0.14    3.55    2.11    88.67614    73.01726   140.09677
   111  C   4.0    0.04    4.41    4.40    85.94936    73.21350   140.39174
   112  C   4.0    0.15    3.39    3.07    85.08869    72.04924   142.91783
   113  O   6.0   -0.30    1.22    1.80    82.95196    71.27081   143.26929
   114  C   4.0   -0.01    4.33    4.26    84.53107    72.03141   138.15693
   115  C   4.0    0.16    3.22    3.04    81.98117    73.30760   137.73985
   116  O   6.0   -0.29    1.22    1.80    81.42410    75.34802   138.65411
   117  N   5.0   -0.19    3.18    1.95    80.43087    72.00440   136.21454
   118  H   1.0    0.08    1.09    1.44    89.68315    74.62368   140.25512
   119  H   1.0    0.06    1.06    1.44    85.45492    75.22487   140.45365
   120  H   1.0    0.06    1.03    1.43    85.68336    72.27383   136.46155
   121  H   1.0    0.06    1.03    1.43    84.26505    70.01668   138.47320
   122  H   1.0    0.09    1.03    1.43    78.71293    72.71595   135.80757
   123  H   1.0    0.08    1.03    1.43    80.94714    70.34311   135.45157
   124  N   5.0   -0.14    3.54    2.11    86.92198    72.00303   144.66316
   125  C   4.0    0.04    4.41    4.40    86.82505    70.64389   147.02314
   126  C   4.0    0.14    3.44    3.09    88.66866    71.94643   148.82102
   127  O   6.0   -0.32    1.25    1.80    90.71472    72.70502   148.04749
   128  C   4.0   -0.04    4.28    4.15    87.74029    67.90156   146.67194
   129  C   4.0   -0.04    4.20    4.00    86.02931    66.40231   144.89828
   130  C   4.0   -0.05    4.17    3.94    86.88643    63.65204   144.67024
   131  C   4.0   -0.04    4.12    3.84    85.37405    62.19668   142.70324
   132  N   5.0   -0.12    4.02    2.92    82.68573    61.94002   143.50743
   133  H   1.0    0.09    1.10    1.44    88.65640    72.69835   144.26215
   134  H   1.0    0.06    1.06    1.44    84.89762    70.68010   147.76085
   135  H   1.0    0.05    1.03    1.43    89.67149    67.94655   145.94237
   136  H   1.0    0.04    1.03    1.43    87.78368    67.02674   148.54097
   137  H   1.0    0.05    1.03    1.43    84.11163    66.54762   145.63988
   138  H   1.0    0.06    1.03    1.43    86.09962    67.27403   143.03179
   139  H   1.0    0.04    1.03    1.43    88.86570    63.62911   144.10141
   140  H   1.0    0.04    1.02    1.43    86.75853    62.70964   146.49866
   141  H   1.0    0.04    1.02    1.43    85.44984    63.19096   140.89993
   142  H   1.0    0.04    1.02    1.43    86.17824    60.31499   142.47017
   143  H   1.0    0.05    1.02    1.43    81.69723    60.82332   142.25477
   144  H   1.0    0.05    1.02    1.43    82.60618    61.12809   145.27811
   145  H   1.0    0.06    1.02    1.43    81.85065    63.69757   143.58483
   146  N   5.0   -0.13    3.50    2.08    87.87702    72.14446   151.20886
   147  C   4.0    0.04    4.31    4.22    89.46102    73.05454   153.24237
   148  C   4.0    0.08    3.22    3.04    90.23615    70.75934   154.83182
   149  O   6.0   -0.30    1.16    1.80    88.74712    69.00598   155.06065
   150  C   4.0   -0.03    4.32    4.23    87.93613    74.87372   154.93038
   151  C   4.0   -0.01    3.54    3.13    86.96235    77.15823   153.53893
   152  C   4.0   -0.04    3.47    3.10    84.79383    77.01310   152.06097
   153  C   4.0   -0.05    3.47    3.10    88.15976    79.48537   153.76287
   154  C   4.0   -0.04    3.43    3.09    83.85398    79.13366   150.85646
   155  C   4.0   -0.04    3.42    3.08    87.23253    81.62917   152.58305
   156  C   4.0    0.07    3.44    3.09    85.05221    81.45601   151.12931
   157  O   6.0   -0.24    2.10    1.84    84.08924    83.60826   150.04379
   158  H   1.0    0.11    1.08    1.44    86.20668    71.35091   151.72200
   159  H   1.0    0.05    1.05    1.44    91.10459    73.99092   152.41304
   160  H   1.0    0.05    1.03    1.43    86.33619    73.81633   155.69804
   161  H   1.0    0.04    1.03    1.43    89.12461    75.45731   156.51087
   162  H   1.0    0.06    1.03    1.43    83.80653    75.23885   151.88733
   163  H   1.0    0.05    1.03    1.43    89.82323    79.65042   154.93411
   164  H   1.0    0.05    1.03    1.43    82.15590    78.99074   149.73202
   165  H   1.0    0.05    1.03    1.43    88.17441    83.42369   152.81510
   166  H   1.0    0.12    1.04    1.43    82.82817    83.12334   148.80534
   167  N   5.0   -0.21    3.22    1.96    87.98954    60.66638   155.78763
   168  C   4.0    0.03    4.34    4.27    87.74564    62.71295   153.99067
   169  C   4.0    0.14    3.45    3.09    84.96256    62.98703   153.25852
   170  O   6.0   -0.32    1.25    1.80    83.77634    61.20682   152.40011
   171  C   4.0   -0.03    4.36    4.30    89.18102    62.11942   151.53769
   172  C   4.0   -0.02    3.56    3.15    91.98480    62.30558   151.87723
   173  C   4.0   -0.04    3.47    3.10    93.15327    64.64915   151.69862
   174  C   4.0   -0.05    3.46    3.10    93.43463    60.16926   152.35496
   175  C   4.0   -0.04    3.37    3.07    95.75143    64.84015   151.89173
   176  C   4.0   -0.04    3.37    3.07    96.02899    60.37053   152.60170
   177  C   4.0   -0.04    3.37    3.07    97.20033    62.69703   152.31921
   178  H   1.0    0.09    1.03    1.43    87.29347    58.97370   155.24247
   179  H   1.0    0.06    1.05    1.44    88.46299    64.43097   154.88230
   180  H   1.0    0.05    1.03    1.43    88.63173    60.22696   150.93244
   181  H   1.0    0.04    1.04    1.43    88.58487    63.51406   150.14391
   182  H   1.0    0.06    1.03    1.43    92.03809    66.32896   151.38695
   183  H   1.0    0.04    1.03    1.43    92.54832    58.33931   152.53484
   184  H   1.0    0.06    1.03    1.43    96.66973    66.65035   151.66685
   185  H   1.0    0.05    1.03    1.43    97.15991    58.72424   153.00732
   186  H   1.0    0.05    1.03    1.43    99.23793    62.80317   152.32467
   187  N   5.0   -0.14    3.46    2.06    84.02553    65.32656   153.42906
   188  C   4.0    0.03    4.45    4.46    81.39160    65.77504   152.87680
   189  C   4.0    0.15    3.43    3.09    81.08201    68.15812   151.29328
   190  O   6.0   -0.31    1.26    1.80    82.55795    69.93136   151.38476
   191  C   4.0   -0.04    4.36    4.31    79.83544    66.08388   155.30431
   192  C   4.0   -0.02    4.18    3.97    79.85079    63.75323   157.01826
   193  C   4.0   -0.08    4.11    3.82    78.55143    64.44419   159.49897
   194  C   4.0   -0.08    4.10    3.80    78.54226    61.48093   155.81262
   195  H   1.0    0.10    1.06    1.44    85.05147    66.74298   154.20274
   196  H   1.0    0.05    1.07    1.44    80.72181    64.11901   151.84019
   197  H   1.0    0.05    1.03    1.43    80.59745    67.69010   156.35286
   198  H   1.0    0.05    1.03    1.43    77.88574    66.53768   154.80343
   199  H   1.0    0.05    1.05    1.44    81.81444    63.24483   157.44195
   200  H   1.0    0.04    1.00    1.43    78.63693    62.86585   160.81213
   201  H   1.0    0.04    1.00    1.43    79.45947    66.07094   160.36949
   202  H   1.0    0.04    1.00    1.43    76.57056    64.89493   159.17354
   203  H   1.0    0.04    1.00    1.43    78.48483    59.93609   157.16625
   204  H   1.0    0.04    1.00    1.43    76.61429    61.96778   155.28811
   205  H   1.0    0.06    1.00    1.43    79.57029    60.82226   154.16531
   206  N   5.0   -0.14    3.38    2.01    79.10370    68.05038   149.69080
   207  C   4.0    0.02    4.28    4.16    78.30381    70.28653   148.33796
   208  C   4.0    0.14    3.41    3.08    76.82376    72.05840   150.06599
   209  O   6.0   -0.29    1.26    1.80    75.91038    71.33314   152.07621
   210  H   1.0    0.07    1.07    1.44    77.73595    66.76721   150.06578
   211  H   1.0    0.06    1.03    1.43    79.98263    71.23973   147.60302
   212  H   1.0    0.04    1.02    1.43    77.10536    69.71241   146.75968
   213  N   5.0   -0.11    3.65    2.21    76.55526    74.43713   149.24558
   214  C   4.0    0.04    4.48    4.51    75.30260    76.31556   150.81539
   215  C   4.0    0.09    3.22    3.04    72.57501    75.55570   151.41840
   216  O   6.0   -0.29    1.11    1.80    71.54985    76.22991   153.38063
   217  C   4.0   -0.05    4.31    4.22    75.51909    78.78760   149.31617
   218  C   4.0   -0.05    4.26    4.11    75.87583    77.90666   146.58782
   219  C   4.0   -0.01    4.36    4.30    77.43921    75.49637   146.86507
   220  H   1.0    0.06    1.05    1.44    76.24505    76.45010   152.65757
   221  H   1.0    0.04    1.02    1.43    73.85846    79.97292   149.57008
   222  H   1.0    0.04    1.02    1.43    77.16510    79.83426   149.97312
   223  H   1.0    0.04    1.02    1.43    74.04728    77.49401   145.73842
   224  H   1.0    0.04    1.02    1.43    76.81932    79.31346   145.42883
   225  H   1.0    0.05    1.02    1.43    77.15113    74.18821   145.30357
   226  H   1.0    0.05    1.02    1.43    79.45778    75.92634   146.99602
   227  N   5.0   -0.21    3.19    1.95   111.83194    91.01574   136.97471
   228  C   4.0    0.04    4.32    4.23   110.97577    88.75786   138.31783
   229  C   4.0    0.16    3.46    3.10   111.81757    88.80238   141.11491
   230  O   6.0   -0.28    1.27    1.80   113.80790    87.87446   141.80501
   231  C   4.0   -0.02    4.34    4.27   112.09523    86.44873   136.99465
   232  C   4.0    0.17    3.25    3.04   111.42739    84.00023   138.35643
   233  O   6.0   -0.28    1.25    1.80   110.22214    83.91470   140.31329
   234  N   5.0   -0.18    3.18    1.95   112.37469    81.92407   137.22367
   235  H   1.0    0.08    1.03    1.43   113.11221    90.73306   135.59401
   236  H   1.0    0.05    1.05    1.44   108.90350    88.66929   138.28102
   237  H   1.0    0.04    1.03    1.43   111.37802    86.34579   135.06464
   238  H   1.0    0.05    1.03    1.43   114.15360    86.61054   136.98064
   239  H   1.0    0.10    1.03    1.43   111.73051    80.22846   137.80079
   240  H   1.0    0.08    1.03    1.43   113.15009    82.03110   135.49162
   241  N   5.0   -0.14    3.51    2.08   110.22831    89.94356   142.71375
   242  C   4.0    0.04    4.47    4.50   111.07476    90.46082   145.24264
   243  C   4.0    0.14    3.51    3.12   110.44861    88.39727   147.14000
   244  O   6.0   -0.30    1.26    1.80   111.66912    88.26987   149.11465
   245  C   4.0   -0.04    4.31    4.21   110.15271    93.03543   146.17858
   246  C   4.0    0.15    3.26    3.05   107.29691    93.06794   146.36615
   247  O   6.0   -0.31    1.24    1.80   105.95879    92.73623   144.50691
   248  N   5.0   -0.19    3.18    1.95   106.32901    93.48709   148.67173
   249  H   1.0    0.09    1.08    1.44   108.72830    90.93999   142.06229
   250  H   1.0    0.06    1.07    1.44   113.15620    90.50354   145.18406
   251  H   1.0    0.05    1.03    1.43   111.06483    93.44998   147.97568
   252  H   1.0    0.05    1.03    1.43   110.71152    94.43127   144.76955
   253  H   1.0    0.09    1.03    1.43   104.43377    93.47224   148.87676
   254  H   1.0    0.08    1.03    1.43   107.41571    93.62250   150.22765
   255  N   5.0   -0.09    3.71    2.28   108.63362    86.71532   146.63066
   256  C   4.0    0.04    4.63    4.69   108.41788    84.48009   148.19360
   257  C   4.0    0.16    3.47    3.10   109.67386    82.20416   146.90518
   258  O   6.0   -0.29    1.29    1.80   108.74865    80.09278   147.02381
   259  C   4.0   -0.03    4.30    4.20   105.58629    84.10045   148.63043
   260  C   4.0   -0.04    4.24    4.07   104.31279    85.71932   146.58409
   261  C   4.0   -0.00    4.37    4.34   106.47796    86.76674   144.94414
   262  H   1.0    0.07    1.07    1.44   109.48820    84.83522   149.92502
   263  H   1.0    0.07    1.03    1.43   105.10708    82.10739   148.44969
   264  H   1.0    0.05    1.02    1.43   105.04246    84.73976   150.50616
   265  H   1.0    0.05    1.02    1.43   102.97718    84.64364   145.45351
   266  H   1.0    0.05    1.02    1.43   103.27813    87.28398   147.43039
   267  H   1.0    0.06    1.02    1.43   106.85397    85.58263   143.28966
   268  H   1.0    0.06    1.04    1.43   106.05436    88.66238   144.28460
   269  N   5.0   -0.11    3.51    2.08   111.97496    82.64048   145.91452
   270  C   4.0    0.05    4.41    4.40   113.35472    80.51023   144.88778
   271  C   4.0    0.09    3.37    3.07   113.42603    78.53121   146.96930
   272  O   6.0   -0.27    1.16    1.80   113.84895    79.17889   149.15370
   273  C   4.0    0.05    4.25    4.10   116.13948    81.15007   144.32872
   274  O   6.0   -0.23    2.14    1.85   116.16248    83.30695   142.77051
   275  C   4.0   -0.08    4.07    3.75   117.50251    78.95973   143.03231
   276  H   1.0    0.11    1.07    1.44   112.54028    84.37824   145.37440
   277  H   1.0    0.05    1.04    1.43   112.42873    79.83097   143.16157
   278  H   1.0    0.05    1.04    1.43   117.05918    81.58048   146.15344
   279  H   1.0    0.12    1.03    1.43   117.88733    83.79480   142.45214
   280  H   1.0    0.04    1.00    1.43   119.41291    79.56353   142.55950
   281  H   1.0    0.04    1.00    1.43   117.61324    77.30098   144.22980
   282  H   1.0    0.04    1.00    1.43   116.53006    78.48834   141.28544
   283  H   1.0    0.09    1.07    1.44   110.50187    91.77474   136.23484
   284  H   1.0    0.06    1.04    1.43   113.12889    76.71182   146.55383
   285  H   1.0    0.09    1.08    1.44    99.37658    74.43175   162.66690
   286  H   1.0    0.05    1.04    1.43    91.93406    70.71357   155.66012
   287  H   1.0    0.09    1.08    1.44    89.63466    60.40585   156.13151
   288  H   1.0    0.06    1.05    1.44    71.59944    74.49071   150.19974

  Z AO/shell   Hii/eV     exponent
  1     Wed Apr 25 08:07:45 CEST 2018   EN: 2.200 GM2: 0.406  GM3: 0.0800  RAES: 1.40
     1s    -10.707211    1.230000
  6     Wed Apr 25 08:07:45 CEST 2018   EN: 2.550 GM2: 0.538  GM3: 0.1500  RAES: 3.00
     2s    -13.970922    2.096432
     2p    -10.063292    1.800000
  7     Wed Apr 25 08:07:45 CEST 2018   EN: 3.040 GM2: 0.461  GM3:-0.0640  RAES: 1.90
     2s    -16.686243    2.339881
     2p    -12.523956    2.014332
  8     Wed Apr 25 08:07:45 CEST 2018   EN: 3.440 GM2: 0.452  GM3:-0.0517  RAES: 1.80
     2s    -20.229985    2.439742
     2p    -15.503117    2.137023
 16     Tue Apr 24 11:44:34 CEST 2018   EN: 2.580 GM2: 0.340  GM3:-0.0502  RAES: 3.10
     3s    -20.029654    1.981333
     3p    -11.377694    2.025643
     3d     -0.420282    1.702555
 no old-style atom pair restraining (fixing) potential

molecular fragmentation (1/2 indicates fragments):
111111111111111111111111111111111111111111111111111111111111111111111111
222222222222222222222222222222222222222222222222222222222222222222222222
222222222222222222222222222222222222222222222222222222222222222222222222
222222222222222222222222222222222222222222222222222222222222222222221222
# atoms in fragment 1/2:    73   215
 fragment masses (1/2) :      572.61     1513.71
CMA distance (Bohr)    :   8.368
constraining FC (au)   :  0.0500
           ------------------------------------------------- 
          |        Self-Consistent Charge Iterations        |
           ------------------------------------------------- 

 Ncao       : 732
 Nao        : 731
 Nshell     : 435
 Nel        : 814
 T(el)      :   500.0
 intcut     :    35.0
 scfconv/Eh :  0.100E-06
   qconv/e  :  0.100E-04
 intneglect :  0.100E-08
 broydamp   :      0.400
 iter      E             dE          RMSdq      gap      omega  full diag
   1   -468.5800125 -0.468580E+03  0.487E+00    3.08       0.0  T
   2   -469.7970225 -0.121701E+01  0.229E+00    1.64       1.0  T
   3   -469.8709490 -0.739265E-01  0.127E+00    1.87       1.0  T
   4   -469.9415283 -0.705793E-01  0.282E-01    1.25       1.0  T
   5   -469.9461646 -0.463625E-02  0.144E-01    1.45       1.0  T
   6   -469.9470156 -0.850999E-03  0.656E-02    1.46       1.0  T
   7   -469.9473196 -0.304027E-03  0.306E-02    1.49       1.0  T
   8   -469.9473637 -0.441334E-04  0.151E-02    1.51       1.0  T
   9   -469.9473795 -0.157270E-04  0.648E-03    1.51       1.0  T
  10   -469.9473818 -0.234609E-05  0.299E-03    1.51       2.0  T
  11   -469.9473824 -0.602526E-06  0.122E-03    1.51       4.8  T
  12   -469.9473825 -0.683926E-07  0.571E-04    1.51      10.3  T
  13   -469.9473825 -0.233715E-07  0.297E-04    1.51      19.9  T
  14   -469.9473825 -0.489564E-08  0.135E-04    1.51      43.7  T
  15   -469.9473825 -0.122537E-08  0.605E-05    1.51      97.3  T
  16   -469.9473825 -0.158650E-09  0.293E-05    1.51     200.9  T
speedup  1.94
cpu  time for SCC   10.18 s
wall time for SCC    5.24 s

   *** convergence criteria satisfied after 16 iterations ***

          eigenvalues
 #    :         395        396        397        398        399        400        401        402
 occ. :        2.000      2.000      2.000      2.000      2.000      2.000      2.000      2.000
 eps  :       -10.761    -10.755    -10.755    -10.494    -10.403    -10.343    -10.257    -10.149
 #    :         403        404        405        406        407        408        409        410
 occ. :        2.000      2.000      2.000      2.000      2.000      0.000      0.000      0.000
 eps  :       -10.116     -9.895     -9.813     -9.804     -9.772     -8.261     -8.031     -7.786
 #    :         411        412        413        414        415        416        417        418
 occ. :        0.000      0.000      0.000      0.000      0.000      0.000      0.000      0.000
 eps  :        -6.753     -6.591     -6.500     -6.413     -6.407     -6.348     -6.342     -6.331


   #   Z            q   n(s)   n(p)   n(d)      C6AA      α(0)
   1   7 N     -0.384  1.316  4.068  0.000    29.929     8.125
   2   6 C      0.035  1.059  2.906  0.000    19.999     6.370
   3   6 C      0.276  1.050  2.673  0.000    22.325     7.738
   4   8 O     -0.479  1.735  4.744  0.000    23.325     6.475
   5   6 C     -0.040  1.046  2.993  0.000    21.278     6.567
   6   6 C     -0.087  1.067  3.020  0.000    22.159     6.703
   7   6 C      0.370  1.026  2.604  0.000    20.721     7.449
   8   8 O     -0.652  1.772  4.880  0.000    27.420     7.021
   9   8 O     -0.652  1.777  4.875  0.000    27.429     7.022
  10   1 H      0.168  0.832  0.000  0.000     1.284     1.775
  11   1 H      0.032  0.968  0.000  0.000     2.560     2.502
  12   1 H      0.024  0.976  0.000  0.000     2.673     2.557
  13   1 H      0.009  0.991  0.000  0.000     2.907     2.666
  14   1 H      0.019  0.981  0.000  0.000     2.752     2.594
  15   1 H      0.022  0.978  0.000  0.000     2.705     2.572
  16   7 N     -0.185  1.265  3.920  0.000    25.014     7.428
  17   6 C      0.022  1.064  2.914  0.000    20.204     6.400
  18   6 C      0.266  1.044  2.690  0.000    22.519     7.771
  19   8 O     -0.533  1.765  4.768  0.000    24.528     6.640
  20   6 C     -0.060  1.050  3.010  0.000    21.628     6.618
  21   6 C     -0.011  1.065  2.946  0.000    20.786     6.492
  22  16 S     -0.225  1.917  4.256  0.052   150.664    20.659
  23   6 C     -0.065  1.056  3.009  0.000    21.812     6.662
  24   1 H      0.195  0.805  0.000  0.000     1.132     1.666
  25   1 H      0.083  0.917  0.000  0.000     1.952     2.185
  26   1 H      0.057  0.943  0.000  0.000     2.234     2.337
  27   1 H      0.049  0.951  0.000  0.000     2.338     2.391
  28   1 H      0.059  0.941  0.000  0.000     2.209     2.324
  29   1 H      0.066  0.934  0.000  0.000     2.135     2.285
  30   1 H      0.081  0.919  0.000  0.000     1.964     2.192
  31   1 H      0.069  0.931  0.000  0.000     2.099     2.266
  32   1 H      0.049  0.951  0.000  0.000     2.334     2.389
  33   7 N     -0.076  1.225  3.850  0.000    22.707     7.077
  34   6 C      0.022  1.063  2.915  0.000    20.182     6.391
  35   6 C      0.282  1.043  2.675  0.000    22.226     7.720
  36   8 O     -0.471  1.748  4.723  0.000    23.147     6.450
  37   6 C     -0.076  1.055  3.021  0.000    21.922     6.662
  38   6 C     -0.066  1.049  3.017  0.000    21.743     6.634
  39   6 C     -0.009  1.054  2.955  0.000    20.786     6.498
  40   1 H      0.058  0.942  0.000  0.000     2.225     2.333
  41   1 H      0.058  0.942  0.000  0.000     2.226     2.333
  42   1 H      0.097  0.903  0.000  0.000     1.811     2.105
  43   1 H      0.052  0.948  0.000  0.000     2.296     2.370
  44   1 H      0.085  0.915  0.000  0.000     1.928     2.171
  45   1 H      0.067  0.933  0.000  0.000     2.124     2.279
  46   1 H      0.073  0.927  0.000  0.000     2.048     2.238
  47   7 N     -0.204  1.265  3.939  0.000    25.432     7.490
  48   6 C      0.041  1.057  2.901  0.000    19.888     6.351
  49   6 C      0.275  1.044  2.680  0.000    22.347     7.740
  50   8 O     -0.513  1.738  4.776  0.000    24.079     6.579
  51   6 C     -0.050  1.052  2.997  0.000    21.460     6.595
  52   6 C     -0.077  1.062  3.014  0.000    21.964     6.673
  53   6 C      0.372  1.026  2.602  0.000    20.699     7.445
  54   8 O     -0.642  1.770  4.872  0.000    27.174     6.989
  55   8 O     -0.647  1.766  4.881  0.000    27.306     7.006
  56   1 H      0.202  0.798  0.000  0.000     1.098     1.641
  57   1 H      0.047  0.953  0.000  0.000     2.360     2.403
  58   1 H      0.031  0.969  0.000  0.000     2.573     2.508
  59   1 H      0.049  0.951  0.000  0.000     2.339     2.391
  60   1 H      0.006  0.994  0.000  0.000     2.954     2.688
  61   1 H      0.011  0.989  0.000  0.000     2.869     2.649
  62   7 N     -0.186  1.258  3.928  0.000    25.033     7.431
  63   6 C      0.017  1.068  2.916  0.000    20.315     6.421
  64   6 C      0.370  1.022  2.608  0.000    20.736     7.452
  65   8 O     -0.600  1.751  4.849  0.000    26.111     6.851
  66   6 C     -0.097  1.036  3.061  0.000    22.419     6.752
  67   8 O     -0.599  1.764  4.835  0.000    26.089     6.848
  68   1 H      0.219  0.781  0.000  0.000     1.015     1.579
  69   1 H      0.026  0.974  0.000  0.000     2.649     2.545
  70   1 H      0.051  0.949  0.000  0.000     2.302     2.373
  71   1 H      0.037  0.963  0.000  0.000     2.495     2.470
  72   1 H      0.031  0.969  0.000  0.000     2.572     2.508
  73   7 N     -0.166  1.234  3.932  0.000    24.578     7.363
  74   6 C     -0.030  1.079  2.950  0.000    21.124     6.547
  75   6 C      0.285  1.027  2.689  0.000    22.174     7.710
  76   8 O     -0.476  1.769  4.707  0.000    23.264     6.467
  77   6 C      0.061  1.036  2.903  0.000    19.759     6.367
  78   8 O     -0.455  1.693  4.762  0.000    21.954     6.325
  79   1 H      0.341  0.659  0.000  0.000     0.602     1.216
  80   1 H      0.310  0.690  0.000  0.000     0.685     1.297
  81   1 H      0.295  0.705  0.000  0.000     0.727     1.336
  82   1 H      0.149  0.851  0.000  0.000     1.400     1.850
  83   1 H      0.058  0.942  0.000  0.000     2.221     2.331
  84   1 H      0.066  0.934  0.000  0.000     2.131     2.283
  85   1 H      0.360  0.640  0.000  0.000     0.565     1.181
  86   7 N     -0.175  1.235  3.940  0.000    24.789     7.395
  87   6 C     -0.005  1.071  2.934  0.000    20.676     6.477
  88   6 C      0.258  1.046  2.696  0.000    22.666     7.797
  89   8 O     -0.445  1.724  4.721  0.000    22.607     6.375
  90   6 C      0.113  1.052  2.835  0.000    18.824     6.196
  91   8 O     -0.452  1.691  4.760  0.000    21.880     6.314
  92   6 C     -0.125  1.040  3.085  0.000    22.959     6.833
  93   1 H      0.246  0.754  0.000  0.000     0.899     1.485
  94   1 H      0.063  0.937  0.000  0.000     2.163     2.300
  95   1 H      0.062  0.938  0.000  0.000     2.171     2.304
  96   1 H      0.314  0.686  0.000  0.000     0.680     1.295
  97   1 H      0.066  0.934  0.000  0.000     2.135     2.285
  98   1 H      0.046  0.954  0.000  0.000     2.371     2.408
  99   1 H      0.018  0.982  0.000  0.000     2.757     2.596
 100   7 N     -0.183  1.245  3.938  0.000    24.962     7.420
 101   6 C      0.016  1.064  2.920  0.000    20.319     6.419
 102   6 C      0.279  1.040  2.681  0.000    22.275     7.728
 103   8 O     -0.430  1.722  4.708  0.000    22.294     6.331
 104   6 C     -0.127  1.040  3.087  0.000    23.003     6.839
 105   1 H      0.190  0.810  0.000  0.000     1.156     1.684
 106   1 H      0.093  0.907  0.000  0.000     1.850     2.127
 107   1 H      0.086  0.914  0.000  0.000     1.916     2.165
 108   1 H      0.056  0.944  0.000  0.000     2.243     2.342
 109   1 H      0.054  0.946  0.000  0.000     2.273     2.358
 110   7 N     -0.184  1.235  3.950  0.000    24.998     7.426
 111   6 C      0.016  1.063  2.921  0.000    20.314     6.418
 112   6 C      0.272  1.040  2.687  0.000    22.397     7.749
 113   8 O     -0.444  1.726  4.719  0.000    22.587     6.372
 114   6 C     -0.107  1.060  3.047  0.000    22.539     6.758
 115   6 C      0.294  1.033  2.673  0.000    22.009     7.682
 116   8 O     -0.497  1.754  4.743  0.000    23.710     6.529
 117   7 N     -0.289  1.264  4.025  0.000    27.456     7.782
 118   1 H      0.171  0.829  0.000  0.000     1.264     1.761
 119   1 H      0.088  0.912  0.000  0.000     1.899     2.155
 120   1 H      0.093  0.907  0.000  0.000     1.854     2.129
 121   1 H      0.101  0.899  0.000  0.000     1.774     2.083
 122   1 H      0.238  0.762  0.000  0.000     0.933     1.513
 123   1 H      0.239  0.761  0.000  0.000     0.928     1.509
 124   7 N     -0.171  1.234  3.937  0.000    24.693     7.380
 125   6 C      0.009  1.065  2.926  0.000    20.426     6.436
 126   6 C      0.265  1.044  2.691  0.000    22.526     7.773
 127   8 O     -0.498  1.751  4.747  0.000    23.743     6.533
 128   6 C     -0.066  1.054  3.012  0.000    21.760     6.640
 129   6 C     -0.084  1.053  3.031  0.000    22.098     6.693
 130   6 C     -0.091  1.051  3.040  0.000    22.241     6.714
 131   6 C     -0.054  1.060  2.994  0.000    21.635     6.639
 132   7 N     -0.146  1.229  3.917  0.000    24.152     7.299
 133   1 H      0.187  0.813  0.000  0.000     1.176     1.699
 134   1 H      0.092  0.908  0.000  0.000     1.863     2.134
 135   1 H      0.045  0.955  0.000  0.000     2.384     2.414
 136   1 H      0.042  0.958  0.000  0.000     2.418     2.432
 137   1 H      0.067  0.933  0.000  0.000     2.118     2.276
 138   1 H      0.072  0.928  0.000  0.000     2.059     2.244
 139   1 H      0.077  0.923  0.000  0.000     2.013     2.219
 140   1 H      0.070  0.930  0.000  0.000     2.089     2.260
 141   1 H      0.126  0.874  0.000  0.000     1.562     1.955
 142   1 H      0.124  0.876  0.000  0.000     1.583     1.968
 143   1 H      0.310  0.690  0.000  0.000     0.685     1.296
 144   1 H      0.293  0.707  0.000  0.000     0.733     1.341
 145   1 H      0.295  0.705  0.000  0.000     0.730     1.338
 146   7 N     -0.164  1.242  3.922  0.000    24.555     7.360
 147   6 C      0.031  1.058  2.911  0.000    20.067     6.380
 148   6 C      0.201  1.087  2.712  0.000    23.729     7.978
 149   8 O     -0.348  1.736  4.611  0.000    20.667     6.095
 150   6 C     -0.071  1.056  3.016  0.000    21.854     6.654
 151   6 C      0.002  1.075  2.923  0.000    27.990     8.678
 152   6 C     -0.043  1.084  2.959  0.000    29.071     8.842
 153   6 C     -0.041  1.084  2.958  0.000    29.031     8.836
 154   6 C     -0.073  1.078  2.995  0.000    29.829     8.956
 155   6 C     -0.058  1.076  2.982  0.000    29.446     8.898
 156   6 C      0.145  1.048  2.807  0.000    24.850     8.170
 157   8 O     -0.445  1.734  4.711  0.000    21.732     6.293
 158   1 H      0.236  0.764  0.000  0.000     0.938     1.517
 159   1 H      0.075  0.925  0.000  0.000     2.026     2.226
 160   1 H      0.075  0.925  0.000  0.000     2.035     2.231
 161   1 H      0.058  0.942  0.000  0.000     2.226     2.333
 162   1 H      0.064  0.936  0.000  0.000     2.148     2.292
 163   1 H      0.031  0.969  0.000  0.000     2.578     2.511
 164   1 H      0.060  0.940  0.000  0.000     2.201     2.320
 165   1 H      0.044  0.956  0.000  0.000     2.402     2.424
 166   1 H      0.355  0.645  0.000  0.000     0.577     1.193
 167   7 N     -0.391  1.319  4.072  0.000    30.118     8.151
 168   6 C      0.030  1.060  2.910  0.000    20.078     6.382
 169   6 C      0.270  1.045  2.684  0.000    22.435     7.757
 170   8 O     -0.468  1.729  4.739  0.000    23.084     6.442
 171   6 C     -0.079  1.058  3.021  0.000    21.996     6.675
 172   6 C      0.014  1.081  2.905  0.000    27.700     8.633
 173   6 C     -0.039  1.077  2.962  0.000    28.969     8.826
 174   6 C     -0.043  1.080  2.963  0.000    29.065     8.841
 175   6 C     -0.031  1.079  2.952  0.000    28.764     8.795
 176   6 C     -0.034  1.081  2.952  0.000    28.843     8.807
 177   6 C     -0.034  1.079  2.955  0.000    28.851     8.808
 178   1 H      0.169  0.831  0.000  0.000     1.278     1.771
 179   1 H      0.039  0.961  0.000  0.000     2.468     2.457
 180   1 H      0.071  0.929  0.000  0.000     2.076     2.253
 181   1 H      0.052  0.948  0.000  0.000     2.289     2.366
 182   1 H      0.025  0.975  0.000  0.000     2.653     2.547
 183   1 H      0.052  0.948  0.000  0.000     2.294     2.368
 184   1 H      0.004  0.996  0.000  0.000     2.988     2.703
 185   1 H      0.033  0.967  0.000  0.000     2.538     2.491
 186   1 H      0.008  0.992  0.000  0.000     2.919     2.672
 187   7 N     -0.167  1.238  3.928  0.000    24.608     7.367
 188   6 C      0.006  1.062  2.932  0.000    20.467     6.441
 189   6 C      0.272  1.044  2.685  0.000    22.407     7.752
 190   8 O     -0.477  1.740  4.738  0.000    23.290     6.470
 191   6 C     -0.070  1.059  3.011  0.000    21.822     6.649
 192   6 C     -0.008  1.055  2.953  0.000    20.684     6.469
 193   6 C     -0.113  1.042  3.071  0.000    22.709     6.794
 194   6 C     -0.122  1.041  3.081  0.000    22.890     6.822
 195   1 H      0.199  0.801  0.000  0.000     1.110     1.650
 196   1 H      0.101  0.899  0.000  0.000     1.779     2.086
 197   1 H      0.039  0.961  0.000  0.000     2.465     2.455
 198   1 H      0.056  0.944  0.000  0.000     2.242     2.342
 199   1 H      0.027  0.973  0.000  0.000     2.622     2.532
 200   1 H      0.039  0.961  0.000  0.000     2.460     2.453
 201   1 H      0.029  0.971  0.000  0.000     2.599     2.521
 202   1 H      0.042  0.958  0.000  0.000     2.425     2.435
 203   1 H      0.039  0.961  0.000  0.000     2.467     2.456
 204   1 H      0.045  0.955  0.000  0.000     2.381     2.413
 205   1 H      0.060  0.940  0.000  0.000     2.202     2.321
 206   7 N     -0.163  1.250  3.913  0.000    24.534     7.356
 207   6 C     -0.039  1.053  2.987  0.000    21.342     6.589
 208   6 C      0.261  1.043  2.696  0.000    22.602     7.785
 209   8 O     -0.513  1.762  4.751  0.000    24.069     6.578
 210   1 H      0.221  0.779  0.000  0.000     1.003     1.569
 211   1 H      0.103  0.897  0.000  0.000     1.760     2.074
 212   1 H      0.110  0.890  0.000  0.000     1.694     2.036
 213   7 N     -0.087  1.232  3.855  0.000    22.936     7.113
 214   6 C      0.025  1.063  2.911  0.000    20.134     6.386
 215   6 C      0.211  1.083  2.706  0.000    23.526     7.943
 216   8 O     -0.379  1.763  4.616  0.000    21.271     6.183
 217   6 C     -0.066  1.054  3.012  0.000    21.750     6.636
 218   6 C     -0.076  1.052  3.024  0.000    21.930     6.663
 219   6 C     -0.019  1.056  2.963  0.000    20.955     6.525
 220   1 H      0.079  0.921  0.000  0.000     1.988     2.205
 221   1 H      0.066  0.934  0.000  0.000     2.131     2.283
 222   1 H      0.070  0.930  0.000  0.000     2.090     2.261
 223   1 H      0.072  0.928  0.000  0.000     2.069     2.249
 224   1 H      0.079  0.921  0.000  0.000     1.988     2.205
 225   1 H      0.088  0.912  0.000  0.000     1.902     2.157
 226   1 H      0.068  0.932  0.000  0.000     2.109     2.271
 227   7 N     -0.398  1.320  4.078  0.000    30.307     8.176
 228   6 C      0.045  1.053  2.902  0.000    19.837     6.344
 229   6 C      0.280  1.046  2.674  0.000    22.257     7.726
 230   8 O     -0.471  1.740  4.731  0.000    23.148     6.451
 231   6 C     -0.100  1.064  3.036  0.000    22.394     6.736
 232   6 C      0.302  1.037  2.661  0.000    21.880     7.659
 233   8 O     -0.507  1.761  4.746  0.000    23.943     6.560
 234   7 N     -0.290  1.269  4.021  0.000    27.473     7.785
 235   1 H      0.182  0.818  0.000  0.000     1.201     1.716
 236   1 H      0.015  0.985  0.000  0.000     2.803     2.618
 237   1 H      0.063  0.937  0.000  0.000     2.161     2.299
 238   1 H      0.096  0.904  0.000  0.000     1.826     2.113
 239   1 H      0.199  0.801  0.000  0.000     1.112     1.652
 240   1 H      0.239  0.761  0.000  0.000     0.927     1.508
 241   7 N     -0.192  1.253  3.939  0.000    25.168     7.451
 242   6 C      0.034  1.052  2.913  0.000    19.991     6.365
 243   6 C      0.257  1.046  2.697  0.000    22.678     7.799
 244   8 O     -0.496  1.744  4.752  0.000    23.692     6.526
 245   6 C     -0.113  1.062  3.050  0.000    22.642     6.773
 246   6 C      0.289  1.036  2.675  0.000    22.096     7.697
 247   8 O     -0.504  1.756  4.748  0.000    23.879     6.552
 248   7 N     -0.281  1.266  4.015  0.000    27.261     7.754
 249   1 H      0.210  0.790  0.000  0.000     1.056     1.610
 250   1 H      0.095  0.905  0.000  0.000     1.830     2.116
 251   1 H      0.093  0.907  0.000  0.000     1.847     2.125
 252   1 H      0.103  0.897  0.000  0.000     1.760     2.075
 253   1 H      0.237  0.763  0.000  0.000     0.937     1.516
 254   1 H      0.239  0.761  0.000  0.000     0.928     1.509
 255   7 N     -0.089  1.232  3.857  0.000    22.973     7.119
 256   6 C      0.019  1.065  2.915  0.000    20.217     6.396
 257   6 C      0.284  1.044  2.672  0.000    22.191     7.714
 258   8 O     -0.487  1.750  4.737  0.000    23.505     6.500
 259   6 C     -0.058  1.047  3.011  0.000    21.605     6.615
 260   6 C     -0.053  1.050  3.003  0.000    21.509     6.600
 261   6 C      0.001  1.049  2.950  0.000    20.585     6.465
 262   1 H      0.092  0.908  0.000  0.000     1.859     2.132
 263   1 H      0.050  0.950  0.000  0.000     2.320     2.382
 264   1 H      0.059  0.941  0.000  0.000     2.208     2.323
 265   1 H      0.033  0.967  0.000  0.000     2.549     2.496
 266   1 H      0.060  0.940  0.000  0.000     2.203     2.321
 267   1 H      0.041  0.959  0.000  0.000     2.433     2.439
 268   1 H      0.076  0.924  0.000  0.000     2.024     2.225
 269   7 N     -0.161  1.241  3.921  0.000    24.493     7.350
 270   6 C      0.041  1.054  2.905  0.000    19.887     6.349
 271   6 C      0.210  1.082  2.709  0.000    23.559     7.950
 272   8 O     -0.369  1.752  4.617  0.000    21.069     6.154
 273   6 C      0.122  1.046  2.832  0.000    18.677     6.168
 274   8 O     -0.478  1.735  4.743  0.000    22.433     6.394
 275   6 C     -0.143  1.048  3.096  0.000    23.322     6.887
 276   1 H      0.207  0.793  0.000  0.000     1.071     1.621
 277   1 H      0.056  0.944  0.000  0.000     2.242     2.342
 278   1 H      0.034  0.966  0.000  0.000     2.526     2.485
 279   1 H      0.352  0.648  0.000  0.000     0.583     1.199
 280   1 H      0.084  0.916  0.000  0.000     1.937     2.176
 281   1 H      0.057  0.943  0.000  0.000     2.236     2.338
 282   1 H      0.066  0.934  0.000  0.000     2.130     2.282
 283   1 H      0.188  0.812  0.000  0.000     1.168     1.693
 284   1 H      0.079  0.921  0.000  0.000     1.992     2.207
 285   1 H      0.183  0.817  0.000  0.000     1.199     1.715
 286   1 H      0.062  0.938  0.000  0.000     2.180     2.309
 287   1 H      0.172  0.828  0.000  0.000     1.262     1.759
 288   1 H      0.079  0.921  0.000  0.000     1.985     2.203

 Mol. C6AA /au·bohr⁶  :     811999.150219
 Mol. C8AA /au·bohr⁸  :   18379100.969717
 Mol. α(0) /au        :       1349.724983

 
molecular dipole:
                 x           y           z       tot (Debye)
 q only:     -134.500     -92.392    -165.272
   full:     -131.646     -92.293    -164.993     585.560
molecular quadrupole (traceless):
                xx          xy          yy          xz          yz          zz
 q only:     1065.683  -17415.232   13528.893  -32056.679  -22149.596  -14594.576
  q+dip:     1549.448  -17089.492   13222.524  -31404.062  -22122.525  -14771.972
   full:     1548.031  -17092.110   13221.312  -31406.853  -22123.756  -14769.343
speedup  1.95
cpu  time for grad   13.41 s
wall time for grad    6.86 s

SCC energy    :    -469.9588357
rep           :       5.3914658
ES            :       1.8765471
AES           :      -0.0918607
AXC           :       0.1293630
disp          :      -0.3565000
XB            :       0.0000000
fix           :       0.0000000
Gborn         :       0.0000000
Gsasa         :       0.0000000
Ghb           :       0.0000000
Gshift        :       0.0000000
Gsolv         :      -0.6163514     -386.77
Etot ala COSMO:    -469.9588357
grad norm     :       0.3877470
total E       :    -464.5445204
atomizationE  :      82.8981593    52019.38
(atE without considering molecular charge,
 total energy contains solvation terms)
H-L gap (eV)  :          1.5111

------------------------------------------------------------------------
 * finished run on 2019/05/10 at 08:26:51.172     
------------------------------------------------------------------------
 total:
 * wall-time:     0 d,  0 h,  0 min,  7.591 sec
 *  cpu-time:     0 d,  0 h,  0 min, 14.651 sec
 * ratio c/w:     1.930 speedup
 SCF:
 * wall-time:     0 d,  0 h,  0 min,  7.361 sec
 *  cpu-time:     0 d,  0 h,  0 min, 14.400 sec
 * ratio c/w:     1.956 speedup

