      -----------------------------------------------------------      
     |                   =====================                   |     
     |                           x T B                           |     
     |                   =====================                   |     
     |                         S. Grimme                         |     
     |          Mulliken Center for Theoretical Chemistry        |     
     |                    University of Bonn                     |     
     |                 Version 6.0.1 (SAW181210)                 |     
      -----------------------------------------------------------      

   This program is distributed in the hope that it will be useful,
   but WITHOUT ANY WARRANTY; without even the implied warranty of
   MERCHANTABILITY or FITNESS FOR A PARTICULAR PURPOSE.
   
   FOR NON-COMMERCIAL, ACADEMIA USE ONLY.
   
   Cite this work as:
   S. Grimme, C. Bannwarth, P. Shushkov, J. Comput. Theory Chem., 2017,
   13, 1989-2009.
   C. Bannwarth, S. Ehlert and S. Grimme., ChemRxiv, 2018, preprint.
   http://doi.org/10.26434/chemrxiv.7246238.v1
   
   for sTDA-xTB:
   S. Grimme and C. Bannwarth, J. Chem. Phys., 2016, 145, 054103.
   
   in the mass-spec context:
   V. Asgeirsson, C. Bauer and S. Grimme, Chem. Sci., 2017, 8, 4879.
   
   if GBSA is used:
   P. Shushkov, F. März and S. Grimme, unpublished.
   
   for ANC optimizer:
   S. Grimme, unpublished.
   Rational Function algorithm used in ANCopt:
   F. Eckert, P. Pulay, H.-J. Werner, J. Comput. Chem., 1997, 18, 1473.
   
   with help from (in alphabetical order)
   C. Bannwarth, F. Bohle, G. Brandenburg, E. Caldeweyher, M. Checinski,
   S. Dohm, S. Ehlert, S. Ehrlich, F. März, H. Neugebauer, J. Pisarek,
   P. Pracht, P. Shushkov, and S. Spicher.
   
 * started run on 2019/05/10 at 02:12:37.990     
========================================================================
 # omp threads = 2
========================================================================
number of atoms            : 625
number of electrons        : 1664
charge                     : -1
spin                       : .0
first test random number   : .6297

########################################################################
# WARNING! Please study the warnings concerning your input carefully
#  - Process number higher than OMP_NUM_THREADS, I hope you know what you are doing.
########################################################################

           ------------------------------------------------- 
          |                 G F N 2 - x T B                 |
          | Geometry, Frequencies, Noncovalent interactions |
          |            JCTC 2018 parametrisation            |
           ------------------------------------------------- 
 
      method parameters     
 k(s)        :  1.8500
 k(p)        :  2.2300
 k(d)        :  2.2300
 k(f)        :  2.0000
 kEN (H0ij)  : -2.0000
 D4 a1       :  0.5200
 D4 a2       :  5.0000
 D4 s6       :  1.0000
 D4 s8       :  2.7000
 D4 s9       :  5.0000
 alphaj      :  2.0000

 Solvent             : h2o
 Using internal parameter file: .param_gbsa2_h2o
 Gsolv ref. state (COSMO-RS): gsolv [1 M gas/solution]
 temperature (mdtemp)       :    298.150000000000     
 dielectric constant        :    80.2000000000000     
 rho                        :    1.00000000000000     
 mass                       :    18.0000000000000     
 surface tension            :    15.5689454083859     
 probe radius               :   0.975313790000000     
 vdW radii scaling          :    1.00000000000000     
 Gshift (Eh)                :   1.857443126794793E-003
 c1                         :    1.55243817000000     
 soset                      :   0.130326360000000     
 HB correction              :  T

            Z     q(EN)     CN     RAES       Cart. coordinates
     1  N   5.0   -0.22    3.19    1.95   108.59461    33.44136    20.43636
     2  C   4.0    0.03    4.27    4.14   110.21799    32.17618    22.19314
     3  C   4.0    0.07    3.26    3.05   112.68142    33.56466    22.60308
     4  O   6.0   -0.30    1.14    1.80   113.67806    33.27853    24.68090
     5  C   4.0   -0.05    4.35    4.30   110.99125    29.50202    21.46822
     6  C   4.0   -0.05    4.04    3.70   108.96940    27.61260    22.15945
     7  S   6.0   -0.04    2.40    3.10   110.10697    24.26724    21.94431
     8  C   4.0   -0.05    3.86    3.41   111.48584    23.73618    25.09338
     9  H   1.0    0.08    1.02    1.43   108.42439    32.69087    18.68360
    10  H   1.0    0.05    1.06    1.44   109.27845    32.11724    24.04027
    11  H   1.0    0.04    1.03    1.43   111.36015    29.36367    19.44630
    12  H   1.0    0.05    1.05    1.44   112.71527    29.01264    22.49102
    13  H   1.0    0.04    1.07    1.44   108.33307    27.87399    24.09609
    14  H   1.0    0.04    1.07    1.44   107.39416    27.70211    20.85156
    15  H   1.0    0.06    1.04    1.43   112.70064    22.09970    24.92388
    16  H   1.0    0.04    1.03    1.43   112.56133    25.38188    25.65834
    17  H   1.0    0.07    1.03    1.43   109.99207    23.31945    26.43609
    18  N   5.0   -0.21    3.17    1.95   116.71143    34.73095    39.76045
    19  C   4.0    0.03    4.27    4.13   118.65600    33.37940    38.33538
    20  C   4.0    0.16    3.42    3.08   117.61114    30.81945    37.23219
    21  O   6.0   -0.28    1.27    1.80   116.41321    29.33040    38.53142
    22  C   4.0    0.03    4.15    3.90   120.88336    32.65331    40.05294
    23  O   6.0   -0.26    2.10    1.84   122.44456    31.15631    38.51575
    24  H   1.0    0.09    1.03    1.43   115.95859    33.66730    41.16046
    25  H   1.0    0.04    1.05    1.44   119.30649    34.59288    36.79614
    26  H   1.0    0.03    1.01    1.43   121.88306    34.33413    40.72392
    27  H   1.0    0.05    1.01    1.43   120.13790    31.57064    41.65437
    28  H   1.0    0.12    1.02    1.43   123.57601    30.16035    39.54657
    29  N   5.0   -0.14    3.43    2.03   118.11598    30.37408    34.78904
    30  C   4.0    0.03    4.44    4.44   116.56099    28.72385    33.22265
    31  C   4.0    0.17    3.41    3.08   115.33334    26.47546    34.64811
    32  O   6.0   -0.28    1.22    1.80   113.03032    26.28811    34.66645
    33  C   4.0   -0.02    4.24    4.08   118.11285    28.08773    30.83280
    34  C   4.0   -0.07    4.10    3.80   120.55213    26.63999    31.41941
    35  C   4.0   -0.07    4.09    3.78   116.48658    26.74383    28.85299
    36  H   1.0    0.07    1.07    1.44   119.15760    31.65425    33.82159
    37  H   1.0    0.06    1.06    1.44   114.89549    29.81020    32.59278
    38  H   1.0    0.04    1.06    1.44   118.65476    29.92172    30.02745
    39  H   1.0    0.04    1.00    1.43   121.79360    26.69788    29.78640
    40  H   1.0    0.05    1.00    1.43   121.51867    27.47727    33.02616
    41  H   1.0    0.04    1.00    1.43   120.13950    24.66677    31.81952
    42  H   1.0    0.04    1.00    1.43   117.63299    26.22983    27.22672
    43  H   1.0    0.07    1.01    1.43   115.63509    25.02528    29.60047
    44  H   1.0    0.05    1.00    1.43   114.96225    27.97478    28.22928
    45  N   5.0   -0.12    3.43    2.04   116.89239    24.78719    35.74040
    46  C   4.0    0.04    4.41    4.40   116.11293    22.28391    36.52435
    47  C   4.0    0.14    3.35    3.06   117.85872    21.05410    38.51814
    48  O   6.0   -0.30    1.19    1.80   120.01408    21.72953    38.98407
    49  C   4.0   -0.03    4.29    4.18   116.01588    20.51203    34.22211
    50  C   4.0    0.26    3.12    3.03   113.34642    20.76542    32.98678
    51  O   6.0   -0.30    1.17    1.80   111.53150    20.03440    34.31890
    52  O   6.0   -0.30    1.17    1.80   113.37098    21.61957    30.79134
    53  H   1.0    0.09    1.07    1.44   118.77459    25.10831    35.74237
    54  H   1.0    0.07    1.06    1.44   114.19332    22.40638    37.29909
    55  H   1.0    0.05    1.02    1.43   117.47297    21.01045    32.85370
    56  H   1.0    0.05    1.03    1.43   116.25547    18.53724    34.77786
    57  N   5.0   -0.14    3.53    2.10   116.75759    18.96002    39.52293
    58  C   4.0    0.03    4.37    4.32   117.61420    17.34966    41.61623
    59  C   4.0    0.15    3.46    3.10   116.26235    14.75825    41.29684
    60  O   6.0   -0.31    1.33    1.80   114.04218    14.34492    41.68439
    61  C   4.0   -0.03    4.29    4.18   117.01595    18.60080    44.20324
    62  C   4.0   -0.00    3.64    3.19   114.32916    19.48442    44.01261
    63  C   4.0   -0.01    3.53    3.13   112.33535    17.87513    44.62041
    64  C   4.0   -0.04    3.53    3.13   113.77820    21.72819    42.76315
    65  C   4.0   -0.04    3.37    3.07   109.87814    18.42150    43.90547
    66  C   4.0   -0.03    3.38    3.07   111.32546    22.24587    42.00113
    67  C   4.0   -0.04    3.37    3.07   109.37735    20.57935    42.53823
    68  H   1.0    0.09    1.09    1.44   114.91260    18.72152    39.08469
    69  H   1.0    0.05    1.05    1.44   119.65508    17.10743    41.41386
    70  H   1.0    0.05    1.03    1.43   117.22335    17.19212    45.69346
    71  H   1.0    0.05    1.03    1.43   118.30793    20.17347    44.48696
    72  H   1.0    0.08    1.03    1.43   112.72802    16.17238    45.68297
    73  H   1.0    0.06    1.03    1.43   115.26453    23.06012    42.31828
    74  H   1.0    0.05    1.03    1.43   108.37956    17.14340    44.42661
    75  H   1.0    0.06    1.03    1.43   110.94379    23.96600    40.95761
    76  H   1.0    0.05    1.03    1.43   107.48260    21.03406    41.93349
    77  N   5.0   -0.15    3.46    2.05   117.85866    12.87357    40.51462
    78  C   4.0    0.04    4.43    4.43   116.62408    10.46671    40.18355
    79  C   4.0    0.13    3.48    3.11   118.43554     8.33413    39.64235
    80  O   6.0   -0.32    1.37    1.80   117.63174     6.19325    39.17993
    81  C   4.0   -0.05    4.20    3.99   114.56150    10.44031    38.17788
    82  H   1.0    0.08    1.07    1.44   119.05402    13.41058    39.11478
    83  H   1.0    0.06    1.07    1.44   115.71355    10.05237    42.00884
    84  H   1.0    0.07    1.01    1.43   113.81441     8.52846    38.05658
    85  H   1.0    0.06    1.02    1.43   113.06774    11.73825    38.71562
    86  H   1.0    0.07    1.03    1.43   115.33591    10.99160    36.35836
    87  N   5.0   -0.15    3.54    2.11   120.88744     8.83222    39.80760
    88  C   4.0    0.03    4.41    4.40   122.82535     6.96820    39.26007
    89  C   4.0    0.15    3.44    3.09   123.00755     4.94171    41.31132
    90  O   6.0   -0.30    1.23    1.80   125.02247     3.97805    41.78148
    91  C   4.0   -0.04    4.33    4.25   125.35065     8.31288    38.99888
    92  C   4.0   -0.05    4.22    4.04   125.93526    10.02928    41.26023
    93  C   4.0   -0.05    4.20    4.01   127.63928    12.16364    40.33743
    94  C   4.0   -0.04    4.12    3.83   128.04681    14.17071    42.35375
    95  N   5.0   -0.12    4.02    2.91   130.00392    15.98384    41.42674
    96  H   1.0    0.07    1.10    1.44   121.44878    10.61230    40.17910
    97  H   1.0    0.05    1.05    1.44   122.31218     6.00256    37.48892
    98  H   1.0    0.05    1.03    1.43   126.82427     6.89316    38.79724
    99  H   1.0    0.04    1.03    1.43   125.28950     9.42994    37.26257
   100  H   1.0    0.04    1.04    1.43   124.24384    10.85033    42.09904
   101  H   1.0    0.05    1.02    1.43   126.87340     8.94106    42.73436
   102  H   1.0    0.04    1.03    1.43   129.44684    11.34577    39.76719
   103  H   1.0    0.04    1.03    1.43   126.78581    13.03123    38.67231
   104  H   1.0    0.04    1.02    1.43   126.29968    15.20671    42.69447
   105  H   1.0    0.04    1.02    1.43   128.69367    13.32740    44.11808
   106  H   1.0    0.05    1.02    1.43   130.18542    17.50912    42.62523
   107  H   1.0    0.05    1.03    1.43   131.74048    15.10407    41.23152
   108  H   1.0    0.05    1.02    1.43   129.47916    16.66970    39.67548
   109  N   5.0   -0.15    3.48    2.06   120.78364     4.31700    42.56452
   110  C   4.0    0.03    4.35    4.29   120.64900     5.18474    45.18303
   111  C   4.0    0.15    3.45    3.10   121.38477     3.03983    46.99632
   112  O   6.0   -0.30    1.26    1.80   121.74638     3.47326    49.24230
   113  C   4.0   -0.04    4.16    3.93   118.02247     6.26646    46.01928
   114  C   4.0   -0.03    4.10    3.80   118.05235     9.01348    46.96846
   115  C   4.0    0.25    3.04    3.02   115.62000    10.23743    48.27253
   116  O   6.0   -0.29    1.15    1.80   113.90187     9.01942    49.27260
   117  O   6.0   -0.29    1.18    1.80   115.67982    12.58432    48.27051
   118  H   1.0    0.11    1.18    1.46   119.21806     4.71508    41.52924
   119  H   1.0    0.05    1.06    1.44   122.05648     6.67984    45.49810
   120  H   1.0    0.05    1.02    1.43   116.68603     6.07901    44.45887
   121  H   1.0    0.06    1.04    1.43   117.30360     5.11707    47.57312
   122  H   1.0    0.05    1.03    1.43   119.50884     9.21602    48.41968
   123  H   1.0    0.05    1.02    1.43   118.50771    10.31292    45.42987
   124  N   5.0   -0.12    3.44    2.04   121.51409     0.66319    46.08665
   125  C   4.0    0.04    4.33    4.26   120.97045    -1.33260    47.88407
   126  C   4.0    0.08    3.19    3.03   123.00870    -3.32792    48.24877
   127  O   6.0   -0.28    1.12    1.80   124.79447    -3.64260    46.85579
   128  C   4.0   -0.04    4.23    4.06   118.42744    -2.65377    47.25065
   129  C   4.0   -0.03    3.60    3.17   116.01258    -1.20885    47.93221
   130  C   4.0   -0.01    3.63    3.18   115.87094     0.91502    49.40803
   131  C   4.0    0.00    3.89    3.45   113.42412    -2.07106    47.68090
   132  N   5.0   -0.12    3.49    2.07   113.44121     1.39668    50.12057
   133  C   4.0    0.03    3.89    3.45   111.91511    -0.43041    49.17400
   134  C   4.0   -0.04    3.54    3.13   112.22751    -4.09369    46.45619
   135  C   4.0   -0.05    3.40    3.08   109.40134    -0.95603    49.72852
   136  C   4.0   -0.03    3.38    3.07   109.68216    -4.48822    46.83506
   137  C   4.0   -0.05    3.36    3.07   108.28747    -3.00422    48.53445
   138  H   1.0    0.09    1.08    1.44   121.17827     0.43408    44.21872
   139  H   1.0    0.06    1.09    1.44   120.79813    -0.35449    49.70447
   140  H   1.0    0.04    1.03    1.43   118.51735    -3.18205    45.26580
   141  H   1.0    0.04    1.03    1.43   118.32924    -4.42710    48.30988
   142  H   1.0    0.06    1.02    1.43   117.37223     2.09247    50.10836
   143  H   1.0    0.08    1.05    1.44   112.91008     2.89914    51.15551
   144  H   1.0    0.06    1.08    1.44   113.32282    -5.46572    45.44222
   145  H   1.0    0.05    1.03    1.43   108.36963     0.21220    51.04359
   146  H   1.0    0.05    1.03    1.43   108.76153    -6.05979    45.93347
   147  H   1.0    0.04    1.03    1.43   106.34218    -3.47379    48.93149
   148  N   5.0   -0.21    3.25    1.97   115.32031    -6.93453    42.36773
   149  C   4.0    0.02    4.37    4.32   115.27552    -4.37452    41.45257
   150  C   4.0    0.14    3.43    3.09   112.85962    -2.72082    41.83053
   151  O   6.0   -0.32    1.21    1.80   110.69159    -3.24426    41.31247
   152  C   4.0   -0.03    4.35    4.29   116.03236    -4.51250    38.66230
   153  C   4.0   -0.02    3.53    3.13   118.83750    -4.86537    38.25700
   154  C   4.0   -0.04    3.44    3.09   119.78271    -6.46705    36.37736
   155  C   4.0   -0.04    3.47    3.10   120.51795    -3.31166    39.54308
   156  C   4.0   -0.03    3.40    3.08   122.31756    -6.41756    35.70604
   157  C   4.0   -0.04    3.43    3.09   123.07069    -3.32688    38.94790
   158  C   4.0    0.07    3.41    3.08   124.01437    -4.81012    36.96931
   159  O   6.0   -0.24    2.09    1.84   126.53676    -4.68104    36.33506
   160  H   1.0    0.09    1.03    1.43   113.82346    -8.00434    41.84819
   161  H   1.0    0.03    1.09    1.44   116.79239    -3.40802    42.45059
   162  H   1.0    0.05    1.04    1.43   115.01747    -6.08820    37.79615
   163  H   1.0    0.04    1.04    1.43   115.45258    -2.79744    37.68486
   164  H   1.0    0.07    1.03    1.43   118.52211    -7.69316    35.35156
   165  H   1.0    0.05    1.03    1.43   119.90186    -2.00694    40.98474
   166  H   1.0    0.06    1.03    1.43   123.00045    -7.58438    34.18593
   167  H   1.0    0.07    1.03    1.43   124.34725    -2.12890    40.00774
   168  H   1.0    0.12    1.04    1.43   127.35671    -3.44476    37.38868
   169  N   5.0   -0.15    3.54    2.10   113.64928    -0.34745    42.46294
   170  C   4.0    0.01    4.24    4.07   112.13381     1.88905    42.50135
   171  C   4.0    0.15    3.36    3.07   112.49655     3.30024    40.02179
   172  O   6.0   -0.33    1.34    1.80   111.16421     5.12789    39.44043
   173  H   1.0    0.07    1.08    1.44   115.32871    -0.17743    43.35452
   174  H   1.0    0.05    1.03    1.43   110.13159     1.37297    42.63818
   175  H   1.0    0.05    1.02    1.43   112.58499     3.09122    44.11765
   176  N   5.0   -0.13    3.53    2.10   114.07867     2.16953    38.40091
   177  C   4.0    0.03    4.38    4.35   113.91780     2.45512    35.63511
   178  C   4.0    0.15    3.40    3.08   111.18657     2.05291    34.66860
   179  O   6.0   -0.31    1.23    1.80   110.31800     3.45123    33.04731
   180  C   4.0   -0.05    4.40    4.39   115.80833     0.64176    34.47343
   181  C   4.0   -0.02    4.21    4.03   116.62324     1.43592    31.86366
   182  C   4.0   -0.07    4.11    3.82   119.18706     0.31112    31.22806
   183  C   4.0   -0.07    4.14    3.88   114.61384     0.62617    29.96933
   184  H   1.0    0.08    1.10    1.44   115.31566     0.88762    39.08022
   185  H   1.0    0.06    1.05    1.44   114.40069     4.41029    35.14163
   186  H   1.0    0.04    1.04    1.43   117.47171     0.58645    35.70209
   187  H   1.0    0.04    1.04    1.43   115.00547    -1.25427    34.36570
   188  H   1.0    0.04    1.06    1.44   116.81115     3.49958    31.81975
   189  H   1.0    0.04    1.00    1.43   119.84423     0.98561    29.40408
   190  H   1.0    0.04    1.00    1.43   120.58849     0.79668    32.64869
   191  H   1.0    0.05    1.00    1.43   119.05348    -1.74439    31.14713
   192  H   1.0    0.04    1.00    1.43   115.37369     0.73172    28.05951
   193  H   1.0    0.05    1.03    1.43   113.98377    -1.28012    30.35931
   194  H   1.0    0.06    1.01    1.43   113.00503     1.89664    30.06953
   195  N   5.0   -0.14    3.38    2.01   109.81421     0.18728    35.78723
   196  C   4.0    0.03    4.39    4.36   107.01437     0.11086    35.83929
   197  C   4.0    0.16    3.57    3.15   105.84661     2.70490    36.13007
   198  O   6.0   -0.33    1.46    1.80   104.23897     3.56356    34.68852
   199  C   4.0   -0.03    4.35    4.29   105.80788    -1.30794    38.11831
   200  C   4.0   -0.01    3.55    3.14   102.94135    -1.46592    37.79052
   201  C   4.0   -0.03    3.48    3.11   101.81956    -2.34334    35.57188
   202  C   4.0   -0.04    3.46    3.10   101.32638    -0.88638    39.76053
   203  C   4.0   -0.04    3.40    3.08    99.22351    -2.51489    35.32055
   204  C   4.0   -0.05    3.40    3.08    98.71704    -1.08045    39.49193
   205  C   4.0   -0.05    3.35    3.07    97.61698    -1.84364    37.26427
   206  H   1.0    0.09    1.06    1.44   110.64892    -0.92007    37.10501
   207  H   1.0    0.06    1.06    1.44   106.36915    -0.75574    34.07953
   208  H   1.0    0.05    1.02    1.43   106.58483    -3.22636    38.19779
   209  H   1.0    0.05    1.04    1.43   106.25689    -0.38008    39.89051
   210  H   1.0    0.06    1.03    1.43   102.98407    -2.89665    33.98699
   211  H   1.0    0.04    1.03    1.43   102.08748    -0.25418    41.55193
   212  H   1.0    0.05    1.03    1.43    98.45024    -3.06546    33.50658
   213  H   1.0    0.04    1.03    1.43    97.54071    -0.60700    41.09590
   214  H   1.0    0.04    1.03    1.43    95.59662    -1.96640    37.07395
   215  N   5.0   -0.15    3.56    2.12   106.48042     3.85519    38.30598
   216  C   4.0    0.04    4.58    4.64   105.09332     6.06413    39.11859
   217  C   4.0    0.16    3.63    3.19   104.89292     8.05388    37.07302
   218  O   6.0   -0.34    1.32    1.80   102.91214     9.16271    36.52088
   219  C   4.0   -0.02    4.31    4.22   106.07479     7.37803    41.51564
   220  C   4.0   -0.05    4.21    4.01   103.70399     8.73486    42.59634
   221  C   4.0   -0.07    4.17    3.94   108.21183     9.29582    41.14406
   222  C   4.0   -0.08    3.98    3.59   101.61991     7.00922    43.74028
   223  H   1.0    0.10    1.12    1.45   108.13875     3.52069    39.18859
   224  H   1.0    0.05    1.07    1.44   103.16123     5.39450    39.49036
   225  H   1.0    0.04    1.05    1.44   106.69985     5.93140    42.85201
   226  H   1.0    0.04    1.03    1.43   104.32677    10.02112    44.08457
   227  H   1.0    0.05    1.03    1.43   102.87181     9.88298    41.10313
   228  H   1.0    0.05    1.00    1.43   108.68055    10.10102    42.98383
   229  H   1.0    0.07    1.03    1.43   109.91095     8.42508    40.43763
   230  H   1.0    0.04    1.02    1.43   107.65163    10.84227    39.93806
   231  H   1.0    0.04    1.00    1.43   100.16493     8.20591    44.54804
   232  H   1.0    0.04    1.00    1.43   100.75209     5.81558    42.31281
   233  H   1.0    0.04    1.00    1.43   102.41931     5.83026    45.21675
   234  N   5.0   -0.14    3.67    2.24   107.16776     8.47687    36.04447
   235  C   4.0    0.03    4.49    4.52   107.40347    10.61262    34.41209
   236  C   4.0    0.16    3.56    3.14   105.82219    10.19782    32.05481
   237  O   6.0   -0.30    1.32    1.80   105.05570    11.90954    30.70864
   238  C   4.0   -0.04    4.43    4.43   110.12904    11.00150    33.81497
   239  C   4.0   -0.03    4.21    4.02   110.75945    13.58391    32.66174
   240  C   4.0    0.16    3.31    3.06   113.33867    12.92743    31.56475
   241  O   6.0   -0.31    1.23    1.80   115.20374    12.45432    32.88364
   242  N   5.0   -0.18    3.18    1.95   113.33838    12.40480    29.05728
   243  H   1.0    0.10    1.09    1.44   108.71986     7.60464    36.73290
   244  H   1.0    0.04    1.06    1.44   106.66477    12.31149    35.35124
   245  H   1.0    0.05    1.06    1.44   111.23535    10.76676    35.52347
   246  H   1.0    0.06    1.05    1.44   110.70034     9.51759    32.48348
   247  H   1.0    0.07    1.03    1.43   109.44669    14.15896    31.19119
   248  H   1.0    0.06    1.02    1.43   110.90882    15.07770    34.06527
   249  H   1.0    0.09    1.03    1.43   111.93289    13.06218    27.95202
   250  H   1.0    0.09    1.03    1.43   114.99151    11.90664    28.23911
   251  N   5.0   -0.13    3.63    2.18   105.27777     7.79841    31.52682
   252  C   4.0    0.04    4.43    4.43   103.67749     7.35095    29.39107
   253  C   4.0    0.16    3.40    3.08   101.11355     8.67006    29.79675
   254  O   6.0   -0.32    1.24    1.80   100.00106     9.57184    27.96732
   255  C   4.0    0.03    4.13    3.86   103.78014     4.49916    28.81270
   256  O   6.0   -0.26    2.07    1.83   102.45062     2.83528    30.34917
   257  H   1.0    0.11    1.11    1.44   105.85001     6.34311    32.63179
   258  H   1.0    0.06    1.06    1.44   104.48200     8.32871    27.74413
   259  H   1.0    0.04    1.01    1.43   103.03534     4.22560    26.89613
   260  H   1.0    0.04    1.02    1.43   105.81313     4.05507    28.80390
   261  H   1.0    0.17    1.16    1.45   102.98299     2.99049    32.10016
   262  N   5.0   -0.14    3.49    2.07   100.29450     8.73224    32.20677
   263  C   4.0    0.03    4.45    4.47    97.99820    10.00658    33.10033
   264  C   4.0    0.15    3.40    3.08    98.10579    12.93749    33.11732
   265  O   6.0   -0.33    1.32    1.80    96.34109    14.16976    32.24321
   266  C   4.0   -0.02    4.24    4.09    97.14681     9.11537    35.75453
   267  C   4.0   -0.08    4.09    3.78    94.39989    10.04401    36.20808
   268  C   4.0   -0.07    4.12    3.85    97.42393     6.25137    35.89059
   269  H   1.0    0.12    1.14    1.45   101.49123     8.20664    33.60028
   270  H   1.0    0.05    1.06    1.44    96.50052     9.55444    31.73567
   271  H   1.0    0.05    1.05    1.44    98.38563     9.97642    37.16265
   272  H   1.0    0.03    1.00    1.43    93.78441     9.45140    38.07085
   273  H   1.0    0.05    1.00    1.43    94.31858    12.08675    36.08647
   274  H   1.0    0.04    1.00    1.43    93.14970     9.23850    34.79306
   275  H   1.0    0.04    1.00    1.43    96.60891     5.56319    37.64852
   276  H   1.0    0.04    1.00    1.43    96.43586     5.36031    34.32541
   277  H   1.0    0.06    1.00    1.43    99.39138     5.68939    35.83099
   278  N   5.0   -0.14    3.50    2.08   100.14511    13.90272    34.32757
   279  C   4.0    0.03    4.42    4.41   100.99254    16.56948    34.39786
   280  C   4.0    0.16    3.48    3.11   100.71452    17.62224    31.71487
   281  O   6.0   -0.33    1.38    1.80    99.56182    19.57959    31.26456
   282  C   4.0   -0.02    4.29    4.19   103.67735    16.58290    35.55017
   283  C   4.0   -0.05    4.19    3.99   103.33771    15.66405    38.30761
   284  C   4.0   -0.06    4.06    3.73   105.27919    18.97449    35.22603
   285  C   4.0   -0.08    4.01    3.64   105.82339    15.43493    39.76934
   286  H   1.0    0.10    1.10    1.44   101.47088    12.61093    34.82585
   287  H   1.0    0.04    1.05    1.44    99.69878    17.67038    35.58732
   288  H   1.0    0.05    1.07    1.44   104.70969    15.13818    34.47124
   289  H   1.0    0.04    1.03    1.43   102.11324    16.99696    39.29111
   290  H   1.0    0.05    1.04    1.43   102.40645    13.82921    38.29328
   291  H   1.0    0.06    1.00    1.43   107.20376    18.63272    35.83416
   292  H   1.0    0.06    1.00    1.43   105.37515    19.48870    33.23271
   293  H   1.0    0.04    1.00    1.43   104.51398    20.56847    36.27324
   294  H   1.0    0.04    1.00    1.43   105.49433    14.48083    41.55370
   295  H   1.0    0.04    1.00    1.43   107.24003    14.41191    38.69178
   296  H   1.0    0.04    1.01    1.43   106.59972    17.29355    40.14465
   297  N   5.0   -0.13    3.61    2.16   101.49653    16.13387    29.85167
   298  C   4.0    0.05    4.56    4.62   101.13350    17.03253    27.33062
   299  C   4.0    0.16    3.58    3.15    98.50006    16.47382    26.52609
   300  O   6.0   -0.33    1.50    1.80    97.43197    18.04329    25.21947
   301  C   4.0   -0.03    4.27    4.14   103.11330    15.93494    25.60005
   302  C   4.0    0.25    3.15    3.03   105.63600    17.27629    26.49551
   303  O   6.0   -0.30    1.17    1.80   106.05932    19.31997    25.43248
   304  O   6.0   -0.28    1.17    1.80   106.87938    16.24165    28.21650
   305  H   1.0    0.12    1.10    1.44   102.88281    14.83190    30.14014
   306  H   1.0    0.06    1.08    1.44   101.34411    19.10239    27.27171
   307  H   1.0    0.06    1.02    1.43   103.23309    13.88945    25.83795
   308  H   1.0    0.05    1.02    1.43   102.75632    16.44131    23.63827
   309  N   5.0   -0.13    3.54    2.11    97.30716    14.40461    27.29859
   310  C   4.0    0.04    4.49    4.52    94.63963    14.14900    26.52286
   311  C   4.0    0.16    3.64    3.20    93.33357    16.68226    26.93408
   312  O   6.0   -0.33    1.34    1.80    91.70888    17.57015    25.53758
   313  C   4.0   -0.03    4.32    4.23    93.07575    12.18879    28.05431
   314  C   4.0   -0.02    3.55    3.14    90.44752    11.82497    26.98381
   315  C   4.0   -0.05    3.49    3.11    89.80977     9.59809    25.77772
   316  C   4.0   -0.03    3.52    3.12    88.57399    13.62228    27.23898
   317  C   4.0   -0.04    3.40    3.08    87.38246     9.13999    24.93079
   318  C   4.0   -0.05    3.46    3.10    86.17126    13.19632    26.32111
   319  C   4.0   -0.05    3.38    3.07    85.52886    10.94261    25.18263
   320  H   1.0    0.11    1.08    1.44    98.24714    12.84362    27.91640
   321  H   1.0    0.05    1.04    1.44    94.56571    13.63513    24.51325
   322  H   1.0    0.04    1.03    1.43    94.10590    10.39811    27.97429
   323  H   1.0    0.06    1.04    1.43    92.97834    12.81644    30.00843
   324  H   1.0    0.05    1.03    1.43    91.26945     8.19647    25.47346
   325  H   1.0    0.06    1.04    1.43    88.94224    15.34035    28.28185
   326  H   1.0    0.05    1.03    1.43    86.95461     7.35638    24.04436
   327  H   1.0    0.04    1.03    1.43    84.74314    14.62427    26.63240
   328  H   1.0    0.05    1.03    1.43    83.63576    10.60735    24.51718
   329  N   5.0   -0.14    3.70    2.27    94.01421    17.56566    29.18736
   330  C   4.0    0.04    4.59    4.65    93.11372    19.86601    30.24939
   331  C   4.0    0.15    3.55    3.14    94.09649    22.07122    28.74561
   332  O   6.0   -0.33    1.37    1.80    92.46257    23.40354    27.74168
   333  C   4.0   -0.02    4.41    4.40    93.73730    19.86716    33.02212
   334  C   4.0   -0.05    4.23    4.06    91.76655    18.20408    34.30460
   335  C   4.0   -0.07    4.18    3.96    93.83251    22.52591    33.99070
   336  C   4.0   -0.08    4.02    3.66    92.22929    17.93922    37.12942
   337  H   1.0    0.12    1.17    1.46    95.30663    16.58645    30.19889
   338  H   1.0    0.05    1.07    1.44    91.05218    19.97035    29.97981
   339  H   1.0    0.06    1.07    1.44    95.60792    19.01885    33.27079
   340  H   1.0    0.03    1.03    1.43    89.88672    18.98432    33.98451
   341  H   1.0    0.05    1.03    1.43    91.85416    16.33486    33.43441
   342  H   1.0    0.04    1.00    1.43    94.29259    22.59653    35.99363
   343  H   1.0    0.05    1.01    1.43    95.26168    23.61733    32.99431
   344  H   1.0    0.04    1.00    1.43    92.01710    23.46159    33.71253
   345  H   1.0    0.03    1.00    1.43    91.04786    16.46963    37.93500
   346  H   1.0    0.04    1.00    1.43    94.20060    17.47400    37.48900
   347  H   1.0    0.03    1.00    1.43    91.80489    19.70462    38.09138
   348  N   5.0   -0.14    3.46    2.05    96.56989    22.52807    28.44986
   349  C   4.0    0.03    4.50    4.54    97.20925    24.88689    27.16857
   350  C   4.0    0.15    3.44    3.09    96.43282    24.79721    24.30118
   351  O   6.0   -0.30    1.22    1.80    95.61136    26.70840    23.26428
   352  C   4.0   -0.03    4.34    4.28    99.85839    25.99531    27.61556
   353  C   4.0   -0.04    4.32    4.24   101.44120    25.32158    25.37357
   354  C   4.0   -0.07    4.23    4.06   101.13952    25.06356    29.96918
   355  C   4.0   -0.07    4.13    3.87   104.18150    25.69744    26.02089
   356  H   1.0    0.12    1.13    1.45    97.90593    21.46816    29.31974
   357  H   1.0    0.05    1.07    1.44    95.83407    26.27026    27.93096
   358  H   1.0    0.04    1.06    1.44    99.64997    28.05417    27.71962
   359  H   1.0    0.05    1.04    1.43   101.19394    23.32669    24.88859
   360  H   1.0    0.05    1.03    1.43   100.93814    26.43713    23.70894
   361  H   1.0    0.04    1.01    1.43   102.74082    26.24747    30.44732
   362  H   1.0    0.04    1.00    1.43    99.84344    25.14622    31.58594
   363  H   1.0    0.06    1.01    1.43   101.76927    23.12207    29.79864
   364  H   1.0    0.05    1.02    1.43   105.31520    25.35473    24.33274
   365  H   1.0    0.04    1.00    1.43   104.55406    27.60820    26.69014
   366  H   1.0    0.05    1.01    1.43   104.85602    24.33750    27.39258
   367  N   5.0   -0.14    3.49    2.07    96.50778    22.58476    23.11170
   368  C   4.0    0.04    4.48    4.50    95.46810    22.12209    20.61239
   369  C   4.0    0.16    3.50    3.11    92.60466    22.50049    20.48842
   370  O   6.0   -0.29    1.22    1.80    91.61006    23.16360    18.48886
   371  C   4.0   -0.02    4.37    4.32    95.97394    19.38019    19.69564
   372  C   4.0   -0.05    4.23    4.06    95.54828    19.21356    16.85539
   373  C   4.0   -0.06    4.26    4.12    94.25249    17.41655    20.89717
   374  C   4.0   -0.08    4.05    3.70    95.95220    16.52409    15.87325
   375  H   1.0    0.12    1.14    1.45    97.14380    21.03468    24.04707
   376  H   1.0    0.05    1.05    1.44    96.33254    23.45285    19.27369
   377  H   1.0    0.05    1.05    1.44    97.94677    18.94402    20.14235
   378  H   1.0    0.06    1.03    1.43    93.62515    19.81763    16.41478
   379  H   1.0    0.04    1.02    1.43    96.83862    20.48859    15.86226
   380  H   1.0    0.04    1.01    1.43    95.11454    15.56641    20.72659
   381  H   1.0    0.09    1.09    1.44    93.97346    17.85279    22.84357
   382  H   1.0    0.05    1.01    1.43    92.42302    17.39459    19.95436
   383  H   1.0    0.04    1.00    1.43    95.99441    16.53682    13.81879
   384  H   1.0    0.04    1.00    1.43    97.75724    15.80566    16.54863
   385  H   1.0    0.04    1.00    1.43    94.45529    15.25741    16.46663
   386  N   5.0   -0.13    3.54    2.10    91.38651    21.91086    22.62082
   387  C   4.0    0.04    4.34    4.27    88.72104    22.39082    22.94870
   388  C   4.0    0.16    3.43    3.09    88.25787    25.27601    22.69668
   389  O   6.0   -0.27    1.21    1.80    87.00511    26.16207    20.94274
   390  C   4.0   -0.07    4.14    3.88    87.79023    21.43999    25.50019
   391  H   1.0    0.12    1.11    1.45    92.37274    21.51388    24.19810
   392  H   1.0    0.06    1.09    1.44    87.70544    21.49123    21.38182
   393  H   1.0    0.04    1.00    1.43    85.73996    21.62394    25.57995
   394  H   1.0    0.06    1.02    1.43    88.30434    19.47949    25.74895
   395  H   1.0    0.06    1.02    1.43    88.59976    22.53603    27.02547
   396  N   5.0   -0.14    3.46    2.05    89.31443    26.66402    24.54613
   397  C   4.0    0.04    4.34    4.27    89.41703    29.37909    24.50090
   398  C   4.0    0.11    3.33    3.06    90.12781    30.51052    21.93598
   399  O   6.0   -0.28    1.12    1.80    88.83722    32.21276    21.01672
   400  C   4.0   -0.04    4.37    4.33    91.36471    30.29896    26.38280
   401  C   4.0   -0.01    3.63    3.19    92.26255    32.92525    25.76265
   402  C   4.0   -0.03    3.48    3.11    90.74457    35.00004    26.28289
   403  C   4.0   -0.04    3.46    3.10    94.67090    33.34845    24.81620
   404  C   4.0   -0.04    3.37    3.07    91.65637    37.44650    26.09808
   405  C   4.0   -0.04    3.39    3.07    95.61136    35.78699    24.69828
   406  C   4.0   -0.04    3.37    3.07    94.14685    37.83192    25.41895
   407  H   1.0    0.11    1.11    1.44    90.47780    25.76434    25.77159
   408  H   1.0    0.05    1.05    1.44    87.53211    30.14406    24.93590
   409  H   1.0    0.04    1.03    1.43    90.59223    30.25301    28.29380
   410  H   1.0    0.06    1.04    1.43    92.98696    29.02750    26.29436
   411  H   1.0    0.05    1.03    1.43    88.83298    34.67730    26.93308
   412  H   1.0    0.06    1.03    1.43    95.85332    31.76163    24.31026
   413  H   1.0    0.05    1.03    1.43    90.45379    39.01934    26.57245
   414  H   1.0    0.05    1.03    1.43    97.52415    36.09281    24.07114
   415  H   1.0    0.05    1.03    1.43    94.92873    39.71077    25.37209
   416  N   5.0   -0.22    3.19    1.95    85.24054    13.19085    13.05452
   417  C   4.0    0.03    4.28    4.16    85.24810    12.36031    15.66079
   418  C   4.0    0.07    3.21    3.04    85.18922     9.50311    15.98364
   419  O   6.0   -0.32    1.13    1.80    85.91418     8.44390    17.91788
   420  C   4.0   -0.05    4.29    4.18    83.11863    13.49887    17.18958
   421  C   4.0   -0.05    4.04    3.69    83.54387    16.30927    17.61146
   422  S   6.0   -0.05    2.50    3.10    86.67401    17.48109    18.76868
   423  C   4.0   -0.07    3.93    3.50    86.70563    16.27155    21.98867
   424  H   1.0    0.08    1.02    1.43    83.52996    13.41307    12.23184
   425  H   1.0    0.04    1.08    1.44    87.05946    13.00606    16.47469
   426  H   1.0    0.04    1.03    1.43    81.34246    13.27798    16.18380
   427  H   1.0    0.05    1.03    1.43    83.01064    12.50155    18.99685
   428  H   1.0    0.04    1.08    1.44    83.35938    17.30185    15.81698
   429  H   1.0    0.04    1.06    1.44    82.14236    17.05908    18.92360
   430  H   1.0    0.06    1.06    1.44    88.54859    16.70246    22.75518
   431  H   1.0    0.04    1.04    1.43    85.20680    17.17558    23.04787
   432  H   1.0    0.05    1.06    1.44    86.44042    14.24431    21.88980
   433  N   5.0   -0.21    3.25    1.97    91.94080     8.14761    15.54463
   434  C   4.0    0.03    4.29    4.17    93.06375     8.94779    17.91366
   435  C   4.0    0.15    3.40    3.08    93.07314     6.80871    19.83417
   436  O   6.0   -0.31    1.19    1.80    94.89197     6.33791    21.18234
   437  C   4.0   -0.07    4.15    3.90    91.53883    11.10806    19.03657
   438  H   1.0    0.08    1.03    1.43    90.67142     9.36195    14.79717
   439  H   1.0    0.04    1.05    1.44    95.02985     9.53518    17.58009
   440  H   1.0    0.04    1.00    1.43    92.40751    11.77539    20.77234
   441  H   1.0    0.04    1.00    1.43    91.45508    12.67506    17.69876
   442  H   1.0    0.06    1.01    1.43    89.62655    10.49258    19.46435
   443  N   5.0   -0.15    3.50    2.08    90.80613     5.66645    19.83996
   444  C   4.0    0.03    4.31    4.21    90.00009     3.51935    21.37408
   445  C   4.0    0.09    3.22    3.04    91.69726     1.25389    20.72491
   446  O   6.0   -0.30    1.19    1.80    92.92956     0.12837    22.33109
   447  C   4.0   -0.04    4.28    4.16    87.12880     2.97844    20.99953
   448  C   4.0   -0.01    3.58    3.15    86.37548     0.91360    22.80730
   449  C   4.0   -0.04    3.53    3.13    87.25964     0.95629    25.28133
   450  C   4.0   -0.04    3.47    3.10    85.06717    -1.19709    21.99591
   451  C   4.0   -0.04    3.38    3.07    87.03025    -1.11059    26.84264
   452  C   4.0   -0.04    3.39    3.08    84.80340    -3.26496    23.57182
   453  C   4.0   -0.04    3.39    3.08    85.82277    -3.23905    25.96124
   454  H   1.0    0.10    1.10    1.44    89.45525     6.35141    18.66990
   455  H   1.0    0.05    1.06    1.44    90.38113     3.98141    23.35713
   456  H   1.0    0.05    1.02    1.43    86.09764     4.73085    21.33447
   457  H   1.0    0.04    1.03    1.43    86.80037     2.39606    19.05547
   458  H   1.0    0.04    1.04    1.43    88.10592     2.65825    26.01091
   459  H   1.0    0.04    1.03    1.43    84.35455    -1.26920    20.08082
   460  H   1.0    0.05    1.03    1.43    87.75147    -1.05093    28.75016
   461  H   1.0    0.04    1.03    1.43    83.81852    -4.92913    22.93244
   462  H   1.0    0.05    1.03    1.43    85.53322    -4.82439    27.20828
   463  N   5.0   -0.19    3.20    1.96    97.15300     0.84108    18.21511
   464  C   4.0    0.03    4.25    4.09    99.56652     0.73197    19.51169
   465  C   4.0    0.15    3.51    3.12    99.07533     0.00716    22.28428
   466  O   6.0   -0.32    1.45    1.80   100.43800    -1.59820    23.28369
   467  C   4.0   -0.05    4.15    3.90   101.31216     3.03137    19.23318
   468  C   4.0   -0.05    4.06    3.73   103.79190     2.94356    20.83441
   469  C   4.0   -0.05    4.00    3.62   105.69048     0.62866    20.50579
   470  C   4.0   -0.04    3.98    3.59   108.23234     0.60840    22.14315
   471  N   5.0   -0.12    3.94    2.72   109.45835    -2.01497    22.50767
   472  H   1.0    0.09    1.02    1.43    96.44285     2.43282    17.42581
   473  H   1.0    0.04    1.06    1.44   100.57883    -0.91794    18.74401
   474  H   1.0    0.04    1.02    1.43   101.79150     3.21856    17.23648
   475  H   1.0    0.05    1.03    1.43   100.29811     4.72197    19.83210
   476  H   1.0    0.04    1.02    1.43   104.82594     4.67543    20.40916
   477  H   1.0    0.04    1.02    1.43   103.25668     2.99871    22.82420
   478  H   1.0    0.05    1.02    1.43   104.63103    -1.06222    21.03452
   479  H   1.0    0.04    1.02    1.43   106.19846     0.48908    18.51787
   480  H   1.0    0.04    1.01    1.43   109.62827     1.81573    21.23839
   481  H   1.0    0.04    1.02    1.43   107.79743     1.33324    24.01874
   482  H   1.0    0.05    1.02    1.43   110.90313    -1.85662    23.79833
   483  H   1.0    0.05    1.02    1.43   108.17596    -3.35402    23.08548
   484  H   1.0    0.05    1.01    1.43   110.18536    -2.70199    20.83255
   485  N   5.0   -0.12    3.50    2.08    97.32555     1.08000    23.74141
   486  C   4.0    0.04    4.52    4.57    97.69939     0.54112    26.42572
   487  C   4.0    0.10    3.34    3.06    97.55088    -2.29560    26.80997
   488  O   6.0   -0.31    1.18    1.80    99.23318    -3.37188    28.00527
   489  C   4.0   -0.02    4.35    4.29    96.12773     2.17387    28.22814
   490  C   4.0   -0.05    4.22    4.04    93.37964     1.44882    28.10975
   491  C   4.0   -0.06    4.19    3.97    96.56256     4.97631    27.68460
   492  C   4.0   -0.08    4.11    3.82    91.85185     3.58091    29.24183
   493  H   1.0    0.10    1.06    1.44    96.29557     2.59095    23.19546
   494  H   1.0    0.06    1.07    1.44    99.69043     0.98498    26.87293
   495  H   1.0    0.04    1.06    1.44    96.87867     1.78198    30.12077
   496  H   1.0    0.07    1.05    1.44    92.79339     1.13098    26.16966
   497  H   1.0    0.04    1.03    1.43    93.04903    -0.29416    29.16218
   498  H   1.0    0.04    1.01    1.43    95.92051     6.13766    29.23681
   499  H   1.0    0.06    1.01    1.43    98.57254     5.31166    27.44525
   500  H   1.0    0.06    1.00    1.43    95.63156     5.57591    25.95399
   501  H   1.0    0.03    1.00    1.43    89.90685     2.99549    29.61741
   502  H   1.0    0.03    1.00    1.43    92.63679     4.16705    31.05131
   503  H   1.0    0.04    1.01    1.43    91.77410     5.21077    28.00804
   504  N   5.0   -0.20    3.29    1.98   103.90945    -4.47109    25.85784
   505  C   4.0    0.03    4.33    4.25   105.92736    -4.11523    27.59763
   506  C   4.0    0.15    3.45    3.10   105.81847    -5.96666    29.80401
   507  O   6.0   -0.32    1.30    1.80   107.76384    -6.63629    30.90456
   508  C   4.0    0.04    4.18    3.96   105.90238    -1.49019    28.77601
   509  O   6.0   -0.25    2.09    1.84   108.16237    -1.30445    30.23934
   510  H   1.0    0.13    1.08    1.44   102.50231    -3.19343    25.57746
   511  H   1.0    0.04    1.06    1.44   107.75368    -4.48601    26.69219
   512  H   1.0    0.04    1.01    1.43   105.86549    -0.05637    27.28758
   513  H   1.0    0.06    1.01    1.43   104.20141    -1.24704    29.93386
   514  H   1.0    0.13    1.02    1.43   108.48108     0.44215    30.68795
   515  N   5.0   -0.15    3.45    2.05   103.47681    -6.54422    30.56270
   516  C   4.0    0.03    4.25    4.09   102.96805    -8.48325    32.48508
   517  C   4.0    0.08    3.17    3.03   104.09259   -11.18254    31.84308
   518  O   6.0   -0.32    1.15    1.80   105.43402   -12.29254    33.42308
   519  C   4.0   -0.05    4.36    4.31   100.08089    -8.62136    32.71074
   520  C   4.0   -0.02    4.17    3.94    99.02401   -10.90279    34.19020
   521  C   4.0   -0.08    4.10    3.80    99.56889   -10.44753    36.99785
   522  C   4.0   -0.08    4.07    3.75    96.18940   -11.21798    33.60712
   523  H   1.0    0.10    1.09    1.44   101.96331    -5.90137    29.58159
   524  H   1.0    0.05    1.04    1.44   103.87290    -7.90686    34.25533
   525  H   1.0    0.04    1.04    1.43    99.43433    -6.89098    33.61012
   526  H   1.0    0.05    1.03    1.43    99.32778    -8.67996    30.79054
   527  H   1.0    0.04    1.06    1.44   100.00552   -12.60102    33.56980
   528  H   1.0    0.04    1.00    1.43    98.76505   -11.93898    38.16259
   529  H   1.0    0.04    1.00    1.43   101.58993   -10.37967    37.32222
   530  H   1.0    0.04    1.00    1.43    98.75133    -8.65883    37.59494
   531  H   1.0    0.04    1.00    1.43    95.38441   -12.77602    34.66555
   532  H   1.0    0.04    1.00    1.43    95.19421    -9.50221    34.15852
   533  H   1.0    0.04    1.00    1.43    95.90843   -11.49702    31.59668
   534  N   5.0   -0.20    3.22    1.96   111.09270   -11.76087    30.96719
   535  C   4.0    0.04    4.34    4.27   112.84392   -10.75755    32.88321
   536  C   4.0    0.15    3.36    3.07   112.53653   -11.80264    35.57425
   537  O   6.0   -0.30    1.19    1.80   114.30910   -11.90692    37.04926
   538  C   4.0   -0.03    4.32    4.23   112.59510    -7.88393    32.98077
   539  C   4.0    0.15    3.22    3.04   114.03421    -6.69086    30.74814
   540  O   6.0   -0.30    1.19    1.80   116.28391    -7.17363    30.39982
   541  N   5.0   -0.19    3.19    1.95   112.68370    -5.04673    29.30877
   542  H   1.0    0.11    1.03    1.43   109.37713   -10.92370    30.84805
   543  H   1.0    0.06    1.06    1.44   114.75008   -11.24897    32.23692
   544  H   1.0    0.07    1.06    1.44   110.63133    -7.31260    33.01320
   545  H   1.0    0.05    1.04    1.43   113.53416    -7.21969    34.69372
   546  H   1.0    0.09    1.03    1.43   113.49241    -4.47120    27.68319
   547  H   1.0    0.11    1.06    1.44   110.79723    -4.89789    29.62291
   548  N   5.0   -0.14    3.56    2.13   110.13768   -12.41991    36.06709
   549  C   4.0    0.04    4.49    4.52   109.18863   -13.66544    38.29019
   550  C   4.0    0.08    3.23    3.04   108.64103   -16.44382    37.79022
   551  O   6.0   -0.28    1.12    1.80   110.19542   -18.04602    38.40666
   552  C   4.0   -0.02    4.38    4.35   106.96094   -12.11516    39.18362
   553  C   4.0   -0.04    4.30    4.19   108.26944    -9.85054    40.37627
   554  C   4.0   -0.08    4.15    3.90   105.32596   -13.51876    41.01239
   555  C   4.0   -0.08    4.01    3.64   106.57231    -7.75361    41.35789
   556  H   1.0    0.11    1.12    1.45   108.84031   -12.17762    34.67776
   557  H   1.0    0.06    1.07    1.44   110.72236   -13.65957    39.68594
   558  H   1.0    0.06    1.07    1.44   105.85414   -11.49943    37.55847
   559  H   1.0    0.04    1.04    1.43   109.41286   -10.49687    41.96377
   560  H   1.0    0.05    1.04    1.43   109.53949    -9.01667    38.97443
   561  H   1.0    0.03    1.00    1.43   103.83283   -12.28656    41.71390
   562  H   1.0    0.04    1.00    1.43   104.42029   -15.15755    40.19052
   563  H   1.0    0.04    1.00    1.43   106.42540   -14.13832    42.63914
   564  H   1.0    0.06    1.01    1.43   107.69595    -6.11122    41.85495
   565  H   1.0    0.04    1.00    1.43   105.18543    -7.18131    39.94588
   566  H   1.0    0.03    1.00    1.43   105.54880    -8.35200    43.03651
   567  N   5.0   -0.21    3.17    1.95   138.55657    16.28557    46.27816
   568  C   4.0    0.02    4.25    4.10   138.73786    13.54246    45.75458
   569  C   4.0    0.07    3.23    3.04   141.07505    13.04513    44.14118
   570  O   6.0   -0.31    1.15    1.80   141.37507    13.90063    42.02108
   571  C   4.0   -0.02    4.28    4.16   136.30020    12.52122    44.42073
   572  C   4.0   -0.05    4.16    3.92   136.19154     9.61594    44.58004
   573  C   4.0   -0.07    4.10    3.81   136.04709    13.44863    41.65180
   574  C   4.0   -0.08    4.00    3.62   133.48079     8.59586    44.54966
   575  H   1.0    0.09    1.03    1.43   139.52528    17.34116    45.01647
   576  H   1.0    0.03    1.05    1.44   138.87788    12.59687    47.57604
   577  H   1.0    0.03    1.06    1.44   134.73328    13.25481    45.55779
   578  H   1.0    0.04    1.02    1.43   137.26535     8.77424    43.03023
   579  H   1.0    0.04    1.03    1.43   137.07930     8.97536    46.30459
   580  H   1.0    0.03    1.00    1.43   134.44374    12.49926    40.78860
   581  H   1.0    0.04    1.00    1.43   135.89073    15.49016    41.58723
   582  H   1.0    0.06    1.02    1.43   137.69779    12.89643    40.56996
   583  H   1.0    0.04    1.00    1.43   133.52190     6.56659    44.86189
   584  H   1.0    0.04    1.00    1.43   132.35474     9.45933    46.03288
   585  H   1.0    0.04    1.00    1.43   132.57871     8.92382    42.73158
   586  N   5.0   -0.22    3.18    1.95    87.58984   -13.30184    37.27924
   587  C   4.0    0.03    4.23    4.05    87.55620   -10.56395    37.40693
   588  C   4.0    0.07    3.32    3.06    84.88195    -9.63404    37.98348
   589  O   6.0   -0.30    1.15    1.80    84.60344    -7.78028    39.36611
   590  C   4.0   -0.04    4.30    4.20    88.49083    -9.29250    34.96601
   591  C   4.0   -0.01    3.60    3.17    87.92774    -6.47652    34.93327
   592  C   4.0   -0.05    3.45    3.10    89.90327    -4.75514    34.89752
   593  C   4.0   -0.02    3.58    3.15    85.44225    -5.60805    34.79690
   594  C   4.0   -0.05    3.39    3.07    89.35836    -2.21927    34.74596
   595  C   4.0   -0.04    3.37    3.07    84.89970    -3.08311    34.76246
   596  C   4.0   -0.04    3.41    3.08    86.86969    -1.40053    34.71114
   597  H   1.0    0.07    1.02    1.43    88.28976   -14.11415    35.69659
   598  H   1.0    0.05    1.05    1.44    88.72649    -9.93943    39.00636
   599  H   1.0    0.03    1.03    1.43    90.50712    -9.63350    34.74548
   600  H   1.0    0.04    1.03    1.43    87.50927   -10.19177    33.38468
   601  H   1.0    0.04    1.03    1.43    91.83317    -5.41340    34.95528
   602  H   1.0    0.05    1.05    1.44    83.93124    -6.95866    34.58950
   603  H   1.0    0.04    1.03    1.43    90.87291    -0.85156    34.65277
   604  H   1.0    0.05    1.03    1.43    82.97409    -2.42303    34.71315
   605  H   1.0    0.04    1.03    1.43    86.49642     0.60869    34.63063
   606  H   1.0    0.09    1.08    1.44   107.01203    33.48755    21.05756
   607  H   1.0    0.05    1.04    1.43   113.40293    34.63620    21.22385
   608  H   1.0    0.09    1.07    1.44   117.38878    36.12215    40.46636
   609  H   1.0    0.05    1.05    1.44   122.92903    -4.50052    49.72855
   610  H   1.0    0.10    1.09    1.44   116.70872    -7.72276    41.78158
   611  H   1.0    0.07    1.04    1.43    91.64166    29.86664    21.00608
   612  H   1.0    0.09    1.07    1.44    86.00945    14.70342    12.93844
   613  H   1.0    0.05    1.05    1.44    84.54091     8.40758    14.58702
   614  H   1.0    0.09    1.07    1.44    93.16141     7.94411    14.37790
   615  H   1.0    0.05    1.05    1.44    91.82447     0.64972    18.93889
   616  H   1.0    0.09    1.07    1.44    97.16941    -0.22972    16.89388
   617  H   1.0    0.06    1.04    1.43    96.09830    -3.27103    26.09608
   618  H   1.0    0.09    1.08    1.44   104.53838    -4.64980    24.28779
   619  H   1.0    0.05    1.04    1.43   103.72330   -11.98728    30.17362
   620  H   1.0    0.10    1.07    1.44   111.78982   -11.60484    29.42374
   621  H   1.0    0.06    1.04    1.44   107.02021   -16.95344    36.96298
   622  H   1.0    0.09    1.07    1.44   136.92686    16.76837    46.21886
   623  H   1.0    0.05    1.05    1.44   142.47220    11.96280    44.81022
   624  H   1.0    0.09    1.07    1.44    88.53769   -13.91784    38.54994
   625  H   1.0    0.05    1.04    1.43    83.39068   -10.52721    37.24225

  Z AO/shell   Hii/eV     exponent
  1     Wed Apr 25 08:07:45 CEST 2018   EN: 2.200 GM2: 0.406  GM3: 0.0800  RAES: 1.40
     1s    -10.707211    1.230000
  6     Wed Apr 25 08:07:45 CEST 2018   EN: 2.550 GM2: 0.538  GM3: 0.1500  RAES: 3.00
     2s    -13.970922    2.096432
     2p    -10.063292    1.800000
  7     Wed Apr 25 08:07:45 CEST 2018   EN: 3.040 GM2: 0.461  GM3:-0.0640  RAES: 1.90
     2s    -16.686243    2.339881
     2p    -12.523956    2.014332
  8     Wed Apr 25 08:07:45 CEST 2018   EN: 3.440 GM2: 0.452  GM3:-0.0517  RAES: 1.80
     2s    -20.229985    2.439742
     2p    -15.503117    2.137023
 16     Tue Apr 24 11:44:34 CEST 2018   EN: 2.580 GM2: 0.340  GM3:-0.0502  RAES: 3.10
     3s    -20.029654    1.981333
     3p    -11.377694    2.025643
     3d     -0.420282    1.702555
 no old-style atom pair restraining (fixing) potential

molecular fragmentation (1/2 indicates fragments):
111111111111111112222222222222222222222222222222222222222222222222222222
222222222222222222222222222222222222222222222222222222222222222222222222
222222222222222222222222222222222222222222222222222222222222222222222222
222222222222222222222222222222222222222222222222222222222222222222222222
222222222222222222222222222222222222222222222222222222222222222222222222
222222222222222222222222222222222222222222222222222222222222222222222222
222222222222222222222222222222222222222222222222222222222222222222222222
222222222222222222222222222222222222222222222222222222222222222222222222
2222222222222222222222222222211222222222222222222
# atoms in fragment 1/2:    19   606
 fragment masses (1/2) :      133.21     4100.02
CMA distance (Bohr)    :  23.517
constraining FC (au)   :  0.0500
           ------------------------------------------------- 
          |        Self-Consistent Charge Iterations        |
           ------------------------------------------------- 

 Ncao       : 1534
 Nao        : 1532
 Nshell     : 926
 Nel        : 1664
 T(el)      :   500.0
 intcut     :    35.0
 scfconv/Eh :  0.100E-06
   qconv/e  :  0.100E-04
 intneglect :  0.100E-08
 broydamp   :      0.400
 iter      E             dE          RMSdq      gap      omega  full diag
   1   -943.3942018 -0.943394E+03  0.448E+00    2.81       0.0  T
   2   -945.4403329 -0.204613E+01  0.217E+00    1.39       1.0  T
   3   -945.5626318 -0.122299E+00  0.123E+00    1.76       1.0  T
   4   -945.7277217 -0.165090E+00  0.256E-01    1.17       1.0  T
   5   -945.7368149 -0.909325E-02  0.133E-01    1.42       1.0  T
   6   -945.7388695 -0.205459E-02  0.634E-02    1.41       1.0  T
   7   -945.7395625 -0.692940E-03  0.298E-02    1.43       1.0  T
   8   -945.7396475 -0.849969E-04  0.158E-02    1.44       1.0  T
   9   -945.7396861 -0.386663E-04  0.785E-03    1.44       1.0  T
  10   -945.7396952 -0.905748E-05  0.401E-03    1.45       1.0  T
  11   -945.7396978 -0.259799E-05  0.178E-03    1.45       2.2  T
  12   -945.7396983 -0.519889E-06  0.833E-04    1.45       4.8  T
  13   -945.7396984 -0.826053E-07  0.349E-04    1.45      11.5  T
  14   -945.7396984 -0.111986E-07  0.166E-04    1.45      24.1  T
  15   -945.7396984 -0.344812E-08  0.636E-05    1.45      62.9  T
  16   -945.7396984 -0.440082E-09  0.301E-05    1.45     132.9  T
speedup  1.99
cpu  time for SCC   32.88 s
wall time for SCC   16.49 s

   *** convergence criteria satisfied after 16 iterations ***

          eigenvalues
 #    :         820        821        822        823        824        825        826        827
 occ. :        2.000      2.000      2.000      2.000      2.000      2.000      2.000      2.000
 eps  :       -10.167    -10.141    -10.113    -10.104     -9.991     -9.985     -9.976     -9.957
 #    :         828        829        830        831        832        833        834        835
 occ. :        2.000      2.000      2.000      2.000      2.000      0.000      0.000      0.000
 eps  :        -9.947     -9.927     -9.853     -9.797     -9.629     -8.181     -7.848     -7.813
 #    :         836        837        838        839        840        841        842        843
 occ. :        0.000      0.000      0.000      0.000      0.000      0.000      0.000      0.000
 eps  :        -7.788     -7.784     -7.763     -7.733     -7.689     -7.510     -7.452     -7.417


   #   Z            q   n(s)   n(p)   n(d)      C6AA      α(0)
   1   7 N     -0.384  1.309  4.076  0.000    29.944     8.127
   2   6 C      0.043  1.049  2.909  0.000    19.867     6.348
   3   6 C      0.199  1.091  2.710  0.000    23.766     7.985
   4   8 O     -0.388  1.760  4.627  0.000    21.434     6.207
   5   6 C     -0.067  1.055  3.011  0.000    21.748     6.635
   6   6 C     -0.011  1.072  2.939  0.000    20.778     6.491
   7  16 S     -0.231  1.918  4.263  0.050   150.927    20.677
   8   6 C     -0.026  1.050  2.976  0.000    21.114     6.555
   9   1 H      0.176  0.824  0.000  0.000     1.238     1.743
  10   1 H      0.052  0.948  0.000  0.000     2.300     2.372
  11   1 H      0.078  0.922  0.000  0.000     2.002     2.213
  12   1 H      0.051  0.949  0.000  0.000     2.308     2.376
  13   1 H      0.044  0.956  0.000  0.000     2.396     2.421
  14   1 H      0.069  0.931  0.000  0.000     2.093     2.262
  15   1 H      0.043  0.957  0.000  0.000     2.404     2.425
  16   1 H      0.054  0.946  0.000  0.000     2.265     2.353
  17   1 H      0.017  0.983  0.000  0.000     2.783     2.609
  18   7 N     -0.396  1.335  4.061  0.000    30.265     8.170
  19   6 C      0.022  1.071  2.907  0.000    20.233     6.408
  20   6 C      0.283  1.050  2.667  0.000    22.202     7.715
  21   8 O     -0.492  1.760  4.733  0.000    23.617     6.516
  22   6 C      0.077  1.042  2.881  0.000    19.504     6.326
  23   8 O     -0.494  1.726  4.768  0.000    22.755     6.440
  24   1 H      0.159  0.841  0.000  0.000     1.343     1.816
  25   1 H      0.061  0.939  0.000  0.000     2.192     2.316
  26   1 H      0.043  0.957  0.000  0.000     2.411     2.428
  27   1 H      0.026  0.974  0.000  0.000     2.648     2.545
  28   1 H      0.353  0.647  0.000  0.000     0.582     1.199
  29   7 N     -0.186  1.260  3.926  0.000    25.029     7.430
  30   6 C      0.024  1.071  2.905  0.000    20.189     6.400
  31   6 C      0.307  1.037  2.655  0.000    21.778     7.641
  32   8 O     -0.521  1.768  4.754  0.000    24.264     6.604
  33   6 C     -0.021  1.068  2.952  0.000    20.913     6.504
  34   6 C     -0.127  1.041  3.086  0.000    23.007     6.840
  35   6 C     -0.103  1.036  3.068  0.000    22.532     6.769
  36   1 H      0.222  0.778  0.000  0.000     0.998     1.565
  37   1 H      0.046  0.954  0.000  0.000     2.375     2.410
  38   1 H      0.063  0.937  0.000  0.000     2.168     2.303
  39   1 H      0.075  0.925  0.000  0.000     2.029     2.228
  40   1 H      0.066  0.934  0.000  0.000     2.129     2.282
  41   1 H      0.035  0.965  0.000  0.000     2.520     2.483
  42   1 H      0.057  0.943  0.000  0.000     2.233     2.337
  43   1 H      0.027  0.973  0.000  0.000     2.630     2.536
  44   1 H      0.023  0.977  0.000  0.000     2.681     2.561
  45   7 N     -0.179  1.240  3.939  0.000    24.882     7.408
  46   6 C      0.046  1.055  2.899  0.000    19.809     6.338
  47   6 C      0.272  1.051  2.677  0.000    22.408     7.751
  48   8 O     -0.437  1.721  4.716  0.000    22.439     6.351
  49   6 C     -0.088  1.076  3.013  0.000    22.183     6.705
  50   6 C      0.377  1.021  2.602  0.000    20.613     7.430
  51   8 O     -0.647  1.777  4.870  0.000    27.304     7.006
  52   8 O     -0.636  1.774  4.862  0.000    27.012     6.968
  53   1 H      0.222  0.778  0.000  0.000     0.999     1.565
  54   1 H      0.041  0.959  0.000  0.000     2.438     2.442
  55   1 H      0.033  0.967  0.000  0.000     2.542     2.493
  56   1 H      0.021  0.979  0.000  0.000     2.715     2.577
  57   7 N     -0.182  1.245  3.937  0.000    24.936     7.416
  58   6 C      0.018  1.076  2.906  0.000    20.289     6.415
  59   6 C      0.284  1.047  2.669  0.000    22.194     7.716
  60   8 O     -0.427  1.757  4.670  0.000    22.220     6.320
  61   6 C     -0.074  1.056  3.019  0.000    21.915     6.664
  62   6 C      0.015  1.078  2.907  0.000    27.669     8.628
  63   6 C     -0.023  1.084  2.939  0.000    28.586     8.768
  64   6 C     -0.042  1.079  2.963  0.000    29.037     8.837
  65   6 C     -0.032  1.077  2.954  0.000    28.790     8.799
  66   6 C     -0.033  1.078  2.955  0.000    28.829     8.805
  67   6 C     -0.034  1.077  2.957  0.000    28.840     8.806
  68   1 H      0.166  0.834  0.000  0.000     1.295     1.783
  69   1 H      0.096  0.904  0.000  0.000     1.817     2.108
  70   1 H      0.076  0.924  0.000  0.000     2.026     2.226
  71   1 H      0.079  0.921  0.000  0.000     1.987     2.204
  72   1 H      0.044  0.956  0.000  0.000     2.400     2.423
  73   1 H      0.022  0.978  0.000  0.000     2.702     2.571
  74   1 H      0.040  0.960  0.000  0.000     2.454     2.449
  75   1 H      0.007  0.993  0.000  0.000     2.935     2.679
  76   1 H      0.024  0.976  0.000  0.000     2.673     2.557
  77   7 N     -0.228  1.297  3.931  0.000    25.986     7.571
  78   6 C      0.038  1.047  2.914  0.000    19.915     6.351
  79   6 C      0.262  1.043  2.695  0.000    22.575     7.781
  80   8 O     -0.488  1.740  4.749  0.000    23.529     6.504
  81   6 C     -0.123  1.036  3.087  0.000    22.915     6.825
  82   1 H      0.218  0.782  0.000  0.000     1.017     1.580
  83   1 H      0.069  0.931  0.000  0.000     2.102     2.267
  84   1 H      0.064  0.936  0.000  0.000     2.158     2.297
  85   1 H      0.043  0.957  0.000  0.000     2.409     2.427
  86   1 H      0.072  0.928  0.000  0.000     2.060     2.244
  87   7 N     -0.171  1.241  3.930  0.000    24.700     7.381
  88   6 C      0.009  1.063  2.928  0.000    20.439     6.438
  89   6 C      0.289  1.054  2.657  0.000    22.104     7.699
  90   8 O     -0.389  1.738  4.651  0.000    21.460     6.211
  91   6 C     -0.092  1.058  3.034  0.000    22.236     6.712
  92   6 C     -0.078  1.048  3.029  0.000    21.980     6.675
  93   6 C     -0.099  1.058  3.041  0.000    22.373     6.733
  94   6 C     -0.050  1.061  2.989  0.000    21.571     6.630
  95   7 N     -0.142  1.228  3.915  0.000    24.074     7.287
  96   1 H      0.215  0.785  0.000  0.000     1.033     1.592
  97   1 H      0.096  0.904  0.000  0.000     1.824     2.112
  98   1 H      0.099  0.901  0.000  0.000     1.796     2.096
  99   1 H      0.079  0.921  0.000  0.000     1.993     2.208
 100   1 H      0.039  0.961  0.000  0.000     2.460     2.453
 101   1 H      0.069  0.931  0.000  0.000     2.101     2.267
 102   1 H      0.090  0.910  0.000  0.000     1.875     2.141
 103   1 H      0.077  0.923  0.000  0.000     2.008     2.216
 104   1 H      0.109  0.891  0.000  0.000     1.708     2.044
 105   1 H      0.121  0.879  0.000  0.000     1.603     1.980
 106   1 H      0.300  0.700  0.000  0.000     0.713     1.323
 107   1 H      0.283  0.717  0.000  0.000     0.765     1.370
 108   1 H      0.296  0.704  0.000  0.000     0.725     1.334
 109   7 N     -0.283  1.305  3.977  0.000    27.293     7.759
 110   6 C      0.031  1.069  2.899  0.000    20.060     6.378
 111   6 C      0.272  1.049  2.679  0.000    22.400     7.751
 112   8 O     -0.494  1.752  4.742  0.000    23.653     6.521
 113   6 C     -0.051  1.055  2.995  0.000    21.488     6.601
 114   6 C     -0.099  1.075  3.024  0.000    22.407     6.742
 115   6 C      0.370  1.029  2.601  0.000    20.729     7.450
 116   8 O     -0.634  1.765  4.869  0.000    26.963     6.962
 117   8 O     -0.646  1.771  4.875  0.000    27.271     7.001
 118   1 H      0.211  0.789  0.000  0.000     1.049     1.605
 119   1 H      0.052  0.948  0.000  0.000     2.298     2.371
 120   1 H      0.025  0.975  0.000  0.000     2.653     2.547
 121   1 H      0.045  0.955  0.000  0.000     2.379     2.412
 122   1 H      0.029  0.971  0.000  0.000     2.599     2.521
 123   1 H      0.017  0.983  0.000  0.000     2.778     2.606
 124   7 N     -0.159  1.247  3.912  0.000    24.450     7.344
 125   6 C      0.019  1.059  2.921  0.000    20.246     6.406
 126   6 C      0.200  1.081  2.719  0.000    23.734     7.978
 127   8 O     -0.355  1.746  4.610  0.000    20.809     6.116
 128   6 C     -0.079  1.060  3.019  0.000    22.002     6.678
 129   6 C     -0.052  1.074  2.978  0.000    29.257     8.872
 130   6 C     -0.006  1.065  2.942  0.000    28.140     8.700
 131   6 C     -0.028  1.077  2.950  0.000    28.529     8.750
 132   7 N     -0.110  1.222  3.888  0.000    23.405     7.185
 133   6 C      0.045  1.061  2.894  0.000    26.897     8.502
 134   6 C     -0.057  1.086  2.971  0.000    29.406     8.892
 135   6 C     -0.058  1.072  2.985  0.000    29.434     8.896
 136   6 C     -0.042  1.079  2.963  0.000    29.053     8.839
 137   6 C     -0.042  1.081  2.961  0.000    29.045     8.838
 138   1 H      0.201  0.799  0.000  0.000     1.102     1.644
 139   1 H      0.105  0.895  0.000  0.000     1.739     2.062
 140   1 H      0.066  0.934  0.000  0.000     2.134     2.285
 141   1 H      0.084  0.916  0.000  0.000     1.940     2.178
 142   1 H      0.023  0.977  0.000  0.000     2.683     2.562
 143   1 H      0.176  0.824  0.000  0.000     1.238     1.743
 144   1 H      0.070  0.930  0.000  0.000     2.080     2.255
 145   1 H      0.026  0.974  0.000  0.000     2.643     2.543
 146   1 H      0.049  0.951  0.000  0.000     2.328     2.386
 147   1 H      0.039  0.961  0.000  0.000     2.461     2.453
 148   7 N     -0.367  1.305  4.062  0.000    29.465     8.062
 149   6 C      0.021  1.064  2.915  0.000    20.236     6.406
 150   6 C      0.268  1.053  2.679  0.000    22.475     7.762
 151   8 O     -0.429  1.732  4.697  0.000    22.276     6.328
 152   6 C     -0.073  1.056  3.017  0.000    21.876     6.657
 153   6 C     -0.005  1.080  2.926  0.000    28.156     8.704
 154   6 C     -0.034  1.085  2.949  0.000    28.851     8.808
 155   6 C     -0.048  1.078  2.970  0.000    29.184     8.859
 156   6 C     -0.054  1.079  2.975  0.000    29.344     8.883
 157   6 C     -0.074  1.083  2.991  0.000    29.846     8.959
 158   6 C      0.142  1.050  2.807  0.000    24.898     8.177
 159   8 O     -0.439  1.724  4.715  0.000    21.628     6.278
 160   1 H      0.158  0.842  0.000  0.000     1.349     1.820
 161   1 H      0.044  0.956  0.000  0.000     2.397     2.421
 162   1 H      0.050  0.950  0.000  0.000     2.315     2.379
 163   1 H      0.037  0.963  0.000  0.000     2.492     2.468
 164   1 H      0.049  0.951  0.000  0.000     2.327     2.385
 165   1 H      0.025  0.975  0.000  0.000     2.655     2.548
 166   1 H      0.053  0.947  0.000  0.000     2.277     2.360
 167   1 H      0.044  0.956  0.000  0.000     2.394     2.420
 168   1 H      0.351  0.649  0.000  0.000     0.585     1.201
 169   7 N     -0.204  1.243  3.961  0.000    25.436     7.490
 170   6 C     -0.024  1.044  2.979  0.000    21.070     6.549
 171   6 C      0.265  1.047  2.688  0.000    22.526     7.772
 172   8 O     -0.497  1.750  4.747  0.000    23.708     6.528
 173   1 H      0.194  0.806  0.000  0.000     1.138     1.671
 174   1 H      0.098  0.902  0.000  0.000     1.804     2.100
 175   1 H      0.079  0.921  0.000  0.000     1.994     2.208
 176   7 N     -0.177  1.249  3.928  0.000    24.822     7.399
 177   6 C      0.018  1.071  2.911  0.000    20.279     6.414
 178   6 C      0.273  1.051  2.677  0.000    22.388     7.747
 179   8 O     -0.474  1.744  4.730  0.000    23.224     6.461
 180   6 C     -0.077  1.059  3.018  0.000    21.952     6.668
 181   6 C     -0.013  1.052  2.961  0.000    20.767     6.481
 182   6 C     -0.121  1.042  3.078  0.000    22.866     6.818
 183   6 C     -0.143  1.045  3.098  0.000    23.315     6.884
 184   1 H      0.208  0.792  0.000  0.000     1.064     1.616
 185   1 H      0.081  0.919  0.000  0.000     1.972     2.196
 186   1 H      0.060  0.940  0.000  0.000     2.195     2.317
 187   1 H      0.060  0.940  0.000  0.000     2.197     2.318
 188   1 H      0.031  0.969  0.000  0.000     2.576     2.510
 189   1 H      0.054  0.946  0.000  0.000     2.274     2.358
 190   1 H      0.035  0.965  0.000  0.000     2.517     2.481
 191   1 H      0.050  0.950  0.000  0.000     2.320     2.382
 192   1 H      0.057  0.943  0.000  0.000     2.229     2.335
 193   1 H      0.063  0.937  0.000  0.000     2.160     2.298
 194   1 H      0.044  0.956  0.000  0.000     2.392     2.419
 195   7 N     -0.181  1.252  3.929  0.000    24.925     7.415
 196   6 C      0.007  1.069  2.924  0.000    20.478     6.445
 197   6 C      0.280  1.045  2.676  0.000    22.269     7.729
 198   8 O     -0.478  1.737  4.741  0.000    23.309     6.473
 199   6 C     -0.087  1.065  3.022  0.000    22.149     6.697
 200   6 C      0.006  1.083  2.912  0.000    27.896     8.663
 201   6 C     -0.044  1.080  2.964  0.000    29.087     8.845
 202   6 C     -0.042  1.081  2.961  0.000    29.031     8.836
 203   6 C     -0.033  1.080  2.953  0.000    28.811     8.803
 204   6 C     -0.032  1.081  2.951  0.000    28.804     8.802
 205   6 C     -0.033  1.078  2.955  0.000    28.830     8.805
 206   1 H      0.203  0.797  0.000  0.000     1.091     1.636
 207   1 H      0.115  0.885  0.000  0.000     1.654     2.011
 208   1 H      0.100  0.900  0.000  0.000     1.789     2.092
 209   1 H      0.059  0.941  0.000  0.000     2.213     2.326
 210   1 H      0.048  0.952  0.000  0.000     2.348     2.396
 211   1 H      0.032  0.968  0.000  0.000     2.555     2.499
 212   1 H      0.054  0.946  0.000  0.000     2.267     2.355
 213   1 H      0.037  0.963  0.000  0.000     2.485     2.465
 214   1 H      0.049  0.951  0.000  0.000     2.331     2.388
 215   7 N     -0.189  1.253  3.936  0.000    25.093     7.440
 216   6 C      0.014  1.061  2.926  0.000    20.331     6.417
 217   6 C      0.284  1.039  2.677  0.000    22.198     7.717
 218   8 O     -0.486  1.744  4.742  0.000    23.481     6.497
 219   6 C     -0.025  1.070  2.955  0.000    20.991     6.516
 220   6 C     -0.070  1.058  3.012  0.000    21.839     6.653
 221   6 C     -0.128  1.038  3.090  0.000    23.021     6.842
 222   6 C     -0.121  1.043  3.078  0.000    22.895     6.825
 223   1 H      0.219  0.781  0.000  0.000     1.014     1.577
 224   1 H      0.095  0.905  0.000  0.000     1.836     2.119
 225   1 H      0.063  0.937  0.000  0.000     2.169     2.303
 226   1 H      0.040  0.960  0.000  0.000     2.454     2.450
 227   1 H      0.035  0.965  0.000  0.000     2.513     2.479
 228   1 H      0.039  0.961  0.000  0.000     2.460     2.453
 229   1 H      0.073  0.927  0.000  0.000     2.055     2.242
 230   1 H      0.028  0.972  0.000  0.000     2.622     2.532
 231   1 H      0.057  0.943  0.000  0.000     2.236     2.338
 232   1 H      0.050  0.950  0.000  0.000     2.325     2.385
 233   1 H      0.054  0.946  0.000  0.000     2.276     2.359
 234   7 N     -0.190  1.250  3.940  0.000    25.120     7.444
 235   6 C      0.038  1.045  2.918  0.000    19.926     6.353
 236   6 C      0.281  1.035  2.684  0.000    22.242     7.725
 237   8 O     -0.504  1.758  4.746  0.000    23.875     6.551
 238   6 C     -0.061  1.049  3.012  0.000    21.630     6.614
 239   6 C     -0.079  1.048  3.031  0.000    22.006     6.678
 240   6 C      0.286  1.053  2.661  0.000    22.161     7.711
 241   8 O     -0.488  1.735  4.753  0.000    23.531     6.504
 242   7 N     -0.293  1.278  4.016  0.000    27.563     7.797
 243   1 H      0.225  0.775  0.000  0.000     0.985     1.555
 244   1 H      0.050  0.950  0.000  0.000     2.322     2.383
 245   1 H      0.078  0.922  0.000  0.000     2.001     2.212
 246   1 H      0.057  0.943  0.000  0.000     2.240     2.340
 247   1 H      0.055  0.945  0.000  0.000     2.258     2.350
 248   1 H      0.038  0.962  0.000  0.000     2.470     2.458
 249   1 H      0.207  0.793  0.000  0.000     1.071     1.621
 250   1 H      0.253  0.747  0.000  0.000     0.870     1.461
 251   7 N     -0.188  1.244  3.944  0.000    25.085     7.439
 252   6 C      0.015  1.065  2.920  0.000    20.315     6.416
 253   6 C      0.282  1.044  2.674  0.000    22.222     7.719
 254   8 O     -0.492  1.747  4.745  0.000    23.618     6.516
 255   6 C      0.076  1.036  2.889  0.000    19.524     6.329
 256   8 O     -0.469  1.697  4.771  0.000    22.232     6.365
 257   1 H      0.224  0.776  0.000  0.000     0.992     1.560
 258   1 H      0.064  0.936  0.000  0.000     2.149     2.292
 259   1 H      0.060  0.940  0.000  0.000     2.201     2.320
 260   1 H      0.044  0.956  0.000  0.000     2.392     2.419
 261   1 H      0.345  0.655  0.000  0.000     0.598     1.214
 262   7 N     -0.190  1.254  3.936  0.000    25.124     7.444
 263   6 C      0.017  1.073  2.911  0.000    20.302     6.417
 264   6 C      0.267  1.055  2.678  0.000    22.483     7.764
 265   8 O     -0.467  1.736  4.731  0.000    23.066     6.439
 266   6 C     -0.021  1.067  2.954  0.000    20.911     6.504
 267   6 C     -0.126  1.044  3.081  0.000    22.974     6.835
 268   6 C     -0.122  1.040  3.081  0.000    22.886     6.821
 269   1 H      0.227  0.773  0.000  0.000     0.980     1.550
 270   1 H      0.080  0.920  0.000  0.000     1.983     2.202
 271   1 H      0.049  0.951  0.000  0.000     2.335     2.390
 272   1 H      0.072  0.928  0.000  0.000     2.066     2.248
 273   1 H      0.038  0.962  0.000  0.000     2.472     2.458
 274   1 H      0.059  0.941  0.000  0.000     2.209     2.324
 275   1 H      0.068  0.932  0.000  0.000     2.104     2.269
 276   1 H      0.057  0.943  0.000  0.000     2.231     2.336
 277   1 H      0.051  0.949  0.000  0.000     2.308     2.376
 278   7 N     -0.199  1.264  3.935  0.000    25.326     7.474
 279   6 C      0.023  1.074  2.903  0.000    20.198     6.401
 280   6 C      0.283  1.042  2.674  0.000    22.207     7.718
 281   8 O     -0.488  1.730  4.758  0.000    23.528     6.503
 282   6 C     -0.010  1.066  2.944  0.000    20.730     6.476
 283   6 C     -0.070  1.056  3.013  0.000    21.829     6.651
 284   6 C     -0.089  1.030  3.059  0.000    22.256     6.728
 285   6 C     -0.103  1.035  3.068  0.000    22.520     6.768
 286   1 H      0.211  0.789  0.000  0.000     1.054     1.608
 287   1 H      0.074  0.926  0.000  0.000     2.038     2.233
 288   1 H      0.028  0.972  0.000  0.000     2.615     2.529
 289   1 H      0.056  0.944  0.000  0.000     2.246     2.344
 290   1 H      0.055  0.945  0.000  0.000     2.260     2.351
 291   1 H      0.053  0.947  0.000  0.000     2.285     2.364
 292   1 H      0.002  0.998  0.000  0.000     3.028     2.721
 293   1 H      0.043  0.957  0.000  0.000     2.404     2.425
 294   1 H      0.061  0.939  0.000  0.000     2.188     2.313
 295   1 H      0.019  0.981  0.000  0.000     2.748     2.593
 296   1 H      0.042  0.958  0.000  0.000     2.424     2.435
 297   7 N     -0.197  1.260  3.936  0.000    25.266     7.465
 298   6 C      0.077  1.035  2.888  0.000    19.284     6.248
 299   6 C      0.280  1.038  2.682  0.000    22.254     7.726
 300   8 O     -0.492  1.729  4.763  0.000    23.599     6.513
 301   6 C     -0.097  1.069  3.028  0.000    22.342     6.729
 302   6 C      0.372  1.023  2.605  0.000    20.688     7.444
 303   8 O     -0.623  1.771  4.853  0.000    26.703     6.928
 304   8 O     -0.633  1.773  4.860  0.000    26.945     6.960
 305   1 H      0.223  0.777  0.000  0.000     0.996     1.563
 306   1 H      0.032  0.968  0.000  0.000     2.555     2.500
 307   1 H      0.033  0.967  0.000  0.000     2.548     2.496
 308   1 H      0.030  0.970  0.000  0.000     2.581     2.512
 309   7 N     -0.186  1.262  3.925  0.000    25.037     7.431
 310   6 C      0.035  1.064  2.901  0.000    19.973     6.360
 311   6 C      0.294  1.032  2.674  0.000    22.012     7.683
 312   8 O     -0.480  1.739  4.741  0.000    23.347     6.478
 313   6 C     -0.077  1.059  3.019  0.000    21.971     6.672
 314   6 C      0.010  1.078  2.912  0.000    27.795     8.648
 315   6 C     -0.038  1.078  2.959  0.000    28.934     8.822
 316   6 C     -0.032  1.078  2.954  0.000    28.786     8.799
 317   6 C     -0.034  1.078  2.956  0.000    28.838     8.807
 318   6 C     -0.031  1.080  2.951  0.000    28.777     8.798
 319   6 C     -0.035  1.077  2.957  0.000    28.870     8.811
 320   1 H      0.218  0.782  0.000  0.000     1.019     1.581
 321   1 H      0.054  0.946  0.000  0.000     2.271     2.357
 322   1 H      0.060  0.940  0.000  0.000     2.198     2.318
 323   1 H      0.069  0.931  0.000  0.000     2.096     2.264
 324   1 H      0.035  0.965  0.000  0.000     2.520     2.482
 325   1 H      0.019  0.981  0.000  0.000     2.748     2.592
 326   1 H      0.061  0.939  0.000  0.000     2.184     2.311
 327   1 H      0.040  0.960  0.000  0.000     2.449     2.447
 328   1 H      0.054  0.946  0.000  0.000     2.270     2.356
 329   7 N     -0.204  1.249  3.955  0.000    25.440     7.491
 330   6 C      0.035  1.053  2.912  0.000    19.971     6.360
 331   6 C      0.275  1.048  2.677  0.000    22.349     7.743
 332   8 O     -0.508  1.737  4.772  0.000    23.967     6.564
 333   6 C     -0.020  1.055  2.964  0.000    20.884     6.498
 334   6 C     -0.065  1.052  3.013  0.000    21.731     6.635
 335   6 C     -0.114  1.035  3.079  0.000    22.722     6.795
 336   6 C     -0.112  1.037  3.075  0.000    22.708     6.795
 337   1 H      0.230  0.770  0.000  0.000     0.967     1.541
 338   1 H      0.072  0.928  0.000  0.000     2.064     2.247
 339   1 H      0.039  0.961  0.000  0.000     2.465     2.455
 340   1 H      0.049  0.951  0.000  0.000     2.331     2.387
 341   1 H      0.043  0.957  0.000  0.000     2.411     2.428
 342   1 H      0.060  0.940  0.000  0.000     2.203     2.321
 343   1 H      0.021  0.979  0.000  0.000     2.723     2.581
 344   1 H      0.050  0.950  0.000  0.000     2.315     2.380
 345   1 H      0.058  0.942  0.000  0.000     2.218     2.329
 346   1 H      0.029  0.971  0.000  0.000     2.599     2.521
 347   1 H      0.049  0.951  0.000  0.000     2.337     2.391
 348   7 N     -0.207  1.265  3.941  0.000    25.494     7.499
 349   6 C      0.028  1.071  2.901  0.000    20.092     6.381
 350   6 C      0.275  1.050  2.675  0.000    22.345     7.740
 351   8 O     -0.510  1.746  4.764  0.000    24.003     6.569
 352   6 C     -0.012  1.055  2.957  0.000    20.747     6.478
 353   6 C     -0.044  1.041  3.003  0.000    21.343     6.575
 354   6 C     -0.099  1.033  3.066  0.000    22.433     6.752
 355   6 C     -0.092  1.031  3.060  0.000    22.301     6.732
 356   1 H      0.231  0.769  0.000  0.000     0.959     1.534
 357   1 H      0.059  0.941  0.000  0.000     2.209     2.324
 358   1 H      0.052  0.948  0.000  0.000     2.291     2.367
 359   1 H      0.015  0.985  0.000  0.000     2.812     2.622
 360   1 H      0.033  0.967  0.000  0.000     2.544     2.494
 361   1 H      0.050  0.950  0.000  0.000     2.321     2.382
 362   1 H      0.044  0.956  0.000  0.000     2.399     2.422
 363   1 H      0.024  0.976  0.000  0.000     2.666     2.554
 364   1 H      0.041  0.959  0.000  0.000     2.440     2.443
 365   1 H      0.036  0.964  0.000  0.000     2.507     2.476
 366   1 H      0.020  0.980  0.000  0.000     2.739     2.588
 367   7 N     -0.207  1.259  3.948  0.000    25.502     7.500
 368   6 C      0.029  1.065  2.906  0.000    20.090     6.383
 369   6 C      0.284  1.039  2.677  0.000    22.182     7.713
 370   8 O     -0.506  1.753  4.753  0.000    23.922     6.558
 371   6 C     -0.010  1.063  2.947  0.000    20.722     6.474
 372   6 C     -0.059  1.051  3.008  0.000    21.628     6.620
 373   6 C     -0.124  1.040  3.084  0.000    22.924     6.825
 374   6 C     -0.111  1.040  3.071  0.000    22.678     6.791
 375   1 H      0.224  0.776  0.000  0.000     0.990     1.559
 376   1 H      0.048  0.952  0.000  0.000     2.343     2.394
 377   1 H      0.023  0.977  0.000  0.000     2.685     2.563
 378   1 H      0.045  0.955  0.000  0.000     2.385     2.415
 379   1 H      0.025  0.975  0.000  0.000     2.661     2.551
 380   1 H      0.039  0.961  0.000  0.000     2.468     2.457
 381   1 H      0.075  0.925  0.000  0.000     2.031     2.229
 382   1 H      0.041  0.959  0.000  0.000     2.431     2.438
 383   1 H      0.054  0.946  0.000  0.000     2.270     2.356
 384   1 H      0.034  0.966  0.000  0.000     2.525     2.485
 385   1 H      0.051  0.949  0.000  0.000     2.310     2.377
 386   7 N     -0.172  1.246  3.927  0.000    24.727     7.385
 387   6 C      0.035  1.059  2.906  0.000    19.993     6.367
 388   6 C      0.272  1.052  2.676  0.000    22.401     7.750
 389   8 O     -0.496  1.757  4.739  0.000    23.702     6.527
 390   6 C     -0.141  1.043  3.098  0.000    23.268     6.878
 391   1 H      0.209  0.791  0.000  0.000     1.062     1.614
 392   1 H      0.075  0.925  0.000  0.000     2.033     2.230
 393   1 H      0.059  0.941  0.000  0.000     2.213     2.327
 394   1 H      0.092  0.908  0.000  0.000     1.859     2.132
 395   1 H      0.068  0.932  0.000  0.000     2.111     2.272
 396   7 N     -0.187  1.253  3.934  0.000    25.058     7.435
 397   6 C      0.041  1.053  2.906  0.000    19.893     6.351
 398   6 C      0.220  1.082  2.698  0.000    23.361     7.916
 399   8 O     -0.366  1.750  4.616  0.000    21.014     6.146
 400   6 C     -0.075  1.053  3.022  0.000    21.916     6.662
 401   6 C      0.007  1.082  2.911  0.000    27.864     8.659
 402   6 C     -0.040  1.082  2.958  0.000    28.988     8.830
 403   6 C     -0.040  1.082  2.959  0.000    29.005     8.832
 404   6 C     -0.033  1.081  2.952  0.000    28.824     8.804
 405   6 C     -0.034  1.080  2.954  0.000    28.843     8.807
 406   6 C     -0.036  1.080  2.956  0.000    28.899     8.816
 407   1 H      0.225  0.775  0.000  0.000     0.987     1.557
 408   1 H      0.082  0.918  0.000  0.000     1.954     2.186
 409   1 H      0.075  0.925  0.000  0.000     2.026     2.226
 410   1 H      0.056  0.944  0.000  0.000     2.247     2.344
 411   1 H      0.043  0.957  0.000  0.000     2.403     2.424
 412   1 H      0.025  0.975  0.000  0.000     2.664     2.552
 413   1 H      0.054  0.946  0.000  0.000     2.272     2.357
 414   1 H      0.037  0.963  0.000  0.000     2.484     2.465
 415   1 H      0.050  0.950  0.000  0.000     2.320     2.382
 416   7 N     -0.386  1.312  4.074  0.000    29.998     8.134
 417   6 C      0.035  1.051  2.914  0.000    19.992     6.369
 418   6 C      0.191  1.093  2.716  0.000    23.915     8.009
 419   8 O     -0.375  1.747  4.628  0.000    21.196     6.173
 420   6 C     -0.066  1.054  3.012  0.000    21.745     6.637
 421   6 C     -0.017  1.071  2.947  0.000    20.894     6.510
 422  16 S     -0.261  1.937  4.259  0.065   152.297    20.771
 423   6 C     -0.058  1.058  3.000  0.000    21.697     6.645
 424   1 H      0.166  0.834  0.000  0.000     1.296     1.783
 425   1 H      0.073  0.927  0.000  0.000     2.057     2.243
 426   1 H      0.070  0.930  0.000  0.000     2.086     2.259
 427   1 H      0.057  0.943  0.000  0.000     2.230     2.335
 428   1 H      0.064  0.936  0.000  0.000     2.156     2.296
 429   1 H      0.058  0.942  0.000  0.000     2.222     2.331
 430   1 H      0.066  0.934  0.000  0.000     2.134     2.285
 431   1 H      0.055  0.945  0.000  0.000     2.264     2.353
 432   1 H      0.068  0.932  0.000  0.000     2.102     2.267
 433   7 N     -0.392  1.313  4.080  0.000    30.159     8.156
 434   6 C      0.035  1.053  2.912  0.000    19.986     6.366
 435   6 C      0.269  1.044  2.687  0.000    22.453     7.759
 436   8 O     -0.499  1.747  4.752  0.000    23.770     6.537
 437   6 C     -0.111  1.041  3.070  0.000    22.672     6.788
 438   1 H      0.163  0.837  0.000  0.000     1.319     1.799
 439   1 H      0.018  0.982  0.000  0.000     2.762     2.599
 440   1 H      0.027  0.973  0.000  0.000     2.624     2.533
 441   1 H      0.044  0.956  0.000  0.000     2.396     2.420
 442   1 H      0.068  0.932  0.000  0.000     2.106     2.269
 443   7 N     -0.173  1.246  3.927  0.000    24.743     7.388
 444   6 C      0.021  1.069  2.910  0.000    20.234     6.407
 445   6 C      0.197  1.086  2.717  0.000    23.807     7.991
 446   8 O     -0.337  1.751  4.587  0.000    20.472     6.066
 447   6 C     -0.081  1.061  3.020  0.000    22.037     6.683
 448   6 C      0.010  1.078  2.912  0.000    27.791     8.647
 449   6 C     -0.044  1.080  2.964  0.000    29.095     8.846
 450   6 C     -0.042  1.080  2.962  0.000    29.049     8.839
 451   6 C     -0.029  1.078  2.952  0.000    28.736     8.791
 452   6 C     -0.034  1.078  2.956  0.000    28.836     8.806
 453   6 C     -0.034  1.077  2.958  0.000    28.855     8.809
 454   1 H      0.229  0.771  0.000  0.000     0.971     1.543
 455   1 H      0.083  0.917  0.000  0.000     1.951     2.184
 456   1 H      0.083  0.917  0.000  0.000     1.949     2.183
 457   1 H      0.072  0.928  0.000  0.000     2.063     2.246
 458   1 H      0.045  0.955  0.000  0.000     2.377     2.411
 459   1 H      0.039  0.961  0.000  0.000     2.462     2.454
 460   1 H      0.037  0.963  0.000  0.000     2.489     2.467
 461   1 H      0.038  0.962  0.000  0.000     2.481     2.463
 462   1 H      0.034  0.966  0.000  0.000     2.526     2.486
 463   7 N     -0.386  1.303  4.083  0.000    29.984     8.132
 464   6 C      0.031  1.061  2.908  0.000    20.066     6.381
 465   6 C      0.262  1.058  2.680  0.000    22.585     7.784
 466   8 O     -0.478  1.730  4.748  0.000    23.302     6.472
 467   6 C     -0.072  1.058  3.013  0.000    21.874     6.660
 468   6 C     -0.068  1.060  3.009  0.000    21.823     6.654
 469   6 C     -0.094  1.067  3.027  0.000    22.321     6.731
 470   6 C     -0.053  1.077  2.976  0.000    21.666     6.652
 471   7 N     -0.137  1.229  3.907  0.000    23.955     7.269
 472   1 H      0.140  0.860  0.000  0.000     1.470     1.899
 473   1 H      0.066  0.934  0.000  0.000     2.136     2.285
 474   1 H      0.057  0.943  0.000  0.000     2.239     2.340
 475   1 H      0.038  0.962  0.000  0.000     2.475     2.460
 476   1 H      0.047  0.953  0.000  0.000     2.362     2.404
 477   1 H      0.029  0.971  0.000  0.000     2.595     2.519
 478   1 H      0.087  0.913  0.000  0.000     1.911     2.162
 479   1 H      0.085  0.915  0.000  0.000     1.927     2.171
 480   1 H      0.127  0.873  0.000  0.000     1.559     1.953
 481   1 H      0.102  0.898  0.000  0.000     1.763     2.076
 482   1 H      0.289  0.711  0.000  0.000     0.748     1.355
 483   1 H      0.272  0.728  0.000  0.000     0.802     1.402
 484   1 H      0.310  0.690  0.000  0.000     0.683     1.295
 485   7 N     -0.144  1.250  3.893  0.000    24.107     7.292
 486   6 C      0.024  1.065  2.911  0.000    20.150     6.387
 487   6 C      0.210  1.082  2.708  0.000    23.550     7.947
 488   8 O     -0.363  1.734  4.629  0.000    20.961     6.138
 489   6 C     -0.017  1.062  2.955  0.000    20.839     6.492
 490   6 C     -0.074  1.045  3.030  0.000    21.910     6.663
 491   6 C     -0.105  1.035  3.070  0.000    22.555     6.772
 492   6 C     -0.106  1.035  3.070  0.000    22.572     6.773
 493   1 H      0.205  0.795  0.000  0.000     1.078     1.627
 494   1 H      0.077  0.923  0.000  0.000     2.006     2.215
 495   1 H      0.054  0.946  0.000  0.000     2.270     2.356
 496   1 H      0.070  0.930  0.000  0.000     2.087     2.259
 497   1 H      0.042  0.958  0.000  0.000     2.429     2.437
 498   1 H      0.036  0.964  0.000  0.000     2.497     2.471
 499   1 H      0.030  0.970  0.000  0.000     2.591     2.517
 500   1 H      0.043  0.957  0.000  0.000     2.405     2.425
 501   1 H      0.043  0.957  0.000  0.000     2.415     2.430
 502   1 H      0.029  0.971  0.000  0.000     2.598     2.520
 503   1 H      0.033  0.967  0.000  0.000     2.550     2.497
 504   7 N     -0.400  1.299  4.101  0.000    30.359     8.183
 505   6 C      0.018  1.057  2.925  0.000    20.284     6.414
 506   6 C      0.261  1.050  2.689  0.000    22.608     7.787
 507   8 O     -0.490  1.744  4.746  0.000    23.568     6.509
 508   6 C      0.058  1.048  2.894  0.000    19.796     6.370
 509   8 O     -0.466  1.715  4.751  0.000    22.169     6.356
 510   1 H      0.198  0.802  0.000  0.000     1.116     1.655
 511   1 H      0.057  0.943  0.000  0.000     2.234     2.338
 512   1 H      0.040  0.960  0.000  0.000     2.443     2.444
 513   1 H      0.054  0.946  0.000  0.000     2.276     2.359
 514   1 H      0.302  0.698  0.000  0.000     0.714     1.327
 515   7 N     -0.166  1.254  3.912  0.000    24.598     7.366
 516   6 C      0.022  1.071  2.908  0.000    20.232     6.408
 517   6 C      0.195  1.102  2.703  0.000    23.833     7.994
 518   8 O     -0.360  1.759  4.601  0.000    20.900     6.129
 519   6 C     -0.092  1.067  3.025  0.000    22.251     6.714
 520   6 C     -0.012  1.059  2.953  0.000    20.766     6.482
 521   6 C     -0.120  1.041  3.079  0.000    22.850     6.816
 522   6 C     -0.118  1.043  3.076  0.000    22.827     6.813
 523   1 H      0.242  0.758  0.000  0.000     0.914     1.498
 524   1 H      0.085  0.915  0.000  0.000     1.931     2.173
 525   1 H      0.079  0.921  0.000  0.000     1.985     2.203
 526   1 H      0.071  0.929  0.000  0.000     2.074     2.252
 527   1 H      0.032  0.968  0.000  0.000     2.551     2.498
 528   1 H      0.043  0.957  0.000  0.000     2.415     2.430
 529   1 H      0.043  0.957  0.000  0.000     2.409     2.427
 530   1 H      0.045  0.955  0.000  0.000     2.379     2.412
 531   1 H      0.046  0.954  0.000  0.000     2.375     2.410
 532   1 H      0.042  0.958  0.000  0.000     2.419     2.432
 533   1 H      0.048  0.952  0.000  0.000     2.345     2.395
 534   7 N     -0.401  1.322  4.079  0.000    30.407     8.190
 535   6 C      0.033  1.061  2.906  0.000    20.028     6.373
 536   6 C      0.271  1.043  2.687  0.000    22.427     7.755
 537   8 O     -0.501  1.752  4.749  0.000    23.798     6.541
 538   6 C     -0.111  1.066  3.045  0.000    22.610     6.769
 539   6 C      0.280  1.047  2.672  0.000    22.259     7.725
 540   8 O     -0.507  1.762  4.745  0.000    23.934     6.559
 541   7 N     -0.297  1.282  4.014  0.000    27.644     7.809
 542   1 H      0.164  0.836  0.000  0.000     1.311     1.794
 543   1 H      0.052  0.948  0.000  0.000     2.299     2.371
 544   1 H      0.100  0.900  0.000  0.000     1.784     2.089
 545   1 H      0.044  0.956  0.000  0.000     2.399     2.422
 546   1 H      0.222  0.778  0.000  0.000     1.001     1.567
 547   1 H      0.245  0.755  0.000  0.000     0.901     1.487
 548   7 N     -0.170  1.245  3.926  0.000    24.687     7.379
 549   6 C      0.023  1.059  2.918  0.000    20.174     6.392
 550   6 C      0.204  1.086  2.710  0.000    23.656     7.965
 551   8 O     -0.371  1.763  4.609  0.000    21.119     6.161
 552   6 C     -0.029  1.059  2.971  0.000    21.053     6.525
 553   6 C     -0.057  1.049  3.008  0.000    21.577     6.609
 554   6 C     -0.119  1.034  3.085  0.000    22.829     6.812
 555   6 C     -0.117  1.037  3.080  0.000    22.806     6.811
 556   1 H      0.232  0.768  0.000  0.000     0.957     1.533
 557   1 H      0.079  0.921  0.000  0.000     1.985     2.203
 558   1 H      0.072  0.928  0.000  0.000     2.061     2.245
 559   1 H      0.031  0.969  0.000  0.000     2.576     2.510
 560   1 H      0.030  0.970  0.000  0.000     2.593     2.518
 561   1 H      0.064  0.936  0.000  0.000     2.157     2.296
 562   1 H      0.044  0.956  0.000  0.000     2.402     2.423
 563   1 H      0.038  0.962  0.000  0.000     2.479     2.462
 564   1 H      0.060  0.940  0.000  0.000     2.194     2.316
 565   1 H      0.038  0.962  0.000  0.000     2.476     2.461
 566   1 H      0.038  0.962  0.000  0.000     2.479     2.462
 567   7 N     -0.391  1.345  4.046  0.000    30.123     8.151
 568   6 C      0.026  1.067  2.908  0.000    20.166     6.398
 569   6 C      0.206  1.083  2.712  0.000    23.628     7.960
 570   8 O     -0.375  1.754  4.621  0.000    21.191     6.172
 571   6 C     -0.033  1.081  2.952  0.000    21.130     6.539
 572   6 C     -0.066  1.050  3.016  0.000    21.759     6.641
 573   6 C     -0.130  1.043  3.088  0.000    23.070     6.850
 574   6 C     -0.117  1.040  3.076  0.000    22.794     6.809
 575   1 H      0.159  0.841  0.000  0.000     1.339     1.812
 576   1 H      0.052  0.948  0.000  0.000     2.296     2.370
 577   1 H      0.062  0.938  0.000  0.000     2.180     2.309
 578   1 H      0.034  0.966  0.000  0.000     2.530     2.487
 579   1 H      0.032  0.968  0.000  0.000     2.565     2.504
 580   1 H      0.062  0.938  0.000  0.000     2.176     2.307
 581   1 H      0.059  0.941  0.000  0.000     2.215     2.327
 582   1 H      0.057  0.943  0.000  0.000     2.234     2.337
 583   1 H      0.034  0.966  0.000  0.000     2.527     2.486
 584   1 H      0.045  0.955  0.000  0.000     2.379     2.412
 585   1 H      0.053  0.947  0.000  0.000     2.287     2.365
 586   7 N     -0.395  1.318  4.077  0.000    30.248     8.168
 587   6 C      0.044  1.056  2.900  0.000    19.847     6.346
 588   6 C      0.204  1.091  2.705  0.000    23.661     7.966
 589   8 O     -0.394  1.767  4.628  0.000    21.571     6.227
 590   6 C     -0.076  1.060  3.015  0.000    21.939     6.667
 591   6 C      0.007  1.085  2.908  0.000    27.851     8.657
 592   6 C     -0.039  1.079  2.960  0.000    28.981     8.828
 593   6 C     -0.032  1.078  2.954  0.000    28.806     8.802
 594   6 C     -0.034  1.079  2.955  0.000    28.845     8.808
 595   6 C     -0.029  1.074  2.955  0.000    28.713     8.787
 596   6 C     -0.034  1.078  2.957  0.000    28.854     8.809
 597   1 H      0.174  0.826  0.000  0.000     1.250     1.751
 598   1 H      0.049  0.951  0.000  0.000     2.328     2.386
 599   1 H      0.067  0.933  0.000  0.000     2.115     2.274
 600   1 H      0.062  0.938  0.000  0.000     2.179     2.308
 601   1 H      0.045  0.955  0.000  0.000     2.377     2.411
 602   1 H      0.024  0.976  0.000  0.000     2.674     2.557
 603   1 H      0.039  0.961  0.000  0.000     2.460     2.453
 604   1 H      0.030  0.970  0.000  0.000     2.588     2.516
 605   1 H      0.030  0.970  0.000  0.000     2.592     2.518
 606   1 H      0.185  0.815  0.000  0.000     1.187     1.707
 607   1 H      0.094  0.906  0.000  0.000     1.842     2.122
 608   1 H      0.202  0.798  0.000  0.000     1.096     1.640
 609   1 H      0.083  0.917  0.000  0.000     1.948     2.182
 610   1 H      0.187  0.813  0.000  0.000     1.172     1.696
 611   1 H      0.055  0.945  0.000  0.000     2.252     2.346
 612   1 H      0.179  0.821  0.000  0.000     1.222     1.731
 613   1 H      0.084  0.916  0.000  0.000     1.941     2.179
 614   1 H      0.185  0.815  0.000  0.000     1.184     1.704
 615   1 H      0.081  0.919  0.000  0.000     1.971     2.196
 616   1 H      0.190  0.810  0.000  0.000     1.160     1.687
 617   1 H      0.075  0.925  0.000  0.000     2.028     2.227
 618   1 H      0.185  0.815  0.000  0.000     1.185     1.705
 619   1 H      0.091  0.909  0.000  0.000     1.868     2.137
 620   1 H      0.184  0.816  0.000  0.000     1.189     1.708
 621   1 H      0.084  0.916  0.000  0.000     1.935     2.175
 622   1 H      0.197  0.803  0.000  0.000     1.119     1.657
 623   1 H      0.053  0.947  0.000  0.000     2.286     2.364
 624   1 H      0.185  0.815  0.000  0.000     1.184     1.704
 625   1 H      0.072  0.928  0.000  0.000     2.058     2.243

 Mol. C6AA /au·bohr⁶  :    3715416.191207
 Mol. C8AA /au·bohr⁸  :   84304800.912029
 Mol. α(0) /au        :       2916.092590

 
molecular dipole:
                 x           y           z       tot (Debye)
 q only:      -93.365     -43.845     -37.960
   full:      -90.840     -41.228     -37.230     270.647
molecular quadrupole (traceless):
                xx          xy          yy          xz          yz          zz
 q only:    -6898.540   -6218.077    3788.879   -5436.038   -1693.076    3109.660
  q+dip:    -6415.601   -5739.630    3491.000   -5202.515   -1489.361    2924.601
   full:    -6424.382   -5737.357    3490.984   -5206.358   -1489.975    2933.398
speedup  1.99
cpu  time for grad   37.39 s
wall time for grad   18.75 s

SCC energy    :    -945.7714215
rep           :      12.0835878
ES            :       2.6444210
AES           :      -0.1207039
AXC           :       0.3545294
disp          :      -0.8808832
XB            :       0.0000000
fix           :       0.0000000
Gborn         :       0.0000000
Gsasa         :       0.0000000
Ghb           :       0.0000000
Gshift        :       0.0000000
Gsolv         :      -0.7246242     -454.71
Etot ala COSMO:    -945.7714215
grad norm     :       0.7413680
total E       :    -933.5988065
atomizationE  :     176.9594236   111043.71
(atE without considering molecular charge,
 total energy contains solvation terms)
H-L gap (eV)  :          1.4480

------------------------------------------------------------------------
 * finished run on 2019/05/10 at 02:12:58.544     
------------------------------------------------------------------------
 total:
 * wall-time:     0 d,  0 h,  0 min, 20.553 sec
 *  cpu-time:     0 d,  0 h,  0 min, 40.159 sec
 * ratio c/w:     1.954 speedup
 SCF:
 * wall-time:     0 d,  0 h,  0 min, 19.541 sec
 *  cpu-time:     0 d,  0 h,  0 min, 38.921 sec
 * ratio c/w:     1.992 speedup

