      -----------------------------------------------------------      
     |                   =====================                   |     
     |                           x T B                           |     
     |                   =====================                   |     
     |                         S. Grimme                         |     
     |          Mulliken Center for Theoretical Chemistry        |     
     |                    University of Bonn                     |     
     |                 Version 6.0.1 (SAW181210)                 |     
      -----------------------------------------------------------      

   This program is distributed in the hope that it will be useful,
   but WITHOUT ANY WARRANTY; without even the implied warranty of
   MERCHANTABILITY or FITNESS FOR A PARTICULAR PURPOSE.
   
   FOR NON-COMMERCIAL, ACADEMIA USE ONLY.
   
   Cite this work as:
   S. Grimme, C. Bannwarth, P. Shushkov, J. Comput. Theory Chem., 2017,
   13, 1989-2009.
   C. Bannwarth, S. Ehlert and S. Grimme., ChemRxiv, 2018, preprint.
   http://doi.org/10.26434/chemrxiv.7246238.v1
   
   for sTDA-xTB:
   S. Grimme and C. Bannwarth, J. Chem. Phys., 2016, 145, 054103.
   
   in the mass-spec context:
   V. Asgeirsson, C. Bauer and S. Grimme, Chem. Sci., 2017, 8, 4879.
   
   if GBSA is used:
   P. Shushkov, F. März and S. Grimme, unpublished.
   
   for ANC optimizer:
   S. Grimme, unpublished.
   Rational Function algorithm used in ANCopt:
   F. Eckert, P. Pulay, H.-J. Werner, J. Comput. Chem., 1997, 18, 1473.
   
   with help from (in alphabetical order)
   C. Bannwarth, F. Bohle, G. Brandenburg, E. Caldeweyher, M. Checinski,
   S. Dohm, S. Ehlert, S. Ehrlich, F. März, H. Neugebauer, J. Pisarek,
   P. Pracht, P. Shushkov, and S. Spicher.
   
 * started run on 2019/05/11 at 17:05:47.705     
========================================================================
 # omp threads = 2
========================================================================
number of atoms            : 603
number of electrons        : 1588
charge                     : 2
spin                       : .0
first test random number   : .7313

########################################################################
# WARNING! Please study the warnings concerning your input carefully
#  - Process number higher than OMP_NUM_THREADS, I hope you know what you are doing.
########################################################################

           ------------------------------------------------- 
          |                 G F N 2 - x T B                 |
          | Geometry, Frequencies, Noncovalent interactions |
          |            JCTC 2018 parametrisation            |
           ------------------------------------------------- 
 
      method parameters     
 k(s)        :  1.8500
 k(p)        :  2.2300
 k(d)        :  2.2300
 k(f)        :  2.0000
 kEN (H0ij)  : -2.0000
 D4 a1       :  0.5200
 D4 a2       :  5.0000
 D4 s6       :  1.0000
 D4 s8       :  2.7000
 D4 s9       :  5.0000
 alphaj      :  2.0000

 Solvent             : h2o
 Using internal parameter file: .param_gbsa2_h2o
 Gsolv ref. state (COSMO-RS): gsolv [1 M gas/solution]
 temperature (mdtemp)       :    298.150000000000     
 dielectric constant        :    80.2000000000000     
 rho                        :    1.00000000000000     
 mass                       :    18.0000000000000     
 surface tension            :    15.5689454083859     
 probe radius               :   0.975313790000000     
 vdW radii scaling          :    1.00000000000000     
 Gshift (Eh)                :   1.857443126794793E-003
 c1                         :    1.55243817000000     
 soset                      :   0.130326360000000     
 HB correction              :  T

            Z     q(EN)     CN     RAES       Cart. coordinates
     1  N   5.0   -0.07    4.33    3.83     8.76551    65.74194   -35.07310
     2  C   4.0   -0.00    4.47    4.49     9.27619    66.38652   -32.35920
     3  C   4.0    0.15    3.39    3.08    11.77713    65.05684   -31.62239
     4  O   6.0   -0.31    1.30    1.80    12.77117    63.68334   -33.10367
     5  C   4.0   -0.05    4.31    4.22     6.97387    65.32947   -30.88407
     6  C   4.0   -0.04    4.26    4.11     4.89329    65.39929   -32.84579
     7  C   4.0   -0.03    4.28    4.15     6.23709    64.51355   -35.24536
     8  H   1.0    0.06    1.05    1.44     8.84615    67.31651   -36.18684
     9  H   1.0    0.09    1.10    1.44    10.23306    64.51421   -35.58893
    10  H   1.0    0.04    1.04    1.43     9.43802    68.42399   -32.11318
    11  H   1.0    0.05    1.02    1.43     7.34327    63.38033   -30.29916
    12  H   1.0    0.04    1.02    1.43     6.57023    66.43757   -29.22563
    13  H   1.0    0.05    1.02    1.43     3.32961    64.16418   -32.34801
    14  H   1.0    0.05    1.02    1.43     4.17240    67.31205   -33.07544
    15  H   1.0    0.05    1.02    1.43     6.48334    62.46255   -35.18151
    16  H   1.0    0.05    1.02    1.43     5.27704    65.04648   -36.96516
    17  N   5.0   -0.14    3.48    2.06    12.60367    65.54655   -29.28717
    18  C   4.0    0.04    4.51    4.55    14.58333    64.11550   -28.10579
    19  C   4.0    0.15    3.51    3.12    13.75540    63.60071   -25.39405
    20  O   6.0   -0.32    1.26    1.80    13.18627    65.35997   -24.03225
    21  C   4.0   -0.03    4.18    3.96    17.04303    65.57867   -28.09304
    22  S   6.0   -0.03    2.50    3.10    19.59973    63.56621   -26.73237
    23  H   1.0    0.09    1.07    1.44    11.68432    66.76580   -28.12779
    24  H   1.0    0.07    1.07    1.44    14.82529    62.30850   -29.14334
    25  H   1.0    0.05    1.05    1.44    17.61406    66.06607   -30.02447
    26  H   1.0    0.06    1.08    1.44    16.93119    67.23681   -26.92305
    27  N   5.0   -0.14    3.49    2.07    13.66418    61.17962   -24.73193
    28  C   4.0    0.04    4.44    4.44    12.77616    60.41178   -22.27075
    29  C   4.0    0.14    3.39    3.08    13.58702    57.70168   -21.68692
    30  O   6.0   -0.31    1.26    1.80    14.17009    56.18667   -23.33551
    31  C   4.0   -0.03    4.38    4.34     9.91214    60.74696   -22.08181
    32  C   4.0   -0.03    4.08    3.76     8.46891    59.38629   -24.07943
    33  S   6.0   -0.04    2.51    3.10     5.22338    60.66312   -24.30612
    34  C   4.0   -0.06    3.89    3.44     3.85007    59.36592   -21.47475
    35  H   1.0    0.12    1.10    1.44    14.07902    59.76478   -25.95796
    36  H   1.0    0.06    1.05    1.44    13.64571    61.67590   -20.82932
    37  H   1.0    0.05    1.03    1.43     9.33026    60.16185   -20.17849
    38  H   1.0    0.05    1.05    1.44     9.53337    62.76685   -22.24062
    39  H   1.0    0.05    1.08    1.44     9.27768    59.66164   -25.94480
    40  H   1.0    0.05    1.06    1.44     8.31360    57.35064   -23.72660
    41  H   1.0    0.05    1.05    1.44     1.81508    59.51435   -21.70139
    42  H   1.0    0.05    1.04    1.43     4.36579    57.37578   -21.35293
    43  H   1.0    0.04    1.05    1.44     4.51847    60.41690   -19.87545
    44  N   5.0   -0.14    3.48    2.06    13.61321    57.17727   -19.20311
    45  C   4.0    0.04    4.35    4.29    14.40113    54.76711   -18.16022
    46  C   4.0    0.15    3.43    3.09    12.82628    54.22127   -15.83021
    47  O   6.0   -0.32    1.30    1.80    11.80439    55.91695   -14.67661
    48  C   4.0   -0.07    4.10    3.81    17.21237    54.82333   -17.42897
    49  H   1.0    0.11    1.09    1.44    13.07110    58.53409   -17.96400
    50  H   1.0    0.07    1.07    1.44    14.09944    53.31013   -19.59094
    51  H   1.0    0.05    1.00    1.43    17.83975    52.93983   -16.93346
    52  H   1.0    0.04    1.00    1.43    18.30749    55.51722   -19.00989
    53  H   1.0    0.04    1.00    1.43    17.50721    56.07601   -15.82033
    54  N   5.0   -0.14    3.48    2.06    12.75211    51.80744   -15.16808
    55  C   4.0    0.04    4.30    4.19    11.36549    50.89676   -12.96822
    56  C   4.0    0.08    3.22    3.04    12.67983    48.46270   -12.05685
    57  O   6.0   -0.32    1.23    1.80    13.25496    46.83298   -13.55531
    58  C   4.0   -0.04    4.26    4.12     8.59998    50.34407   -13.66352
    59  C   4.0   -0.04    4.17    3.94     6.94167    49.52978   -11.47178
    60  C   4.0   -0.05    4.16    3.93     4.24863    48.98076   -12.38333
    61  C   4.0   -0.03    4.11    3.82     2.66230    47.68950   -10.34260
    62  N   5.0   -0.11    3.91    2.64     0.24365    46.70841   -11.28623
    63  H   1.0    0.11    1.09    1.44    13.51677    50.48045   -16.32269
    64  H   1.0    0.06    1.05    1.44    11.46252    52.34668   -11.50061
    65  H   1.0    0.06    1.04    1.43     7.82434    52.03072   -14.50613
    66  H   1.0    0.05    1.02    1.43     8.59831    48.83201   -15.10470
    67  H   1.0    0.05    1.02    1.43     7.70773    47.80007   -10.59318
    68  H   1.0    0.05    1.03    1.43     6.91453    50.99248   -10.04171
    69  H   1.0    0.05    1.02    1.43     3.32595    50.73515   -12.95924
    70  H   1.0    0.05    1.03    1.43     4.33552    47.71554   -14.02209
    71  H   1.0    0.05    1.02    1.43     3.77384    46.12898    -9.55709
    72  H   1.0    0.05    1.02    1.43     2.22455    49.03091    -8.83160
    73  H   1.0    0.07    1.04    1.43    -0.54310    45.49699   -10.11969
    74  H   1.0    0.06    0.90    1.42    -1.29479    48.18487   -11.78619
    75  H   1.0    0.07    1.00    1.43     0.60963    45.73894   -13.03293
    76  N   5.0   -0.18    3.21    1.96    18.02704    40.23281   -13.33241
    77  C   4.0    0.03    4.32    4.24    18.21079    42.65686   -14.61633
    78  C   4.0    0.15    3.40    3.08    17.00577    42.46172   -17.23942
    79  O   6.0   -0.28    1.21    1.80    17.48512    40.69368   -18.66130
    80  C   4.0   -0.04    4.29    4.18    20.94894    43.50593   -14.97335
    81  C   4.0   -0.02    3.68    3.23    22.01812    45.00600   -12.79801
    82  C   4.0   -0.01    3.63    3.19    23.99839    44.47143   -11.32654
    83  C   4.0    0.00    3.91    3.47    21.05777    47.38491   -11.96462
    84  N   5.0   -0.11    3.50    2.08    24.37707    46.27796    -9.56536
    85  C   4.0    0.04    3.91    3.48    22.62475    48.10850    -9.89074
    86  C   4.0   -0.04    3.40    3.08    19.07944    48.95013   -12.70373
    87  C   4.0   -0.04    3.39    3.08    22.15791    50.35651    -8.53243
    88  C   4.0   -0.04    3.38    3.07    18.66078    51.14124   -11.34071
    89  C   4.0   -0.04    3.38    3.07    20.15331    51.81442    -9.30116
    90  H   1.0    0.10    1.03    1.43    19.34494    38.94357   -13.74433
    91  H   1.0    0.05    1.06    1.44    17.14642    44.02954   -13.49622
    92  H   1.0    0.05    1.03    1.43    22.14335    41.86122   -15.30900
    93  H   1.0    0.04    1.04    1.43    21.00575    44.69908   -16.66267
    94  H   1.0    0.05    1.00    1.43    25.26893    42.82111   -11.38215
    95  H   1.0    0.09    1.04    1.43    25.85035    46.39365    -8.30151
    96  H   1.0    0.06    1.03    1.43    17.94325    48.50329   -14.33234
    97  H   1.0    0.06    1.03    1.43    23.31912    50.84631    -6.94565
    98  H   1.0    0.05    1.02    1.43    17.11940    52.38738   -11.89982
    99  H   1.0    0.05    1.03    1.43    19.71911    53.51889    -8.25356
   100  N   5.0   -0.14    3.52    2.09    15.55374    44.46993   -17.83963
   101  C   4.0    0.03    4.40    4.37    14.20715    44.83491   -20.21584
   102  C   4.0    0.14    3.41    3.08    14.88293    47.45724   -21.13441
   103  O   6.0   -0.32    1.28    1.80    15.03261    49.20644   -19.58243
   104  C   4.0   -0.04    4.26    4.12    11.35628    44.62291   -19.71398
   105  C   4.0   -0.02    4.22    4.04    10.64830    42.02789   -18.70894
   106  C   4.0    0.16    3.20    3.04     8.68876    42.01410   -16.61447
   107  O   6.0   -0.26    1.18    1.80     6.76130    40.68023   -16.79422
   108  N   5.0   -0.19    3.18    1.95     9.18331    43.44646   -14.51612
   109  H   1.0    0.11    1.11    1.44    15.06737    45.69198   -16.46971
   110  H   1.0    0.06    1.05    1.44    14.83786    43.36960   -21.54320
   111  H   1.0    0.06    1.03    1.43    10.89037    46.09806   -18.31250
   112  H   1.0    0.05    1.03    1.43    10.33195    45.04539   -21.42851
   113  H   1.0    0.07    1.04    1.43     9.96470    40.80754   -20.19378
   114  H   1.0    0.06    1.04    1.43    12.31666    41.11277   -17.84427
   115  H   1.0    0.11    1.06    1.44    10.85993    44.30406   -14.31252
   116  H   1.0    0.10    1.04    1.43     8.04151    43.29405   -13.04941
   117  N   5.0   -0.14    3.40    2.02    15.31041    47.73903   -23.61681
   118  C   4.0    0.04    4.40    4.38    15.94814    50.20236   -24.75874
   119  C   4.0    0.15    3.40    3.08    14.63672    50.54621   -27.32475
   120  O   6.0   -0.28    1.22    1.80    14.18966    48.74104   -28.69984
   121  C   4.0   -0.04    4.35    4.30    18.81515    50.40471   -25.28881
   122  C   4.0   -0.04    4.06    3.72    20.31092    50.94418   -22.91760
   123  S   6.0   -0.04    2.47    3.10    23.67257    51.13279   -23.46558
   124  C   4.0   -0.06    3.89    3.45    23.73127    53.81186   -25.64554
   125  H   1.0    0.10    1.07    1.44    15.07794    46.35050   -24.85742
   126  H   1.0    0.06    1.05    1.44    15.37094    51.69567   -23.44215
   127  H   1.0    0.06    1.03    1.43    19.44970    48.62108   -26.14015
   128  H   1.0    0.05    1.05    1.44    19.10729    51.90368   -26.63522
   129  H   1.0    0.04    1.07    1.44    19.69998    52.71224   -22.06525
   130  H   1.0    0.05    1.06    1.44    20.05681    49.42622   -21.50132
   131  H   1.0    0.06    1.04    1.43    25.62991    54.65991   -25.41355
   132  H   1.0    0.05    1.04    1.43    23.51628    53.15847   -27.54993
   133  H   1.0    0.04    1.05    1.44    22.32088    55.12310   -25.07653
   134  N   5.0   -0.14    3.49    2.07    14.28517    52.95230   -27.91721
   135  C   4.0    0.04    4.32    4.24    13.43460    53.87891   -30.34012
   136  C   4.0    0.15    3.43    3.09    14.67309    56.43646   -30.75449
   137  O   6.0   -0.31    1.30    1.80    14.42298    58.11129   -29.18139
   138  C   4.0   -0.05    4.10    3.80    10.54200    54.21591   -30.38183
   139  H   1.0    0.11    1.10    1.44    14.47573    54.29480   -26.56807
   140  H   1.0    0.06    1.05    1.44    14.00659    52.50400   -31.79639
   141  H   1.0    0.06    1.00    1.43     9.93206    54.83519   -32.23907
   142  H   1.0    0.06    1.00    1.43     9.65478    52.41248   -29.95526
   143  H   1.0    0.06    1.00    1.43     9.99958    55.59383   -28.97200
   144  N   5.0   -0.12    3.45    2.05    15.94464    56.76564   -32.90701
   145  C   4.0    0.04    4.28    4.16    17.19684    59.14528   -33.52970
   146  C   4.0    0.09    3.24    3.04    17.78686    59.19525   -36.33066
   147  O   6.0   -0.26    1.15    1.80    17.74214    57.24279   -37.60228
   148  C   4.0    0.03    4.16    3.92    19.68841    59.44223   -32.03282
   149  O   6.0   -0.25    2.05    1.83    21.52507    57.66715   -32.70989
   150  H   1.0    0.11    1.08    1.44    16.28628    55.33388   -34.10679
   151  H   1.0    0.07    1.05    1.44    15.92026    60.70503   -33.03622
   152  H   1.0    0.04    1.01    1.43    20.36923    61.37667   -32.26883
   153  H   1.0    0.06    1.02    1.43    19.28821    59.13464   -30.01854
   154  H   1.0    0.13    1.03    1.43    22.25024    58.17602   -34.31058
   155  N   5.0   -0.13    3.47    2.06    28.77100    61.15109   -33.57666
   156  C   4.0    0.03    4.46    4.48    27.10236    60.95262   -31.36658
   157  C   4.0    0.15    3.41    3.08    27.67163    63.12161   -29.57867
   158  O   6.0   -0.28    1.25    1.80    29.71460    64.20886   -29.57857
   159  C   4.0   -0.04    4.31    4.21    27.78184    58.37580   -30.16947
   160  C   4.0   -0.04    4.24    4.09    29.50396    57.07721   -32.14059
   161  C   4.0    0.01    4.27    4.13    30.77980    59.32313   -33.44842
   162  H   1.0    0.04    1.05    1.44    25.14581    61.03842   -31.99627
   163  H   1.0    0.06    1.03    1.43    28.84085    58.64510   -28.42427
   164  H   1.0    0.05    1.02    1.43    26.09327    57.28270   -29.77446
   165  H   1.0    0.05    1.03    1.43    30.80343    55.79137   -31.30964
   166  H   1.0    0.05    1.02    1.43    28.29448    56.06688   -33.49794
   167  H   1.0    0.06    1.03    1.43    32.31872    60.05537   -32.34374
   168  H   1.0    0.05    1.01    1.43    31.47898    58.82484   -35.33336
   169  N   5.0   -0.15    3.51    2.08    25.82496    63.65263   -27.91353
   170  C   4.0    0.04    4.50    4.53    26.17084    65.64315   -26.06294
   171  C   4.0    0.15    3.46    3.10    27.07096    64.68476   -23.48422
   172  O   6.0   -0.32    1.31    1.80    27.90954    66.17781   -21.95133
   173  C   4.0   -0.03    4.20    3.99    23.81088    67.24004   -25.68520
   174  S   6.0   -0.02    2.49    3.10    21.22369    65.65575   -24.10576
   175  H   1.0    0.08    1.11    1.45    24.11249    62.83558   -28.06152
   176  H   1.0    0.07    1.07    1.44    27.65592    66.88551   -26.78360
   177  H   1.0    0.07    1.08    1.44    24.25933    68.80566   -24.39682
   178  H   1.0    0.05    1.07    1.44    23.15496    68.01580   -27.46796
   179  N   5.0   -0.14    3.56    2.12    26.76997    62.22879   -23.05833
   180  C   4.0    0.04    4.50    4.54    27.41853    60.93896   -20.74760
   181  C   4.0    0.14    3.43    3.09    28.55308    58.37406   -21.46095
   182  O   6.0   -0.32    1.27    1.80    28.36999    57.57748   -23.61136
   183  C   4.0   -0.02    4.28    4.15    25.05295    60.57257   -19.08291
   184  C   4.0   -0.07    4.13    3.86    24.13182    63.10184   -18.12263
   185  C   4.0   -0.07    4.13    3.85    22.94023    59.18216   -20.47052
   186  H   1.0    0.09    1.10    1.44    26.33985    61.05051   -24.53012
   187  H   1.0    0.06    1.06    1.44    28.82278    62.04696   -19.72858
   188  H   1.0    0.04    1.06    1.44    25.68277    59.43697   -17.46129
   189  H   1.0    0.03    1.00    1.43    22.48032    62.87192   -16.89725
   190  H   1.0    0.04    1.00    1.43    25.59261    64.05236   -17.05077
   191  H   1.0    0.05    1.02    1.43    23.57322    64.32749   -19.67762
   192  H   1.0    0.03    1.00    1.43    21.40012    58.81665   -19.17756
   193  H   1.0    0.05    1.01    1.43    22.25125    60.29689   -22.02949
   194  H   1.0    0.05    1.00    1.43    23.65276    57.37149   -21.18102
   195  N   5.0   -0.15    3.46    2.05    29.58673    57.09311   -19.54355
   196  C   4.0    0.04    4.43    4.43    30.58047    54.56033   -19.80995
   197  C   4.0    0.15    3.48    3.10    30.30262    53.14122   -17.30092
   198  O   6.0   -0.32    1.28    1.80    30.61619    54.16267   -15.23541
   199  C   4.0   -0.02    4.31    4.23    33.40687    54.53642   -20.51789
   200  C   4.0    0.16    3.25    3.04    34.27147    51.90984   -21.22571
   201  O   6.0   -0.29    1.25    1.80    32.77123    50.16171   -21.76168
   202  N   5.0   -0.17    3.18    1.95    36.77614    51.64605   -21.32065
   203  H   1.0    0.11    1.10    1.44    29.95700    58.00395   -17.89971
   204  H   1.0    0.06    1.06    1.44    29.49088    53.61775   -21.29760
   205  H   1.0    0.05    1.03    1.43    33.66180    55.74319   -22.17504
   206  H   1.0    0.06    1.03    1.43    34.53897    55.27726   -18.98567
   207  H   1.0    0.11    1.02    1.43    37.49042    49.89372   -21.71313
   208  H   1.0    0.10    1.03    1.43    37.95625    52.98485   -20.75048
   209  N   5.0   -0.14    3.51    2.08    29.63920    50.68145   -17.59528
   210  C   4.0    0.04    4.44    4.44    29.78285    48.98818   -15.44559
   211  C   4.0    0.16    3.46    3.10    32.42992    49.11355   -14.28299
   212  O   6.0   -0.27    1.25    1.80    34.28699    49.28012   -15.61509
   213  C   4.0   -0.04    4.32    4.23    29.37544    46.29002   -16.36994
   214  C   4.0   -0.05    4.20    4.00    26.87497    45.97161   -17.74261
   215  C   4.0   -0.05    4.17    3.95    26.61221    43.29297   -18.82109
   216  C   4.0   -0.03    4.13    3.87    28.28567    42.93262   -21.11891
   217  N   5.0   -0.11    4.01    2.88    28.04852    40.29408   -22.11324
   218  H   1.0    0.10    1.11    1.45    30.05812    49.94273   -19.29789
   219  H   1.0    0.05    1.05    1.44    28.37473    49.55497   -14.03449
   220  H   1.0    0.06    1.03    1.43    30.98014    45.87491   -17.60250
   221  H   1.0    0.05    1.03    1.43    29.46373    45.04678   -14.72893
   222  H   1.0    0.04    1.03    1.43    25.36039    46.31369   -16.37564
   223  H   1.0    0.05    1.03    1.43    26.69082    47.36268   -19.23430
   224  H   1.0    0.05    1.03    1.43    27.10474    41.92966   -17.36353
   225  H   1.0    0.04    1.03    1.43    24.63884    43.01424   -19.37502
   226  H   1.0    0.05    1.02    1.43    27.71419    44.26837   -22.58548
   227  H   1.0    0.05    1.02    1.43    30.25593    43.28983   -20.64873
   228  H   1.0    0.07    1.02    1.43    29.15828    40.05116   -23.68594
   229  H   1.0    0.07    1.02    1.43    28.62313    39.01081   -20.75040
   230  H   1.0    0.07    1.02    1.43    26.19416    39.91511   -22.56112
   231  N   5.0   -0.15    3.45    2.05    32.56461    48.73830   -11.77606
   232  C   4.0    0.04    4.44    4.44    34.93640    48.34984   -10.45712
   233  C   4.0    0.08    3.26    3.05    34.89535    45.73864    -9.20764
   234  O   6.0   -0.26    1.12    1.80    36.61106    44.22942    -9.42586
   235  C   4.0   -0.02    4.28    4.16    35.48737    50.37713    -8.56090
   236  C   4.0   -0.06    4.16    3.91    37.66434    49.61351    -6.88201
   237  C   4.0   -0.06    4.12    3.84    35.98769    52.88145    -9.87666
   238  H   1.0    0.10    1.08    1.44    31.01014    49.07073   -10.68792
   239  H   1.0    0.08    1.07    1.44    36.40516    48.31668   -11.91519
   240  H   1.0    0.05    1.04    1.43    33.77378    50.60661    -7.33955
   241  H   1.0    0.04    0.99    1.43    38.28733    51.21895    -5.70823
   242  H   1.0    0.05    1.00    1.43    37.14418    48.08367    -5.61206
   243  H   1.0    0.06    1.00    1.43    39.26829    49.02238    -8.01253
   244  H   1.0    0.04    0.99    1.43    36.02481    54.44277    -8.49247
   245  H   1.0    0.06    1.01    1.43    37.75037    52.84541   -10.86476
   246  H   1.0    0.06    1.00    1.43    34.46833    53.31115   -11.21142
   247  N   5.0   -0.20    3.22    1.96    26.35372    49.31205    -3.15402
   248  C   4.0    0.03    4.34    4.27    28.13029    51.35902    -3.50317
   249  C   4.0    0.14    3.41    3.08    28.46625    51.95873    -6.30949
   250  O   6.0   -0.32    1.26    1.80    28.80357    50.29587    -7.86195
   251  C   4.0   -0.04    4.29    4.18    30.67058    50.71641    -2.31093
   252  C   4.0   -0.05    4.19    3.99    32.53992    52.89552    -2.42875
   253  C   4.0   -0.05    4.18    3.96    34.82259    52.30269    -0.83596
   254  C   4.0   -0.04    4.10    3.80    36.86433    54.36086    -0.87938
   255  N   5.0   -0.11    3.96    2.76    38.68603    53.94440     1.26724
   256  H   1.0    0.09    1.03    1.43    26.95026    47.60024    -3.72270
   257  H   1.0    0.06    1.06    1.44    27.32166    53.02863    -2.53648
   258  H   1.0    0.05    1.03    1.43    30.33635    50.21451    -0.32908
   259  H   1.0    0.05    1.03    1.43    31.45027    49.05971    -3.25448
   260  H   1.0    0.04    1.03    1.43    33.07831    53.30679    -4.35081
   261  H   1.0    0.05    1.02    1.43    31.61365    54.61601    -1.66221
   262  H   1.0    0.05    1.01    1.43    34.19961    52.12614     1.18361
   263  H   1.0    0.04    1.03    1.43    35.60493    50.49429    -1.38463
   264  H   1.0    0.04    1.02    1.43    37.84814    54.34409    -2.66391
   265  H   1.0    0.05    1.02    1.43    35.97222    56.18783    -0.57177
   266  H   1.0    0.07    1.02    1.43    40.28127    54.99727     1.03677
   267  H   1.0    0.06    0.96    1.42    37.73953    54.43896     3.07365
   268  H   1.0    0.06    1.02    1.43    39.16281    52.08110     1.40757
   269  N   5.0   -0.14    3.50    2.08    28.46295    54.39478    -6.84949
   270  C   4.0    0.03    4.39    4.37    28.50407    55.50831    -9.34178
   271  C   4.0    0.14    3.42    3.08    30.45292    57.62505    -9.38046
   272  O   6.0   -0.32    1.28    1.80    30.90399    58.87291    -7.47745
   273  C   4.0   -0.04    4.37    4.33    25.84963    56.68525    -9.77238
   274  C   4.0   -0.02    4.16    3.93    25.07209    57.16079   -12.48878
   275  C   4.0   -0.07    4.11    3.81    24.49842    54.69197   -13.88752
   276  C   4.0   -0.09    4.12    3.84    22.72322    58.83069   -12.51323
   277  H   1.0    0.11    1.09    1.44    28.20806    55.68368    -5.40885
   278  H   1.0    0.06    1.06    1.44    28.93961    54.08195   -10.72321
   279  H   1.0    0.04    1.03    1.43    24.46231    55.39441    -8.93742
   280  H   1.0    0.05    1.03    1.43    25.77358    58.46384    -8.71728
   281  H   1.0    0.05    1.04    1.43    26.63813    58.14526   -13.47167
   282  H   1.0    0.04    1.00    1.43    23.98730    55.07219   -15.83995
   283  H   1.0    0.06    1.00    1.43    26.16509    53.47480   -13.91460
   284  H   1.0    0.04    1.01    1.43    22.97569    53.70202   -12.96990
   285  H   1.0    0.03    1.00    1.43    22.07613    59.08271   -14.46221
   286  H   1.0    0.04    1.01    1.43    21.24220    57.95932   -11.43600
   287  H   1.0    0.03    1.00    1.43    23.15716    60.68655   -11.74134
   288  N   5.0   -0.14    3.45    2.04    31.55874    58.04070   -11.59688
   289  C   4.0    0.03    4.41    4.39    33.14734    60.24817   -12.12618
   290  C   4.0    0.14    3.44    3.09    31.90439    61.91266   -14.13924
   291  O   6.0   -0.32    1.26    1.80    30.82823    60.97301   -16.03124
   292  C   4.0   -0.03    4.28    4.16    35.71118    59.45994   -13.16392
   293  C   4.0   -0.03    4.18    3.97    37.50540    61.68706   -13.45807
   294  C   4.0    0.25    3.08    3.02    39.93336    61.05510   -15.03071
   295  O   6.0   -0.28    1.17    1.80    39.93263    59.07137   -16.32034
   296  O   6.0   -0.25    1.16    1.80    41.65038    62.68917   -14.91070
   297  H   1.0    0.11    1.10    1.44    31.09339    56.97364   -13.11200
   298  H   1.0    0.05    1.07    1.44    33.36037    61.32560   -10.39751
   299  H   1.0    0.05    1.03    1.43    36.57043    58.06742   -11.89887
   300  H   1.0    0.07    1.03    1.43    35.47943    58.55693   -15.01499
   301  H   1.0    0.06    1.03    1.43    36.59742    63.24247   -14.47622
   302  H   1.0    0.05    1.02    1.43    38.10290    62.43457   -11.62993
   303  N   5.0   -0.15    3.50    2.08    32.05322    64.38499   -13.69837
   304  C   4.0    0.03    4.51    4.56    31.09770    66.28885   -15.39522
   305  C   4.0    0.15    3.44    3.09    33.18436    66.94602   -17.28747
   306  O   6.0   -0.28    1.23    1.80    35.30848    67.57007   -16.58549
   307  C   4.0   -0.02    4.35    4.29    30.36637    68.66490   -13.95392
   308  C   4.0   -0.05    4.19    3.97    28.66399    68.10033   -11.67050
   309  C   4.0   -0.07    4.12    3.85    29.10686    70.53378   -15.77725
   310  C   4.0   -0.08    4.01    3.63    26.19380    66.70297   -12.26611
   311  H   1.0    0.08    1.08    1.44    33.01425    65.00995   -12.19850
   312  H   1.0    0.05    1.05    1.44    29.46426    65.50670   -16.42954
   313  H   1.0    0.06    1.06    1.44    32.09180    69.53118   -13.24210
   314  H   1.0    0.04    1.03    1.43    29.75568    67.01809   -10.29561
   315  H   1.0    0.04    1.03    1.43    28.20085    69.91517   -10.80030
   316  H   1.0    0.04    1.00    1.43    28.45078    72.19921   -14.75853
   317  H   1.0    0.06    1.00    1.43    30.44836    71.18049   -17.19212
   318  H   1.0    0.05    1.00    1.43    27.50731    69.68634   -16.74473
   319  H   1.0    0.03    1.00    1.43    25.08788    66.55591   -10.54357
   320  H   1.0    0.04    1.01    1.43    25.12143    67.67506   -13.67930
   321  H   1.0    0.04    1.00    1.43    26.63091    64.78580   -12.90494
   322  N   5.0   -0.15    3.44    2.04    32.55954    66.71230   -19.73078
   323  C   4.0    0.04    4.33    4.25    34.33244    67.15796   -21.76253
   324  C   4.0    0.09    3.19    3.03    33.90911    69.68947   -23.14240
   325  O   6.0   -0.25    1.12    1.80    35.69702    70.68497   -24.24313
   326  C   4.0   -0.03    4.37    4.32    34.22336    65.04068   -23.72616
   327  C   4.0   -0.02    4.18    3.97    34.82695    62.41344   -22.66942
   328  C   4.0   -0.06    4.11    3.81    34.73250    60.55519   -24.89284
   329  C   4.0   -0.06    4.11    3.83    37.40102    62.37735   -21.39319
   330  H   1.0    0.11    1.11    1.45    30.74612    66.25513   -20.23308
   331  H   1.0    0.07    1.08    1.44    36.19211    67.27700   -20.91070
   332  H   1.0    0.06    1.03    1.43    32.35560    65.02803   -24.60789
   333  H   1.0    0.06    1.03    1.43    35.60551    65.54564   -25.19653
   334  H   1.0    0.05    1.06    1.44    33.40618    61.91829   -21.28895
   335  H   1.0    0.05    1.00    1.43    35.36142    58.69219   -24.27416
   336  H   1.0    0.06    1.00    1.43    32.83047    60.40427   -25.62599
   337  H   1.0    0.05    1.00    1.43    35.98109    61.18343   -26.39908
   338  H   1.0    0.06    1.00    1.43    37.90832    60.47119   -20.83287
   339  H   1.0    0.06    0.99    1.43    38.86594    63.09484   -22.68465
   340  H   1.0    0.07    1.00    1.43    37.43660    63.52293   -19.70913
   341  N   5.0   -0.18    3.23    1.96    16.13288    77.88684   -13.92125
   342  C   4.0    0.04    4.33    4.25    15.20317    75.36088   -13.64886
   343  C   4.0    0.15    3.41    3.08    13.23113    75.20072   -11.51528
   344  O   6.0   -0.29    1.22    1.80    13.31996    76.50057    -9.58107
   345  C   4.0   -0.04    4.34    4.28    17.36687    73.58280   -12.87803
   346  C   4.0   -0.02    3.54    3.14    19.21135    73.11140   -14.98940
   347  C   4.0   -0.04    3.46    3.10    21.36376    74.60745   -15.32455
   348  C   4.0   -0.04    3.47    3.10    18.85520    71.12233   -16.67742
   349  C   4.0   -0.04    3.44    3.09    23.08908    74.09991   -17.18333
   350  C   4.0   -0.04    3.44    3.09    20.56356    70.60133   -18.53319
   351  C   4.0    0.07    3.45    3.10    22.73332    72.06430   -18.80741
   352  O   6.0   -0.24    2.12    1.84    24.37954    71.47946   -20.64508
   353  H   1.0    0.10    1.02    1.43    16.91057    78.63141   -12.31218
   354  H   1.0    0.06    1.06    1.44    14.37146    74.75267   -15.44262
   355  H   1.0    0.04    1.03    1.43    18.34007    74.45248   -11.27681
   356  H   1.0    0.04    1.04    1.43    16.54761    71.79264   -12.28071
   357  H   1.0    0.05    1.03    1.43    21.68305    76.18474   -14.04258
   358  H   1.0    0.06    1.03    1.43    17.15447    69.98652   -16.50351
   359  H   1.0    0.06    1.03    1.43    24.77458    75.24932   -17.38849
   360  H   1.0    0.06    1.03    1.43    20.27260    69.03076   -19.82770
   361  H   1.0    0.12    1.03    1.43    25.93419    72.46306   -20.51771
   362  N   5.0   -0.14    3.48    2.07    11.46119    73.43604   -11.92029
   363  C   4.0    0.03    4.42    4.41     9.51534    72.88459   -10.06029
   364  C   4.0    0.14    3.42    3.08     9.93740    70.15724    -9.22729
   365  O   6.0   -0.32    1.28    1.80     9.99636    68.46277   -10.79905
   366  C   4.0   -0.04    4.36    4.32     6.86280    73.22553   -11.23990
   367  C   4.0   -0.02    4.18    3.96     4.70787    73.57267    -9.37025
   368  C   4.0   -0.06    4.13    3.86     4.99552    75.97521    -7.85980
   369  C   4.0   -0.07    4.14    3.88     2.27789    73.60170   -10.79828
   370  H   1.0    0.11    1.09    1.44    11.43687    72.48949   -13.57233
   371  H   1.0    0.06    1.07    1.44     9.79924    74.17543    -8.48390
   372  H   1.0    0.05    1.03    1.43     6.95188    74.87451   -12.47246
   373  H   1.0    0.05    1.04    1.43     6.49859    71.57357   -12.41503
   374  H   1.0    0.05    1.04    1.43     4.73344    71.93960    -8.04190
   375  H   1.0    0.05    1.00    1.43     3.26985    76.37596    -6.79055
   376  H   1.0    0.05    1.00    1.43     6.52934    75.86268    -6.49320
   377  H   1.0    0.05    1.00    1.43     5.35080    77.56499    -9.09714
   378  H   1.0    0.05    0.99    1.43     0.64376    73.80897    -9.52862
   379  H   1.0    0.05    1.01    1.43     2.21586    75.14014   -12.14232
   380  H   1.0    0.04    0.99    1.43     1.98446    71.82818   -11.86100
   381  N   5.0   -0.14    3.48    2.07    10.33505    69.82178    -6.78028
   382  C   4.0    0.03    4.51    4.54    10.58462    67.33063    -5.61623
   383  C   4.0    0.14    3.47    3.10     8.09365    66.74900    -4.32823
   384  O   6.0   -0.29    1.23    1.80     6.90212    68.44898    -3.23873
   385  C   4.0   -0.02    4.33    4.26    12.72271    67.29790    -3.62341
   386  C   4.0   -0.05    4.18    3.96    15.28630    67.90925    -4.88819
   387  C   4.0   -0.07    4.14    3.88    12.77967    64.72406    -2.33587
   388  C   4.0   -0.08    4.01    3.64    17.30977    68.56936    -2.98528
   389  H   1.0    0.09    1.07    1.44    10.17135    71.27862    -5.55403
   390  H   1.0    0.06    1.07    1.44    10.96781    65.94566    -7.08498
   391  H   1.0    0.05    1.05    1.44    12.32591    68.78702    -2.24537
   392  H   1.0    0.04    1.03    1.43    15.84382    66.29063    -6.03973
   393  H   1.0    0.05    1.03    1.43    15.01860    69.52379    -6.15495
   394  H   1.0    0.04    1.00    1.43    14.36571    64.62204    -1.03125
   395  H   1.0    0.06    1.01    1.43    11.06814    64.35065    -1.31590
   396  H   1.0    0.05    1.00    1.43    13.03156    63.26464    -3.77071
   397  H   1.0    0.03    0.99    1.43    19.07271    69.02665    -3.98518
   398  H   1.0    0.05    1.01    1.43    16.78545    70.14352    -1.83433
   399  H   1.0    0.04    0.99    1.43    17.73023    66.94701    -1.76368
   400  N   5.0   -0.14    3.52    2.09     7.30962    64.34784    -4.51439
   401  C   4.0    0.04    4.34    4.28     4.95147    63.50515    -3.43106
   402  C   4.0    0.08    3.29    3.05     5.30802    60.79550    -2.61073
   403  O   6.0   -0.31    1.23    1.80     7.08134    59.51616    -3.38452
   404  C   4.0   -0.03    4.32    4.23     2.75159    63.68780    -5.34478
   405  C   4.0   -0.01    3.59    3.16     3.14909    61.85599    -7.42039
   406  C   4.0   -0.04    3.48    3.11     2.06387    59.42967    -7.38560
   407  C   4.0   -0.03    3.48    3.11     4.63746    62.44756    -9.48272
   408  C   4.0   -0.03    3.41    3.08     2.48996    57.68801    -9.23826
   409  C   4.0   -0.04    3.41    3.08     5.11856    60.76045   -11.43382
   410  C   4.0    0.07    3.45    3.09     4.05298    58.31501   -11.28267
   411  O   6.0   -0.25    2.09    1.84     4.52458    56.50665   -13.03906
   412  H   1.0    0.12    1.11    1.45     8.31398    63.07087    -5.47478
   413  H   1.0    0.06    1.04    1.43     4.54414    64.69868    -1.74877
   414  H   1.0    0.04    1.02    1.43     0.97371    63.30455    -4.34831
   415  H   1.0    0.05    1.03    1.43     2.70461    65.61860    -6.03180
   416  H   1.0    0.05    1.03    1.43     0.81718    58.93459    -5.83931
   417  H   1.0    0.06    1.03    1.43     5.49640    64.31286    -9.63282
   418  H   1.0    0.06    1.03    1.43     1.65041    55.84319    -9.25489
   419  H   1.0    0.06    1.03    1.43     6.32004    61.24502   -12.97456
   420  H   1.0    0.12    1.02    1.43     5.66089    57.21148   -14.34263
   421  N   5.0   -0.18    3.25    1.97    25.45157    79.84604   -10.30801
   422  C   4.0    0.03    4.24    4.07    27.50618    78.11948   -10.00042
   423  C   4.0    0.09    3.22    3.04    29.41206    78.46852   -12.12237
   424  O   6.0   -0.26    1.14    1.80    28.85929    79.39092   -14.14436
   425  C   4.0   -0.05    4.35    4.29    26.57177    75.37501   -10.01025
   426  C   4.0   -0.03    4.19    3.98    24.51146    74.82925    -8.01249
   427  C   4.0   -0.08    4.10    3.81    23.54950    72.12744    -8.23942
   428  C   4.0   -0.07    4.12    3.85    25.51188    75.27136    -5.38209
   429  H   1.0    0.10    1.02    1.43    24.67122    79.97056   -12.06638
   430  H   1.0    0.05    1.05    1.44    28.42766    78.54282    -8.19365
   431  H   1.0    0.04    1.02    1.43    25.82571    74.94222   -11.89337
   432  H   1.0    0.04    1.03    1.43    28.20507    74.16071    -9.67143
   433  H   1.0    0.04    1.05    1.44    22.93323    76.12709    -8.39385
   434  H   1.0    0.04    1.01    1.43    21.95201    71.82269    -7.02984
   435  H   1.0    0.03    0.99    1.43    22.96210    71.75756   -10.21414
   436  H   1.0    0.04    1.00    1.43    25.03446    70.79603    -7.78619
   437  H   1.0    0.05    1.00    1.43    24.21371    74.52025    -3.98274
   438  H   1.0    0.05    1.00    1.43    27.35432    74.38812    -5.16092
   439  H   1.0    0.05    0.99    1.43    25.72940    77.31355    -5.05544
   440  N   5.0   -0.19    3.25    1.97    34.57233    65.67544    -4.86243
   441  C   4.0    0.04    4.37    4.34    33.28183    63.31163    -4.45788
   442  C   4.0    0.16    3.40    3.08    30.91278    63.69794    -2.81367
   443  O   6.0   -0.28    1.24    1.80    30.70409    65.48937    -1.41355
   444  C   4.0    0.05    4.22    4.05    35.06241    61.34108    -3.24394
   445  O   6.0   -0.23    2.10    1.84    35.64365    62.09290    -0.71069
   446  C   4.0   -0.07    4.10    3.80    37.40246    61.01082    -4.87524
   447  H   1.0    0.11    1.03    1.43    35.34927    66.56961    -3.39018
   448  H   1.0    0.05    1.06    1.44    32.70318    62.55834    -6.30871
   449  H   1.0    0.05    1.04    1.43    34.00834    59.54653    -3.17044
   450  H   1.0    0.12    1.04    1.43    37.43723    61.82865    -0.49489
   451  H   1.0    0.05    1.00    1.43    38.69546    59.65744    -4.00472
   452  H   1.0    0.04    1.00    1.43    36.88073    60.32726    -6.72509
   453  H   1.0    0.05    1.00    1.43    38.38689    62.80849    -5.11390
   454  N   5.0   -0.14    3.49    2.07    29.13992    61.91661    -3.13320
   455  C   4.0    0.04    4.41    4.39    26.92607    61.75100    -1.55909
   456  C   4.0    0.08    3.24    3.04    26.67964    59.00357    -0.67865
   457  O   6.0   -0.32    1.18    1.80    27.13299    57.29898    -2.17985
   458  C   4.0   -0.02    4.32    4.24    24.50815    62.57859    -2.99328
   459  C   4.0   -0.05    4.19    3.98    24.70619    65.30357    -3.90575
   460  C   4.0   -0.08    4.14    3.87    22.18228    62.17401    -1.34452
   461  C   4.0   -0.07    4.04    3.68    24.61857    67.27133    -1.86629
   462  H   1.0    0.11    1.09    1.44    29.43739    60.47208    -4.35867
   463  H   1.0    0.05    1.06    1.44    27.20538    62.97951     0.08515
   464  H   1.0    0.04    1.05    1.44    24.36937    61.30677    -4.63097
   465  H   1.0    0.05    1.03    1.43    26.48571    65.48877    -4.96377
   466  H   1.0    0.03    1.02    1.43    23.16375    65.59957    -5.28023
   467  H   1.0    0.04    1.00    1.43    20.52598    62.94072    -2.26095
   468  H   1.0    0.05    1.00    1.43    21.84680    60.17238    -0.98108
   469  H   1.0    0.04    1.00    1.43    22.44962    63.09488     0.48985
   470  H   1.0    0.04    1.00    1.43    24.94420    69.13552    -2.70710
   471  H   1.0    0.04    1.00    1.43    22.75923    67.31361    -0.95944
   472  H   1.0    0.06    1.01    1.43    26.03295    66.92648    -0.46884
   473  N   5.0   -0.19    3.21    1.96     9.15384    51.38415    -2.54571
   474  C   4.0    0.04    4.33    4.26     9.45124    54.03837    -3.12240
   475  C   4.0    0.15    3.45    3.10    10.40321    54.41531    -5.82721
   476  O   6.0   -0.31    1.26    1.80    11.52709    52.75467    -6.94345
   477  C   4.0   -0.03    4.29    4.18    11.22368    55.37740    -1.25609
   478  C   4.0   -0.01    3.66    3.21    13.93470    54.85192    -1.60671
   479  C   4.0   -0.01    3.54    3.13    15.37480    53.03493    -0.32859
   480  C   4.0    0.01    3.86    3.41    15.67690    56.20509    -3.22386
   481  N   5.0   -0.12    3.46    2.05    17.88615    53.21134    -1.09682
   482  C   4.0    0.03    3.86    3.41    18.12504    55.14864    -2.84129
   483  C   4.0   -0.04    3.41    3.08    15.40688    58.25057    -4.84229
   484  C   4.0   -0.05    3.41    3.08    20.22326    56.05312    -4.01368
   485  C   4.0   -0.05    3.39    3.07    17.51944    59.16164    -6.02108
   486  C   4.0   -0.05    3.40    3.08    19.91876    58.07167    -5.63030
   487  H   1.0    0.10    1.02    1.43    10.18888    50.12706    -3.61662
   488  H   1.0    0.06    1.06    1.44     7.59145    54.91293    -2.95715
   489  H   1.0    0.06    1.03    1.43    10.88219    57.41000    -1.45979
   490  H   1.0    0.05    1.03    1.43    10.65239    54.80376     0.64284
   491  H   1.0    0.06    1.03    1.43    14.78875    51.72102     0.98580
   492  H   1.0    0.08    1.05    1.44    19.34497    52.25709    -0.44678
   493  H   1.0    0.07    1.03    1.43    13.60347    59.16457    -5.10059
   494  H   1.0    0.06    1.02    1.43    22.08741    55.24233    -3.69645
   495  H   1.0    0.04    1.03    1.43    17.39497    60.74860    -7.28852
   496  H   1.0    0.04    1.03    1.43    21.51764    58.82425    -6.64851
   497  N   5.0   -0.14    3.42    2.03     9.81093    56.63045    -6.84991
   498  C   4.0    0.02    4.30    4.19    10.58546    57.26754    -9.34833
   499  C   4.0    0.14    3.34    3.06    10.99748    60.09182    -9.61456
   500  O   6.0   -0.32    1.28    1.80    10.69182    61.55655    -7.85706
   501  H   1.0    0.12    1.12    1.45     8.91682    57.96550    -5.85143
   502  H   1.0    0.06    1.04    1.43    12.36046    56.29874    -9.77916
   503  H   1.0    0.06    1.01    1.43     9.19497    56.64211   -10.79659
   504  N   5.0   -0.14    3.52    2.09    11.74430    60.77382   -11.94709
   505  C   4.0    0.04    4.51    4.55    12.53893    63.25835   -12.55189
   506  C   4.0    0.15    3.44    3.09    11.85965    63.76393   -15.30454
   507  O   6.0   -0.33    1.29    1.80    11.87889    62.09101   -16.83603
   508  C   4.0   -0.02    4.34    4.27    15.41840    63.55242   -12.06852
   509  C   4.0   -0.05    4.17    3.94    16.21848    66.34699   -11.96127
   510  C   4.0   -0.07    4.14    3.89    16.93423    62.09785   -14.04929
   511  C   4.0   -0.09    4.02    3.66    18.93889    66.66011   -11.09962
   512  H   1.0    0.11    1.10    1.44    11.93200    59.40581   -13.28770
   513  H   1.0    0.07    1.06    1.44    11.52168    64.60130   -11.32287
   514  H   1.0    0.04    1.06    1.44    15.75293    62.72049   -10.21651
   515  H   1.0    0.04    1.03    1.43    15.99840    67.18340   -13.83357
   516  H   1.0    0.05    1.03    1.43    14.95860    67.33906   -10.67023
   517  H   1.0    0.03    1.00    1.43    18.90705    62.02977   -13.49017
   518  H   1.0    0.05    1.00    1.43    16.24230    60.16775   -14.18821
   519  H   1.0    0.05    1.00    1.43    16.78616    62.99885   -15.87798
   520  H   1.0    0.03    1.00    1.43    19.35917    68.63308   -10.72565
   521  H   1.0    0.03    1.00    1.43    19.26387    65.60558    -9.35547
   522  H   1.0    0.03    1.00    1.43    20.26028    65.99871   -12.52105
   523  N   5.0   -0.14    3.48    2.07    11.33489    66.20037   -15.81451
   524  C   4.0    0.04    4.38    4.35    10.74521    67.15991   -18.29850
   525  C   4.0    0.07    3.21    3.04    12.03637    69.76703   -18.69806
   526  O   6.0   -0.31    1.16    1.80    11.97154    71.42691   -17.04676
   527  C   4.0   -0.02    4.35    4.30     7.86790    67.32390   -18.63131
   528  C   4.0   -0.05    4.21    4.02     7.26274    68.40419   -21.22685
   529  C   4.0   -0.07    4.17    3.94     6.68554    68.88014   -16.57085
   530  C   4.0   -0.08    4.02    3.65     4.42667    68.25819   -21.82712
   531  H   1.0    0.10    1.08    1.44    11.23835    67.47078   -14.35765
   532  H   1.0    0.06    1.06    1.44    11.53669    65.84282   -19.68837
   533  H   1.0    0.04    1.06    1.44     7.16119    65.39929   -18.54329
   534  H   1.0    0.05    1.02    1.43     7.88523    70.37859   -21.36655
   535  H   1.0    0.05    1.02    1.43     8.32800    67.36021   -22.68234
   536  H   1.0    0.03    1.00    1.43     4.62706    68.87636   -16.74590
   537  H   1.0    0.05    1.00    1.43     7.15466    68.11858   -14.71562
   538  H   1.0    0.06    1.00    1.43     7.33220    70.83381   -16.67052
   539  H   1.0    0.04    0.99    1.43     4.11993    68.85107   -23.81143
   540  H   1.0    0.04    1.00    1.43     3.79767    66.32622   -21.64907
   541  H   1.0    0.04    1.01    1.43     3.36218    69.49088   -20.64490
   542  N   5.0   -0.17    3.23    1.96    -7.18106    60.43386   -17.81162
   543  C   4.0    0.03    4.22    4.04    -6.16059    62.12582   -15.91764
   544  C   4.0    0.09    3.21    3.04    -7.75092    64.57663   -16.07084
   545  O   6.0   -0.27    1.13    1.80    -7.93677    65.73251   -18.07053
   546  C   4.0   -0.04    4.34    4.28    -3.37079    62.72480   -16.46491
   547  C   4.0   -0.02    4.18    3.96    -2.12999    64.29773   -14.35611
   548  C   4.0   -0.07    4.10    3.81    -2.03143    62.79931   -11.87434
   549  C   4.0   -0.08    4.11    3.82     0.50069    65.05814   -15.16960
   550  H   1.0    0.13    1.06    1.44    -6.76084    60.84761   -19.64117
   551  H   1.0    0.04    1.05    1.44    -6.39342    61.24615   -14.06739
   552  H   1.0    0.04    1.03    1.43    -2.36852    60.93299   -16.67759
   553  H   1.0    0.05    1.03    1.43    -3.28282    63.73587   -18.24046
   554  H   1.0    0.05    1.06    1.44    -3.26821    65.99256   -14.04705
   555  H   1.0    0.04    1.00    1.43    -0.75859    63.73328   -10.55774
   556  H   1.0    0.05    1.00    1.43    -3.86055    62.62225   -11.00176
   557  H   1.0    0.05    1.00    1.43    -1.28144    60.90062   -12.21443
   558  H   1.0    0.04    1.00    1.43     1.39324    66.23083   -13.74835
   559  H   1.0    0.04    1.00    1.43     1.66361    63.37608   -15.45694
   560  H   1.0    0.04    1.00    1.43     0.44594    66.09267   -16.95323
   561  N   5.0   -0.19    3.20    1.96    -4.63237    66.25219   -23.46250
   562  C   4.0    0.03    4.14    3.88    -3.40515    64.38436   -25.07136
   563  C   4.0    0.15    3.33    3.06    -4.74327    61.67834   -24.76758
   564  O   6.0   -0.28    1.24    1.80    -6.32000    60.89536   -23.15372
   565  C   4.0   -0.08    4.11    3.82    -0.62092    64.18213   -24.15795
   566  H   1.0    0.12    1.03    1.43    -5.69410    65.72514   -21.97898
   567  H   1.0    0.05    1.01    1.43    -3.31363    65.52508   -26.89241
   568  H   1.0    0.05    1.01    1.43     0.30574    62.61151   -25.11798
   569  H   1.0    0.04    1.00    1.43     0.40338    65.95352   -24.28482
   570  H   1.0    0.04    1.00    1.43    -0.57822    63.79909   -22.14303
   571  N   5.0   -0.12    3.64    2.20    -3.99147    60.18046   -26.59157
   572  C   4.0    0.04    4.42    4.42    -4.91528    57.64255   -26.94039
   573  C   4.0    0.23    3.40    3.08    -2.59500    56.27805   -26.56722
   574  O   6.0   -0.25    1.10    1.80    -2.75136    53.60599   -26.48847
   575  C   4.0   -0.01    4.21    4.02    -6.00177    56.82962   -29.54268
   576  C   4.0    0.17    3.19    3.03    -8.51529    58.26160   -29.77539
   577  O   6.0   -0.24    1.19    1.80   -10.41643    57.27157   -28.81152
   578  N   5.0   -0.16    3.12    1.94    -8.54882    60.67949   -30.73322
   579  O   6.0   -0.29    1.24    1.80    -0.53120    57.37425   -26.33369
   580  H   1.0    0.08    1.07    1.44    -2.65363    61.04312   -27.75568
   581  H   1.0    0.08    1.07    1.44    -5.82123    57.19541   -25.06731
   582  H   1.0    0.05    1.03    1.43    -4.64894    57.56931   -30.92543
   583  H   1.0    0.08    0.97    1.43    -6.01078    54.66289   -29.57910
   584  H   1.0    0.11    1.00    1.43   -10.09216    61.89652   -30.89382
   585  H   1.0    0.09    1.02    1.43    -6.98094    61.64222   -31.15161
   586  H   1.0    0.09    1.09    1.44    -3.45481    67.26082   -22.76353
   587  H   1.0    0.06    1.04    1.43    13.06068    48.22506   -10.22122
   588  H   1.0    0.10    1.07    1.44    18.13038    40.47133   -11.65164
   589  H   1.0    0.06    1.04    1.44    18.22101    60.82875   -37.17581
   590  H   1.0    0.09    1.10    1.44    27.83118    61.31303   -34.98488
   591  H   1.0    0.06    1.05    1.44    33.41210    45.21571    -8.15998
   592  H   1.0    0.10    1.07    1.44    25.97803    49.16194    -1.50208
   593  H   1.0    0.07    1.04    1.43    32.20043    70.49655   -23.13293
   594  H   1.0    0.10    1.08    1.44    17.34173    77.92100   -15.11710
   595  H   1.0    0.06    1.05    1.44     4.08334    60.00303    -1.40939
   596  H   1.0    0.09    1.09    1.44    24.17741    79.40251    -9.27247
   597  H   1.0    0.06    1.05    1.44    31.20629    77.92747   -11.87934
   598  H   1.0    0.09    1.08    1.44    35.86564    65.43881    -5.94128
   599  H   1.0    0.05    1.04    1.43    26.15588    58.62373     1.09687
   600  H   1.0    0.10    1.08    1.44     9.61344    51.09853    -0.93333
   601  H   1.0    0.06    1.04    1.43    12.94414    70.13404   -20.31433
   602  H   1.0    0.10    1.07    1.44    -6.59391    58.86046   -17.54282
   603  H   1.0    0.06    1.04    1.43    -8.63511    65.22695   -14.53255

  Z AO/shell   Hii/eV     exponent
  1     Wed Apr 25 08:07:45 CEST 2018   EN: 2.200 GM2: 0.406  GM3: 0.0800  RAES: 1.40
     1s    -10.707211    1.230000
  6     Wed Apr 25 08:07:45 CEST 2018   EN: 2.550 GM2: 0.538  GM3: 0.1500  RAES: 3.00
     2s    -13.970922    2.096432
     2p    -10.063292    1.800000
  7     Wed Apr 25 08:07:45 CEST 2018   EN: 3.040 GM2: 0.461  GM3:-0.0640  RAES: 1.90
     2s    -16.686243    2.339881
     2p    -12.523956    2.014332
  8     Wed Apr 25 08:07:45 CEST 2018   EN: 3.440 GM2: 0.452  GM3:-0.0517  RAES: 1.80
     2s    -20.229985    2.439742
     2p    -15.503117    2.137023
 16     Tue Apr 24 11:44:34 CEST 2018   EN: 2.580 GM2: 0.340  GM3:-0.0502  RAES: 3.10
     3s    -20.029654    1.981333
     3p    -11.377694    2.025643
     3d     -0.420282    1.702555
 no old-style atom pair restraining (fixing) potential

molecular fragmentation (1/2 indicates fragments):
111111111111111111111111111111111111111111111111111111111111111111111111
111222222222222222222222222222222222222222222222222222222222222222222222
222222222211111111111111111111111111111111111111111111111111111111111111
111111111111111111111111111111222222222222222222222222222222222222222222
222222222222222222222222222222222222222222222222222222222222222222222222
222222222222222222222222222222222222222222222222222222222222222222222222
222222222222222222222222222222222222222222222222222222222222222222222222
222222222222222222222222222222222222222222222222222222222222222222222222
222222222212211222222222222
# atoms in fragment 1/2:   170   433
 fragment masses (1/2) :     1176.54     2879.59
CMA distance (Bohr)    :   9.291
constraining FC (au)   :  0.0500
           ------------------------------------------------- 
          |        Self-Consistent Charge Iterations        |
           ------------------------------------------------- 

 Ncao       : 1473
 Nao        : 1469
 Nshell     : 889
 Nel        : 1588
 T(el)      :   500.0
 intcut     :    35.0
 scfconv/Eh :  0.100E-06
   qconv/e  :  0.100E-04
 intneglect :  0.100E-08
 broydamp   :      0.400
 iter      E             dE          RMSdq      gap      omega  full diag
   1   -901.0672487 -0.901067E+03  0.443E+00    2.62       0.0  T
   2   -903.0465116 -0.197926E+01  0.210E+00    1.17       1.0  T
   3   -903.1606298 -0.114118E+00  0.118E+00    1.43       1.0  T
   4   -903.2895400 -0.128910E+00  0.269E-01    0.96       1.0  T
   5   -903.2976437 -0.810373E-02  0.146E-01    1.12       1.0  T
   6   -903.3011315 -0.348781E-02  0.748E-02    1.14       1.0  T
   7   -903.3021110 -0.979546E-03  0.368E-02    1.13       1.0  T
   8   -903.3022852 -0.174107E-03  0.214E-02    1.14       1.0  T
   9   -903.3023242 -0.390238E-04  0.120E-02    1.15       1.0  T
  10   -903.3023387 -0.145396E-04  0.745E-03    1.15       1.0  T
  11   -903.3023440 -0.526426E-05  0.396E-03    1.16       1.0  T
  12   -903.3023459 -0.191806E-05  0.208E-03    1.16       2.0  T
  13   -903.3023463 -0.373855E-06  0.101E-03    1.16       4.0  T
  14   -903.3023464 -0.112159E-06  0.541E-04    1.16       7.5  T
  15   -903.3023464 -0.337412E-07  0.241E-04    1.16      16.9  T
  16   -903.3023464 -0.640182E-08  0.129E-04    1.16      31.6  T
  17   -903.3023464 -0.158548E-08  0.575E-05    1.16      70.8  T
  18   -903.3023464 -0.388695E-09  0.252E-05    1.16     161.6  T
speedup  1.84
cpu  time for SCC    1 m  2.8 s
wall time for SCC    0 m 34.1 s

   *** convergence criteria satisfied after 18 iterations ***

          eigenvalues
 #    :         782        783        784        785        786        787        788        789
 occ. :        2.000      2.000      2.000      2.000      2.000      2.000      2.000      2.000
 eps  :       -10.034     -9.882     -9.846     -9.818     -9.806     -9.720     -9.679     -9.584
 #    :         790        791        792        793        794        795        796        797
 occ. :        2.000      2.000      2.000      2.000      2.000      0.000      0.000      0.000
 eps  :        -9.519     -9.502     -9.480     -9.462     -9.395     -8.232     -8.217     -8.217
 #    :         798        799        800        801        802        803        804        805
 occ. :        0.000      0.000      0.000      0.000      0.000      0.000      0.000      0.000
 eps  :        -8.183     -8.160     -8.134     -7.939     -7.689     -7.678     -6.808     -6.802


   #   Z            q   n(s)   n(p)   n(d)      C6AA      α(0)
   1   7 N     -0.059  1.236  3.823  0.000    22.378     7.026
   2   6 C     -0.036  1.089  2.947  0.000    21.210     6.556
   3   6 C      0.274  1.028  2.698  0.000    22.367     7.744
   4   8 O     -0.434  1.723  4.711  0.000    22.361     6.340
   5   6 C     -0.082  1.056  3.026  0.000    22.038     6.680
   6   6 C     -0.086  1.051  3.035  0.000    22.117     6.692
   7   6 C     -0.045  1.063  2.982  0.000    21.423     6.598
   8   1 H      0.280  0.720  0.000  0.000     0.776     1.380
   9   1 H      0.285  0.715  0.000  0.000     0.759     1.365
  10   1 H      0.128  0.872  0.000  0.000     1.553     1.949
  11   1 H      0.080  0.920  0.000  0.000     1.983     2.202
  12   1 H      0.096  0.904  0.000  0.000     1.824     2.112
  13   1 H      0.090  0.910  0.000  0.000     1.879     2.144
  14   1 H      0.090  0.910  0.000  0.000     1.881     2.145
  15   1 H      0.111  0.889  0.000  0.000     1.685     2.030
  16   1 H      0.117  0.883  0.000  0.000     1.637     2.001
  17   7 N     -0.158  1.232  3.926  0.000    24.421     7.340
  18   6 C     -0.000  1.063  2.938  0.000    20.564     6.452
  19   6 C      0.271  1.034  2.695  0.000    22.420     7.755
  20   8 O     -0.472  1.735  4.737  0.000    23.170     6.454
  21   6 C     -0.043  1.084  2.959  0.000    21.351     6.579
  22  16 S     -0.108  1.917  4.101  0.089   145.556    20.306
  23   1 H      0.223  0.777  0.000  0.000     0.994     1.562
  24   1 H      0.099  0.901  0.000  0.000     1.797     2.096
  25   1 H      0.082  0.918  0.000  0.000     1.960     2.189
  26   1 H      0.084  0.916  0.000  0.000     1.938     2.177
  27   7 N     -0.166  1.241  3.925  0.000    24.594     7.365
  28   6 C      0.010  1.064  2.926  0.000    20.410     6.432
  29   6 C      0.266  1.043  2.690  0.000    22.505     7.768
  30   8 O     -0.483  1.733  4.749  0.000    23.404     6.486
  31   6 C     -0.071  1.050  3.021  0.000    21.826     6.645
  32   6 C     -0.012  1.062  2.950  0.000    20.806     6.495
  33  16 S     -0.208  1.914  4.244  0.049   149.898    20.606
  34   6 C     -0.046  1.045  3.002  0.000    21.475     6.610
  35   1 H      0.235  0.765  0.000  0.000     0.944     1.522
  36   1 H      0.086  0.914  0.000  0.000     1.915     2.164
  37   1 H      0.064  0.936  0.000  0.000     2.153     2.295
  38   1 H      0.081  0.919  0.000  0.000     1.974     2.197
  39   1 H      0.066  0.934  0.000  0.000     2.128     2.281
  40   1 H      0.038  0.962  0.000  0.000     2.470     2.458
  41   1 H      0.039  0.961  0.000  0.000     2.464     2.454
  42   1 H      0.042  0.958  0.000  0.000     2.418     2.432
  43   1 H      0.056  0.944  0.000  0.000     2.251     2.346
  44   7 N     -0.172  1.242  3.931  0.000    24.729     7.386
  45   6 C      0.011  1.060  2.929  0.000    20.399     6.431
  46   6 C      0.272  1.036  2.692  0.000    22.403     7.751
  47   8 O     -0.483  1.728  4.754  0.000    23.403     6.486
  48   6 C     -0.124  1.043  3.082  0.000    22.941     6.829
  49   1 H      0.224  0.776  0.000  0.000     0.992     1.560
  50   1 H      0.088  0.912  0.000  0.000     1.896     2.153
  51   1 H      0.078  0.922  0.000  0.000     1.997     2.210
  52   1 H      0.061  0.939  0.000  0.000     2.191     2.315
  53   1 H      0.056  0.944  0.000  0.000     2.244     2.343
  54   7 N     -0.168  1.241  3.927  0.000    24.642     7.373
  55   6 C      0.016  1.063  2.922  0.000    20.322     6.420
  56   6 C      0.207  1.091  2.701  0.000    23.600     7.956
  57   8 O     -0.347  1.726  4.621  0.000    20.655     6.093
  58   6 C     -0.075  1.056  3.019  0.000    21.923     6.665
  59   6 C     -0.074  1.050  3.024  0.000    21.921     6.666
  60   6 C     -0.094  1.057  3.037  0.000    22.298     6.723
  61   6 C     -0.049  1.056  2.993  0.000    21.544     6.626
  62   7 N     -0.141  1.244  3.897  0.000    24.041     7.282
  63   1 H      0.225  0.775  0.000  0.000     0.989     1.558
  64   1 H      0.099  0.901  0.000  0.000     1.796     2.096
  65   1 H      0.074  0.926  0.000  0.000     2.045     2.236
  66   1 H      0.060  0.940  0.000  0.000     2.198     2.319
  67   1 H      0.053  0.947  0.000  0.000     2.281     2.362
  68   1 H      0.067  0.933  0.000  0.000     2.122     2.278
  69   1 H      0.079  0.921  0.000  0.000     1.985     2.203
  70   1 H      0.070  0.930  0.000  0.000     2.081     2.256
  71   1 H      0.117  0.883  0.000  0.000     1.641     2.003
  72   1 H      0.118  0.882  0.000  0.000     1.632     1.998
  73   1 H      0.294  0.706  0.000  0.000     0.731     1.340
  74   1 H      0.305  0.695  0.000  0.000     0.702     1.315
  75   1 H      0.289  0.711  0.000  0.000     0.748     1.355
  76   7 N     -0.397  1.320  4.076  0.000    30.277     8.172
  77   6 C      0.028  1.061  2.911  0.000    20.113     6.388
  78   6 C      0.269  1.051  2.680  0.000    22.455     7.760
  79   8 O     -0.491  1.752  4.739  0.000    23.578     6.510
  80   6 C     -0.074  1.055  3.019  0.000    21.901     6.662
  81   6 C     -0.037  1.062  2.974  0.000    28.832     8.804
  82   6 C     -0.005  1.064  2.942  0.000    28.056     8.682
  83   6 C     -0.026  1.073  2.952  0.000    28.404     8.722
  84   7 N     -0.094  1.221  3.873  0.000    23.083     7.136
  85   6 C      0.040  1.065  2.895  0.000    26.914     8.495
  86   6 C     -0.047  1.077  2.971  0.000    29.172     8.857
  87   6 C     -0.057  1.074  2.983  0.000    29.420     8.894
  88   6 C     -0.048  1.074  2.974  0.000    29.196     8.861
  89   6 C     -0.039  1.073  2.966  0.000    28.962     8.825
  90   1 H      0.162  0.838  0.000  0.000     1.319     1.799
  91   1 H      0.052  0.948  0.000  0.000     2.295     2.369
  92   1 H      0.058  0.942  0.000  0.000     2.219     2.330
  93   1 H      0.046  0.954  0.000  0.000     2.366     2.405
  94   1 H      0.040  0.960  0.000  0.000     2.454     2.450
  95   1 H      0.184  0.816  0.000  0.000     1.191     1.709
  96   1 H      0.026  0.974  0.000  0.000     2.644     2.543
  97   1 H      0.033  0.967  0.000  0.000     2.542     2.493
  98   1 H      0.014  0.986  0.000  0.000     2.823     2.628
  99   1 H      0.022  0.978  0.000  0.000     2.705     2.572
 100   7 N     -0.189  1.249  3.940  0.000    25.099     7.441
 101   6 C      0.017  1.062  2.921  0.000    20.307     6.418
 102   6 C      0.264  1.046  2.690  0.000    22.550     7.776
 103   8 O     -0.475  1.736  4.739  0.000    23.241     6.464
 104   6 C     -0.070  1.054  3.016  0.000    21.835     6.652
 105   6 C     -0.096  1.053  3.042  0.000    22.322     6.726
 106   6 C      0.281  1.050  2.670  0.000    22.247     7.723
 107   8 O     -0.514  1.769  4.744  0.000    24.086     6.580
 108   7 N     -0.287  1.260  4.028  0.000    27.419     7.777
 109   1 H      0.224  0.776  0.000  0.000     0.991     1.559
 110   1 H      0.073  0.927  0.000  0.000     2.052     2.240
 111   1 H      0.069  0.931  0.000  0.000     2.099     2.266
 112   1 H      0.060  0.940  0.000  0.000     2.200     2.319
 113   1 H      0.067  0.933  0.000  0.000     2.115     2.274
 114   1 H      0.075  0.925  0.000  0.000     2.030     2.228
 115   1 H      0.228  0.772  0.000  0.000     0.972     1.545
 116   1 H      0.227  0.773  0.000  0.000     0.979     1.550
 117   7 N     -0.164  1.241  3.923  0.000    24.552     7.359
 118   6 C      0.003  1.074  2.923  0.000    20.538     6.454
 119   6 C      0.273  1.037  2.691  0.000    22.393     7.749
 120   8 O     -0.495  1.751  4.744  0.000    23.679     6.524
 121   6 C     -0.069  1.053  3.016  0.000    21.785     6.640
 122   6 C     -0.014  1.064  2.950  0.000    20.830     6.499
 123  16 S     -0.207  1.911  4.250  0.046   149.878    20.605
 124   6 C     -0.068  1.053  3.015  0.000    21.869     6.671
 125   1 H      0.213  0.787  0.000  0.000     1.041     1.598
 126   1 H      0.091  0.909  0.000  0.000     1.870     2.139
 127   1 H      0.069  0.931  0.000  0.000     2.101     2.267
 128   1 H      0.057  0.943  0.000  0.000     2.235     2.338
 129   1 H      0.056  0.944  0.000  0.000     2.245     2.343
 130   1 H      0.070  0.930  0.000  0.000     2.090     2.261
 131   1 H      0.060  0.940  0.000  0.000     2.195     2.317
 132   1 H      0.053  0.947  0.000  0.000     2.279     2.361
 133   1 H      0.056  0.944  0.000  0.000     2.241     2.341
 134   7 N     -0.174  1.239  3.935  0.000    24.768     7.391
 135   6 C      0.022  1.059  2.919  0.000    20.214     6.403
 136   6 C      0.268  1.042  2.689  0.000    22.471     7.763
 137   8 O     -0.465  1.725  4.739  0.000    23.021     6.433
 138   6 C     -0.124  1.042  3.082  0.000    22.932     6.828
 139   1 H      0.233  0.767  0.000  0.000     0.951     1.528
 140   1 H      0.064  0.936  0.000  0.000     2.158     2.297
 141   1 H      0.066  0.934  0.000  0.000     2.133     2.284
 142   1 H      0.059  0.941  0.000  0.000     2.216     2.328
 143   1 H      0.068  0.932  0.000  0.000     2.107     2.270
 144   7 N     -0.155  1.233  3.921  0.000    24.346     7.328
 145   6 C      0.004  1.066  2.930  0.000    20.520     6.452
 146   6 C      0.195  1.081  2.724  0.000    23.832     7.995
 147   8 O     -0.364  1.765  4.599  0.000    20.971     6.140
 148   6 C      0.066  1.039  2.895  0.000    19.682     6.355
 149   8 O     -0.448  1.714  4.734  0.000    21.802     6.303
 150   1 H      0.220  0.780  0.000  0.000     1.010     1.575
 151   1 H      0.127  0.873  0.000  0.000     1.561     1.954
 152   1 H      0.051  0.949  0.000  0.000     2.302     2.373
 153   1 H      0.087  0.913  0.000  0.000     1.906     2.159
 154   1 H      0.320  0.680  0.000  0.000     0.664     1.280
 155   7 N     -0.283  1.261  4.022  0.000    27.296     7.759
 156   6 C      0.015  1.068  2.917  0.000    20.317     6.416
 157   6 C      0.273  1.047  2.680  0.000    22.384     7.748
 158   8 O     -0.483  1.759  4.723  0.000    23.406     6.486
 159   6 C     -0.065  1.058  3.007  0.000    21.736     6.635
 160   6 C     -0.069  1.055  3.014  0.000    21.802     6.644
 161   6 C      0.014  1.041  2.945  0.000    20.381     6.435
 162   1 H      0.043  0.957  0.000  0.000     2.413     2.429
 163   1 H      0.037  0.963  0.000  0.000     2.493     2.469
 164   1 H      0.061  0.939  0.000  0.000     2.182     2.310
 165   1 H      0.045  0.955  0.000  0.000     2.387     2.416
 166   1 H      0.044  0.956  0.000  0.000     2.392     2.419
 167   1 H      0.034  0.966  0.000  0.000     2.532     2.488
 168   1 H      0.031  0.969  0.000  0.000     2.573     2.508
 169   7 N     -0.202  1.243  3.959  0.000    25.389     7.484
 170   6 C      0.022  1.055  2.923  0.000    20.195     6.396
 171   6 C      0.272  1.038  2.690  0.000    22.397     7.750
 172   8 O     -0.481  1.733  4.748  0.000    23.368     6.481
 173   6 C     -0.036  1.070  2.965  0.000    21.208     6.556
 174  16 S     -0.090  1.929  4.057  0.104   144.822    20.255
 175   1 H      0.207  0.793  0.000  0.000     1.072     1.622
 176   1 H      0.079  0.921  0.000  0.000     1.986     2.204
 177   1 H      0.085  0.915  0.000  0.000     1.929     2.172
 178   1 H      0.073  0.927  0.000  0.000     2.053     2.241
 179   7 N     -0.156  1.234  3.922  0.000    24.373     7.332
 180   6 C      0.015  1.062  2.923  0.000    20.335     6.421
 181   6 C      0.271  1.042  2.688  0.000    22.422     7.754
 182   8 O     -0.474  1.735  4.739  0.000    23.216     6.460
 183   6 C     -0.018  1.062  2.957  0.000    20.865     6.497
 184   6 C     -0.112  1.038  3.075  0.000    22.701     6.793
 185   6 C     -0.121  1.038  3.083  0.000    22.865     6.818
 186   1 H      0.211  0.789  0.000  0.000     1.053     1.608
 187   1 H      0.067  0.933  0.000  0.000     2.124     2.279
 188   1 H      0.053  0.947  0.000  0.000     2.283     2.363
 189   1 H      0.061  0.939  0.000  0.000     2.192     2.315
 190   1 H      0.035  0.965  0.000  0.000     2.523     2.484
 191   1 H      0.043  0.957  0.000  0.000     2.414     2.429
 192   1 H      0.063  0.937  0.000  0.000     2.161     2.299
 193   1 H      0.052  0.948  0.000  0.000     2.294     2.368
 194   1 H      0.043  0.957  0.000  0.000     2.403     2.424
 195   7 N     -0.182  1.243  3.939  0.000    24.932     7.416
 196   6 C      0.027  1.057  2.916  0.000    20.129     6.389
 197   6 C      0.273  1.047  2.680  0.000    22.387     7.748
 198   8 O     -0.485  1.739  4.746  0.000    23.450     6.493
 199   6 C     -0.091  1.054  3.037  0.000    22.215     6.709
 200   6 C      0.283  1.041  2.676  0.000    22.204     7.715
 201   8 O     -0.481  1.740  4.741  0.000    23.372     6.482
 202   7 N     -0.272  1.262  4.010  0.000    27.048     7.724
 203   1 H      0.219  0.781  0.000  0.000     1.012     1.576
 204   1 H      0.095  0.905  0.000  0.000     1.836     2.119
 205   1 H      0.075  0.925  0.000  0.000     2.030     2.228
 206   1 H      0.052  0.948  0.000  0.000     2.300     2.372
 207   1 H      0.248  0.752  0.000  0.000     0.892     1.480
 208   1 H      0.216  0.784  0.000  0.000     1.027     1.587
 209   7 N     -0.175  1.271  3.904  0.000    24.790     7.395
 210   6 C      0.018  1.062  2.920  0.000    20.276     6.411
 211   6 C      0.280  1.042  2.679  0.000    22.267     7.727
 212   8 O     -0.494  1.750  4.744  0.000    23.656     6.521
 213   6 C     -0.082  1.057  3.025  0.000    22.057     6.685
 214   6 C     -0.086  1.051  3.035  0.000    22.131     6.697
 215   6 C     -0.096  1.055  3.041  0.000    22.322     6.726
 216   6 C     -0.052  1.060  2.992  0.000    21.609     6.635
 217   7 N     -0.150  1.232  3.918  0.000    24.237     7.312
 218   1 H      0.239  0.761  0.000  0.000     0.928     1.509
 219   1 H      0.070  0.930  0.000  0.000     2.082     2.256
 220   1 H      0.065  0.935  0.000  0.000     2.140     2.287
 221   1 H      0.070  0.930  0.000  0.000     2.088     2.260
 222   1 H      0.073  0.927  0.000  0.000     2.056     2.242
 223   1 H      0.071  0.929  0.000  0.000     2.075     2.253
 224   1 H      0.081  0.919  0.000  0.000     1.966     2.193
 225   1 H      0.083  0.917  0.000  0.000     1.945     2.181
 226   1 H      0.121  0.879  0.000  0.000     1.606     1.982
 227   1 H      0.111  0.889  0.000  0.000     1.687     2.031
 228   1 H      0.299  0.701  0.000  0.000     0.715     1.325
 229   1 H      0.297  0.703  0.000  0.000     0.721     1.330
 230   1 H      0.299  0.701  0.000  0.000     0.717     1.326
 231   7 N     -0.193  1.251  3.942  0.000    25.178     7.452
 232   6 C      0.024  1.057  2.919  0.000    20.171     6.394
 233   6 C      0.203  1.085  2.712  0.000    23.678     7.969
 234   8 O     -0.359  1.756  4.603  0.000    20.877     6.126
 235   6 C     -0.013  1.056  2.957  0.000    20.775     6.483
 236   6 C     -0.122  1.041  3.080  0.000    22.884     6.820
 237   6 C     -0.106  1.036  3.069  0.000    22.569     6.773
 238   1 H      0.225  0.775  0.000  0.000     0.985     1.555
 239   1 H      0.084  0.916  0.000  0.000     1.939     2.178
 240   1 H      0.056  0.944  0.000  0.000     2.248     2.345
 241   1 H      0.064  0.936  0.000  0.000     2.151     2.294
 242   1 H      0.052  0.948  0.000  0.000     2.292     2.368
 243   1 H      0.044  0.956  0.000  0.000     2.391     2.418
 244   1 H      0.038  0.962  0.000  0.000     2.479     2.462
 245   1 H      0.040  0.960  0.000  0.000     2.442     2.444
 246   1 H      0.031  0.969  0.000  0.000     2.572     2.508
 247   7 N     -0.382  1.315  4.067  0.000    29.883     8.119
 248   6 C      0.021  1.061  2.919  0.000    20.240     6.407
 249   6 C      0.273  1.041  2.686  0.000    22.391     7.749
 250   8 O     -0.489  1.726  4.762  0.000    23.531     6.504
 251   6 C     -0.077  1.058  3.019  0.000    21.963     6.671
 252   6 C     -0.070  1.046  3.024  0.000    21.845     6.654
 253   6 C     -0.093  1.058  3.035  0.000    22.266     6.718
 254   6 C     -0.045  1.060  2.985  0.000    21.484     6.617
 255   7 N     -0.152  1.244  3.908  0.000    24.280     7.318
 256   1 H      0.156  0.844  0.000  0.000     1.361     1.827
 257   1 H      0.052  0.948  0.000  0.000     2.292     2.368
 258   1 H      0.054  0.946  0.000  0.000     2.266     2.354
 259   1 H      0.046  0.954  0.000  0.000     2.376     2.410
 260   1 H      0.041  0.959  0.000  0.000     2.437     2.441
 261   1 H      0.044  0.956  0.000  0.000     2.396     2.421
 262   1 H      0.077  0.923  0.000  0.000     2.016     2.220
 263   1 H      0.080  0.920  0.000  0.000     1.979     2.200
 264   1 H      0.104  0.896  0.000  0.000     1.749     2.068
 265   1 H      0.107  0.893  0.000  0.000     1.721     2.052
 266   1 H      0.297  0.703  0.000  0.000     0.723     1.332
 267   1 H      0.309  0.691  0.000  0.000     0.688     1.300
 268   1 H      0.298  0.702  0.000  0.000     0.719     1.328
 269   7 N     -0.173  1.246  3.927  0.000    24.750     7.389
 270   6 C      0.017  1.059  2.925  0.000    20.302     6.416
 271   6 C      0.272  1.043  2.685  0.000    22.402     7.751
 272   8 O     -0.492  1.734  4.758  0.000    23.604     6.514
 273   6 C     -0.073  1.063  3.010  0.000    21.886     6.659
 274   6 C     -0.010  1.055  2.955  0.000    20.719     6.475
 275   6 C     -0.122  1.041  3.082  0.000    22.899     6.823
 276   6 C     -0.120  1.042  3.078  0.000    22.852     6.815
 277   1 H      0.220  0.780  0.000  0.000     1.009     1.573
 278   1 H      0.080  0.920  0.000  0.000     1.982     2.201
 279   1 H      0.072  0.928  0.000  0.000     2.060     2.245
 280   1 H      0.043  0.957  0.000  0.000     2.413     2.429
 281   1 H      0.011  0.989  0.000  0.000     2.870     2.650
 282   1 H      0.045  0.955  0.000  0.000     2.381     2.413
 283   1 H      0.032  0.968  0.000  0.000     2.560     2.502
 284   1 H      0.059  0.941  0.000  0.000     2.210     2.325
 285   1 H      0.050  0.950  0.000  0.000     2.314     2.379
 286   1 H      0.059  0.941  0.000  0.000     2.213     2.326
 287   1 H      0.035  0.965  0.000  0.000     2.511     2.478
 288   7 N     -0.180  1.251  3.929  0.000    24.905     7.412
 289   6 C      0.030  1.058  2.912  0.000    20.079     6.381
 290   6 C      0.264  1.050  2.686  0.000    22.546     7.776
 291   8 O     -0.493  1.744  4.750  0.000    23.641     6.519
 292   6 C     -0.046  1.048  2.999  0.000    21.397     6.584
 293   6 C     -0.088  1.064  3.024  0.000    22.186     6.707
 294   6 C      0.369  1.027  2.604  0.000    20.738     7.452
 295   8 O     -0.634  1.768  4.865  0.000    26.965     6.962
 296   8 O     -0.662  1.785  4.876  0.000    27.682     7.054
 297   1 H      0.229  0.771  0.000  0.000     0.968     1.541
 298   1 H      0.060  0.940  0.000  0.000     2.201     2.320
 299   1 H      0.050  0.950  0.000  0.000     2.317     2.381
 300   1 H      0.042  0.958  0.000  0.000     2.425     2.435
 301   1 H      0.010  0.990  0.000  0.000     2.888     2.658
 302   1 H      0.017  0.983  0.000  0.000     2.784     2.609
 303   7 N     -0.152  1.236  3.916  0.000    24.285     7.319
 304   6 C      0.026  1.061  2.913  0.000    20.134     6.389
 305   6 C      0.276  1.043  2.681  0.000    22.340     7.740
 306   8 O     -0.520  1.765  4.755  0.000    24.229     6.599
 307   6 C     -0.021  1.060  2.961  0.000    20.914     6.504
 308   6 C     -0.069  1.053  3.016  0.000    21.814     6.650
 309   6 C     -0.114  1.038  3.077  0.000    22.742     6.800
 310   6 C     -0.117  1.036  3.081  0.000    22.803     6.810
 311   1 H      0.200  0.800  0.000  0.000     1.105     1.646
 312   1 H      0.078  0.922  0.000  0.000     2.004     2.214
 313   1 H      0.038  0.962  0.000  0.000     2.474     2.460
 314   1 H      0.034  0.966  0.000  0.000     2.525     2.485
 315   1 H      0.055  0.945  0.000  0.000     2.262     2.352
 316   1 H      0.054  0.946  0.000  0.000     2.277     2.360
 317   1 H      0.023  0.977  0.000  0.000     2.695     2.567
 318   1 H      0.062  0.938  0.000  0.000     2.181     2.310
 319   1 H      0.060  0.940  0.000  0.000     2.195     2.317
 320   1 H      0.055  0.945  0.000  0.000     2.253     2.347
 321   1 H      0.036  0.964  0.000  0.000     2.496     2.471
 322   7 N     -0.196  1.259  3.937  0.000    25.264     7.465
 323   6 C      0.032  1.056  2.913  0.000    20.053     6.377
 324   6 C      0.198  1.090  2.712  0.000    23.788     7.987
 325   8 O     -0.367  1.761  4.606  0.000    21.042     6.150
 326   6 C     -0.062  1.060  3.003  0.000    21.684     6.628
 327   6 C     -0.001  1.052  2.950  0.000    20.571     6.451
 328   6 C     -0.110  1.042  3.068  0.000    22.654     6.786
 329   6 C     -0.095  1.033  3.062  0.000    22.363     6.743
 330   1 H      0.238  0.762  0.000  0.000     0.931     1.511
 331   1 H      0.084  0.916  0.000  0.000     1.940     2.178
 332   1 H      0.052  0.948  0.000  0.000     2.289     2.366
 333   1 H      0.058  0.942  0.000  0.000     2.228     2.334
 334   1 H      0.030  0.970  0.000  0.000     2.592     2.518
 335   1 H      0.043  0.957  0.000  0.000     2.410     2.428
 336   1 H      0.046  0.954  0.000  0.000     2.366     2.405
 337   1 H      0.049  0.951  0.000  0.000     2.328     2.386
 338   1 H      0.039  0.961  0.000  0.000     2.463     2.454
 339   1 H      0.033  0.967  0.000  0.000     2.545     2.495
 340   1 H      0.015  0.985  0.000  0.000     2.815     2.623
 341   7 N     -0.384  1.320  4.065  0.000    29.944     8.127
 342   6 C      0.031  1.060  2.909  0.000    20.059     6.379
 343   6 C      0.270  1.049  2.681  0.000    22.445     7.758
 344   8 O     -0.509  1.758  4.751  0.000    23.978     6.565
 345   6 C     -0.069  1.055  3.015  0.000    21.815     6.648
 346   6 C     -0.002  1.081  2.921  0.000    28.075     8.691
 347   6 C     -0.038  1.080  2.959  0.000    28.954     8.824
 348   6 C     -0.037  1.080  2.956  0.000    28.909     8.818
 349   6 C     -0.074  1.075  2.999  0.000    29.836     8.957
 350   6 C     -0.058  1.071  2.987  0.000    29.444     8.898
 351   6 C      0.144  1.040  2.815  0.000    24.855     8.171
 352   8 O     -0.412  1.702  4.711  0.000    21.091     6.200
 353   1 H      0.153  0.847  0.000  0.000     1.381     1.841
 354   1 H      0.059  0.941  0.000  0.000     2.210     2.325
 355   1 H      0.041  0.959  0.000  0.000     2.431     2.438
 356   1 H      0.045  0.955  0.000  0.000     2.384     2.415
 357   1 H      0.026  0.974  0.000  0.000     2.642     2.542
 358   1 H      0.042  0.958  0.000  0.000     2.426     2.435
 359   1 H      0.025  0.975  0.000  0.000     2.662     2.552
 360   1 H      0.053  0.947  0.000  0.000     2.289     2.366
 361   1 H      0.326  0.674  0.000  0.000     0.649     1.266
 362   7 N     -0.188  1.251  3.937  0.000    25.080     7.438
 363   6 C      0.020  1.062  2.918  0.000    20.251     6.408
 364   6 C      0.271  1.042  2.687  0.000    22.422     7.754
 365   8 O     -0.479  1.725  4.754  0.000    23.326     6.475
 366   6 C     -0.078  1.061  3.017  0.000    21.976     6.672
 367   6 C     -0.000  1.048  2.952  0.000    20.554     6.448
 368   6 C     -0.112  1.038  3.074  0.000    22.684     6.790
 369   6 C     -0.112  1.041  3.071  0.000    22.680     6.788
 370   1 H      0.226  0.774  0.000  0.000     0.983     1.553
 371   1 H      0.061  0.939  0.000  0.000     2.184     2.311
 372   1 H      0.054  0.946  0.000  0.000     2.270     2.356
 373   1 H      0.065  0.935  0.000  0.000     2.147     2.291
 374   1 H      0.021  0.979  0.000  0.000     2.719     2.579
 375   1 H      0.041  0.959  0.000  0.000     2.433     2.439
 376   1 H      0.027  0.973  0.000  0.000     2.630     2.536
 377   1 H      0.042  0.958  0.000  0.000     2.419     2.432
 378   1 H      0.039  0.961  0.000  0.000     2.458     2.452
 379   1 H      0.047  0.953  0.000  0.000     2.357     2.401
 380   1 H      0.039  0.961  0.000  0.000     2.465     2.455
 381   7 N     -0.163  1.246  3.917  0.000    24.521     7.354
 382   6 C      0.013  1.066  2.921  0.000    20.359     6.424
 383   6 C      0.271  1.044  2.685  0.000    22.423     7.755
 384   8 O     -0.512  1.761  4.751  0.000    24.057     6.576
 385   6 C     -0.020  1.067  2.953  0.000    20.902     6.503
 386   6 C     -0.060  1.051  3.009  0.000    21.656     6.625
 387   6 C     -0.120  1.037  3.083  0.000    22.855     6.816
 388   6 C     -0.107  1.035  3.072  0.000    22.615     6.782
 389   1 H      0.198  0.802  0.000  0.000     1.115     1.654
 390   1 H      0.092  0.908  0.000  0.000     1.859     2.132
 391   1 H      0.037  0.963  0.000  0.000     2.492     2.469
 392   1 H      0.052  0.948  0.000  0.000     2.296     2.369
 393   1 H      0.027  0.973  0.000  0.000     2.625     2.534
 394   1 H      0.059  0.941  0.000  0.000     2.208     2.324
 395   1 H      0.034  0.966  0.000  0.000     2.534     2.489
 396   1 H      0.060  0.940  0.000  0.000     2.195     2.317
 397   1 H      0.043  0.957  0.000  0.000     2.405     2.425
 398   1 H      0.038  0.962  0.000  0.000     2.477     2.461
 399   1 H      0.043  0.957  0.000  0.000     2.411     2.428
 400   7 N     -0.170  1.237  3.933  0.000    24.687     7.379
 401   6 C      0.030  1.058  2.912  0.000    20.080     6.381
 402   6 C      0.196  1.086  2.718  0.000    23.811     7.992
 403   8 O     -0.352  1.741  4.611  0.000    20.747     6.107
 404   6 C     -0.069  1.053  3.016  0.000    21.808     6.647
 405   6 C     -0.004  1.071  2.933  0.000    28.118     8.698
 406   6 C     -0.043  1.085  2.959  0.000    29.078     8.844
 407   6 C     -0.032  1.081  2.951  0.000    28.797     8.800
 408   6 C     -0.061  1.073  2.988  0.000    29.529     8.910
 409   6 C     -0.078  1.078  2.999  0.000    29.937     8.972
 410   6 C      0.136  1.052  2.812  0.000    25.026     8.199
 411   8 O     -0.399  1.708  4.691  0.000    20.824     6.160
 412   1 H      0.238  0.762  0.000  0.000     0.930     1.510
 413   1 H      0.090  0.910  0.000  0.000     1.876     2.142
 414   1 H      0.070  0.930  0.000  0.000     2.082     2.256
 415   1 H      0.067  0.933  0.000  0.000     2.118     2.276
 416   1 H      0.047  0.953  0.000  0.000     2.360     2.402
 417   1 H      0.028  0.972  0.000  0.000     2.617     2.530
 418   1 H      0.074  0.926  0.000  0.000     2.042     2.235
 419   1 H      0.038  0.962  0.000  0.000     2.477     2.461
 420   1 H      0.322  0.678  0.000  0.000     0.658     1.275
 421   7 N     -0.382  1.314  4.068  0.000    29.881     8.119
 422   6 C      0.040  1.052  2.908  0.000    19.922     6.358
 423   6 C      0.201  1.081  2.718  0.000    23.725     7.977
 424   8 O     -0.378  1.751  4.627  0.000    21.249     6.180
 425   6 C     -0.067  1.061  3.005  0.000    21.772     6.642
 426   6 C     -0.005  1.055  2.950  0.000    20.630     6.460
 427   6 C     -0.115  1.041  3.074  0.000    22.749     6.800
 428   6 C     -0.116  1.040  3.076  0.000    22.769     6.803
 429   1 H      0.155  0.845  0.000  0.000     1.366     1.831
 430   1 H      0.064  0.936  0.000  0.000     2.154     2.295
 431   1 H      0.038  0.962  0.000  0.000     2.476     2.461
 432   1 H      0.038  0.962  0.000  0.000     2.479     2.462
 433   1 H      0.025  0.975  0.000  0.000     2.659     2.550
 434   1 H      0.051  0.949  0.000  0.000     2.312     2.378
 435   1 H      0.038  0.962  0.000  0.000     2.474     2.460
 436   1 H      0.051  0.949  0.000  0.000     2.312     2.378
 437   1 H      0.051  0.949  0.000  0.000     2.312     2.378
 438   1 H      0.044  0.956  0.000  0.000     2.401     2.423
 439   1 H      0.032  0.968  0.000  0.000     2.565     2.505
 440   7 N     -0.388  1.305  4.083  0.000    30.037     8.140
 441   6 C      0.022  1.064  2.914  0.000    20.216     6.404
 442   6 C      0.281  1.039  2.680  0.000    22.244     7.723
 443   8 O     -0.471  1.741  4.730  0.000    23.161     6.452
 444   6 C      0.106  1.052  2.841  0.000    18.935     6.214
 445   8 O     -0.501  1.745  4.756  0.000    22.907     6.461
 446   6 C     -0.128  1.042  3.086  0.000    23.020     6.842
 447   1 H      0.165  0.835  0.000  0.000     1.306     1.790
 448   1 H      0.044  0.956  0.000  0.000     2.392     2.418
 449   1 H      0.033  0.967  0.000  0.000     2.551     2.498
 450   1 H      0.342  0.658  0.000  0.000     0.608     1.224
 451   1 H      0.067  0.933  0.000  0.000     2.122     2.278
 452   1 H      0.042  0.958  0.000  0.000     2.425     2.435
 453   1 H      0.040  0.960  0.000  0.000     2.451     2.448
 454   7 N     -0.184  1.241  3.943  0.000    24.978     7.423
 455   6 C      0.023  1.061  2.916  0.000    20.190     6.399
 456   6 C      0.196  1.092  2.711  0.000    23.816     7.992
 457   8 O     -0.351  1.736  4.615  0.000    20.735     6.105
 458   6 C     -0.015  1.069  2.946  0.000    20.813     6.489
 459   6 C     -0.053  1.047  3.006  0.000    21.520     6.605
 460   6 C     -0.120  1.040  3.080  0.000    22.856     6.817
 461   6 C     -0.111  1.032  3.079  0.000    22.679     6.791
 462   1 H      0.219  0.781  0.000  0.000     1.016     1.579
 463   1 H      0.078  0.922  0.000  0.000     2.000     2.211
 464   1 H      0.050  0.950  0.000  0.000     2.318     2.381
 465   1 H      0.030  0.970  0.000  0.000     2.593     2.518
 466   1 H      0.046  0.954  0.000  0.000     2.373     2.409
 467   1 H      0.062  0.938  0.000  0.000     2.180     2.309
 468   1 H      0.042  0.958  0.000  0.000     2.419     2.432
 469   1 H      0.050  0.950  0.000  0.000     2.323     2.384
 470   1 H      0.035  0.965  0.000  0.000     2.514     2.480
 471   1 H      0.045  0.955  0.000  0.000     2.378     2.411
 472   1 H      0.047  0.953  0.000  0.000     2.363     2.404
 473   7 N     -0.389  1.320  4.069  0.000    30.058     8.143
 474   6 C      0.026  1.059  2.915  0.000    20.144     6.392
 475   6 C      0.275  1.040  2.685  0.000    22.353     7.743
 476   8 O     -0.485  1.733  4.752  0.000    23.451     6.493
 477   6 C     -0.067  1.050  3.017  0.000    21.783     6.644
 478   6 C     -0.034  1.074  2.960  0.000    28.812     8.805
 479   6 C     -0.017  1.070  2.947  0.000    28.423     8.745
 480   6 C     -0.019  1.079  2.940  0.000    28.395     8.736
 481   7 N     -0.133  1.231  3.901  0.000    23.872     7.257
 482   6 C      0.048  1.061  2.891  0.000    26.886     8.505
 483   6 C     -0.042  1.076  2.966  0.000    29.041     8.837
 484   6 C     -0.052  1.066  2.986  0.000    29.303     8.876
 485   6 C     -0.047  1.075  2.973  0.000    29.169     8.857
 486   6 C     -0.046  1.079  2.967  0.000    29.140     8.853
 487   1 H      0.163  0.837  0.000  0.000     1.317     1.798
 488   1 H      0.047  0.953  0.000  0.000     2.363     2.404
 489   1 H      0.043  0.957  0.000  0.000     2.407     2.426
 490   1 H      0.039  0.961  0.000  0.000     2.460     2.453
 491   1 H      0.044  0.956  0.000  0.000     2.398     2.421
 492   1 H      0.193  0.807  0.000  0.000     1.143     1.675
 493   1 H      0.026  0.974  0.000  0.000     2.640     2.541
 494   1 H      0.027  0.973  0.000  0.000     2.622     2.532
 495   1 H      0.020  0.980  0.000  0.000     2.739     2.588
 496   1 H      0.032  0.968  0.000  0.000     2.552     2.498
 497   7 N     -0.176  1.231  3.945  0.000    24.805     7.397
 498   6 C     -0.024  1.046  2.978  0.000    21.063     6.544
 499   6 C      0.272  1.040  2.689  0.000    22.411     7.752
 500   8 O     -0.484  1.735  4.750  0.000    23.442     6.491
 501   1 H      0.221  0.779  0.000  0.000     1.007     1.572
 502   1 H      0.088  0.912  0.000  0.000     1.896     2.153
 503   1 H      0.082  0.918  0.000  0.000     1.960     2.190
 504   7 N     -0.176  1.238  3.937  0.000    24.800     7.396
 505   6 C      0.010  1.061  2.930  0.000    20.414     6.433
 506   6 C      0.273  1.039  2.688  0.000    22.383     7.747
 507   8 O     -0.457  1.718  4.739  0.000    22.861     6.410
 508   6 C     -0.024  1.070  2.954  0.000    20.969     6.513
 509   6 C     -0.060  1.049  3.012  0.000    21.660     6.626
 510   6 C     -0.121  1.037  3.083  0.000    22.870     6.819
 511   6 C     -0.111  1.036  3.075  0.000    22.687     6.792
 512   1 H      0.227  0.773  0.000  0.000     0.980     1.551
 513   1 H      0.076  0.924  0.000  0.000     2.023     2.224
 514   1 H      0.048  0.952  0.000  0.000     2.348     2.396
 515   1 H      0.029  0.971  0.000  0.000     2.598     2.521
 516   1 H      0.029  0.971  0.000  0.000     2.604     2.523
 517   1 H      0.059  0.941  0.000  0.000     2.212     2.326
 518   1 H      0.048  0.952  0.000  0.000     2.342     2.393
 519   1 H      0.041  0.959  0.000  0.000     2.435     2.440
 520   1 H      0.038  0.962  0.000  0.000     2.482     2.464
 521   1 H      0.042  0.958  0.000  0.000     2.419     2.432
 522   1 H      0.049  0.951  0.000  0.000     2.334     2.389
 523   7 N     -0.175  1.242  3.933  0.000    24.786     7.394
 524   6 C      0.019  1.064  2.917  0.000    20.266     6.411
 525   6 C      0.197  1.097  2.705  0.000    23.790     7.987
 526   8 O     -0.366  1.756  4.610  0.000    21.011     6.146
 527   6 C     -0.015  1.060  2.954  0.000    20.799     6.486
 528   6 C     -0.067  1.054  3.012  0.000    21.776     6.643
 529   6 C     -0.116  1.035  3.081  0.000    22.774     6.804
 530   6 C     -0.116  1.038  3.078  0.000    22.781     6.807
 531   1 H      0.215  0.785  0.000  0.000     1.033     1.592
 532   1 H      0.097  0.903  0.000  0.000     1.815     2.107
 533   1 H      0.059  0.941  0.000  0.000     2.213     2.326
 534   1 H      0.034  0.966  0.000  0.000     2.530     2.487
 535   1 H      0.050  0.950  0.000  0.000     2.318     2.381
 536   1 H      0.051  0.949  0.000  0.000     2.305     2.374
 537   1 H      0.049  0.951  0.000  0.000     2.334     2.389
 538   1 H      0.044  0.956  0.000  0.000     2.393     2.419
 539   1 H      0.042  0.958  0.000  0.000     2.424     2.435
 540   1 H      0.050  0.950  0.000  0.000     2.316     2.380
 541   1 H      0.044  0.956  0.000  0.000     2.396     2.421
 542   7 N     -0.403  1.326  4.077  0.000    30.445     8.195
 543   6 C      0.041  1.059  2.900  0.000    19.905     6.356
 544   6 C      0.203  1.092  2.705  0.000    23.675     7.969
 545   8 O     -0.371  1.760  4.612  0.000    21.112     6.160
 546   6 C     -0.062  1.059  3.002  0.000    21.679     6.628
 547   6 C     -0.013  1.056  2.956  0.000    20.767     6.482
 548   6 C     -0.119  1.042  3.077  0.000    22.841     6.815
 549   6 C     -0.107  1.039  3.068  0.000    22.597     6.777
 550   1 H      0.170  0.830  0.000  0.000     1.274     1.768
 551   1 H      0.052  0.948  0.000  0.000     2.290     2.367
 552   1 H      0.040  0.960  0.000  0.000     2.453     2.449
 553   1 H      0.033  0.967  0.000  0.000     2.545     2.494
 554   1 H      0.020  0.980  0.000  0.000     2.739     2.588
 555   1 H      0.048  0.952  0.000  0.000     2.345     2.395
 556   1 H      0.039  0.961  0.000  0.000     2.468     2.456
 557   1 H      0.044  0.956  0.000  0.000     2.393     2.419
 558   1 H      0.045  0.955  0.000  0.000     2.384     2.414
 559   1 H      0.043  0.957  0.000  0.000     2.406     2.426
 560   1 H      0.035  0.965  0.000  0.000     2.520     2.482
 561   7 N     -0.400  1.311  4.089  0.000    30.361     8.183
 562   6 C      0.021  1.088  2.891  0.000    20.267     6.417
 563   6 C      0.263  1.059  2.678  0.000    22.560     7.777
 564   8 O     -0.526  1.776  4.751  0.000    24.377     6.620
 565   6 C     -0.122  1.047  3.075  0.000    22.891     6.823
 566   1 H      0.147  0.853  0.000  0.000     1.424     1.869
 567   1 H      0.073  0.927  0.000  0.000     2.057     2.243
 568   1 H      0.055  0.945  0.000  0.000     2.255     2.348
 569   1 H      0.075  0.925  0.000  0.000     2.030     2.228
 570   1 H      0.030  0.970  0.000  0.000     2.588     2.516
 571   7 N     -0.161  1.255  3.905  0.000    24.471     7.347
 572   6 C      0.048  1.045  2.907  0.000    19.777     6.332
 573   6 C      0.332  1.048  2.620  0.000    21.360     7.570
 574   8 O     -0.756  1.849  4.907  0.000    30.297     7.380
 575   6 C     -0.081  1.078  3.003  0.000    22.047     6.685
 576   6 C      0.291  1.051  2.658  0.000    22.074     7.693
 577   8 O     -0.510  1.768  4.742  0.000    24.019     6.571
 578   7 N     -0.288  1.265  4.023  0.000    27.432     7.779
 579   8 O     -0.551  1.750  4.801  0.000    24.935     6.695
 580   1 H      0.217  0.783  0.000  0.000     1.022     1.584
 581   1 H      0.067  0.933  0.000  0.000     2.118     2.276
 582   1 H      0.068  0.932  0.000  0.000     2.106     2.269
 583   1 H      0.083  0.917  0.000  0.000     1.952     2.186
 584   1 H      0.235  0.765  0.000  0.000     0.945     1.523
 585   1 H      0.220  0.780  0.000  0.000     1.007     1.572
 586   1 H      0.187  0.813  0.000  0.000     1.176     1.698
 587   1 H      0.091  0.909  0.000  0.000     1.871     2.139
 588   1 H      0.183  0.817  0.000  0.000     1.196     1.713
 589   1 H      0.095  0.905  0.000  0.000     1.832     2.116
 590   1 H      0.172  0.828  0.000  0.000     1.260     1.759
 591   1 H      0.085  0.915  0.000  0.000     1.924     2.169
 592   1 H      0.182  0.818  0.000  0.000     1.204     1.719
 593   1 H      0.084  0.916  0.000  0.000     1.939     2.177
 594   1 H      0.183  0.817  0.000  0.000     1.198     1.714
 595   1 H      0.090  0.910  0.000  0.000     1.879     2.144
 596   1 H      0.184  0.816  0.000  0.000     1.190     1.709
 597   1 H      0.054  0.946  0.000  0.000     2.267     2.355
 598   1 H      0.167  0.833  0.000  0.000     1.288     1.778
 599   1 H      0.088  0.912  0.000  0.000     1.898     2.154
 600   1 H      0.176  0.824  0.000  0.000     1.238     1.743
 601   1 H      0.091  0.909  0.000  0.000     1.872     2.139
 602   1 H      0.179  0.821  0.000  0.000     1.222     1.731
 603   1 H      0.066  0.934  0.000  0.000     2.132     2.283

 Mol. C6AA /au·bohr⁶  :    3357154.775229
 Mol. C8AA /au·bohr⁸  :   76418507.605403
 Mol. α(0) /au        :       2758.668214

 
molecular dipole:
                 x           y           z       tot (Debye)
 q only:       35.001      90.922     -22.066
   full:       37.830      92.560     -21.200     259.810
molecular quadrupole (traceless):
                xx          xy          yy          xz          yz          zz
 q only:    -2074.475    1803.296    3438.546    -266.804   -1748.911   -1364.072
  q+dip:    -2056.737    2105.637    3557.009    -301.107   -1727.916   -1500.272
   full:    -2044.427    2108.447    3548.197    -295.127   -1731.793   -1503.770
speedup  1.86
cpu  time for grad    1 m 14.4 s
wall time for grad    0 m 39.9 s

SCC energy    :    -903.3261706
rep           :      11.2080597
ES            :       2.5182651
AES           :      -0.0701493
AXC           :       0.3397575
disp          :      -0.8154197
XB            :       0.0000000
fix           :       0.0000000
Gborn         :       0.0000000
Gsasa         :       0.0000000
Ghb           :       0.0000000
Gshift        :       0.0000000
Gsolv         :      -0.7288832     -457.38
Etot ala COSMO:    -903.3261706
grad norm     :       0.7814530
total E       :    -892.0243301
atomizationE  :     166.5109315   104487.19
(atE without considering molecular charge,
 total energy contains solvation terms)
H-L gap (eV)  :          1.1630

------------------------------------------------------------------------
 * finished run on 2019/05/11 at 17:06:29.192     
------------------------------------------------------------------------
 total:
 * wall-time:     0 d,  0 h,  0 min, 41.485 sec
 *  cpu-time:     0 d,  0 h,  1 min, 16.498 sec
 * ratio c/w:     1.844 speedup
 SCF:
 * wall-time:     0 d,  0 h,  0 min, 40.718 sec
 *  cpu-time:     0 d,  0 h,  1 min, 15.865 sec
 * ratio c/w:     1.863 speedup

