      -----------------------------------------------------------      
     |                   =====================                   |     
     |                           x T B                           |     
     |                   =====================                   |     
     |                         S. Grimme                         |     
     |          Mulliken Center for Theoretical Chemistry        |     
     |                    University of Bonn                     |     
     |                 Version 6.0.1 (SAW181210)                 |     
      -----------------------------------------------------------      

   This program is distributed in the hope that it will be useful,
   but WITHOUT ANY WARRANTY; without even the implied warranty of
   MERCHANTABILITY or FITNESS FOR A PARTICULAR PURPOSE.
   
   FOR NON-COMMERCIAL, ACADEMIA USE ONLY.
   
   Cite this work as:
   S. Grimme, C. Bannwarth, P. Shushkov, J. Comput. Theory Chem., 2017,
   13, 1989-2009.
   C. Bannwarth, S. Ehlert and S. Grimme., ChemRxiv, 2018, preprint.
   http://doi.org/10.26434/chemrxiv.7246238.v1
   
   for sTDA-xTB:
   S. Grimme and C. Bannwarth, J. Chem. Phys., 2016, 145, 054103.
   
   in the mass-spec context:
   V. Asgeirsson, C. Bauer and S. Grimme, Chem. Sci., 2017, 8, 4879.
   
   if GBSA is used:
   P. Shushkov, F. März and S. Grimme, unpublished.
   
   for ANC optimizer:
   S. Grimme, unpublished.
   Rational Function algorithm used in ANCopt:
   F. Eckert, P. Pulay, H.-J. Werner, J. Comput. Chem., 1997, 18, 1473.
   
   with help from (in alphabetical order)
   C. Bannwarth, F. Bohle, G. Brandenburg, E. Caldeweyher, M. Checinski,
   S. Dohm, S. Ehlert, S. Ehrlich, F. März, H. Neugebauer, J. Pisarek,
   P. Pracht, P. Shushkov, and S. Spicher.
   
 * started run on 2019/05/10 at 10:20:18.550     
========================================================================
 # omp threads = 2
========================================================================
number of atoms            : 355
number of electrons        : 946
charge                     : 2
spin                       : .0
first test random number   : .8163

########################################################################
# WARNING! Please study the warnings concerning your input carefully
#  - Process number higher than OMP_NUM_THREADS, I hope you know what you are doing.
########################################################################

           ------------------------------------------------- 
          |                 G F N 2 - x T B                 |
          | Geometry, Frequencies, Noncovalent interactions |
          |            JCTC 2018 parametrisation            |
           ------------------------------------------------- 
 
      method parameters     
 k(s)        :  1.8500
 k(p)        :  2.2300
 k(d)        :  2.2300
 k(f)        :  2.0000
 kEN (H0ij)  : -2.0000
 D4 a1       :  0.5200
 D4 a2       :  5.0000
 D4 s6       :  1.0000
 D4 s8       :  2.7000
 D4 s9       :  5.0000
 alphaj      :  2.0000

 Solvent             : h2o
 Using internal parameter file: .param_gbsa2_h2o
 Gsolv ref. state (COSMO-RS): gsolv [1 M gas/solution]
 temperature (mdtemp)       :    298.150000000000     
 dielectric constant        :    80.2000000000000     
 rho                        :    1.00000000000000     
 mass                       :    18.0000000000000     
 surface tension            :    15.5689454083859     
 probe radius               :   0.975313790000000     
 vdW radii scaling          :    1.00000000000000     
 Gshift (Eh)                :   1.857443126794793E-003
 c1                         :    1.55243817000000     
 soset                      :   0.130326360000000     
 HB correction              :  T

            Z     q(EN)     CN     RAES       Cart. coordinates
     1  N   5.0   -0.20    3.24    1.97   122.81271     5.84398    45.23841
     2  C   4.0    0.03    4.31    4.21   122.62033     6.11070    47.95685
     3  C   4.0    0.15    3.41    3.08   122.46492     3.63906    49.44088
     4  O   6.0   -0.28    1.23    1.80   122.55085     3.64333    51.74823
     5  C   4.0   -0.03    4.31    4.22   120.19040     7.56675    48.62082
     6  C   4.0   -0.02    4.16    3.91   120.04332    10.24970    47.60727
     7  C   4.0    0.26    3.10    3.02   117.20416    11.12064    47.47909
     8  O   6.0   -0.27    1.18    1.80   115.65070     9.51269    46.73605
     9  O   6.0   -0.24    1.16    1.80   116.76587    13.34499    48.10936
    10  H   1.0    0.09    1.03    1.43   121.15433     5.56310    44.32263
    11  H   1.0    0.06    1.05    1.44   124.28645     7.13459    48.62948
    12  H   1.0    0.06    1.04    1.43   118.58060     6.54566    47.80957
    13  H   1.0    0.07    1.03    1.43   119.98449     7.57617    50.67232
    14  H   1.0    0.07    1.02    1.43   121.08709    11.60388    48.75340
    15  H   1.0    0.06    1.03    1.43   120.76293    10.32728    45.67406
    16  N   5.0   -0.13    3.47    2.06   122.04244     1.56559    48.05579
    17  C   4.0    0.04    4.44    4.44   121.24728    -0.80095    49.14380
    18  C   4.0    0.15    3.40    3.08   123.21311    -2.91291    48.90216
    19  O   6.0   -0.29    1.21    1.80   124.62303    -3.14354    47.10147
    20  C   4.0   -0.03    4.31    4.22   118.87438    -1.84520    47.83746
    21  C   4.0   -0.02    3.66    3.21   116.47574    -0.48922    48.47215
    22  C   4.0    0.00    3.62    3.18   116.14436     1.80599    49.60320
    23  C   4.0    0.01    3.91    3.47   113.99850    -1.45992    47.98886
    24  N   5.0   -0.11    3.49    2.07   113.62434     2.32634    49.84815
    25  C   4.0    0.04    3.89    3.45   112.25951     0.37325    48.86885
    26  C   4.0   -0.04    3.41    3.08   113.09808    -3.70243    46.93607
    27  C   4.0   -0.04    3.40    3.08   109.66234     0.00394    48.70203
    28  C   4.0   -0.04    3.38    3.07   110.52896    -4.06008    46.78552
    29  C   4.0   -0.03    3.38    3.07   108.83219    -2.22883    47.64954
    30  H   1.0    0.09    1.08    1.44   122.25101     1.70248    46.16503
    31  H   1.0    0.06    1.07    1.44   120.87021    -0.43005    51.14164
    32  H   1.0    0.05    1.03    1.43   119.20180    -1.83715    45.79381
    33  H   1.0    0.06    1.04    1.43   118.69859    -3.83172    48.37396
    34  H   1.0    0.06    1.02    1.43   117.51193     3.12843    50.30499
    35  H   1.0    0.09    1.05    1.44   112.91757     3.95243    50.53069
    36  H   1.0    0.06    1.03    1.43   114.40042    -5.12284    46.27862
    37  H   1.0    0.07    1.02    1.43   108.34704     1.41402    49.37497
    38  H   1.0    0.05    1.03    1.43   109.79157    -5.78610    45.99614
    39  H   1.0    0.06    1.03    1.43   106.82755    -2.57317    47.50056
    40  N   5.0   -0.14    3.52    2.09   123.02236    -4.57653    50.80380
    41  C   4.0    0.04    4.37    4.32   123.99352    -7.11818    50.85687
    42  C   4.0    0.15    3.47    3.10   122.19732    -8.55869    52.63140
    43  O   6.0   -0.30    1.29    1.80   120.91309    -7.37665    54.15695
    44  C   4.0    0.04    4.13    3.86   126.72704    -7.30007    51.84462
    45  O   6.0   -0.24    2.07    1.83   127.44194    -9.84880    51.74142
    46  H   1.0    0.10    1.11    1.45   121.88221    -4.21752    52.30969
    47  H   1.0    0.05    1.05    1.44   123.93162    -7.89722    48.94126
    48  H   1.0    0.06    1.01    1.43   127.95836    -6.12597    50.65595
    49  H   1.0    0.06    1.01    1.43   126.82846    -6.58038    53.79245
    50  H   1.0    0.13    1.02    1.43   129.18891    -9.97894    52.25047
    51  N   5.0   -0.14    3.44    2.04   122.06765   -11.05717    52.34226
    52  C   4.0    0.04    4.44    4.45   120.38394   -12.51896    53.96755
    53  C   4.0    0.16    3.46    3.10   121.04450   -15.32907    53.70471
    54  O   6.0   -0.29    1.30    1.80   120.24907   -16.58400    51.95247
    55  C   4.0   -0.02    4.35    4.29   117.60869   -12.09359    53.19170
    56  C   4.0   -0.01    3.56    3.14   115.81672   -13.19090    55.10305
    57  C   4.0   -0.04    3.47    3.10   115.39654   -11.94894    57.37930
    58  C   4.0   -0.03    3.46    3.10   114.56062   -15.44661    54.64062
    59  C   4.0   -0.04    3.37    3.07   113.73003   -12.92670    59.14291
    60  C   4.0   -0.04    3.37    3.07   112.89415   -16.43084    56.40122
    61  C   4.0   -0.03    3.37    3.07   112.46452   -15.16896    58.65367
    62  H   1.0    0.12    1.09    1.44   123.41440   -12.00619    51.33470
    63  H   1.0    0.05    1.05    1.44   120.62209   -11.88009    55.92543
    64  H   1.0    0.06    1.03    1.43   117.29842   -10.06093    53.03844
    65  H   1.0    0.05    1.03    1.43   117.30908   -12.97256    51.35483
    66  H   1.0    0.06    1.03    1.43   116.36469   -10.18767    57.75125
    67  H   1.0    0.06    1.03    1.43   114.89235   -16.43633    52.89164
    68  H   1.0    0.06    1.03    1.43   113.40524   -11.93029    60.89746
    69  H   1.0    0.06    1.03    1.43   111.92489   -18.18403    56.01811
    70  H   1.0    0.06    1.03    1.43   111.15185   -15.92080    60.02576
    71  N   5.0   -0.14    3.51    2.09   122.63801   -16.18524    55.48152
    72  C   4.0    0.03    4.44    4.44   123.18293   -18.85064    55.96976
    73  C   4.0    0.17    3.48    3.11   123.13735   -20.22135    53.42028
    74  O   6.0   -0.28    1.21    1.80   121.64195   -21.85122    52.81791
    75  C   4.0   -0.02    4.27    4.14   121.35093   -19.89411    57.96792
    76  C   4.0   -0.02    3.74    3.28   121.09735   -17.98682    60.03738
    77  C   4.0   -0.00    3.61    3.17   118.97830   -16.64423    60.62675
    78  C   4.0    0.01    3.90    3.46   123.09844   -16.96017    61.54439
    79  N   5.0   -0.12    3.49    2.07   119.51466   -14.85768    62.41675
    80  C   4.0    0.04    3.89    3.45   122.02461   -14.97776    62.99543
    81  C   4.0   -0.04    3.40    3.08   125.66770   -17.50167    61.81003
    82  C   4.0   -0.04    3.40    3.08   123.47846   -13.52008    64.62721
    83  C   4.0   -0.03    3.37    3.07   127.09550   -16.04600    63.42502
    84  C   4.0   -0.03    3.38    3.07   126.01913   -14.06744    64.80513
    85  H   1.0    0.08    1.08    1.44   123.09858   -15.02906    56.92698
    86  H   1.0    0.04    1.06    1.44   125.10788   -18.94893    56.72003
    87  H   1.0    0.06    1.03    1.43   119.50961   -20.23519    57.10838
    88  H   1.0    0.06    1.03    1.43   122.08921   -21.68017    58.68435
    89  H   1.0    0.06    1.02    1.43   117.09988   -16.85035    59.89788
    90  H   1.0    0.07    1.05    1.44   118.26911   -13.59152    63.09531
    91  H   1.0    0.06    1.03    1.43   126.52369   -19.05086    60.79667
    92  H   1.0    0.06    1.02    1.43   122.65773   -11.99859    65.71430
    93  H   1.0    0.07    1.03    1.43   129.08895   -16.42697    63.64550
    94  H   1.0    0.07    1.03    1.43   127.20286   -12.95468    66.04175
    95  N   5.0   -0.12    3.45    2.05   125.09084   -19.46249    51.94828
    96  C   4.0    0.01    4.24    4.09   124.87787   -19.39160    49.22721
    97  C   4.0    0.16    3.36    3.07   124.51401   -16.60553    48.51132
    98  O   6.0   -0.30    1.33    1.80   125.04500   -14.92362    50.00552
    99  H   1.0    0.10    1.10    1.44   126.10258   -17.96253    52.58849
   100  H   1.0    0.04    1.02    1.43   126.63595   -20.10054    48.40684
   101  H   1.0    0.06    1.03    1.43   123.26157   -20.55377    48.69327
   102  N   5.0   -0.14    3.47    2.06   123.67530   -16.15873    46.17114
   103  C   4.0    0.03    4.51    4.55   123.10711   -13.61147    45.33717
   104  C   4.0    0.14    3.40    3.08   120.60211   -13.71085    43.90654
   105  O   6.0   -0.32    1.27    1.80   120.02227   -15.60121    42.70878
   106  C   4.0   -0.02    4.32    4.23   125.32301   -12.54797    43.74483
   107  C   4.0   -0.04    4.17    3.94   125.10831    -9.68360    43.38368
   108  C   4.0   -0.07    4.12    3.84   125.57505   -13.91157    41.21231
   109  C   4.0   -0.06    4.02    3.65   127.68580    -8.46354    42.95463
   110  H   1.0    0.08    1.07    1.44   123.11250   -17.55227    44.98529
   111  H   1.0    0.05    1.07    1.44   122.90752   -12.43995    47.02911
   112  H   1.0    0.05    1.06    1.44   127.01807   -12.87901    44.88540
   113  H   1.0    0.05    1.02    1.43   123.86791    -9.23430    41.79570
   114  H   1.0    0.05    1.03    1.43   124.27736    -8.80062    45.05619
   115  H   1.0    0.04    1.00    1.43   127.13801   -13.07565    40.18069
   116  H   1.0    0.04    1.00    1.43   125.87699   -15.91501    41.52042
   117  H   1.0    0.05    1.00    1.43   123.87358   -13.65785    40.08899
   118  H   1.0    0.06    1.00    1.43   127.46982    -6.41942    42.95104
   119  H   1.0    0.05    1.00    1.43   128.99413    -8.93935    44.46778
   120  H   1.0    0.05    1.00    1.43   128.50079    -9.03383    41.16063
   121  N   5.0   -0.14    3.54    2.10   119.16500   -11.67988    44.25815
   122  C   4.0    0.03    4.35    4.28   116.89855   -10.87922    42.95132
   123  C   4.0    0.14    3.50    3.11   117.16589    -7.99019    42.86114
   124  O   6.0   -0.32    1.32    1.80   118.52119    -6.93765    44.41942
   125  C   4.0   -0.05    4.23    4.06   114.40772   -11.46934    44.40811
   126  C   4.0   -0.05    4.19    3.98   114.59721   -13.64664    46.29968
   127  C   4.0   -0.04    4.17    3.94   114.86594   -16.23742    45.04451
   128  C   4.0   -0.03    4.12    3.83   115.88781   -18.20390    46.89897
   129  N   5.0   -0.11    4.02    2.92   117.42782   -20.14645    45.55993
   130  H   1.0    0.10    1.13    1.45   119.88305   -10.21535    45.27847
   131  H   1.0    0.06    1.04    1.43   116.84498   -11.68596    41.05165
   132  H   1.0    0.04    1.04    1.43   113.85190    -9.78024    45.45574
   133  H   1.0    0.04    1.02    1.43   112.93774   -11.85392    43.02056
   134  H   1.0    0.05    1.04    1.43   116.22166   -13.28710    47.51602
   135  H   1.0    0.04    1.03    1.43   112.92012   -13.60135    47.49615
   136  H   1.0    0.04    1.02    1.43   113.04458   -16.82690    44.29144
   137  H   1.0    0.07    1.06    1.44   116.18783   -16.04644    43.48043
   138  H   1.0    0.06    1.02    1.43   117.12735   -17.29461    48.28094
   139  H   1.0    0.04    1.02    1.43   114.35503   -19.12023    47.92087
   140  H   1.0    0.07    1.02    1.43   118.17697   -21.36046    46.87979
   141  H   1.0    0.09    1.06    1.44   116.45095   -21.22602    44.20319
   142  H   1.0    0.08    1.03    1.43   118.82761   -19.21906    44.55911
   143  N   5.0   -0.14    3.41    2.02   115.83016    -6.73011    41.11585
   144  C   4.0    0.03    4.44    4.45   116.31992    -4.06565    40.77035
   145  C   4.0    0.14    3.40    3.08   114.04615    -2.27206    40.90823
   146  O   6.0   -0.31    1.23    1.80   112.05464    -2.62479    39.81060
   147  C   4.0   -0.03    4.34    4.28   117.57579    -3.56685    38.17763
   148  C   4.0   -0.01    3.55    3.14   120.21876    -4.58824    38.02405
   149  C   4.0   -0.03    3.46    3.10   120.72531    -6.94148    36.97947
   150  C   4.0   -0.03    3.47    3.10   122.22292    -3.11580    38.86363
   151  C   4.0   -0.03    3.44    3.09   123.18478    -7.76225    36.68734
   152  C   4.0   -0.04    3.43    3.09   124.68918    -3.91546    38.57497
   153  C   4.0    0.07    3.45    3.10   125.18805    -6.22857    37.43286
   154  O   6.0   -0.25    2.12    1.84   127.57874    -7.05835    37.01622
   155  H   1.0    0.10    1.07    1.44   114.83614    -7.69841    39.79149
   156  H   1.0    0.06    1.09    1.44   117.66055    -3.56388    42.26561
   157  H   1.0    0.05    1.03    1.43   116.39744    -4.38009    36.69706
   158  H   1.0    0.04    1.04    1.43   117.65179    -1.52778    37.87516
   159  H   1.0    0.06    1.03    1.43   119.18351    -8.11327    36.34099
   160  H   1.0    0.05    1.03    1.43   121.86371    -1.29268    39.71369
   161  H   1.0    0.06    1.03    1.43   123.59290    -9.55344    35.81145
   162  H   1.0    0.06    1.03    1.43   126.21746    -2.71640    39.20818
   163  H   1.0    0.12    1.04    1.43   128.77552    -5.76095    37.48045
   164  N   5.0   -0.15    3.41    2.02   114.63692    -0.06920    42.07366
   165  C   4.0    0.02    4.23    4.07   112.98751     2.09965    42.16233
   166  C   4.0    0.16    3.38    3.07   112.41118     3.18835    39.56434
   167  O   6.0   -0.26    1.27    1.80   110.60397     4.61228    39.24865
   168  H   1.0    0.07    1.07    1.44   116.23867     0.04394    43.09187
   169  H   1.0    0.06    1.02    1.43   111.16376     1.61608    43.01965
   170  H   1.0    0.06    1.03    1.43   113.85131     3.57450    43.31810
   171  N   5.0   -0.14    3.53    2.10   113.84546     2.39822    37.65341
   172  C   4.0    0.04    4.38    4.35   113.27605     2.92135    35.01485
   173  C   4.0    0.17    3.51    3.12   110.43015     2.62233    34.58146
   174  O   6.0   -0.26    1.26    1.80   109.25517     4.04648    33.17232
   175  C   4.0   -0.05    4.34    4.28   114.84832     1.13950    33.34693
   176  C   4.0   -0.02    4.17    3.93   115.44877     2.15260    30.69664
   177  C   4.0   -0.06    4.10    3.81   117.61795     0.59708    29.58452
   178  C   4.0   -0.06    4.10    3.80   113.14813     2.08056    28.96045
   179  H   1.0    0.08    1.09    1.44   115.45935     1.46042    38.05420
   180  H   1.0    0.06    1.05    1.44   113.75255     4.89266    34.56263
   181  H   1.0    0.04    1.04    1.43   116.65623     0.85872    34.30108
   182  H   1.0    0.05    1.03    1.43   113.91118    -0.69327    33.20598
   183  H   1.0    0.05    1.05    1.44   116.08401     4.11618    30.88759
   184  H   1.0    0.06    1.00    1.43   118.04748     1.23233    27.68149
   185  H   1.0    0.05    1.00    1.43   119.31435     0.81221    30.72391
   186  H   1.0    0.06    1.00    1.43   117.13713    -1.39959    29.53512
   187  H   1.0    0.06    1.00    1.43   113.68949     2.66245    27.06851
   188  H   1.0    0.05    1.00    1.43   112.36833     0.18141    28.91650
   189  H   1.0    0.07    1.01    1.43   111.69987     3.37224    29.62980
   190  N   5.0   -0.14    3.49    2.07   109.29968     0.69718    35.75295
   191  C   4.0    0.04    4.36    4.30   106.57837     0.39037    35.53455
   192  C   4.0    0.12    3.29    3.05   105.20599     2.85996    36.16912
   193  O   6.0   -0.24    1.11    1.80   103.70554     3.84477    34.69890
   194  C   4.0   -0.04    4.32    4.23   105.67521    -1.75506    37.25120
   195  C   4.0   -0.01    3.58    3.15   102.83217    -1.85048    37.39680
   196  C   4.0   -0.02    3.48    3.11   101.36916    -1.99155    35.22027
   197  C   4.0   -0.03    3.46    3.10   101.62714    -1.78084    39.72710
   198  C   4.0   -0.02    3.37    3.07    98.75909    -2.03568    35.37267
   199  C   4.0   -0.02    3.37    3.07    99.01708    -1.86043    39.88446
   200  C   4.0   -0.02    3.37    3.07    97.57454    -1.98099    37.70541
   201  H   1.0    0.10    1.08    1.44   110.24840    -0.47222    36.94514
   202  H   1.0    0.06    1.05    1.44   106.12470    -0.05113    33.56274
   203  H   1.0    0.04    1.03    1.43   106.42586    -3.52231    36.49143
   204  H   1.0    0.05    1.03    1.43   106.45854    -1.49731    39.14032
   205  H   1.0    0.06    1.03    1.43   102.25953    -2.06016    33.38823
   206  H   1.0    0.05    1.03    1.43   102.74101    -1.67675    41.43328
   207  H   1.0    0.07    1.03    1.43    97.65766    -2.10743    33.65713
   208  H   1.0    0.06    1.03    1.43    98.11521    -1.81824    41.71380
   209  H   1.0    0.07    1.03    1.43    95.53970    -2.03894    37.83027
   210  N   5.0   -0.21    3.26    1.97   111.51013   -10.79776    30.91530
   211  C   4.0    0.03    4.34    4.28   113.07088    -9.84637    32.93911
   212  C   4.0    0.14    3.40    3.08   112.41314   -10.88161    35.55763
   213  O   6.0   -0.33    1.26    1.80   113.85766   -10.52188    37.33251
   214  C   4.0   -0.03    4.33    4.25   112.91597    -6.95114    32.98647
   215  C   4.0    0.15    3.25    3.04   114.02022    -5.92661    30.53217
   216  O   6.0   -0.29    1.20    1.80   116.25860    -6.15312    30.01610
   217  N   5.0   -0.19    3.18    1.95   112.34942    -4.75409    29.03729
   218  H   1.0    0.09    1.03    1.43   109.93114    -9.77985    30.52793
   219  H   1.0    0.06    1.05    1.44   115.02752   -10.41063    32.52394
   220  H   1.0    0.04    1.03    1.43   110.95471    -6.37064    33.21596
   221  H   1.0    0.05    1.03    1.43   114.05002    -6.26128    34.55945
   222  H   1.0    0.10    1.03    1.43   112.85827    -4.22740    27.27677
   223  H   1.0    0.08    1.03    1.43   110.48382    -4.81006    29.44109
   224  N   5.0   -0.15    3.46    2.05   110.25405   -12.16890    35.74910
   225  C   4.0    0.03    4.41    4.39   109.40950   -13.23795    38.12525
   226  C   4.0    0.07    3.24    3.04   108.59308   -15.98999    37.78050
   227  O   6.0   -0.31    1.14    1.80   109.65810   -17.69878    38.91559
   228  C   4.0   -0.03    4.31    4.21   107.30239   -11.64009    39.36469
   229  C   4.0   -0.04    4.19    3.99   108.34380    -9.00943    39.99398
   230  C   4.0   -0.07    4.14    3.88   106.31890   -12.98381    41.71994
   231  C   4.0   -0.08    4.02    3.65   106.41723    -7.25213    41.21488
   232  H   1.0    0.08    1.07    1.44   109.01513   -12.17039    34.29181
   233  H   1.0    0.06    1.07    1.44   111.06396   -13.25935    39.37225
   234  H   1.0    0.04    1.05    1.44   105.76980   -11.43259    37.99326
   235  H   1.0    0.04    1.03    1.43   109.96059    -9.20246    41.25929
   236  H   1.0    0.05    1.03    1.43   109.02385    -8.13353    38.25360
   237  H   1.0    0.04    1.00    1.43   104.68636   -11.99718    42.47186
   238  H   1.0    0.05    1.01    1.43   105.74693   -14.90554    41.28195
   239  H   1.0    0.04    1.00    1.43   107.77978   -13.05460    43.16156
   240  H   1.0    0.05    1.00    1.43   107.28168    -5.41155    41.49838
   241  H   1.0    0.04    1.00    1.43   104.75799    -7.02458    40.02479
   242  H   1.0    0.04    1.00    1.43   105.81347    -7.96462    43.04130
   243  N   5.0   -0.15    3.43    2.04   114.01848   -20.48173    35.27103
   244  C   4.0    0.03    4.49    4.52   115.74882   -20.68588    37.41154
   245  C   4.0    0.15    3.40    3.08   114.78752   -22.13947    39.70123
   246  O   6.0   -0.32    1.31    1.80   116.33311   -22.86583    41.27928
   247  C   4.0   -0.03    4.37    4.32   116.21576   -17.92355    38.15292
   248  C   4.0   -0.04    4.28    4.15   116.13767   -16.59653    35.60333
   249  C   4.0   -0.00    4.34    4.26   113.92913   -17.90729    34.29154
   250  H   1.0    0.05    1.05    1.44   117.49750   -21.61513    36.79777
   251  H   1.0    0.06    1.03    1.43   114.63025   -17.27750    39.30041
   252  H   1.0    0.06    1.02    1.43   117.97720   -17.64275    39.16908
   253  H   1.0    0.06    1.02    1.43   115.83684   -14.57366    35.75992
   254  H   1.0    0.05    1.02    1.43   117.87017   -16.92642    34.54225
   255  H   1.0    0.06    1.03    1.43   112.13966   -17.00497    34.78314
   256  H   1.0    0.05    1.02    1.43   114.12681   -17.85974    32.24452
   257  N   5.0   -0.14    3.45    2.05   112.30988   -22.35244    40.05366
   258  C   4.0    0.04    4.33    4.25   111.28947   -23.98078    42.00663
   259  C   4.0    0.09    3.22    3.04   111.32508   -26.73175    41.10769
   260  O   6.0   -0.29    1.16    1.80   112.65656   -28.31776    42.14662
   261  C   4.0   -0.04    4.34    4.27   108.60944   -23.21038    42.76712
   262  C   4.0   -0.02    4.17    3.95   108.49709   -20.75575    44.30879
   263  C   4.0   -0.07    4.11    3.82   105.78457   -19.76866    44.32860
   264  C   4.0   -0.07    4.10    3.80   109.39110   -21.17603    47.01978
   265  H   1.0    0.10    1.08    1.44   111.07629   -21.64043    38.78241
   266  H   1.0    0.06    1.06    1.44   112.57724   -23.91311    43.62459
   267  H   1.0    0.05    1.03    1.43   107.49514   -22.97205    41.05060
   268  H   1.0    0.05    1.03    1.43   107.77206   -24.75103    43.85404
   269  H   1.0    0.05    1.06    1.44   109.68566   -19.36601    43.34721
   270  H   1.0    0.04    1.00    1.43   105.63290   -18.05611    45.45215
   271  H   1.0    0.05    1.00    1.43   105.15390   -19.34380    42.41802
   272  H   1.0    0.05    1.00    1.43   104.51234   -21.17757    45.11761
   273  H   1.0    0.04    1.00    1.43   109.51453   -19.39131    48.02723
   274  H   1.0    0.05    1.00    1.43   108.04147   -22.36900    48.00960
   275  H   1.0    0.04    1.00    1.43   111.21122   -22.11801    47.06091
   276  N   5.0   -0.19    3.21    1.96   117.26292   -30.78970    40.78204
   277  C   4.0    0.04    4.24    4.07   118.72256   -31.32355    43.02282
   278  C   4.0    0.10    3.20    3.04   117.40740   -33.05769    44.92957
   279  O   6.0   -0.25    1.13    1.80   118.58314   -33.80907    46.77184
   280  C   4.0   -0.03    4.29    4.17   119.46136   -28.87170    44.38447
   281  C   4.0   -0.04    4.20    3.99   121.22905   -27.26334    42.76130
   282  C   4.0   -0.04    4.17    3.95   122.63451   -25.33512    44.39239
   283  C   4.0   -0.04    4.12    3.83   124.28419   -23.55833    42.83730
   284  N   5.0   -0.12    4.02    2.93   126.44564   -24.96176    41.70516
   285  H   1.0    0.13    1.06    1.44   115.53557   -29.99913    41.04413
   286  H   1.0    0.06    1.05    1.44   120.42533   -32.32530    42.39418
   287  H   1.0    0.06    1.03    1.43   117.72970   -27.84226    44.81263
   288  H   1.0    0.06    1.03    1.43   120.37951   -29.41536    46.14850
   289  H   1.0    0.05    1.03    1.43   122.53260   -28.55051    41.81675
   290  H   1.0    0.06    1.03    1.43   120.10657   -26.30967    41.32118
   291  H   1.0    0.05    1.03    1.43   121.23428   -24.21428    45.39070
   292  H   1.0    0.05    1.03    1.43   123.76053   -26.33031    45.80178
   293  H   1.0    0.05    1.02    1.43   123.16188   -22.72785    41.32073
   294  H   1.0    0.04    1.02    1.43   125.04901   -22.07267    44.04457
   295  H   1.0    0.06    1.02    1.43   127.59550   -23.78075    40.66863
   296  H   1.0    0.06    1.02    1.43   127.49505   -25.80612    43.11421
   297  H   1.0    0.06    1.02    1.43   125.77849   -26.36240    40.52759
   298  N   5.0   -0.19    3.22    1.96   140.22820    -8.94401    41.01737
   299  C   4.0    0.03    4.20    3.99   137.85451    -7.56359    41.16232
   300  C   4.0    0.09    3.19    3.03   137.20542    -7.01245    43.95249
   301  O   6.0   -0.29    1.14    1.80   135.19188    -7.55441    44.91354
   302  C   4.0   -0.04    4.26    4.12   135.79287    -9.09383    39.81301
   303  C   4.0   -0.04    4.21    4.02   135.18580   -11.60633    41.11895
   304  C   4.0   -0.05    4.16    3.92   133.54928   -13.32444    39.46996
   305  C   4.0   -0.04    4.13    3.86   132.89387   -15.72009    40.93565
   306  N   5.0   -0.12    4.01    2.88   131.44482   -17.53385    39.34303
   307  H   1.0    0.09    1.03    1.43   140.10427   -10.83079    41.27337
   308  H   1.0    0.05    1.05    1.44   138.15726    -5.75626    40.19577
   309  H   1.0    0.05    1.03    1.43   134.09281    -7.93434    39.74496
   310  H   1.0    0.05    1.03    1.43   136.43166    -9.43650    37.88133
   311  H   1.0    0.05    1.03    1.43   136.92529   -12.61946    41.58142
   312  H   1.0    0.06    1.04    1.43   134.22150   -11.19886    42.89033
   313  H   1.0    0.04    1.03    1.43   131.83359   -12.31366    38.94560
   314  H   1.0    0.05    1.03    1.43   134.59898   -13.78741    37.75684
   315  H   1.0    0.05    1.02    1.43   134.62458   -16.63725    41.58050
   316  H   1.0    0.04    1.02    1.43   131.76329   -15.22225    42.58490
   317  H   1.0    0.06    1.02    1.43   131.04804   -19.15356    40.34975
   318  H   1.0    0.05    1.02    1.43   129.76993   -16.73061    38.74817
   319  H   1.0    0.06    1.02    1.43   132.48995   -18.02496    37.77269
   320  N   5.0   -0.19    3.26    1.97   114.76238    -8.30961    75.46610
   321  C   4.0    0.04    4.24    4.08   112.09698    -7.76469    74.97786
   322  C   4.0    0.10    3.19    3.04   110.72627    -7.81027    77.52734
   323  O   6.0   -0.24    1.12    1.80   109.09640    -9.30567    78.12971
   324  C   4.0   -0.02    4.26    4.13   111.05351    -9.59669    72.97970
   325  C   4.0   -0.01    3.74    3.27   112.96079    -9.85027    70.91024
   326  C   4.0    0.00    3.61    3.17   114.30339   -11.96931    70.32087
   327  C   4.0    0.01    3.90    3.46   113.98744    -7.84917    69.40323
   328  N   5.0   -0.12    3.49    2.07   116.08994   -11.43296    68.53087
   329  C   4.0    0.04    3.89    3.45   115.96986    -8.92301    67.95219
   330  C   4.0   -0.04    3.40    3.08   113.44595    -5.27992    69.13758
   331  C   4.0   -0.04    3.40    3.08   117.42754    -7.46916    66.32041
   332  C   4.0   -0.03    3.37    3.07   114.90162    -3.85212    67.52260
   333  C   4.0   -0.03    3.38    3.07   116.88017    -4.92849    66.14249
   334  H   1.0    0.09    1.03    1.43   115.91855    -7.84904    74.02064
   335  H   1.0    0.05    1.05    1.44   111.99869    -5.83974    74.22759
   336  H   1.0    0.07    1.03    1.43   110.71243   -11.43801    73.83924
   337  H   1.0    0.06    1.03    1.43   109.26745    -8.85841    72.26327
   338  H   1.0    0.06    1.02    1.43   114.09727   -13.84774    71.04974
   339  H   1.0    0.08    1.05    1.44   117.35610   -12.67851    67.85231
   340  H   1.0    0.06    1.03    1.43   111.89676    -4.42393    70.15095
   341  H   1.0    0.06    1.02    1.43   118.94903    -8.28989    65.23332
   342  H   1.0    0.07    1.03    1.43   114.52065    -1.85867    67.30212
   343  H   1.0    0.06    1.03    1.43   117.99294    -3.74476    64.90587
   344  H   1.0    0.10    1.07    1.44   123.49524     7.25416    44.57649
   345  H   1.0    0.08    1.05    1.44   105.52164     3.71834    37.82278
   346  H   1.0    0.11    1.07    1.44   112.41241   -10.83979    29.47422
   347  H   1.0    0.06    1.04    1.44   107.16888   -16.41388    36.61300
   348  H   1.0    0.09    1.17    1.46   114.72753   -21.19220    33.89806
   349  H   1.0    0.06    1.04    1.44   110.24901   -27.26274    39.64783
   350  H   1.0    0.10    1.08    1.44   118.11974   -29.70470    39.79149
   351  H   1.0    0.08    1.04    1.43   115.60659   -33.56373    44.66110
   352  H   1.0    0.10    1.07    1.44   140.92465    -8.71615    39.48257
   353  H   1.0    0.07    1.05    1.44   138.47450    -6.16698    45.06860
   354  H   1.0    0.11    1.08    1.44   115.28132    -7.43153    76.82707
   355  H   1.0    0.07    1.05    1.44   111.15580    -6.53489    78.85398

  Z AO/shell   Hii/eV     exponent
  1     Wed Apr 25 08:07:45 CEST 2018   EN: 2.200 GM2: 0.406  GM3: 0.0800  RAES: 1.40
     1s    -10.707211    1.230000
  6     Wed Apr 25 08:07:45 CEST 2018   EN: 2.550 GM2: 0.538  GM3: 0.1500  RAES: 3.00
     2s    -13.970922    2.096432
     2p    -10.063292    1.800000
  7     Wed Apr 25 08:07:45 CEST 2018   EN: 3.040 GM2: 0.461  GM3:-0.0640  RAES: 1.90
     2s    -16.686243    2.339881
     2p    -12.523956    2.014332
  8     Wed Apr 25 08:07:45 CEST 2018   EN: 3.440 GM2: 0.452  GM3:-0.0517  RAES: 1.80
     2s    -20.229985    2.439742
     2p    -15.503117    2.137023
 no old-style atom pair restraining (fixing) potential

molecular fragmentation (1/2 indicates fragments):
111111111111111111111111111111111111111111111111111111111111111111111111
111111111111111111111111111111111111111111111111111111111111111111111111
111111111111111111111111111111111111111111111111111111111111111112222222
222222222222222222222222222222222222222222222222222222222222222222222222
2222222222222222222222222222222222222222222222222222222112222222222
# atoms in fragment 1/2:   211   144
 fragment masses (1/2) :     1516.76      892.19
CMA distance (Bohr)    :   9.028
constraining FC (au)   :  0.0500
           ------------------------------------------------- 
          |        Self-Consistent Charge Iterations        |
           ------------------------------------------------- 

 Ncao       : 874
 Nao        : 874
 Nshell     : 528
 Nel        : 946
 T(el)      :   500.0
 intcut     :    35.0
 scfconv/Eh :  0.100E-06
   qconv/e  :  0.100E-04
 intneglect :  0.100E-08
 broydamp   :      0.400
 iter      E             dE          RMSdq      gap      omega  full diag
   1   -535.2922583 -0.535292E+03  0.438E+00    2.77       0.0  T
   2   -536.3497032 -0.105744E+01  0.217E+00    1.52       1.0  T
   3   -536.4070391 -0.573359E-01  0.118E+00    2.09       1.0  T
   4   -536.4936209 -0.865818E-01  0.284E-01    1.54       1.0  T
   5   -536.5018829 -0.826201E-02  0.158E-01    1.67       1.0  T
   6   -536.5045327 -0.264977E-02  0.801E-02    1.68       1.0  T
   7   -536.5051368 -0.604163E-03  0.379E-02    1.62       1.0  T
   8   -536.5052464 -0.109534E-03  0.199E-02    1.61       1.0  T
   9   -536.5052828 -0.364335E-04  0.871E-03    1.60       1.0  T
  10   -536.5052896 -0.681605E-05  0.422E-03    1.59       1.3  T
  11   -536.5052911 -0.144150E-05  0.184E-03    1.59       2.9  T
  12   -536.5052914 -0.328170E-06  0.797E-04    1.59       6.7  T
  13   -536.5052914 -0.498106E-07  0.376E-04    1.59      14.1  T
  14   -536.5052915 -0.704210E-08  0.194E-04    1.59      27.4  T
  15   -536.5052915 -0.375678E-08  0.698E-05    1.59      76.0  T
  16   -536.5052915 -0.426553E-09  0.370E-05    1.59     143.6  T
speedup  1.89
cpu  time for SCC   11.83 s
wall time for SCC    6.25 s

   *** convergence criteria satisfied after 16 iterations ***

          eigenvalues
 #    :         461        462        463        464        465        466        467        468
 occ. :        2.000      2.000      2.000      2.000      2.000      2.000      2.000      2.000
 eps  :       -10.473    -10.461    -10.447    -10.421    -10.336    -10.200    -10.053     -9.941
 #    :         469        470        471        472        473        474        475        476
 occ. :        2.000      2.000      2.000      2.000      2.000      0.000      0.000      0.000
 eps  :        -9.895     -9.879     -9.858     -9.592     -9.492     -7.898     -7.836     -7.833
 #    :         477        478        479        480        481        482        483        484
 occ. :        0.000      0.000      0.000      0.000      0.000      0.000      0.000      0.000
 eps  :        -7.752     -7.549     -7.235     -6.770     -6.510     -6.415     -6.394     -6.375


   #   Z            q   n(s)   n(p)   n(d)      C6AA      α(0)
   1   7 N     -0.383  1.307  4.076  0.000    29.892     8.120
   2   6 C      0.029  1.059  2.912  0.000    20.104     6.387
   3   6 C      0.271  1.045  2.684  0.000    22.416     7.753
   4   8 O     -0.516  1.752  4.764  0.000    24.134     6.587
   5   6 C     -0.040  1.049  2.991  0.000    21.282     6.566
   6   6 C     -0.090  1.066  3.024  0.000    22.218     6.712
   7   6 C      0.370  1.027  2.603  0.000    20.726     7.450
   8   8 O     -0.643  1.767  4.876  0.000    27.190     6.991
   9   8 O     -0.656  1.780  4.876  0.000    27.530     7.035
  10   1 H      0.157  0.843  0.000  0.000     1.353     1.822
  11   1 H      0.042  0.958  0.000  0.000     2.420     2.433
  12   1 H      0.035  0.965  0.000  0.000     2.523     2.484
  13   1 H      0.012  0.988  0.000  0.000     2.855     2.643
  14   1 H      0.007  0.993  0.000  0.000     2.943     2.683
  15   1 H      0.019  0.981  0.000  0.000     2.741     2.589
  16   7 N     -0.168  1.235  3.933  0.000    24.634     7.371
  17   6 C      0.017  1.060  2.923  0.000    20.287     6.413
  18   6 C      0.275  1.040  2.685  0.000    22.352     7.742
  19   8 O     -0.457  1.734  4.724  0.000    22.860     6.410
  20   6 C     -0.065  1.052  3.013  0.000    21.732     6.635
  21   6 C     -0.041  1.063  2.978  0.000    28.964     8.826
  22   6 C     -0.002  1.063  2.939  0.000    28.043     8.686
  23   6 C     -0.024  1.072  2.951  0.000    28.416     8.730
  24   7 N     -0.118  1.226  3.892  0.000    23.559     7.209
  25   6 C      0.044  1.062  2.894  0.000    26.920     8.506
  26   6 C     -0.046  1.077  2.968  0.000    29.131     8.850
  27   6 C     -0.056  1.072  2.984  0.000    29.386     8.889
  28   6 C     -0.047  1.077  2.970  0.000    29.169     8.857
  29   6 C     -0.042  1.078  2.964  0.000    29.037     8.837
  30   1 H      0.215  0.785  0.000  0.000     1.030     1.590
  31   1 H      0.063  0.937  0.000  0.000     2.164     2.301
  32   1 H      0.059  0.941  0.000  0.000     2.217     2.328
  33   1 H      0.081  0.919  0.000  0.000     1.966     2.193
  34   1 H      0.009  0.991  0.000  0.000     2.914     2.669
  35   1 H      0.167  0.833  0.000  0.000     1.290     1.779
  36   1 H      0.048  0.952  0.000  0.000     2.348     2.396
  37   1 H      0.015  0.985  0.000  0.000     2.808     2.621
  38   1 H      0.058  0.942  0.000  0.000     2.226     2.333
  39   1 H      0.037  0.963  0.000  0.000     2.487     2.466
  40   7 N     -0.194  1.245  3.948  0.000    25.202     7.456
  41   6 C      0.021  1.062  2.917  0.000    20.226     6.405
  42   6 C      0.275  1.040  2.686  0.000    22.355     7.743
  43   8 O     -0.499  1.758  4.742  0.000    23.770     6.537
  44   6 C      0.078  1.037  2.886  0.000    19.505     6.328
  45   8 O     -0.460  1.706  4.754  0.000    22.039     6.337
  46   1 H      0.208  0.792  0.000  0.000     1.068     1.619
  47   1 H      0.083  0.917  0.000  0.000     1.944     2.180
  48   1 H      0.043  0.957  0.000  0.000     2.413     2.429
  49   1 H      0.019  0.981  0.000  0.000     2.755     2.595
  50   1 H      0.358  0.642  0.000  0.000     0.569     1.185
  51   7 N     -0.173  1.254  3.919  0.000    24.752     7.389
  52   6 C      0.027  1.065  2.909  0.000    20.128     6.388
  53   6 C      0.275  1.040  2.685  0.000    22.346     7.741
  54   8 O     -0.426  1.715  4.711  0.000    22.202     6.317
  55   6 C     -0.074  1.052  3.022  0.000    21.900     6.661
  56   6 C      0.009  1.082  2.909  0.000    27.811     8.650
  57   6 C     -0.040  1.080  2.961  0.000    29.001     8.831
  58   6 C     -0.044  1.083  2.961  0.000    29.083     8.844
  59   6 C     -0.033  1.078  2.955  0.000    28.826     8.804
  60   6 C     -0.036  1.082  2.954  0.000    28.884     8.813
  61   6 C     -0.036  1.079  2.957  0.000    28.897     8.815
  62   1 H      0.247  0.753  0.000  0.000     0.893     1.481
  63   1 H      0.041  0.959  0.000  0.000     2.440     2.443
  64   1 H      0.055  0.945  0.000  0.000     2.256     2.349
  65   1 H      0.080  0.920  0.000  0.000     1.983     2.202
  66   1 H      0.020  0.980  0.000  0.000     2.739     2.588
  67   1 H      0.072  0.928  0.000  0.000     2.065     2.247
  68   1 H      0.015  0.985  0.000  0.000     2.803     2.618
  69   1 H      0.051  0.949  0.000  0.000     2.305     2.374
  70   1 H      0.026  0.974  0.000  0.000     2.640     2.541
  71   7 N     -0.177  1.251  3.926  0.000    24.840     7.402
  72   6 C      0.012  1.070  2.918  0.000    20.379     6.427
  73   6 C      0.286  1.037  2.677  0.000    22.146     7.706
  74   8 O     -0.440  1.733  4.706  0.000    22.487     6.358
  75   6 C     -0.070  1.047  3.023  0.000    21.835     6.652
  76   6 C     -0.036  1.067  2.968  0.000    28.831     8.806
  77   6 C     -0.010  1.070  2.940  0.000    28.225     8.714
  78   6 C     -0.024  1.073  2.951  0.000    28.451     8.738
  79   7 N     -0.109  1.220  3.888  0.000    23.371     7.180
  80   6 C      0.041  1.061  2.898  0.000    26.982     8.515
  81   6 C     -0.044  1.078  2.966  0.000    29.091     8.844
  82   6 C     -0.057  1.070  2.986  0.000    29.408     8.892
  83   6 C     -0.046  1.077  2.970  0.000    29.152     8.854
  84   6 C     -0.041  1.078  2.963  0.000    29.008     8.832
  85   1 H      0.188  0.812  0.000  0.000     1.169     1.694
  86   1 H      0.069  0.931  0.000  0.000     2.100     2.266
  87   1 H      0.067  0.933  0.000  0.000     2.116     2.275
  88   1 H      0.064  0.936  0.000  0.000     2.157     2.297
  89   1 H      0.045  0.955  0.000  0.000     2.382     2.413
  90   1 H      0.169  0.831  0.000  0.000     1.282     1.773
  91   1 H      0.041  0.959  0.000  0.000     2.439     2.442
  92   1 H      0.016  0.984  0.000  0.000     2.794     2.614
  93   1 H      0.025  0.975  0.000  0.000     2.662     2.552
  94   1 H      0.016  0.984  0.000  0.000     2.802     2.618
  95   7 N     -0.183  1.262  3.921  0.000    24.970     7.422
  96   6 C     -0.059  1.062  2.996  0.000    21.703     6.646
  97   6 C      0.271  1.040  2.689  0.000    22.427     7.755
  98   8 O     -0.487  1.758  4.729  0.000    23.500     6.499
  99   1 H      0.202  0.798  0.000  0.000     1.094     1.639
 100   1 H      0.130  0.870  0.000  0.000     1.537     1.939
 101   1 H      0.120  0.880  0.000  0.000     1.610     1.985
 102   7 N     -0.159  1.234  3.925  0.000    24.435     7.342
 103   6 C     -0.004  1.070  2.934  0.000    20.655     6.471
 104   6 C      0.260  1.042  2.698  0.000    22.614     7.787
 105   8 O     -0.438  1.710  4.728  0.000    22.453     6.353
 106   6 C     -0.037  1.072  2.965  0.000    21.201     6.549
 107   6 C     -0.055  1.046  3.009  0.000    21.565     6.612
 108   6 C     -0.147  1.045  3.102  0.000    23.395     6.897
 109   6 C     -0.110  1.037  3.073  0.000    22.659     6.788
 110   1 H      0.242  0.758  0.000  0.000     0.914     1.498
 111   1 H      0.053  0.947  0.000  0.000     2.282     2.362
 112   1 H      0.074  0.926  0.000  0.000     2.047     2.237
 113   1 H      0.031  0.969  0.000  0.000     2.570     2.507
 114   1 H      0.006  0.994  0.000  0.000     2.951     2.686
 115   1 H      0.069  0.931  0.000  0.000     2.098     2.265
 116   1 H      0.092  0.908  0.000  0.000     1.858     2.132
 117   1 H      0.056  0.944  0.000  0.000     2.243     2.342
 118   1 H      0.012  0.988  0.000  0.000     2.858     2.644
 119   1 H      0.043  0.957  0.000  0.000     2.412     2.429
 120   1 H      0.061  0.939  0.000  0.000     2.185     2.312
 121   7 N     -0.155  1.237  3.919  0.000    24.358     7.330
 122   6 C      0.004  1.067  2.928  0.000    20.523     6.453
 123   6 C      0.267  1.047  2.686  0.000    22.496     7.768
 124   8 O     -0.487  1.753  4.733  0.000    23.488     6.498
 125   6 C     -0.073  1.057  3.016  0.000    21.896     6.662
 126   6 C     -0.071  1.050  3.021  0.000    21.853     6.655
 127   6 C     -0.108  1.056  3.052  0.000    22.565     6.763
 128   6 C     -0.051  1.060  2.991  0.000    21.592     6.633
 129   7 N     -0.144  1.233  3.912  0.000    24.114     7.293
 130   1 H      0.196  0.804  0.000  0.000     1.124     1.661
 131   1 H      0.101  0.899  0.000  0.000     1.772     2.082
 132   1 H      0.037  0.963  0.000  0.000     2.485     2.465
 133   1 H      0.068  0.932  0.000  0.000     2.108     2.271
 134   1 H      0.050  0.950  0.000  0.000     2.317     2.380
 135   1 H      0.056  0.944  0.000  0.000     2.247     2.344
 136   1 H      0.076  0.924  0.000  0.000     2.018     2.221
 137   1 H      0.108  0.892  0.000  0.000     1.713     2.047
 138   1 H      0.107  0.893  0.000  0.000     1.722     2.052
 139   1 H      0.107  0.893  0.000  0.000     1.724     2.053
 140   1 H      0.279  0.721  0.000  0.000     0.780     1.384
 141   1 H      0.293  0.707  0.000  0.000     0.735     1.343
 142   1 H      0.287  0.713  0.000  0.000     0.752     1.359
 143   7 N     -0.162  1.240  3.922  0.000    24.510     7.353
 144   6 C      0.015  1.061  2.924  0.000    20.327     6.418
 145   6 C      0.265  1.049  2.686  0.000    22.534     7.773
 146   8 O     -0.445  1.732  4.714  0.000    22.608     6.375
 147   6 C     -0.067  1.057  3.010  0.000    21.767     6.640
 148   6 C     -0.005  1.073  2.932  0.000    28.137     8.701
 149   6 C     -0.041  1.083  2.958  0.000    29.029     8.836
 150   6 C     -0.039  1.081  2.959  0.000    28.979     8.828
 151   6 C     -0.061  1.075  2.987  0.000    29.525     8.910
 152   6 C     -0.070  1.077  2.993  0.000    29.748     8.944
 153   6 C      0.148  1.044  2.809  0.000    24.787     8.160
 154   8 O     -0.397  1.694  4.703  0.000    20.790     6.155
 155   1 H      0.231  0.769  0.000  0.000     0.959     1.534
 156   1 H      0.076  0.924  0.000  0.000     2.020     2.223
 157   1 H      0.062  0.938  0.000  0.000     2.170     2.304
 158   1 H      0.028  0.972  0.000  0.000     2.617     2.530
 159   1 H      0.059  0.941  0.000  0.000     2.205     2.322
 160   1 H      0.014  0.986  0.000  0.000     2.832     2.632
 161   1 H      0.085  0.915  0.000  0.000     1.928     2.171
 162   1 H      0.030  0.970  0.000  0.000     2.587     2.515
 163   1 H      0.331  0.669  0.000  0.000     0.634     1.251
 164   7 N     -0.183  1.240  3.943  0.000    24.966     7.421
 165   6 C     -0.021  1.045  2.976  0.000    21.027     6.542
 166   6 C      0.279  1.037  2.684  0.000    22.272     7.728
 167   8 O     -0.511  1.765  4.746  0.000    24.038     6.574
 168   1 H      0.198  0.802  0.000  0.000     1.115     1.654
 169   1 H      0.091  0.909  0.000  0.000     1.874     2.141
 170   1 H      0.075  0.925  0.000  0.000     2.026     2.226
 171   7 N     -0.182  1.243  3.939  0.000    24.943     7.418
 172   6 C      0.023  1.066  2.911  0.000    20.191     6.399
 173   6 C      0.289  1.038  2.673  0.000    22.093     7.697
 174   8 O     -0.501  1.761  4.740  0.000    23.813     6.543
 175   6 C     -0.078  1.064  3.014  0.000    21.980     6.674
 176   6 C     -0.010  1.058  2.952  0.000    20.717     6.474
 177   6 C     -0.122  1.044  3.078  0.000    22.887     6.821
 178   6 C     -0.121  1.040  3.081  0.000    22.880     6.820
 179   1 H      0.204  0.796  0.000  0.000     1.085     1.632
 180   1 H      0.061  0.939  0.000  0.000     2.187     2.313
 181   1 H      0.064  0.936  0.000  0.000     2.156     2.296
 182   1 H      0.061  0.939  0.000  0.000     2.183     2.311
 183   1 H      0.027  0.973  0.000  0.000     2.633     2.538
 184   1 H      0.047  0.953  0.000  0.000     2.356     2.401
 185   1 H      0.042  0.958  0.000  0.000     2.423     2.434
 186   1 H      0.059  0.941  0.000  0.000     2.210     2.325
 187   1 H      0.045  0.955  0.000  0.000     2.385     2.415
 188   1 H      0.048  0.952  0.000  0.000     2.341     2.392
 189   1 H      0.036  0.964  0.000  0.000     2.499     2.472
 190   7 N     -0.173  1.242  3.931  0.000    24.754     7.389
 191   6 C      0.035  1.059  2.906  0.000    19.993     6.367
 192   6 C      0.219  1.081  2.700  0.000    23.378     7.918
 193   8 O     -0.373  1.761  4.612  0.000    21.143     6.165
 194   6 C     -0.080  1.057  3.023  0.000    22.014     6.678
 195   6 C      0.009  1.079  2.912  0.000    27.818     8.651
 196   6 C     -0.040  1.080  2.960  0.000    28.999     8.831
 197   6 C     -0.042  1.082  2.960  0.000    29.037     8.837
 198   6 C     -0.032  1.081  2.951  0.000    28.799     8.800
 199   6 C     -0.033  1.081  2.952  0.000    28.820     8.804
 200   6 C     -0.034  1.080  2.954  0.000    28.857     8.809
 201   1 H      0.224  0.776  0.000  0.000     0.992     1.560
 202   1 H      0.086  0.914  0.000  0.000     1.918     2.166
 203   1 H      0.093  0.907  0.000  0.000     1.851     2.127
 204   1 H      0.070  0.930  0.000  0.000     2.091     2.261
 205   1 H      0.041  0.959  0.000  0.000     2.431     2.438
 206   1 H      0.041  0.959  0.000  0.000     2.437     2.441
 207   1 H      0.037  0.963  0.000  0.000     2.486     2.466
 208   1 H      0.037  0.963  0.000  0.000     2.485     2.465
 209   1 H      0.034  0.966  0.000  0.000     2.526     2.485
 210   7 N     -0.387  1.308  4.079  0.000    30.003     8.135
 211   6 C      0.033  1.056  2.911  0.000    20.035     6.375
 212   6 C      0.265  1.046  2.689  0.000    22.534     7.773
 213   8 O     -0.475  1.730  4.745  0.000    23.229     6.462
 214   6 C     -0.099  1.063  3.036  0.000    22.383     6.734
 215   6 C      0.288  1.035  2.677  0.000    22.119     7.701
 216   8 O     -0.487  1.753  4.734  0.000    23.488     6.498
 217   7 N     -0.284  1.270  4.014  0.000    27.333     7.765
 218   1 H      0.157  0.843  0.000  0.000     1.353     1.822
 219   1 H      0.073  0.927  0.000  0.000     2.050     2.239
 220   1 H      0.048  0.952  0.000  0.000     2.340     2.392
 221   1 H      0.071  0.929  0.000  0.000     2.079     2.255
 222   1 H      0.220  0.780  0.000  0.000     1.008     1.572
 223   1 H      0.216  0.784  0.000  0.000     1.026     1.586
 224   7 N     -0.158  1.238  3.920  0.000    24.410     7.338
 225   6 C      0.009  1.067  2.924  0.000    20.434     6.437
 226   6 C      0.195  1.085  2.720  0.000    23.829     7.994
 227   8 O     -0.319  1.733  4.585  0.000    20.126     6.015
 228   6 C     -0.028  1.069  2.959  0.000    21.029     6.522
 229   6 C     -0.061  1.050  3.011  0.000    21.664     6.626
 230   6 C     -0.122  1.039  3.083  0.000    22.887     6.821
 231   6 C     -0.112  1.035  3.076  0.000    22.699     6.794
 232   1 H      0.210  0.790  0.000  0.000     1.058     1.611
 233   1 H      0.109  0.891  0.000  0.000     1.706     2.042
 234   1 H      0.046  0.954  0.000  0.000     2.372     2.408
 235   1 H      0.052  0.948  0.000  0.000     2.300     2.372
 236   1 H      0.031  0.969  0.000  0.000     2.575     2.509
 237   1 H      0.051  0.949  0.000  0.000     2.311     2.377
 238   1 H      0.047  0.953  0.000  0.000     2.354     2.399
 239   1 H      0.064  0.936  0.000  0.000     2.150     2.293
 240   1 H      0.035  0.965  0.000  0.000     2.520     2.483
 241   1 H      0.033  0.967  0.000  0.000     2.546     2.495
 242   1 H      0.045  0.955  0.000  0.000     2.386     2.416
 243   7 N     -0.319  1.345  3.974  0.000    28.201     7.887
 244   6 C      0.017  1.066  2.917  0.000    20.279     6.409
 245   6 C      0.255  1.053  2.692  0.000    22.711     7.804
 246   8 O     -0.472  1.715  4.757  0.000    23.176     6.455
 247   6 C     -0.082  1.061  3.021  0.000    22.035     6.678
 248   6 C     -0.067  1.050  3.018  0.000    21.761     6.637
 249   6 C      0.014  1.041  2.945  0.000    20.373     6.432
 250   1 H      0.059  0.941  0.000  0.000     2.211     2.325
 251   1 H      0.062  0.938  0.000  0.000     2.172     2.304
 252   1 H      0.096  0.904  0.000  0.000     1.824     2.112
 253   1 H      0.032  0.968  0.000  0.000     2.559     2.502
 254   1 H      0.043  0.957  0.000  0.000     2.406     2.426
 255   1 H      0.016  0.984  0.000  0.000     2.788     2.611
 256   1 H      0.011  0.989  0.000  0.000     2.871     2.650
 257   7 N     -0.146  1.238  3.908  0.000    24.162     7.300
 258   6 C      0.015  1.061  2.923  0.000    20.323     6.419
 259   6 C      0.196  1.087  2.716  0.000    23.811     7.991
 260   8 O     -0.360  1.753  4.607  0.000    20.898     6.129
 261   6 C     -0.079  1.059  3.019  0.000    21.995     6.676
 262   6 C     -0.018  1.060  2.959  0.000    20.870     6.498
 263   6 C     -0.113  1.041  3.072  0.000    22.714     6.795
 264   6 C     -0.128  1.043  3.085  0.000    23.012     6.840
 265   1 H      0.223  0.777  0.000  0.000     0.996     1.564
 266   1 H      0.108  0.892  0.000  0.000     1.710     2.045
 267   1 H      0.057  0.943  0.000  0.000     2.232     2.336
 268   1 H      0.050  0.950  0.000  0.000     2.321     2.383
 269   1 H      0.069  0.931  0.000  0.000     2.093     2.263
 270   1 H      0.045  0.955  0.000  0.000     2.387     2.416
 271   1 H      0.029  0.971  0.000  0.000     2.598     2.521
 272   1 H      0.029  0.971  0.000  0.000     2.601     2.522
 273   1 H      0.054  0.946  0.000  0.000     2.272     2.357
 274   1 H      0.034  0.966  0.000  0.000     2.534     2.489
 275   1 H      0.059  0.941  0.000  0.000     2.211     2.325
 276   7 N     -0.410  1.330  4.080  0.000    30.657     8.223
 277   6 C      0.034  1.058  2.907  0.000    20.012     6.372
 278   6 C      0.201  1.088  2.711  0.000    23.720     7.976
 279   8 O     -0.401  1.762  4.639  0.000    21.700     6.246
 280   6 C     -0.077  1.057  3.021  0.000    21.971     6.672
 281   6 C     -0.087  1.054  3.033  0.000    22.157     6.702
 282   6 C     -0.106  1.056  3.050  0.000    22.518     6.756
 283   6 C     -0.071  1.064  3.007  0.000    21.958     6.689
 284   7 N     -0.141  1.224  3.917  0.000    24.050     7.284
 285   1 H      0.170  0.830  0.000  0.000     1.274     1.768
 286   1 H      0.074  0.926  0.000  0.000     2.041     2.234
 287   1 H      0.056  0.944  0.000  0.000     2.250     2.346
 288   1 H      0.054  0.946  0.000  0.000     2.277     2.360
 289   1 H      0.054  0.946  0.000  0.000     2.274     2.358
 290   1 H      0.076  0.924  0.000  0.000     2.016     2.220
 291   1 H      0.088  0.912  0.000  0.000     1.896     2.153
 292   1 H      0.084  0.916  0.000  0.000     1.939     2.178
 293   1 H      0.142  0.858  0.000  0.000     1.448     1.882
 294   1 H      0.129  0.871  0.000  0.000     1.546     1.944
 295   1 H      0.302  0.698  0.000  0.000     0.707     1.317
 296   1 H      0.297  0.703  0.000  0.000     0.723     1.332
 297   1 H      0.285  0.715  0.000  0.000     0.759     1.365
 298   7 N     -0.401  1.325  4.076  0.000    30.389     8.187
 299   6 C      0.034  1.059  2.907  0.000    20.024     6.375
 300   6 C      0.201  1.091  2.708  0.000    23.725     7.977
 301   8 O     -0.357  1.744  4.613  0.000    20.850     6.122
 302   6 C     -0.074  1.053  3.020  0.000    21.906     6.663
 303   6 C     -0.072  1.048  3.024  0.000    21.877     6.659
 304   6 C     -0.093  1.055  3.038  0.000    22.269     6.719
 305   6 C     -0.058  1.062  2.996  0.000    21.715     6.651
 306   7 N     -0.140  1.227  3.913  0.000    24.028     7.280
 307   1 H      0.174  0.826  0.000  0.000     1.249     1.751
 308   1 H      0.053  0.947  0.000  0.000     2.281     2.362
 309   1 H      0.045  0.955  0.000  0.000     2.377     2.411
 310   1 H      0.048  0.952  0.000  0.000     2.343     2.394
 311   1 H      0.041  0.959  0.000  0.000     2.442     2.444
 312   1 H      0.065  0.935  0.000  0.000     2.143     2.289
 313   1 H      0.077  0.923  0.000  0.000     2.009     2.216
 314   1 H      0.072  0.928  0.000  0.000     2.066     2.248
 315   1 H      0.116  0.884  0.000  0.000     1.642     2.004
 316   1 H      0.127  0.873  0.000  0.000     1.561     1.954
 317   1 H      0.307  0.693  0.000  0.000     0.693     1.304
 318   1 H      0.298  0.702  0.000  0.000     0.718     1.328
 319   1 H      0.297  0.703  0.000  0.000     0.723     1.332
 320   7 N     -0.384  1.326  4.059  0.000    29.944     8.127
 321   6 C      0.044  1.057  2.899  0.000    19.850     6.346
 322   6 C      0.203  1.085  2.711  0.000    23.675     7.969
 323   8 O     -0.371  1.755  4.616  0.000    21.105     6.159
 324   6 C     -0.064  1.046  3.018  0.000    21.723     6.635
 325   6 C     -0.026  1.067  2.959  0.000    28.589     8.769
 326   6 C     -0.007  1.071  2.936  0.000    28.152     8.703
 327   6 C     -0.022  1.074  2.948  0.000    28.397     8.729
 328   7 N     -0.106  1.220  3.886  0.000    23.321     7.172
 329   6 C      0.043  1.060  2.897  0.000    26.939     8.509
 330   6 C     -0.040  1.076  2.964  0.000    29.006     8.831
 331   6 C     -0.056  1.070  2.987  0.000    29.400     8.891
 332   6 C     -0.046  1.075  2.971  0.000    29.144     8.853
 333   6 C     -0.041  1.077  2.964  0.000    29.028     8.835
 334   1 H      0.170  0.830  0.000  0.000     1.275     1.769
 335   1 H      0.042  0.958  0.000  0.000     2.427     2.436
 336   1 H      0.059  0.941  0.000  0.000     2.209     2.324
 337   1 H      0.044  0.956  0.000  0.000     2.398     2.422
 338   1 H      0.051  0.949  0.000  0.000     2.302     2.372
 339   1 H      0.190  0.810  0.000  0.000     1.160     1.687
 340   1 H      0.017  0.983  0.000  0.000     2.786     2.610
 341   1 H      0.032  0.968  0.000  0.000     2.565     2.504
 342   1 H      0.012  0.988  0.000  0.000     2.853     2.641
 343   1 H      0.020  0.980  0.000  0.000     2.733     2.585
 344   1 H      0.182  0.818  0.000  0.000     1.203     1.718
 345   1 H      0.060  0.940  0.000  0.000     2.197     2.318
 346   1 H      0.180  0.820  0.000  0.000     1.213     1.725
 347   1 H      0.070  0.930  0.000  0.000     2.084     2.257
 348   1 H      0.184  0.816  0.000  0.000     1.192     1.710
 349   1 H      0.066  0.934  0.000  0.000     2.130     2.282
 350   1 H      0.196  0.804  0.000  0.000     1.126     1.662
 351   1 H      0.053  0.947  0.000  0.000     2.278     2.360
 352   1 H      0.182  0.818  0.000  0.000     1.205     1.719
 353   1 H      0.055  0.945  0.000  0.000     2.257     2.349
 354   1 H      0.175  0.825  0.000  0.000     1.245     1.748
 355   1 H      0.063  0.937  0.000  0.000     2.162     2.299

 Mol. C6AA /au·bohr⁶  :    1211066.105782
 Mol. C8AA /au·bohr⁸  :   27519137.384112
 Mol. α(0) /au        :       1674.814203

 
molecular dipole:
                 x           y           z       tot (Debye)
 q only:      259.065     -74.873      72.995
   full:      258.840     -69.842      73.519     706.606
molecular quadrupole (traceless):
                xx          xy          yy          xz          yz          zz
 q only:    31825.672  -13776.746  -17057.079   14364.648   -4686.288  -14768.593
  q+dip:    31782.591  -12859.545  -17159.734   14454.274   -4301.592  -14622.857
   full:    31779.433  -12860.703  -17158.347   14453.258   -4308.736  -14621.087
speedup  1.91
cpu  time for grad   14.01 s
wall time for grad    7.34 s

SCC energy    :    -536.5273448
rep           :       7.2020479
ES            :       1.6470435
AES           :      -0.0953199
AXC           :       0.2136004
disp          :      -0.4453238
XB            :       0.0000000
fix           :       0.0000000
Gborn         :       0.0000000
Gsasa         :       0.0000000
Ghb           :       0.0000000
Gshift        :       0.0000000
Gsolv         :      -0.7071621     -443.75
Etot ala COSMO:    -536.5273448
grad norm     :       0.5477294
total E       :    -529.2888708
atomizationE  :     101.8842194    63933.31
(atE without considering molecular charge,
 total energy contains solvation terms)
H-L gap (eV)  :          1.5940

------------------------------------------------------------------------
 * finished run on 2019/05/10 at 10:20:26.385     
------------------------------------------------------------------------
 total:
 * wall-time:     0 d,  0 h,  0 min,  7.833 sec
 *  cpu-time:     0 d,  0 h,  0 min, 14.758 sec
 * ratio c/w:     1.884 speedup
 SCF:
 * wall-time:     0 d,  0 h,  0 min,  7.583 sec
 *  cpu-time:     0 d,  0 h,  0 min, 14.494 sec
 * ratio c/w:     1.911 speedup

