      -----------------------------------------------------------      
     |                   =====================                   |     
     |                           x T B                           |     
     |                   =====================                   |     
     |                         S. Grimme                         |     
     |          Mulliken Center for Theoretical Chemistry        |     
     |                    University of Bonn                     |     
     |                 Version 6.0.1 (SAW181210)                 |     
      -----------------------------------------------------------      

   This program is distributed in the hope that it will be useful,
   but WITHOUT ANY WARRANTY; without even the implied warranty of
   MERCHANTABILITY or FITNESS FOR A PARTICULAR PURPOSE.
   
   FOR NON-COMMERCIAL, ACADEMIA USE ONLY.
   
   Cite this work as:
   S. Grimme, C. Bannwarth, P. Shushkov, J. Comput. Theory Chem., 2017,
   13, 1989-2009.
   C. Bannwarth, S. Ehlert and S. Grimme., ChemRxiv, 2018, preprint.
   http://doi.org/10.26434/chemrxiv.7246238.v1
   
   for sTDA-xTB:
   S. Grimme and C. Bannwarth, J. Chem. Phys., 2016, 145, 054103.
   
   in the mass-spec context:
   V. Asgeirsson, C. Bauer and S. Grimme, Chem. Sci., 2017, 8, 4879.
   
   if GBSA is used:
   P. Shushkov, F. März and S. Grimme, unpublished.
   
   for ANC optimizer:
   S. Grimme, unpublished.
   Rational Function algorithm used in ANCopt:
   F. Eckert, P. Pulay, H.-J. Werner, J. Comput. Chem., 1997, 18, 1473.
   
   with help from (in alphabetical order)
   C. Bannwarth, F. Bohle, G. Brandenburg, E. Caldeweyher, M. Checinski,
   S. Dohm, S. Ehlert, S. Ehrlich, F. März, H. Neugebauer, J. Pisarek,
   P. Pracht, P. Shushkov, and S. Spicher.
   
 * started run on 2019/05/08 at 09:27:17.328     
========================================================================
 # omp threads = 2
========================================================================
number of atoms            : 639
number of electrons        : 1700
charge                     : -5
spin                       : .0
first test random number   : .8485

########################################################################
# WARNING! Please study the warnings concerning your input carefully
#  - Process number higher than OMP_NUM_THREADS, I hope you know what you are doing.
########################################################################

           ------------------------------------------------- 
          |                 G F N 2 - x T B                 |
          | Geometry, Frequencies, Noncovalent interactions |
          |            JCTC 2018 parametrisation            |
           ------------------------------------------------- 
 
      method parameters     
 k(s)        :  1.8500
 k(p)        :  2.2300
 k(d)        :  2.2300
 k(f)        :  2.0000
 kEN (H0ij)  : -2.0000
 D4 a1       :  0.5200
 D4 a2       :  5.0000
 D4 s6       :  1.0000
 D4 s8       :  2.7000
 D4 s9       :  5.0000
 alphaj      :  2.0000

 Solvent             : h2o
 Using internal parameter file: .param_gbsa2_h2o
 Gsolv ref. state (COSMO-RS): gsolv [1 M gas/solution]
 temperature (mdtemp)       :    298.150000000000     
 dielectric constant        :    80.2000000000000     
 rho                        :    1.00000000000000     
 mass                       :    18.0000000000000     
 surface tension            :    15.5689454083859     
 probe radius               :   0.975313790000000     
 vdW radii scaling          :    1.00000000000000     
 Gshift (Eh)                :   1.857443126794793E-003
 c1                         :    1.55243817000000     
 soset                      :   0.130326360000000     
 HB correction              :  T

            Z     q(EN)     CN     RAES       Cart. coordinates
     1  N   5.0   -0.24    3.17    1.95     4.82222   179.64165    -3.12248
     2  C   4.0    0.02    4.09    3.78     3.32040   177.37976    -2.51065
     3  C   4.0    0.06    3.14    3.03     4.86572   175.48336    -0.85234
     4  O   6.0   -0.33    1.11    1.80     4.40695   175.10050     1.38822
     5  C   4.0   -0.09    4.06    3.73     2.31262   176.23544    -4.98933
     6  H   1.0    0.06    1.02    1.43     5.92428   179.53543    -4.68178
     7  H   1.0    0.03    1.05    1.44     1.74989   178.03320    -1.32689
     8  H   1.0    0.03    1.00    1.43     1.31826   174.48347    -4.59795
     9  H   1.0    0.02    1.00    1.43     0.99148   177.54976    -5.85729
    10  H   1.0    0.03    1.00    1.43     3.81960   175.87346    -6.33731
    11  N   5.0   -0.23    3.16    1.95     3.96293   170.87838     5.60108
    12  C   4.0    0.02    4.17    3.94     3.60903   168.13784     5.39691
    13  C   4.0    0.06    3.20    3.04     5.78531   166.85621     6.82668
    14  O   6.0   -0.31    1.12    1.80     5.52249   164.72152     7.66541
    15  C   4.0   -0.05    4.24    4.09     3.20451   166.98342     2.73232
    16  C   4.0   -0.02    4.15    3.89     2.10815   164.24418     2.69290
    17  C   4.0   -0.08    4.10    3.81    -0.74997   164.08790     3.04177
    18  C   4.0   -0.08    4.13    3.86     2.66813   163.02280     0.15235
    19  H   1.0    0.10    1.03    1.43     4.50512   171.89088     4.07380
    20  H   1.0    0.04    1.06    1.44     1.91532   167.67277     6.50186
    21  H   1.0    0.04    1.02    1.43     1.91183   168.21618     1.70256
    22  H   1.0    0.04    1.03    1.43     5.01240   166.94312     1.73583
    23  H   1.0    0.06    1.05    1.44     3.04055   163.15619     4.18720
    24  H   1.0    0.03    1.00    1.43    -1.34634   162.13039     3.22703
    25  H   1.0    0.03    1.00    1.43    -1.36226   165.11882     4.70626
    26  H   1.0    0.03    1.00    1.43    -1.69313   164.88676     1.39883
    27  H   1.0    0.03    1.00    1.43     2.01056   161.07822     0.14481
    28  H   1.0    0.03    1.00    1.43     1.71443   164.03192    -1.36038
    29  H   1.0    0.04    1.00    1.43     4.68456   163.00445    -0.25823
    30  N   5.0   -0.22    3.29    1.98   -22.17340   154.86898     0.18275
    31  C   4.0    0.03    4.33    4.26   -20.45656   156.38401    -1.31186
    32  C   4.0    0.14    3.39    3.08   -17.71383   156.32447    -0.28982
    33  O   6.0   -0.33    1.30    1.80   -15.87966   156.60839    -1.66968
    34  C   4.0    0.05    4.19    3.97   -21.53127   159.17061    -1.28402
    35  O   6.0   -0.29    2.18    1.85   -22.90211   159.39713     1.00426
    36  C   4.0   -0.09    4.01    3.65   -23.08489   159.79103    -3.68519
    37  H   1.0    0.09    1.08    1.44   -23.14416   155.97476     1.42798
    38  H   1.0    0.04    1.05    1.44   -20.40169   155.67807    -3.25598
    39  H   1.0    0.04    1.04    1.43   -19.88657   160.44541    -1.22106
    40  H   1.0    0.09    1.01    1.43   -23.65743   161.05569     1.21458
    41  H   1.0    0.02    1.00    1.43   -23.82814   161.69850    -3.54720
    42  H   1.0    0.04    1.00    1.43   -21.87476   159.64887    -5.33299
    43  H   1.0    0.03    1.00    1.43   -24.64113   158.46976    -3.89141
    44  N   5.0   -0.15    3.55    2.12   -17.54068   156.08181     2.21210
    45  C   4.0    0.03    4.50    4.54   -15.14497   155.79978     3.46997
    46  C   4.0    0.15    3.50    3.12   -13.97510   153.32252     2.69420
    47  O   6.0   -0.33    1.31    1.80   -11.93148   153.32054     1.61242
    48  C   4.0   -0.06    4.36    4.32   -15.43046   155.95450     6.32697
    49  C   4.0   -0.03    4.20    4.00   -16.96167   158.26171     7.19814
    50  C   4.0   -0.10    4.10    3.80   -16.45105   158.88557     9.96847
    51  C   4.0   -0.08    4.16    3.92   -16.32126   160.54747     5.56152
    52  H   1.0    0.07    1.09    1.44   -19.11058   155.56527     3.16762
    53  H   1.0    0.05    1.06    1.44   -13.87318   157.27515     2.76464
    54  H   1.0    0.03    1.03    1.43   -16.29136   154.21743     7.03235
    55  H   1.0    0.03    1.03    1.43   -13.52655   156.05277     7.12667
    56  H   1.0    0.03    1.05    1.44   -18.97358   157.84438     7.00437
    57  H   1.0    0.02    1.00    1.43   -17.69903   160.39217    10.57163
    58  H   1.0    0.02    1.00    1.43   -16.83069   157.24162    11.14282
    59  H   1.0    0.03    1.00    1.43   -14.49182   159.44040    10.24277
    60  H   1.0    0.02    1.00    1.43   -17.13873   162.23130     6.40398
    61  H   1.0    0.03    1.00    1.43   -14.28199   160.79952     5.47718
    62  H   1.0    0.04    1.01    1.43   -17.05026   160.34357     3.65637
    63  N   5.0   -0.15    3.52    2.09   -15.29615   151.25283     3.28742
    64  C   4.0    0.03    4.41    4.40   -14.40127   148.78882     2.52399
    65  C   4.0    0.15    3.46    3.10   -14.31583   148.70816    -0.35863
    66  O   6.0   -0.32    1.30    1.80   -12.51288   147.83005    -1.52130
    67  C   4.0   -0.05    4.18    3.97   -15.90812   146.69632     3.81421
    68  C   4.0   -0.03    4.09    3.78   -14.42286   144.21103     4.06384
    69  C   4.0    0.24    3.01    3.02   -15.39042   142.08118     6.03368
    70  O   6.0   -0.31    1.13    1.80   -17.44007   140.94052     5.59713
    71  O   6.0   -0.31    1.15    1.80   -13.94166   141.63792     7.86047
    72  H   1.0    0.07    1.06    1.44   -17.13152   151.39539     3.84459
    73  H   1.0    0.05    1.06    1.44   -12.42529   148.62277     3.15750
    74  H   1.0    0.04    1.03    1.43   -16.31507   147.35475     5.73096
    75  H   1.0    0.04    1.02    1.43   -17.70151   146.35445     2.85105
    76  H   1.0    0.05    1.02    1.43   -14.29492   143.27100     2.22424
    77  H   1.0    0.05    1.03    1.43   -12.49709   144.61319     4.69317
    78  N   5.0   -0.14    3.49    2.07   -16.15663   149.93552    -1.60152
    79  C   4.0    0.03    4.45    4.47   -16.21762   149.69326    -4.36487
    80  C   4.0    0.16    3.48    3.11   -13.94585   150.88464    -5.60254
    81  O   6.0   -0.31    1.23    1.80   -13.13398   150.02367    -7.58531
    82  C   4.0   -0.04    4.29    4.17   -18.53773   150.99042    -5.58015
    83  C   4.0   -0.04    4.14    3.88   -20.46756   149.21373    -6.80265
    84  C   4.0    0.24    3.10    3.02   -20.70350   149.76116    -9.69320
    85  O   6.0   -0.30    1.20    1.80   -20.25563   151.95902   -10.40512
    86  O   6.0   -0.31    1.16    1.80   -21.27772   147.95127   -11.08269
    87  H   1.0    0.07    1.06    1.44   -17.86913   150.18908    -0.77104
    88  H   1.0    0.05    1.05    1.44   -16.18140   147.67070    -4.84563
    89  H   1.0    0.04    1.04    1.43   -19.46146   152.08469    -4.11420
    90  H   1.0    0.07    1.06    1.44   -17.90457   152.29502    -7.05459
    91  H   1.0    0.04    1.02    1.43   -19.96952   147.22517    -6.54881
    92  H   1.0    0.03    1.02    1.43   -22.33585   149.48753    -5.96375
    93  N   5.0   -0.14    3.52    2.09   -13.20949   153.03198    -4.50787
    94  C   4.0    0.03    4.37    4.33   -11.16423   154.58856    -5.43430
    95  C   4.0    0.15    3.53    3.13    -8.53124   153.60420    -4.57584
    96  O   6.0   -0.32    1.34    1.80    -6.67865   153.59081    -5.98455
    97  C   4.0   -0.03    4.26    4.12   -11.55328   157.38386    -4.74407
    98  C   4.0   -0.03    4.03    3.67   -10.55036   158.10291    -2.11015
    99  S   6.0   -0.05    2.50    3.10    -7.03387   158.45129    -1.73054
   100  C   4.0   -0.06    3.88    3.43    -6.11250   161.00466    -3.95205
   101  H   1.0    0.11    1.11    1.45   -14.12448   153.68369    -2.95711
   102  H   1.0    0.05    1.06    1.44   -11.15035   154.38045    -7.49250
   103  H   1.0    0.05    1.03    1.43   -10.54465   158.52180    -6.14072
   104  H   1.0    0.06    1.04    1.43   -13.56170   157.82072    -4.83141
   105  H   1.0    0.04    1.06    1.44   -11.35113   159.90819    -1.54315
   106  H   1.0    0.07    1.08    1.44   -10.99431   156.68093    -0.70258
   107  H   1.0    0.03    1.05    1.44    -4.49716   161.87364    -3.05447
   108  H   1.0    0.06    1.04    1.43    -5.62421   160.14072    -5.74225
   109  H   1.0    0.05    1.04    1.43    -7.68713   162.28569    -4.14556
   110  N   5.0   -0.14    3.56    2.13    -8.38624   152.63471    -2.27387
   111  C   4.0    0.04    4.48    4.51    -6.25252   151.10110    -1.64181
   112  C   4.0    0.16    3.66    3.21    -5.52629   149.05244    -3.50628
   113  O   6.0   -0.33    1.47    1.80    -3.33171   148.81354    -4.19894
   114  C   4.0   -0.04    4.47    4.49    -6.98142   149.66216     0.72222
   115  C   4.0   -0.02    4.18    3.96    -5.51358   147.20857     1.27495
   116  C   4.0   -0.07    4.07    3.74    -2.56261   147.44870     0.92522
   117  C   4.0   -0.08    4.08    3.77    -6.34361   146.47881     3.99777
   118  H   1.0    0.11    1.12    1.45    -9.88773   152.61122    -1.08232
   119  H   1.0    0.04    1.05    1.44    -4.57717   152.29010    -1.36292
   120  H   1.0    0.04    1.03    1.43    -6.79384   150.91316     2.35443
   121  H   1.0    0.06    1.05    1.44    -8.96686   149.12746     0.57683
   122  H   1.0    0.05    1.05    1.44    -6.16378   145.67772     0.03652
   123  H   1.0    0.04    1.00    1.43    -1.59855   146.41936     2.42223
   124  H   1.0    0.06    1.01    1.43    -1.99626   146.62681    -0.85582
   125  H   1.0    0.04    1.00    1.43    -1.97398   149.40830     0.99883
   126  H   1.0    0.04    0.99    1.43    -5.56204   144.64860     4.52272
   127  H   1.0    0.04    1.00    1.43    -5.67539   147.87413     5.34845
   128  H   1.0    0.04    1.00    1.43    -8.39214   146.33723     4.10491
   129  N   5.0   -0.14    3.58    2.14    -7.29060   147.40361    -4.18870
   130  C   4.0    0.04    4.49    4.52    -6.72612   145.31754    -5.85270
   131  C   4.0    0.17    3.49    3.11    -4.75500   146.07751    -7.80678
   132  O   6.0   -0.32    1.25    1.80    -3.03370   144.67938    -8.44257
   133  C   4.0   -0.04    4.29    4.17    -9.18606   144.68461    -7.28901
   134  C   4.0   -0.03    4.14    3.87   -11.21507   143.45907    -5.62888
   135  C   4.0    0.24    3.07    3.02   -10.39073   140.86299    -4.38634
   136  O   6.0   -0.30    1.15    1.80   -11.81349   139.00412    -4.69234
   137  O   6.0   -0.30    1.19    1.80    -8.37198   140.87075    -3.15223
   138  H   1.0    0.10    1.09    1.44    -9.04045   147.42232    -3.41962
   139  H   1.0    0.07    1.06    1.44    -6.09637   143.63213    -4.81276
   140  H   1.0    0.06    1.03    1.43    -9.97138   146.40838    -8.11468
   141  H   1.0    0.04    1.03    1.43    -8.72134   143.36501    -8.81072
   142  H   1.0    0.07    1.04    1.43   -11.73806   144.69391    -4.06205
   143  H   1.0    0.05    1.02    1.43   -12.90827   143.10144    -6.75337
   144  N   5.0   -0.13    3.62    2.18    -5.41241   148.30718    -8.82069
   145  C   4.0    0.03    4.35    4.30    -4.46863   149.91651   -10.85240
   146  C   4.0    0.16    3.56    3.14    -1.80166   150.53776   -10.06011
   147  O   6.0   -0.31    1.39    1.80     0.14824   149.68680   -10.98710
   148  C   4.0   -0.05    4.25    4.10    -5.99461   152.38748   -11.28364
   149  C   4.0   -0.04    4.14    3.87    -8.81693   151.90400   -11.87909
   150  C   4.0   -0.04    4.15    3.89   -10.33383   154.27832   -12.57859
   151  C   4.0   -0.02    4.11    3.82   -13.21568   153.99560   -12.43900
   152  N   5.0   -0.10    4.01    2.89   -14.26910   152.36725   -14.45234
   153  H   1.0    0.09    1.14    1.45    -6.89993   149.09894    -7.92430
   154  H   1.0    0.04    1.04    1.43    -4.44613   148.81416   -12.61763
   155  H   1.0    0.07    1.06    1.44    -5.88490   153.64171    -9.67242
   156  H   1.0    0.04    1.03    1.43    -5.11344   153.30414   -12.91044
   157  H   1.0    0.04    1.02    1.43    -8.93772   150.54149   -13.42676
   158  H   1.0    0.06    1.03    1.43    -9.69881   151.03725   -10.22735
   159  H   1.0    0.05    1.03    1.43    -9.78117   155.80648   -11.31146
   160  H   1.0    0.06    1.04    1.43    -9.87461   154.86346   -14.50006
   161  H   1.0    0.06    1.03    1.43   -13.77611   153.19053   -10.62744
   162  H   1.0    0.07    1.03    1.43   -14.06404   155.85780   -12.67809
   163  H   1.0    0.08    1.03    1.43   -16.19971   152.46596   -14.34353
   164  H   1.0    0.11    1.08    1.44   -13.70637   152.77874   -16.40917
   165  H   1.0    0.07    1.03    1.43   -13.74630   150.53112   -14.13874
   166  N   5.0   -0.14    3.62    2.18    -1.76685   152.13013    -8.14025
   167  C   4.0    0.04    4.62    4.68     0.66752   152.73046    -7.09932
   168  C   4.0    0.17    3.73    3.26     2.37272   150.42894    -6.98664
   169  O   6.0   -0.32    1.43    1.80     4.37069   150.37973    -8.12468
   170  C   4.0   -0.05    4.50    4.53     0.21984   153.74852    -4.51268
   171  C   4.0   -0.03    4.26    4.12     2.73009   154.20083    -3.26456
   172  C   4.0   -0.08    4.15    3.89     4.58489   155.52366    -5.06301
   173  C   4.0   -0.08    4.10    3.80     2.18099   155.71898    -0.83414
   174  H   1.0    0.11    1.10    1.44    -3.34165   152.57628    -7.14216
   175  H   1.0    0.04    1.06    1.44     1.57199   154.10871    -8.35691
   176  H   1.0    0.04    1.03    1.43    -0.86339   155.50498    -4.64385
   177  H   1.0    0.05    1.04    1.43    -0.88762   152.39064    -3.43053
   178  H   1.0    0.04    1.06    1.44     3.54966   152.37940    -2.71372
   179  H   1.0    0.03    1.00    1.43     6.24217   156.09775    -3.98830
   180  H   1.0    0.05    1.02    1.43     5.21414   154.29130    -6.56389
   181  H   1.0    0.03    1.00    1.43     3.71388   157.20992    -5.84750
   182  H   1.0    0.04    1.00    1.43     3.91462   156.14949     0.18051
   183  H   1.0    0.03    1.00    1.43     1.19918   157.46106    -1.28940
   184  H   1.0    0.03    1.00    1.43     0.98165   154.59133     0.39755
   185  N   5.0   -0.15    3.52    2.09     1.63979   148.63850    -5.37035
   186  C   4.0    0.04    4.47    4.49     2.98238   146.28467    -5.45471
   187  C   4.0    0.18    3.76    3.30     3.77931   145.73844    -8.14036
   188  O   6.0   -0.31    1.56    1.80     6.01320   145.71361    -8.72507
   189  C   4.0   -0.04    4.21    4.02     1.57458   144.01868    -4.35181
   190  C   4.0   -0.04    4.10    3.80     3.38931   142.00918    -3.30153
   191  C   4.0    0.25    3.04    3.02     5.87758   141.26763    -4.91273
   192  O   6.0   -0.30    1.14    1.80     5.71198   140.41414    -7.13320
   193  O   6.0   -0.30    1.16    1.80     7.88877   141.56509    -3.69585
   194  H   1.0    0.12    1.14    1.45    -0.17849   148.59981    -4.78163
   195  H   1.0    0.05    1.06    1.44     4.76623   146.49177    -4.38355
   196  H   1.0    0.04    1.03    1.43     0.37308   144.63966    -2.79139
   197  H   1.0    0.06    1.03    1.43     0.34466   143.18790    -5.78625
   198  H   1.0    0.05    1.03    1.43     4.16632   142.65220    -1.50299
   199  H   1.0    0.05    1.01    1.43     2.33121   140.26224    -2.94388
   200  N   5.0   -0.13    3.57    2.13     2.13350   145.19580    -9.93668
   201  C   4.0    0.05    4.71    4.77     3.48274   144.11985   -12.05547
   202  C   4.0    0.17    3.64    3.19     5.43064   145.89891   -13.23353
   203  O   6.0   -0.33    1.45    1.80     7.11145   145.03337   -14.61953
   204  C   4.0   -0.02    4.30    4.20     1.75419   143.15132   -14.11807
   205  C   4.0   -0.07    4.18    3.96    -0.35974   141.69574   -12.87056
   206  C   4.0   -0.07    4.16    3.92     0.77725   145.32678   -15.70505
   207  H   1.0    0.11    1.10    1.44     0.25850   144.95419    -9.66282
   208  H   1.0    0.06    1.07    1.44     4.57749   142.50264   -11.31906
   209  H   1.0    0.05    1.05    1.44     2.84751   141.85779   -15.31724
   210  H   1.0    0.04    1.00    1.43    -1.33906   140.50294   -14.23910
   211  H   1.0    0.05    1.00    1.43     0.35475   140.46759   -11.37890
   212  H   1.0    0.06    1.01    1.43    -1.76593   142.93953   -12.04206
   213  H   1.0    0.04    1.00    1.43    -0.77981   144.72491   -16.91453
   214  H   1.0    0.06    1.01    1.43     0.09355   146.81193   -14.45657
   215  H   1.0    0.05    1.00    1.43     2.26484   146.07633   -16.90631
   216  N   5.0   -0.14    3.58    2.14     5.16871   148.37290   -13.01761
   217  C   4.0    0.04    4.62    4.69     7.07435   149.89427   -14.23190
   218  C   4.0    0.15    3.54    3.13     9.62091   149.82318   -12.85732
   219  O   6.0   -0.31    1.28    1.80    11.60107   150.02699   -14.05861
   220  C   4.0   -0.02    4.28    4.15     6.30016   152.64599   -14.55196
   221  C   4.0   -0.07    4.13    3.86     8.25738   153.85659   -16.35467
   222  C   4.0   -0.07    4.14    3.87     3.60687   152.68226   -15.58698
   223  H   1.0    0.12    1.10    1.44     3.91291   149.12556   -11.79166
   224  H   1.0    0.06    1.07    1.44     7.38050   149.09372   -16.11964
   225  H   1.0    0.04    1.05    1.44     6.34819   153.58620   -12.71213
   226  H   1.0    0.04    1.00    1.43     7.85802   155.85536   -16.59734
   227  H   1.0    0.06    1.02    1.43    10.14700   153.64739   -15.59552
   228  H   1.0    0.05    1.00    1.43     8.17721   152.89010   -18.16433
   229  H   1.0    0.04    1.00    1.43     3.08894   154.59757   -16.13326
   230  H   1.0    0.05    1.00    1.43     3.47755   151.46848   -17.23959
   231  H   1.0    0.06    1.01    1.43     2.27481   152.01757   -14.17826
   232  N   5.0   -0.14    3.54    2.11     9.50918   149.78433   -10.32422
   233  C   4.0    0.04    4.52    4.57    11.56026   148.64113    -8.93554
   234  C   4.0    0.16    3.64    3.19    12.25128   146.22307   -10.33030
   235  O   6.0   -0.29    1.45    1.80    14.22478   146.22125   -11.54763
   236  C   4.0   -0.02    4.30    4.20    10.68563   148.13405    -6.24891
   237  C   4.0   -0.08    4.11    3.82    12.84570   147.05443    -4.68156
   238  C   4.0   -0.08    4.13    3.86     9.45565   150.48607    -5.10781
   239  H   1.0    0.11    1.12    1.45     7.77428   149.53080    -9.54237
   240  H   1.0    0.05    1.04    1.43    13.25529   149.87247    -8.96858
   241  H   1.0    0.07    1.08    1.44     9.23016   146.66510    -6.33383
   242  H   1.0    0.04    1.00    1.43    12.17215   146.34805    -2.88266
   243  H   1.0    0.05    1.01    1.43    13.74058   145.51916    -5.70167
   244  H   1.0    0.03    1.00    1.43    14.29158   148.46702    -4.27594
   245  H   1.0    0.03    1.00    1.43     9.26577   150.23410    -3.07666
   246  H   1.0    0.03    1.00    1.43    10.61910   152.16259    -5.39679
   247  H   1.0    0.06    1.02    1.43     7.60744   150.80719    -5.90421
   248  N   5.0   -0.13    3.48    2.06    10.80815   144.15699   -10.34364
   249  C   4.0    0.05    4.50    4.54    11.84103   142.03207   -11.65527
   250  C   4.0    0.17    3.71    3.25    13.02622   142.91773   -14.16470
   251  O   6.0   -0.28    1.36    1.80    15.06148   142.03585   -14.91744
   252  C   4.0   -0.03    4.25    4.11     9.92660   139.89919   -12.01720
   253  C   4.0    0.15    3.26    3.05    11.42291   137.70473   -13.21293
   254  O   6.0   -0.30    1.20    1.80    12.64630   136.24684   -11.92129
   255  N   5.0   -0.19    3.18    1.95    11.41881   137.50053   -15.80662
   256  H   1.0    0.12    1.09    1.44     9.06358   144.08400    -9.54824
   257  H   1.0    0.06    1.07    1.44    13.46502   141.24226   -10.66528
   258  H   1.0    0.07    1.02    1.43     9.12006   139.30168   -10.21216
   259  H   1.0    0.05    1.02    1.43     8.41556   140.53676   -13.26632
   260  H   1.0    0.09    1.03    1.43    12.85872   136.47026   -16.52415
   261  H   1.0    0.08    1.03    1.43    10.97073   139.05604   -16.80741
   262  N   5.0   -0.13    3.64    2.20    11.79343   144.42240   -15.71566
   263  C   4.0    0.04    4.62    4.68    13.02190   144.84586   -18.08242
   264  C   4.0    0.17    3.53    3.13    15.75794   145.68323   -17.87914
   265  O   6.0   -0.29    1.26    1.80    17.38409   144.63239   -19.14468
   266  C   4.0   -0.04    4.39    4.37    11.35498   146.63363   -19.48443
   267  C   4.0   -0.03    4.30    4.20     9.02829   145.10278   -20.12748
   268  C   4.0    0.24    3.16    3.03     7.89983   146.47570   -22.43541
   269  O   6.0   -0.33    1.29    1.80     6.44291   148.23657   -21.75215
   270  O   6.0   -0.32    1.14    1.80     8.53940   145.85773   -24.65503
   271  H   1.0    0.12    1.17    1.46    10.05339   145.13624   -15.35281
   272  H   1.0    0.05    1.07    1.44    13.16251   143.04517   -19.12979
   273  H   1.0    0.06    1.03    1.43    10.93619   148.29703   -18.35343
   274  H   1.0    0.05    1.04    1.43    12.29826   147.23017   -21.22796
   275  H   1.0    0.04    1.03    1.43     9.55539   143.19305   -20.71457
   276  H   1.0    0.07    1.04    1.43     7.65791   145.00722   -18.60695
   277  N   5.0   -0.14    3.44    2.04    16.25873   147.67427   -16.41044
   278  C   4.0    0.04    4.29    4.18    18.88010   148.35173   -15.89005
   279  C   4.0    0.09    3.21    3.04    20.40238   146.00556   -14.96098
   280  O   6.0   -0.31    1.10    1.80    22.41460   145.37321   -15.93733
   281  C   4.0   -0.05    4.19    3.98    19.18279   150.58058   -14.04919
   282  C   4.0   -0.05    4.13    3.85    17.91156   153.03506   -14.91902
   283  C   4.0   -0.02    4.10    3.81    19.06099   154.63956   -17.05774
   284  N   5.0   -0.15    3.31    1.99    21.63225   155.64631   -16.66400
   285  C   4.0    0.08    3.29    3.05    22.50801   157.94705   -15.94736
   286  N   5.0   -0.19    3.23    1.96    21.16022   159.50816   -14.48994
   287  N   5.0   -0.21    3.21    1.96    24.86609   158.71114   -16.60761
   288  H   1.0    0.12    1.09    1.44    14.89510   148.27744   -15.19902
   289  H   1.0    0.05    1.05    1.44    19.73960   148.85678   -17.71944
   290  H   1.0    0.05    1.03    1.43    18.33153   150.02761   -12.25550
   291  H   1.0    0.04    1.03    1.43    21.21025   150.85960   -13.78852
   292  H   1.0    0.05    1.03    1.43    15.98579   152.57171   -15.49411
   293  H   1.0    0.04    1.03    1.43    17.77334   154.23921   -13.24523
   294  H   1.0    0.03    1.02    1.43    19.13877   153.52653   -18.79292
   295  H   1.0    0.04    1.03    1.43    17.79228   156.24132   -17.34685
   296  H   1.0    0.06    1.07    1.44    22.98237   154.45621   -17.32293
   297  H   1.0    0.10    1.04    1.43    19.32356   159.12004   -14.11018
   298  H   1.0    0.08    1.03    1.43    21.51197   161.38399   -14.44836
   299  H   1.0    0.06    1.02    1.43    26.05516   157.53108   -17.51816
   300  H   1.0    0.06    1.03    1.43    25.48342   160.42991   -16.06089
   301  N   5.0   -0.24    3.20    1.96   -11.22725   179.24288    -1.27270
   302  C   4.0    0.02    4.18    3.95    -9.06899   177.56009    -1.25753
   303  C   4.0    0.13    3.31    3.06    -9.32691   175.05816    -2.85279
   304  O   6.0   -0.34    1.32    1.80    -7.81374   174.62495    -4.52025
   305  C   4.0   -0.09    4.11    3.83    -8.48786   177.10705     1.53475
   306  H   1.0    0.05    1.04    1.43   -11.81596   179.79656     0.45545
   307  H   1.0    0.03    1.05    1.44    -7.45703   178.51732    -2.15724
   308  H   1.0    0.03    1.00    1.43    -6.81585   175.92708     1.74241
   309  H   1.0    0.01    1.00    1.43    -8.09908   178.91064     2.44688
   310  H   1.0    0.02    1.00    1.43   -10.06050   176.18760     2.49084
   311  N   5.0   -0.16    3.36    2.01   -11.10375   173.30848    -2.28304
   312  C   4.0    0.03    4.28    4.16   -10.71880   170.65294    -2.94203
   313  C   4.0    0.06    3.28    3.05   -11.99430   169.83887    -5.37207
   314  O   6.0   -0.32    1.20    1.80   -11.41572   167.84417    -6.39470
   315  C   4.0   -0.05    4.33    4.26   -11.86184   168.81104    -0.92787
   316  C   4.0   -0.03    4.13    3.86   -10.13159   167.80471     1.19952
   317  C   4.0   -0.09    4.09    3.78   -11.62143   166.45208     3.28445
   318  C   4.0   -0.08    4.11    3.82    -8.19594   165.95241     0.11085
   319  H   1.0    0.06    1.06    1.44   -12.30694   173.62153    -0.82641
   320  H   1.0    0.05    1.06    1.44    -8.68928   170.33034    -3.16286
   321  H   1.0    0.03    1.03    1.43   -13.47946   169.75107    -0.06371
   322  H   1.0    0.05    1.05    1.44   -12.55990   167.14817    -1.93004
   323  H   1.0    0.03    1.05    1.44    -9.12825   169.40229     2.05311
   324  H   1.0    0.03    1.00    1.43   -10.34460   165.87327     4.78483
   325  H   1.0    0.02    0.99    1.43   -13.08476   167.63773     4.11068
   326  H   1.0    0.03    1.00    1.43   -12.52397   164.76285     2.53888
   327  H   1.0    0.03    1.00    1.43    -6.91067   165.30579     1.57872
   328  H   1.0    0.04    1.00    1.43    -9.12456   164.31019    -0.69211
   329  H   1.0    0.03    1.00    1.43    -7.08242   166.86217    -1.35489
   330  N   5.0   -0.21    3.39    2.02   -12.45850   171.10000   -10.83384
   331  C   4.0    0.02    4.31    4.23   -10.62018   171.66465   -12.76439
   332  C   4.0    0.14    3.33    3.06    -8.58710   169.48362   -12.95676
   333  O   6.0   -0.31    1.18    1.80    -7.44634   168.83112   -14.85644
   334  C   4.0   -0.03    4.29    4.17    -9.62085   174.36811   -11.91290
   335  C   4.0   -0.04    4.21    4.03    -7.65081   174.24497    -9.76763
   336  C   4.0   -0.09    4.15    3.89   -11.76267   176.16104   -11.08021
   337  C   4.0   -0.08    4.04    3.68    -6.49511   176.77740    -8.98043
   338  H   1.0    0.08    1.09    1.44   -12.08807   172.11997    -9.26220
   339  H   1.0    0.03    1.04    1.43   -11.51634   171.81534   -14.62233
   340  H   1.0    0.03    1.05    1.44    -8.68093   175.18010   -13.56635
   341  H   1.0    0.06    1.05    1.44    -8.48071   173.36604    -8.10810
   342  H   1.0    0.04    1.03    1.43    -6.09838   173.05630   -10.44369
   343  H   1.0    0.02    1.00    1.43   -11.13635   178.09218   -11.39187
   344  H   1.0    0.02    1.00    1.43   -13.47273   175.86639   -12.17665
   345  H   1.0    0.03    1.00    1.43   -12.16968   176.01213    -9.07363
   346  H   1.0    0.04    1.00    1.43    -4.97572   176.42802    -7.64656
   347  H   1.0    0.02    1.00    1.43    -5.69527   177.73445   -10.61844
   348  H   1.0    0.03    1.00    1.43    -7.84788   178.02963    -8.07794
   349  N   5.0   -0.15    3.56    2.12    -8.28610   168.39621   -10.70293
   350  C   4.0    0.03    4.35    4.29    -6.73085   166.27244   -10.06754
   351  C   4.0    0.15    3.44    3.09    -8.29005   163.81574   -10.37953
   352  O   6.0   -0.32    1.29    1.80    -8.19707   162.06093    -8.88784
   353  C   4.0   -0.04    4.37    4.33    -5.82657   166.34636    -7.30236
   354  C   4.0   -0.03    4.14    3.88    -3.43496   167.83991    -6.61571
   355  C   4.0   -0.07    4.11    3.82    -3.96465   170.54359    -5.78831
   356  C   4.0   -0.09    4.12    3.84    -2.12119   166.47528    -4.40072
   357  H   1.0    0.11    1.16    1.45    -9.65911   168.78303    -9.42311
   358  H   1.0    0.04    1.06    1.44    -5.14882   166.21834   -11.39229
   359  H   1.0    0.06    1.04    1.43    -7.40911   166.94837    -6.13728
   360  H   1.0    0.05    1.08    1.44    -5.44823   164.37916    -6.84406
   361  H   1.0    0.03    1.05    1.44    -2.15550   167.85359    -8.23927
   362  H   1.0    0.03    1.00    1.43    -2.21785   171.62397    -5.74046
   363  H   1.0    0.05    1.02    1.43    -5.27081   171.47969    -7.03466
   364  H   1.0    0.04    1.00    1.43    -4.73986   170.55727    -3.88521
   365  H   1.0    0.03    1.00    1.43    -0.49526   167.56252    -3.76673
   366  H   1.0    0.03    1.00    1.43    -3.41012   166.24518    -2.82424
   367  H   1.0    0.03    1.00    1.43    -1.45864   164.61705    -4.97927
   368  N   5.0   -0.14    3.53    2.10    -9.80122   163.73900   -12.42404
   369  C   4.0    0.04    4.36    4.31   -11.43848   161.58067   -12.78525
   370  C   4.0    0.16    3.47    3.10   -10.79930   160.34272   -15.30983
   371  O   6.0   -0.30    1.31    1.80   -11.72397   158.32533   -15.91600
   372  C   4.0   -0.02    4.22    4.04   -14.30582   162.32498   -12.45271
   373  C   4.0    0.15    3.16    3.03   -16.16829   160.42970   -11.26641
   374  O   6.0   -0.29    1.19    1.80   -17.43649   158.95138   -12.50236
   375  N   5.0   -0.19    3.17    1.95   -16.44674   160.62967    -8.74401
   376  H   1.0    0.10    1.08    1.44   -10.08012   165.26626   -13.52751
   377  H   1.0    0.06    1.08    1.44   -10.92675   160.24906   -11.27701
   378  H   1.0    0.05    1.04    1.43   -14.30064   164.02227   -11.28690
   379  H   1.0    0.07    1.03    1.43   -15.03635   162.86050   -14.30333
   380  H   1.0    0.09    1.03    1.43   -17.54601   159.34533    -7.86197
   381  H   1.0    0.08    1.03    1.43   -15.23441   161.63851    -7.68058
   382  N   5.0   -0.13    3.60    2.16    -9.09466   161.44336   -16.88623
   383  C   4.0    0.04    4.56    4.61    -9.53667   160.81221   -19.52278
   384  C   4.0    0.14    3.54    3.13    -7.01729   160.18194   -20.58765
   385  O   6.0   -0.32    1.30    1.80    -6.27602   161.19772   -22.53744
   386  C   4.0   -0.03    4.34    4.27   -10.77637   162.80729   -21.18889
   387  C   4.0    0.15    3.23    3.04   -12.15238   164.86426   -19.73190
   388  O   6.0   -0.30    1.28    1.80   -12.73616   164.69361   -17.49751
   389  N   5.0   -0.20    3.18    1.95   -12.61499   166.97743   -21.09215
   390  H   1.0    0.09    1.07    1.44    -8.46133   163.20951   -16.51884
   391  H   1.0    0.07    1.09    1.44   -10.71407   159.09705   -19.49585
   392  H   1.0    0.05    1.06    1.44    -9.32726   163.74191   -22.32508
   393  H   1.0    0.04    1.03    1.43   -12.10159   161.88596   -22.46674
   394  H   1.0    0.08    1.03    1.43   -13.74780   168.29491   -20.31757
   395  H   1.0    0.06    1.03    1.43   -12.22033   167.10776   -22.94746
   396  N   5.0   -0.15    3.48    2.06    -5.66087   158.62839   -19.12675
   397  C   4.0    0.03    4.46    4.47    -3.92604   156.84109   -20.23568
   398  C   4.0    0.08    3.30    3.05    -2.19891   158.05202   -22.16772
   399  O   6.0   -0.35    1.38    1.80    -0.03410   158.44196   -21.42245
   400  C   4.0   -0.02    4.31    4.22    -5.16668   154.35926   -21.16497
   401  C   4.0   -0.04    4.25    4.10    -3.14897   152.33614   -20.87182
   402  C   4.0   -0.07    4.08    3.77    -6.18152   154.22247   -23.88531
   403  C   4.0   -0.08    4.05    3.71    -2.50112   151.82932   -18.13030
   404  H   1.0    0.08    1.10    1.44    -6.60905   157.94145   -17.60467
   405  H   1.0    0.04    1.10    1.44    -2.64772   156.29819   -18.70622
   406  H   1.0    0.05    1.05    1.44    -6.75020   153.92864   -19.89559
   407  H   1.0    0.06    1.03    1.43    -3.82240   150.59908   -21.75704
   408  H   1.0    0.05    1.03    1.43    -1.45000   152.91432   -21.89206
   409  H   1.0    0.05    1.00    1.43    -7.05254   152.37917   -24.13794
   410  H   1.0    0.04    0.99    1.43    -7.62347   155.64875   -24.25597
   411  H   1.0    0.04    1.00    1.43    -4.66723   154.32818   -25.26134
   412  H   1.0    0.04    1.00    1.43    -1.32842   150.14542   -18.01318
   413  H   1.0    0.04    1.00    1.43    -1.45346   153.35153   -17.23707
   414  H   1.0    0.04    1.00    1.43    -4.21577   151.47742   -17.05332
   415  N   5.0   -0.21    3.33    1.99     0.49451   162.74032   -19.10776
   416  C   4.0    0.03    4.47    4.49     2.11146   161.81148   -17.16094
   417  C   4.0    0.14    3.58    3.16     4.60756   161.08700   -18.30027
   418  O   6.0   -0.33    1.50    1.80     6.56831   162.08831   -17.58717
   419  C   4.0   -0.05    4.37    4.33     0.80412   159.74636   -15.66269
   420  C   4.0   -0.03    4.24    4.08    -0.16354   161.06659   -13.30936
   421  C   4.0   -0.08    4.15    3.91    -2.00097   163.19081   -14.08186
   422  C   4.0   -0.08    4.07    3.75    -1.22441   159.22148   -11.35848
   423  H   1.0    0.12    1.12    1.45    -0.31546   161.40967   -20.19687
   424  H   1.0    0.04    1.09    1.44     2.56550   163.39938   -15.91609
   425  H   1.0    0.05    1.04    1.43    -0.74444   158.94373   -16.73884
   426  H   1.0    0.04    1.03    1.43     2.13895   158.25963   -15.16104
   427  H   1.0    0.03    1.06    1.44     1.46390   161.97439   -12.39980
   428  H   1.0    0.04    1.01    1.43    -2.63791   164.08427   -12.34921
   429  H   1.0    0.04    1.01    1.43    -1.11292   164.64641   -15.20804
   430  H   1.0    0.05    1.00    1.43    -3.64320   162.47687   -15.08979
   431  H   1.0    0.04    1.00    1.43    -1.76410   160.23992    -9.66061
   432  H   1.0    0.04    1.00    1.43    -2.89312   158.25588   -12.07736
   433  H   1.0    0.04    1.00    1.43     0.19700   157.82126   -10.88660
   434  N   5.0   -0.15    3.57    2.14     4.59020   159.40792   -20.15025
   435  C   4.0    0.04    4.46    4.48     6.94929   158.99954   -21.39911
   436  C   4.0    0.10    3.49    3.11     8.17675   161.57642   -21.50333
   437  O   6.0   -0.31    1.16    1.80    10.40299   161.64568   -20.88855
   438  C   4.0   -0.06    4.25    4.11     6.63519   157.72012   -23.92495
   439  C   4.0   -0.05    4.22    4.03     6.36812   154.87239   -23.54939
   440  C   4.0   -0.01    4.19    3.98     3.62757   153.97945   -23.25206
   441  N   5.0   -0.14    3.41    2.03     3.47924   151.47706   -24.37359
   442  C   4.0    0.09    3.34    3.06     2.64863   150.90470   -26.65824
   443  N   5.0   -0.19    3.22    1.96     0.78761   152.29816   -27.77769
   444  N   5.0   -0.19    3.21    1.96     3.77112   149.08863   -28.06522
   445  H   1.0    0.11    1.15    1.45     3.01428   158.46657   -20.66467
   446  H   1.0    0.05    1.07    1.44     8.21327   157.85633   -20.20664
   447  H   1.0    0.04    1.03    1.43     4.99805   158.50537   -24.89599
   448  H   1.0    0.03    1.03    1.43     8.28771   158.12953   -25.07965
   449  H   1.0    0.04    1.04    1.43     7.08413   153.94472   -25.24609
   450  H   1.0    0.04    1.03    1.43     7.48633   154.20119   -21.96210
   451  H   1.0    0.04    1.02    1.43     3.07576   153.83704   -21.27057
   452  H   1.0    0.05    1.03    1.43     2.34183   155.24961   -24.24078
   453  H   1.0    0.12    1.13    1.45     4.70839   150.17383   -23.50442
   454  H   1.0    0.08    1.03    1.43    -0.60724   152.86313   -26.59697
   455  H   1.0    0.08    1.04    1.43     0.09091   151.46551   -29.35387
   456  H   1.0    0.10    1.03    1.43     5.14696   148.04735   -27.23392
   457  H   1.0    0.08    1.03    1.43     2.81058   148.22720   -29.46814
   458  N   5.0   -0.22    3.16    1.95    10.35420   165.05664   -15.54111
   459  C   4.0    0.04    4.12    3.85    12.09806   163.04107   -14.75448
   460  C   4.0    0.07    3.18    3.03    14.54005   162.80006   -16.36199
   461  O   6.0   -0.33    1.14    1.80    16.44757   161.96398   -15.34717
   462  C   4.0   -0.06    4.11    3.83    10.83534   160.42721   -14.76296
   463  H   1.0    0.12    1.07    1.44     8.80917   164.41233   -16.48306
   464  H   1.0    0.04    1.05    1.44    12.75373   163.49912   -12.84261
   465  H   1.0    0.04    1.00    1.43    12.15039   159.06183   -13.97784
   466  H   1.0    0.04    1.00    1.43     9.11109   160.43911   -13.65427
   467  H   1.0    0.07    1.01    1.43    10.39816   159.92737   -16.69816
   468  N   5.0   -0.23    3.19    1.95    12.99356   157.98756     5.73904
   469  C   4.0    0.02    4.28    4.16    10.55697   159.18309     5.99039
   470  C   4.0    0.14    3.35    3.06     8.15800   157.49247     5.90134
   471  O   6.0   -0.31    1.22    1.80     6.40437   157.89847     7.35222
   472  C   4.0   -0.05    4.34    4.28    10.27623   161.44837     4.21735
   473  C   4.0   -0.05    3.97    3.57     9.90543   161.09584     1.37854
   474  S   6.0   -0.07    2.41    3.10    10.14405   164.36999    -0.01695
   475  C   4.0   -0.09    3.84    3.38    13.53807   165.27040     0.22344
   476  H   1.0    0.07    1.02    1.43    13.53091   157.22620     4.07449
   477  H   1.0    0.04    1.06    1.44    10.56795   159.94583     7.92252
   478  H   1.0    0.06    1.04    1.43     8.65590   162.51843     4.93315
   479  H   1.0    0.03    1.05    1.44    11.99399   162.56079     4.52864
   480  H   1.0    0.03    1.05    1.44    11.35418   159.91653     0.51891
   481  H   1.0    0.04    1.05    1.44     8.03499   160.39955     0.89544
   482  H   1.0    0.03    1.03    1.43    14.15357   165.85851    -1.63547
   483  H   1.0    0.02    1.03    1.43    13.71409   166.79901     1.57661
   484  H   1.0    0.02    1.03    1.43    14.62087   163.65879     0.88583
   485  N   5.0   -0.15    3.41    2.03     8.22954   155.68979     4.07619
   486  C   4.0    0.03    4.34    4.27     7.13002   153.18405     4.28957
   487  C   4.0    0.07    3.30    3.05     7.63775   151.86513     6.80138
   488  O   6.0   -0.33    1.22    1.80     5.80757   151.18442     8.03385
   489  C   4.0   -0.06    4.34    4.28     8.10645   151.51962     2.17746
   490  C   4.0   -0.02    4.20    4.01     7.26066   148.78863     2.62675
   491  C   4.0   -0.07    4.05    3.70     4.35702   148.42046     2.28080
   492  C   4.0   -0.08    4.03    3.68     8.90360   146.82848     1.13355
   493  H   1.0    0.07    1.10    1.44     9.89198   155.64985     3.12729
   494  H   1.0    0.05    1.06    1.44     5.06262   153.35119     4.18257
   495  H   1.0    0.03    1.02    1.43     7.42985   152.19392     0.34971
   496  H   1.0    0.03    1.03    1.43    10.17372   151.56534     2.17551
   497  H   1.0    0.05    1.09    1.44     7.65210   148.32542     4.61521
   498  H   1.0    0.05    1.00    1.43     3.86794   146.51350     2.86951
   499  H   1.0    0.04    1.00    1.43     3.33130   149.74749     3.45463
   500  H   1.0    0.04    0.99    1.43     3.82723   148.67498     0.31072
   501  H   1.0    0.05    1.00    1.43     8.49463   144.96166     1.89485
   502  H   1.0    0.04    0.99    1.43     8.43274   146.80344    -0.86490
   503  H   1.0    0.03    1.00    1.43    10.90176   147.21601     1.39154
   504  N   5.0   -0.21    3.25    1.97     2.43663   156.13078    10.87032
   505  C   4.0    0.03    4.36    4.31    -0.16303   155.49421    10.45164
   506  C   4.0    0.14    3.83    3.37    -0.58635   152.68235    10.67856
   507  O   6.0   -0.33    1.55    1.80    -2.70116   151.89627    11.18566
   508  C   4.0   -0.05    4.41    4.40    -1.20130   156.45165     7.97070
   509  C   4.0   -0.02    4.30    4.20    -2.72870   154.46333     6.62811
   510  C   4.0   -0.08    4.10    3.81    -4.12513   155.80149     4.45299
   511  C   4.0   -0.07    4.24    4.08    -1.02226   152.25546     5.82638
   512  H   1.0    0.12    1.04    1.44     3.66126   156.36757     9.41844
   513  H   1.0    0.03    1.07    1.44    -1.19508   156.36260    12.02045
   514  H   1.0    0.03    1.03    1.43    -2.34574   158.14132     8.27961
   515  H   1.0    0.04    1.04    1.43     0.38699   157.00400     6.76460
   516  H   1.0    0.05    1.09    1.44    -4.18758   153.75927     7.88622
   517  H   1.0    0.04    1.00    1.43    -5.26233   154.47676     3.38052
   518  H   1.0    0.03    1.00    1.43    -5.36427   157.24843     5.21225
   519  H   1.0    0.03    1.00    1.43    -2.78237   156.68416     3.17173
   520  H   1.0    0.04    1.01    1.43    -1.68945   150.45644     6.52394
   521  H   1.0    0.03    1.00    1.43    -1.08059   152.10845     3.76367
   522  H   1.0    0.05    1.02    1.43     0.95218   152.52357     6.30077
   523  N   5.0   -0.15    3.65    2.21     1.24261   151.02471    10.37208
   524  C   4.0    0.04    4.51    4.55     0.20360   148.55131    10.47032
   525  C   4.0    0.09    3.41    3.08    -0.73992   148.40464    13.17800
   526  O   6.0   -0.31    1.14    1.80    -2.80656   147.52411    13.69002
   527  C   4.0   -0.04    4.24    4.08     1.83409   146.69715     9.00013
   528  C   4.0   -0.03    4.10    3.80     4.22917   145.53861    10.15030
   529  C   4.0    0.24    3.06    3.02     5.53655   143.67805     8.17355
   530  O   6.0   -0.31    1.19    1.80     4.20619   143.14107     6.29412
   531  O   6.0   -0.32    1.14    1.80     7.77577   142.96830     8.59043
   532  H   1.0    0.11    1.12    1.45     3.01264   151.32316     9.73850
   533  H   1.0    0.06    1.11    1.45    -1.59290   148.52763     9.41270
   534  H   1.0    0.05    1.03    1.43     0.65867   145.09179     8.43388
   535  H   1.0    0.05    1.04    1.43     2.38521   147.65278     7.25770
   536  H   1.0    0.05    1.02    1.43     5.62121   146.96867    10.66607
   537  H   1.0    0.03    1.02    1.43     3.78268   144.45016    11.85104
   538  N   5.0   -0.23    3.30    1.98    -7.19477   151.62248    14.75536
   539  C   4.0    0.03    4.39    4.36    -9.32496   150.26380    13.96019
   540  C   4.0    0.06    3.25    3.04   -10.25553   148.29705    15.79813
   541  O   6.0   -0.33    1.13    1.80   -12.47185   147.57807    15.82100
   542  C   4.0   -0.02    4.35    4.29    -8.73688   149.20102    11.39372
   543  C   4.0   -0.07    4.18    3.95   -11.07627   147.82809    10.43438
   544  C   4.0   -0.08    4.18    3.97    -8.06396   151.29917     9.57950
   545  H   1.0    0.11    1.06    1.44    -5.50537   151.13954    14.01411
   546  H   1.0    0.03    1.06    1.44   -10.93719   151.58890    13.76942
   547  H   1.0    0.06    1.06    1.44    -7.16635   147.86567    11.57316
   548  H   1.0    0.04    1.00    1.43   -10.80377   147.17001     8.50409
   549  H   1.0    0.06    1.00    1.43   -11.48581   146.16227    11.56263
   550  H   1.0    0.04    1.00    1.43   -12.72154   149.06017    10.47965
   551  H   1.0    0.04    1.00    1.43    -7.60207   150.48613     7.75064
   552  H   1.0    0.03    1.00    1.43    -9.67236   152.55894     9.31548
   553  H   1.0    0.06    1.03    1.43    -6.46668   152.36354    10.26115
   554  N   5.0   -0.24    3.19    1.95   -13.07411   146.23361   -26.93907
   555  C   4.0    0.03    4.20    4.01   -12.27965   146.86866   -24.40303
   556  C   4.0    0.06    3.22    3.04   -12.01488   144.45336   -22.80435
   557  O   6.0   -0.31    1.12    1.80   -10.54005   144.26539   -21.05438
   558  C   4.0   -0.04    4.26    4.12   -14.15770   148.60195   -23.06800
   559  C   4.0   -0.04    4.10    3.81   -13.82236   151.39699   -23.73421
   560  C   4.0    0.24    3.06    3.02   -14.11019   153.14238   -21.25708
   561  O   6.0   -0.32    1.33    1.80   -13.16104   152.15712   -19.30698
   562  O   6.0   -0.30    1.13    1.80   -15.11747   155.27364   -21.34248
   563  H   1.0    0.06    1.02    1.43   -13.95952   147.56171   -28.01419
   564  H   1.0    0.05    1.05    1.44   -10.40954   147.78817   -24.42174
   565  H   1.0    0.03    1.02    1.43   -16.08348   147.95488   -23.41599
   566  H   1.0    0.07    1.05    1.44   -13.77453   148.44238   -21.04027
   567  H   1.0    0.04    1.03    1.43   -11.88925   151.73756   -24.37592
   568  H   1.0    0.03    1.01    1.43   -15.09217   152.10042   -25.19224
   569  N   5.0   -0.21    3.36    2.00    -8.20486   138.96573   -24.31113
   570  C   4.0    0.02    4.29    4.19    -5.54333   139.30263   -24.21289
   571  C   4.0    0.15    3.53    3.13    -4.94455   138.55884   -21.50521
   572  O   6.0   -0.30    1.31    1.80    -3.14867   137.20935   -20.99319
   573  C   4.0   -0.04    4.24    4.07    -4.75283   141.64174   -25.68308
   574  C   4.0   -0.03    4.10    3.80    -4.94705   144.29521   -24.53291
   575  C   4.0    0.24    3.06    3.02    -3.98945   146.35772   -26.50966
   576  O   6.0   -0.32    1.19    1.80    -2.85922   145.47408   -28.38909
   577  O   6.0   -0.32    1.14    1.80    -4.49439   148.65182   -26.09279
   578  H   1.0    0.07    1.03    1.43    -9.34835   140.34939   -24.94471
   579  H   1.0    0.04    1.07    1.44    -4.62457   137.75865   -25.27051
   580  H   1.0    0.05    1.03    1.43    -2.77483   141.42648   -26.24933
   581  H   1.0    0.04    1.04    1.43    -5.85599   141.64122   -27.42551
   582  H   1.0    0.06    1.02    1.43    -6.88153   144.78573   -24.01714
   583  H   1.0    0.05    1.02    1.43    -3.78117   144.45277   -22.83217
   584  N   5.0   -0.15    3.49    2.07    -6.70172   139.10861   -19.72366
   585  C   4.0    0.04    4.51    4.55    -5.76014   138.40715   -17.24509
   586  C   4.0    0.08    3.45    3.10    -5.75034   135.60498   -16.93201
   587  O   6.0   -0.33    1.30    1.80    -4.10726   134.50121   -15.68794
   588  C   4.0   -0.03    4.26    4.12    -7.16884   139.38305   -14.88404
   589  C   4.0   -0.08    4.11    3.82    -9.91403   140.05151   -15.46096
   590  C   4.0   -0.07    4.19    3.97    -6.93665   137.51964   -12.63812
   591  H   1.0    0.09    1.06    1.44    -7.70936   140.72261   -19.90829
   592  H   1.0    0.06    1.07    1.44    -3.77243   139.01345   -17.09623
   593  H   1.0    0.04    1.05    1.44    -6.22076   141.13446   -14.28874
   594  H   1.0    0.04    1.00    1.43   -10.79907   140.77172   -13.74864
   595  H   1.0    0.05    1.00    1.43   -10.01524   141.52092   -16.89208
   596  H   1.0    0.04    1.00    1.43   -10.94071   138.39993   -16.08903
   597  H   1.0    0.04    1.00    1.43    -7.66995   138.42468   -10.93816
   598  H   1.0    0.04    1.01    1.43    -8.01119   135.80160   -12.94364
   599  H   1.0    0.06    1.01    1.43    -4.97704   137.03637   -12.27410
   600  N   5.0   -0.21    3.39    2.02    -0.18918   132.12209   -17.15134
   601  C   4.0    0.05    4.48    4.52     1.70996   132.05305   -15.26801
   602  C   4.0    0.06    3.25    3.04     1.11526   130.25680   -13.19704
   603  O   6.0   -0.32    1.12    1.80     2.75114   129.33608   -11.82763
   604  C   4.0   -0.03    4.39    4.37     2.02589   134.69952   -14.21351
   605  C   4.0    0.15    3.44    3.09     3.60277   135.59976   -16.41547
   606  O   6.0   -0.30    1.31    1.80     2.80362   135.42213   -18.58969
   607  N   5.0   -0.19    3.20    1.95     5.99524   136.18213   -15.70143
   608  H   1.0    0.14    1.13    1.45    -1.54157   133.48758   -17.07364
   609  H   1.0    0.05    1.09    1.44     3.50596   131.43883   -16.11143
   610  H   1.0    0.06    1.03    1.43     0.18894   135.60544   -14.05824
   611  H   1.0    0.05    1.02    1.43     3.01989   134.74737   -12.40999
   612  H   1.0    0.09    1.04    1.43     7.31892   136.53783   -17.03063
   613  H   1.0    0.09    1.03    1.43     6.54054   136.03677   -13.88227
   614  H   1.0    0.07    1.07    1.44     3.78136   180.96229    -3.37760
   615  H   1.0    0.04    1.04    1.43     6.30158   174.51724    -1.61127
   616  H   1.0    0.08    1.07    1.44     2.50075   171.60582     6.07588
   617  H   1.0    0.04    1.05    1.44     7.42147   167.76921     7.07262
   618  H   1.0    0.08    1.07    1.44   -23.28344   154.08981    -0.84353
   619  H   1.0    0.06    1.04    1.43    19.74820   144.96172   -13.52797
   620  H   1.0    0.07    1.07    1.44   -10.83949   180.65572    -2.13646
   621  H   1.0    0.04    1.05    1.44   -13.32117   170.93301    -6.15522
   622  H   1.0    0.08    1.07    1.44   -14.01423   171.48961   -11.39995
   623  H   1.0    0.05    1.04    1.43    -2.85332   158.46766   -23.89110
   624  H   1.0    0.09    1.10    1.44    -0.77588   163.63255   -18.41308
   625  H   1.0    0.05    1.05    1.44     7.17133   163.08055   -22.04902
   626  H   1.0    0.08    1.07    1.44     9.79905   165.89452   -14.16913
   627  H   1.0    0.05    1.04    1.43    14.53075   163.32100   -18.17847
   628  H   1.0    0.07    1.08    1.44    14.21822   159.11768     6.07906
   629  H   1.0    0.04    1.04    1.43     9.41500   151.58777     7.38065
   630  H   1.0    0.09    1.08    1.44     2.53187   157.61357    11.69785
   631  H   1.0    0.04    1.05    1.44     0.34214   149.03922    14.59133
   632  H   1.0    0.08    1.09    1.44    -7.39488   153.26735    14.37203
   633  H   1.0    0.04    1.05    1.44    -9.06272   147.53355    17.04926
   634  H   1.0    0.08    1.07    1.44   -11.71882   145.78296   -27.86247
   635  H   1.0    0.04    1.05    1.44   -13.08593   142.94440   -23.18770
   636  H   1.0    0.07    1.08    1.44    -8.57389   137.65393   -25.32875
   637  H   1.0    0.04    1.05    1.44    -7.10056   134.55914   -17.74083
   638  H   1.0    0.11    1.10    1.44     0.53207   132.32935   -18.67758
   639  H   1.0    0.05    1.05    1.44    -0.67588   129.75041   -12.87076

  Z AO/shell   Hii/eV     exponent
  1     Wed Apr 25 08:07:45 CEST 2018   EN: 2.200 GM2: 0.406  GM3: 0.0800  RAES: 1.40
     1s    -10.707211    1.230000
  6     Wed Apr 25 08:07:45 CEST 2018   EN: 2.550 GM2: 0.538  GM3: 0.1500  RAES: 3.00
     2s    -13.970922    2.096432
     2p    -10.063292    1.800000
  7     Wed Apr 25 08:07:45 CEST 2018   EN: 3.040 GM2: 0.461  GM3:-0.0640  RAES: 1.90
     2s    -16.686243    2.339881
     2p    -12.523956    2.014332
  8     Wed Apr 25 08:07:45 CEST 2018   EN: 3.440 GM2: 0.452  GM3:-0.0517  RAES: 1.80
     2s    -20.229985    2.439742
     2p    -15.503117    2.137023
 16     Tue Apr 24 11:44:34 CEST 2018   EN: 2.580 GM2: 0.340  GM3:-0.0502  RAES: 3.10
     3s    -20.029654    1.981333
     3p    -11.377694    2.025643
     3d     -0.420282    1.702555
 no old-style atom pair restraining (fixing) potential

molecular fragmentation (1/2 indicates fragments):
111111111122222222222222222222222222222222222222222222222222222222222222
222222222222222222222222222222222222222222222222222222222222222222222222
222222222222222222222222222222222222222222222222222222222222222222222222
222222222222222222222222222222222222222222222222222222222222222222222222
222222222222222222222222222222222222222222222222222222222222222222222222
222222222222222222222222222222222222222222222222222222222222222222222222
222222222222222222222222222222222222222222222222222222222222222222222222
222222222222222222222222222222222222222222222222222222222222222222222222
222222222222222222222222222222222222211222222222222222222222222
# atoms in fragment 1/2:    12   627
 fragment masses (1/2) :       73.09     4195.09
CMA distance (Bohr)    :  25.217
constraining FC (au)   :  0.0500
           ------------------------------------------------- 
          |        Self-Consistent Charge Iterations        |
           ------------------------------------------------- 

 Ncao       : 1539
 Nao        : 1537
 Nshell     : 937
 Nel        : 1700
 T(el)      :   500.0
 intcut     :    35.0
 scfconv/Eh :  0.100E-06
   qconv/e  :  0.100E-04
 intneglect :  0.100E-08
 broydamp   :      0.400
 iter      E             dE          RMSdq      gap      omega  full diag
   1   -970.4752229 -0.970475E+03  0.456E+00    3.04       0.0  T
   2   -973.0511758 -0.257595E+01  0.209E+00    1.39       1.0  T
   3   -973.2440881 -0.192912E+00  0.125E+00    1.41       1.0  T
   4   -973.4125604 -0.168472E+00  0.255E-01    0.71       1.0  T
   5   -973.4217027 -0.914230E-02  0.138E-01    0.95       1.0  T
   6   -973.4233870 -0.168426E-02  0.616E-02    0.85       1.0  T
   7   -973.4239964 -0.609442E-03  0.289E-02    0.84       1.0  T
   8   -973.4240880 -0.915714E-04  0.142E-02    0.80       1.0  T
   9   -973.4241142 -0.262159E-04  0.692E-03    0.81       1.0  T
  10   -973.4241200 -0.576668E-05  0.300E-03    0.80       1.3  T
  11   -973.4241216 -0.155810E-05  0.141E-03    0.80       2.8  T
  12   -973.4241217 -0.192804E-06  0.606E-04    0.80       6.5  T
  13   -973.4241218 -0.321859E-07  0.312E-04    0.80      12.7  T
  14   -973.4241218 -0.993896E-08  0.126E-04    0.80      31.5  T
  15   -973.4241218 -0.161447E-08  0.673E-05    0.80      58.8  T
  16   -973.4241218 -0.465093E-09  0.315E-05    0.80     125.5  T
speedup  1.96
cpu  time for SCC   56.88 s
wall time for SCC   29.01 s

   *** convergence criteria satisfied after 16 iterations ***

          eigenvalues
 #    :         838        839        840        841        842        843        844        845
 occ. :        2.000      2.000      2.000      2.000      2.000      2.000      2.000      2.000
 eps  :        -9.945     -9.876     -9.871     -9.817     -9.798     -9.703     -9.686     -9.686
 #    :         846        847        848        849        850        851        852        853
 occ. :        2.000      2.000      2.000      2.000      2.000      0.000      0.000      0.000
 eps  :        -9.614     -9.544     -9.508     -9.329     -9.233     -8.434     -8.186     -7.926
 #    :         854        855        856        857        858        859        860        861
 occ. :        0.000      0.000      0.000      0.000      0.000      0.000      0.000      0.000
 eps  :        -7.923     -7.876     -7.852     -7.715     -7.513     -7.510     -7.424     -7.327


   #   Z            q   n(s)   n(p)   n(d)      C6AA      α(0)
   1   7 N     -0.394  1.324  4.070  0.000    30.211     8.163
   2   6 C      0.036  1.064  2.900  0.000    19.998     6.372
   3   6 C      0.200  1.098  2.703  0.000    23.743     7.979
   4   8 O     -0.366  1.758  4.608  0.000    21.016     6.146
   5   6 C     -0.122  1.044  3.078  0.000    22.895     6.824
   6   1 H      0.167  0.833  0.000  0.000     1.292     1.780
   7   1 H      0.061  0.939  0.000  0.000     2.182     2.310
   8   1 H      0.040  0.960  0.000  0.000     2.444     2.445
   9   1 H      0.060  0.940  0.000  0.000     2.199     2.319
  10   1 H      0.056  0.944  0.000  0.000     2.250     2.346
  11   7 N     -0.394  1.320  4.074  0.000    30.220     8.164
  12   6 C      0.035  1.061  2.903  0.000    20.006     6.372
  13   6 C      0.201  1.092  2.706  0.000    23.714     7.975
  14   8 O     -0.392  1.764  4.628  0.000    21.519     6.219
  15   6 C     -0.072  1.065  3.007  0.000    21.882     6.661
  16   6 C     -0.009  1.058  2.951  0.000    20.707     6.473
  17   6 C     -0.113  1.040  3.072  0.000    22.702     6.792
  18   6 C     -0.114  1.042  3.072  0.000    22.728     6.796
  19   1 H      0.172  0.828  0.000  0.000     1.260     1.758
  20   1 H      0.059  0.941  0.000  0.000     2.207     2.323
  21   1 H      0.058  0.942  0.000  0.000     2.222     2.331
  22   1 H      0.048  0.952  0.000  0.000     2.349     2.397
  23   1 H      0.027  0.973  0.000  0.000     2.623     2.533
  24   1 H      0.032  0.968  0.000  0.000     2.554     2.499
  25   1 H      0.037  0.963  0.000  0.000     2.489     2.467
  26   1 H      0.048  0.952  0.000  0.000     2.340     2.392
  27   1 H      0.031  0.969  0.000  0.000     2.570     2.507
  28   1 H      0.049  0.951  0.000  0.000     2.336     2.390
  29   1 H      0.033  0.967  0.000  0.000     2.542     2.493
  30   7 N     -0.414  1.326  4.088  0.000    30.759     8.237
  31   6 C      0.016  1.069  2.916  0.000    20.331     6.424
  32   6 C      0.252  1.054  2.694  0.000    22.766     7.813
  33   8 O     -0.488  1.747  4.742  0.000    23.531     6.504
  34   6 C      0.110  1.055  2.835  0.000    18.883     6.207
  35   8 O     -0.475  1.717  4.758  0.000    22.364     6.384
  36   6 C     -0.134  1.047  3.087  0.000    23.137     6.860
  37   1 H      0.212  0.788  0.000  0.000     1.046     1.602
  38   1 H      0.029  0.971  0.000  0.000     2.604     2.524
  39   1 H      0.025  0.975  0.000  0.000     2.662     2.551
  40   1 H      0.356  0.644  0.000  0.000     0.574     1.190
  41   1 H      0.076  0.924  0.000  0.000     2.026     2.226
  42   1 H      0.042  0.958  0.000  0.000     2.425     2.435
  43   1 H      0.051  0.949  0.000  0.000     2.311     2.377
  44   7 N     -0.162  1.242  3.920  0.000    24.500     7.351
  45   6 C      0.014  1.059  2.928  0.000    20.344     6.421
  46   6 C      0.275  1.041  2.684  0.000    22.354     7.743
  47   8 O     -0.478  1.742  4.737  0.000    23.312     6.473
  48   6 C     -0.081  1.058  3.023  0.000    22.043     6.683
  49   6 C     -0.015  1.057  2.958  0.000    20.812     6.489
  50   6 C     -0.123  1.043  3.080  0.000    22.903     6.823
  51   6 C     -0.129  1.042  3.087  0.000    23.030     6.842
  52   1 H      0.224  0.776  0.000  0.000     0.992     1.560
  53   1 H      0.108  0.892  0.000  0.000     1.715     2.048
  54   1 H      0.041  0.959  0.000  0.000     2.433     2.439
  55   1 H      0.064  0.936  0.000  0.000     2.149     2.292
  56   1 H      0.046  0.954  0.000  0.000     2.365     2.405
  57   1 H      0.063  0.937  0.000  0.000     2.166     2.301
  58   1 H      0.035  0.965  0.000  0.000     2.513     2.479
  59   1 H      0.051  0.949  0.000  0.000     2.311     2.377
  60   1 H      0.067  0.933  0.000  0.000     2.123     2.278
  61   1 H      0.048  0.952  0.000  0.000     2.350     2.397
  62   1 H      0.042  0.958  0.000  0.000     2.428     2.437
  63   7 N     -0.190  1.253  3.936  0.000    25.111     7.442
  64   6 C      0.033  1.058  2.910  0.000    20.023     6.371
  65   6 C      0.284  1.046  2.670  0.000    22.189     7.714
  66   8 O     -0.510  1.760  4.751  0.000    24.012     6.570
  67   6 C     -0.057  1.054  3.004  0.000    21.607     6.618
  68   6 C     -0.082  1.070  3.013  0.000    22.089     6.695
  69   6 C      0.362  1.038  2.600  0.000    20.852     7.472
  70   8 O     -0.634  1.774  4.859  0.000    26.960     6.961
  71   8 O     -0.624  1.777  4.847  0.000    26.714     6.930
  72   1 H      0.223  0.777  0.000  0.000     0.995     1.562
  73   1 H      0.065  0.935  0.000  0.000     2.143     2.289
  74   1 H      0.073  0.927  0.000  0.000     2.054     2.241
  75   1 H      0.048  0.952  0.000  0.000     2.349     2.397
  76   1 H     -0.018  1.018  0.000  0.000     3.390     2.880
  77   1 H      0.007  0.993  0.000  0.000     2.947     2.685
  78   7 N     -0.204  1.277  3.927  0.000    25.443     7.491
  79   6 C      0.036  1.060  2.903  0.000    19.962     6.361
  80   6 C      0.285  1.034  2.681  0.000    22.175     7.712
  81   8 O     -0.514  1.747  4.766  0.000    24.093     6.581
  82   6 C     -0.060  1.056  3.004  0.000    21.646     6.623
  83   6 C     -0.096  1.069  3.027  0.000    22.341     6.731
  84   6 C      0.369  1.024  2.607  0.000    20.739     7.453
  85   8 O     -0.625  1.762  4.864  0.000    26.743     6.933
  86   8 O     -0.651  1.776  4.875  0.000    27.409     7.019
  87   1 H      0.218  0.782  0.000  0.000     1.020     1.582
  88   1 H      0.032  0.968  0.000  0.000     2.558     2.501
  89   1 H      0.061  0.939  0.000  0.000     2.191     2.315
  90   1 H      0.063  0.937  0.000  0.000     2.161     2.299
  91   1 H      0.006  0.994  0.000  0.000     2.952     2.687
  92   1 H      0.040  0.960  0.000  0.000     2.451     2.448
  93   7 N     -0.190  1.247  3.944  0.000    25.123     7.444
  94   6 C      0.019  1.061  2.920  0.000    20.271     6.412
  95   6 C      0.277  1.046  2.677  0.000    22.307     7.735
  96   8 O     -0.491  1.733  4.757  0.000    23.578     6.510
  97   6 C     -0.082  1.059  3.024  0.000    22.068     6.688
  98   6 C     -0.027  1.077  2.950  0.000    21.070     6.538
  99  16 S     -0.257  1.936  4.264  0.057   152.109    20.758
 100   6 C     -0.072  1.066  3.005  0.000    21.952     6.685
 101   1 H      0.224  0.776  0.000  0.000     0.991     1.559
 102   1 H      0.074  0.926  0.000  0.000     2.042     2.235
 103   1 H      0.085  0.915  0.000  0.000     1.927     2.171
 104   1 H      0.092  0.908  0.000  0.000     1.864     2.135
 105   1 H      0.077  0.923  0.000  0.000     2.015     2.220
 106   1 H      0.063  0.937  0.000  0.000     2.168     2.303
 107   1 H      0.089  0.911  0.000  0.000     1.888     2.149
 108   1 H      0.059  0.941  0.000  0.000     2.206     2.323
 109   1 H      0.092  0.908  0.000  0.000     1.855     2.130
 110   7 N     -0.175  1.246  3.929  0.000    24.789     7.395
 111   6 C      0.040  1.046  2.914  0.000    19.890     6.348
 112   6 C      0.296  1.038  2.667  0.000    21.989     7.680
 113   8 O     -0.493  1.731  4.762  0.000    23.623     6.516
 114   6 C     -0.070  1.060  3.009  0.000    21.806     6.643
 115   6 C     -0.005  1.063  2.942  0.000    20.641     6.463
 116   6 C     -0.102  1.041  3.061  0.000    22.517     6.769
 117   6 C     -0.093  1.043  3.051  0.000    22.335     6.738
 118   1 H      0.229  0.771  0.000  0.000     0.970     1.543
 119   1 H      0.083  0.917  0.000  0.000     1.946     2.182
 120   1 H      0.074  0.926  0.000  0.000     2.040     2.233
 121   1 H      0.047  0.953  0.000  0.000     2.363     2.404
 122   1 H     -0.004  1.004  0.000  0.000     3.127     2.765
 123   1 H      0.034  0.966  0.000  0.000     2.530     2.488
 124   1 H      0.019  0.981  0.000  0.000     2.746     2.591
 125   1 H      0.059  0.941  0.000  0.000     2.215     2.328
 126   1 H      0.020  0.980  0.000  0.000     2.738     2.588
 127   1 H      0.056  0.944  0.000  0.000     2.241     2.341
 128   1 H      0.021  0.979  0.000  0.000     2.722     2.580
 129   7 N     -0.187  1.247  3.940  0.000    25.051     7.434
 130   6 C      0.045  1.054  2.901  0.000    19.810     6.336
 131   6 C      0.292  1.038  2.670  0.000    22.043     7.688
 132   8 O     -0.503  1.743  4.760  0.000    23.853     6.548
 133   6 C     -0.046  1.055  2.991  0.000    21.390     6.584
 134   6 C     -0.089  1.067  3.023  0.000    22.213     6.712
 135   6 C      0.367  1.031  2.602  0.000    20.774     7.459
 136   8 O     -0.638  1.771  4.867  0.000    27.078     6.977
 137   8 O     -0.649  1.779  4.871  0.000    27.363     7.013
 138   1 H      0.209  0.791  0.000  0.000     1.060     1.613
 139   1 H      0.054  0.946  0.000  0.000     2.274     2.358
 140   1 H      0.051  0.949  0.000  0.000     2.312     2.378
 141   1 H      0.022  0.978  0.000  0.000     2.708     2.573
 142   1 H      0.027  0.973  0.000  0.000     2.634     2.538
 143   1 H      0.019  0.981  0.000  0.000     2.746     2.591
 144   7 N     -0.192  1.243  3.950  0.000    25.170     7.451
 145   6 C      0.022  1.065  2.913  0.000    20.209     6.401
 146   6 C      0.279  1.032  2.689  0.000    22.283     7.733
 147   8 O     -0.496  1.746  4.749  0.000    23.686     6.525
 148   6 C     -0.097  1.066  3.032  0.000    22.361     6.733
 149   6 C     -0.071  1.051  3.020  0.000    21.861     6.658
 150   6 C     -0.077  1.052  3.024  0.000    21.965     6.673
 151   6 C     -0.018  1.047  2.971  0.000    20.991     6.540
 152   7 N     -0.161  1.244  3.917  0.000    24.476     7.348
 153   1 H      0.202  0.798  0.000  0.000     1.094     1.639
 154   1 H      0.057  0.943  0.000  0.000     2.234     2.337
 155   1 H      0.103  0.897  0.000  0.000     1.756     2.072
 156   1 H      0.075  0.925  0.000  0.000     2.027     2.227
 157   1 H      0.038  0.962  0.000  0.000     2.470     2.458
 158   1 H      0.038  0.962  0.000  0.000     2.477     2.461
 159   1 H      0.073  0.927  0.000  0.000     2.056     2.242
 160   1 H      0.082  0.918  0.000  0.000     1.959     2.189
 161   1 H      0.074  0.926  0.000  0.000     2.045     2.236
 162   1 H      0.111  0.889  0.000  0.000     1.684     2.029
 163   1 H      0.259  0.741  0.000  0.000     0.850     1.444
 164   1 H      0.307  0.693  0.000  0.000     0.695     1.306
 165   1 H      0.250  0.750  0.000  0.000     0.883     1.472
 166   7 N     -0.181  1.255  3.926  0.000    24.917     7.414
 167   6 C      0.029  1.054  2.917  0.000    20.063     6.373
 168   6 C      0.308  1.034  2.658  0.000    21.778     7.644
 169   8 O     -0.483  1.726  4.757  0.000    23.412     6.487
 170   6 C     -0.080  1.053  3.027  0.000    22.002     6.673
 171   6 C     -0.013  1.055  2.959  0.000    20.777     6.483
 172   6 C     -0.134  1.044  3.089  0.000    23.130     6.858
 173   6 C     -0.114  1.044  3.070  0.000    22.740     6.798
 174   1 H      0.238  0.762  0.000  0.000     0.933     1.513
 175   1 H      0.088  0.912  0.000  0.000     1.903     2.157
 176   1 H      0.078  0.922  0.000  0.000     2.001     2.212
 177   1 H      0.038  0.962  0.000  0.000     2.475     2.460
 178   1 H      0.008  0.992  0.000  0.000     2.929     2.677
 179   1 H      0.065  0.935  0.000  0.000     2.145     2.290
 180   1 H      0.040  0.960  0.000  0.000     2.443     2.444
 181   1 H      0.067  0.933  0.000  0.000     2.122     2.278
 182   1 H      0.053  0.947  0.000  0.000     2.279     2.361
 183   1 H      0.064  0.936  0.000  0.000     2.156     2.296
 184   1 H      0.025  0.975  0.000  0.000     2.658     2.549
 185   7 N     -0.222  1.272  3.950  0.000    25.848     7.551
 186   6 C      0.061  1.043  2.896  0.000    19.550     6.293
 187   6 C      0.312  1.034  2.654  0.000    21.711     7.636
 188   8 O     -0.497  1.725  4.772  0.000    23.712     6.529
 189   6 C     -0.046  1.050  2.996  0.000    21.401     6.586
 190   6 C     -0.092  1.074  3.017  0.000    22.267     6.721
 191   6 C      0.363  1.038  2.599  0.000    20.842     7.470
 192   8 O     -0.644  1.776  4.869  0.000    27.235     6.997
 193   8 O     -0.615  1.768  4.847  0.000    26.485     6.900
 194   1 H      0.230  0.770  0.000  0.000     0.965     1.539
 195   1 H      0.042  0.958  0.000  0.000     2.423     2.434
 196   1 H      0.030  0.970  0.000  0.000     2.585     2.514
 197   1 H      0.017  0.983  0.000  0.000     2.786     2.610
 198   1 H      0.022  0.978  0.000  0.000     2.710     2.574
 199   1 H     -0.003  1.003  0.000  0.000     3.109     2.757
 200   7 N     -0.198  1.257  3.941  0.000    25.296     7.470
 201   6 C      0.066  1.047  2.887  0.000    19.418     6.264
 202   6 C      0.295  1.042  2.663  0.000    22.007     7.684
 203   8 O     -0.528  1.733  4.795  0.000    24.422     6.626
 204   6 C     -0.005  1.051  2.954  0.000    20.626     6.459
 205   6 C     -0.102  1.036  3.067  0.000    22.493     6.760
 206   6 C     -0.113  1.037  3.075  0.000    22.707     6.794
 207   1 H      0.214  0.786  0.000  0.000     1.035     1.594
 208   1 H      0.032  0.968  0.000  0.000     2.563     2.503
 209   1 H      0.027  0.973  0.000  0.000     2.634     2.538
 210   1 H      0.035  0.965  0.000  0.000     2.513     2.479
 211   1 H      0.019  0.981  0.000  0.000     2.741     2.589
 212   1 H      0.049  0.951  0.000  0.000     2.336     2.390
 213   1 H      0.041  0.959  0.000  0.000     2.442     2.444
 214   1 H      0.061  0.939  0.000  0.000     2.184     2.311
 215   1 H      0.045  0.955  0.000  0.000     2.386     2.415
 216   7 N     -0.170  1.245  3.925  0.000    24.674     7.377
 217   6 C      0.030  1.058  2.913  0.000    20.052     6.371
 218   6 C      0.272  1.050  2.679  0.000    22.412     7.753
 219   8 O     -0.468  1.727  4.741  0.000    23.083     6.442
 220   6 C     -0.019  1.062  2.957  0.000    20.880     6.499
 221   6 C     -0.127  1.045  3.082  0.000    22.987     6.836
 222   6 C     -0.122  1.041  3.080  0.000    22.888     6.821
 223   1 H      0.226  0.774  0.000  0.000     0.980     1.551
 224   1 H      0.073  0.927  0.000  0.000     2.052     2.240
 225   1 H      0.046  0.954  0.000  0.000     2.365     2.405
 226   1 H      0.072  0.928  0.000  0.000     2.066     2.248
 227   1 H      0.064  0.936  0.000  0.000     2.149     2.293
 228   1 H      0.051  0.949  0.000  0.000     2.311     2.377
 229   1 H      0.066  0.934  0.000  0.000     2.133     2.284
 230   1 H      0.043  0.957  0.000  0.000     2.412     2.429
 231   1 H      0.040  0.960  0.000  0.000     2.449     2.447
 232   7 N     -0.190  1.266  3.924  0.000    25.117     7.443
 233   6 C      0.031  1.065  2.904  0.000    20.046     6.374
 234   6 C      0.280  1.045  2.675  0.000    22.264     7.729
 235   8 O     -0.474  1.732  4.742  0.000    23.212     6.460
 236   6 C     -0.016  1.054  2.962  0.000    20.820     6.489
 237   6 C     -0.115  1.038  3.077  0.000    22.764     6.803
 238   6 C     -0.131  1.042  3.089  0.000    23.081     6.850
 239   1 H      0.223  0.777  0.000  0.000     0.996     1.563
 240   1 H      0.094  0.906  0.000  0.000     1.844     2.124
 241   1 H      0.021  0.979  0.000  0.000     2.723     2.581
 242   1 H      0.043  0.957  0.000  0.000     2.409     2.427
 243   1 H      0.017  0.983  0.000  0.000     2.781     2.608
 244   1 H      0.073  0.927  0.000  0.000     2.055     2.242
 245   1 H      0.050  0.950  0.000  0.000     2.322     2.383
 246   1 H      0.074  0.926  0.000  0.000     2.045     2.236
 247   1 H      0.054  0.946  0.000  0.000     2.276     2.359
 248   7 N     -0.191  1.248  3.942  0.000    25.132     7.446
 249   6 C      0.058  1.045  2.896  0.000    19.584     6.297
 250   6 C      0.292  1.040  2.669  0.000    22.059     7.694
 251   8 O     -0.536  1.747  4.789  0.000    24.596     6.649
 252   6 C     -0.092  1.058  3.034  0.000    22.263     6.718
 253   6 C      0.288  1.050  2.662  0.000    22.121     7.701
 254   8 O     -0.454  1.741  4.714  0.000    22.794     6.401
 255   7 N     -0.297  1.296  4.001  0.000    27.662     7.811
 256   1 H      0.203  0.797  0.000  0.000     1.090     1.635
 257   1 H      0.048  0.952  0.000  0.000     2.339     2.392
 258   1 H      0.064  0.936  0.000  0.000     2.149     2.292
 259   1 H      0.049  0.951  0.000  0.000     2.329     2.387
 260   1 H      0.252  0.748  0.000  0.000     0.875     1.465
 261   1 H      0.194  0.806  0.000  0.000     1.137     1.670
 262   7 N     -0.206  1.259  3.947  0.000    25.480     7.497
 263   6 C      0.052  1.051  2.897  0.000    19.670     6.307
 264   6 C      0.286  1.041  2.674  0.000    22.159     7.709
 265   8 O     -0.502  1.741  4.761  0.000    23.818     6.543
 266   6 C     -0.050  1.046  3.004  0.000    21.440     6.587
 267   6 C     -0.086  1.058  3.029  0.000    22.129     6.694
 268   6 C      0.359  1.031  2.610  0.000    20.900     7.482
 269   8 O     -0.600  1.756  4.844  0.000    26.111     6.851
 270   8 O     -0.625  1.776  4.849  0.000    26.734     6.932
 271   1 H      0.236  0.764  0.000  0.000     0.939     1.518
 272   1 H      0.036  0.964  0.000  0.000     2.510     2.478
 273   1 H      0.062  0.938  0.000  0.000     2.178     2.308
 274   1 H      0.047  0.953  0.000  0.000     2.360     2.402
 275   1 H      0.003  0.997  0.000  0.000     3.015     2.715
 276   1 H      0.030  0.970  0.000  0.000     2.582     2.513
 277   7 N     -0.175  1.251  3.924  0.000    24.799     7.396
 278   6 C      0.025  1.067  2.908  0.000    20.162     6.395
 279   6 C      0.213  1.090  2.698  0.000    23.500     7.939
 280   8 O     -0.357  1.746  4.611  0.000    20.841     6.121
 281   6 C     -0.077  1.056  3.022  0.000    21.981     6.675
 282   6 C     -0.085  1.053  3.032  0.000    22.119     6.697
 283   6 C     -0.023  1.058  2.965  0.000    21.087     6.556
 284   7 N     -0.146  1.211  3.935  0.000    24.159     7.300
 285   6 C      0.229  1.030  2.741  0.000    23.195     7.885
 286   7 N     -0.228  1.247  3.981  0.000    25.998     7.573
 287   7 N     -0.256  1.240  4.016  0.000    26.661     7.669
 288   1 H      0.220  0.780  0.000  0.000     1.011     1.575
 289   1 H      0.099  0.901  0.000  0.000     1.795     2.095
 290   1 H      0.060  0.940  0.000  0.000     2.194     2.317
 291   1 H      0.091  0.909  0.000  0.000     1.866     2.136
 292   1 H      0.064  0.936  0.000  0.000     2.152     2.294
 293   1 H      0.083  0.917  0.000  0.000     1.950     2.184
 294   1 H      0.083  0.917  0.000  0.000     1.948     2.182
 295   1 H      0.092  0.908  0.000  0.000     1.859     2.132
 296   1 H      0.226  0.774  0.000  0.000     0.983     1.553
 297   1 H      0.237  0.763  0.000  0.000     0.936     1.515
 298   1 H      0.257  0.743  0.000  0.000     0.855     1.448
 299   1 H      0.249  0.751  0.000  0.000     0.887     1.475
 300   1 H      0.264  0.736  0.000  0.000     0.830     1.427
 301   7 N     -0.398  1.317  4.081  0.000    30.319     8.178
 302   6 C      0.033  1.062  2.905  0.000    20.043     6.379
 303   6 C      0.260  1.060  2.680  0.000    22.623     7.788
 304   8 O     -0.451  1.745  4.706  0.000    22.718     6.390
 305   6 C     -0.120  1.046  3.074  0.000    22.847     6.814
 306   1 H      0.171  0.829  0.000  0.000     1.267     1.763
 307   1 H      0.036  0.964  0.000  0.000     2.496     2.471
 308   1 H      0.042  0.958  0.000  0.000     2.429     2.437
 309   1 H      0.058  0.942  0.000  0.000     2.227     2.334
 310   1 H      0.054  0.946  0.000  0.000     2.274     2.358
 311   7 N     -0.188  1.256  3.931  0.000    25.066     7.436
 312   6 C      0.024  1.062  2.915  0.000    20.190     6.400
 313   6 C      0.195  1.085  2.720  0.000    23.846     7.998
 314   8 O     -0.375  1.758  4.616  0.000    21.179     6.170
 315   6 C     -0.078  1.068  3.010  0.000    21.977     6.673
 316   6 C     -0.012  1.060  2.952  0.000    20.766     6.482
 317   6 C     -0.119  1.043  3.077  0.000    22.844     6.815
 318   6 C     -0.119  1.042  3.077  0.000    22.825     6.812
 319   1 H      0.209  0.791  0.000  0.000     1.061     1.614
 320   1 H      0.101  0.899  0.000  0.000     1.776     2.084
 321   1 H      0.068  0.932  0.000  0.000     2.112     2.273
 322   1 H      0.061  0.939  0.000  0.000     2.192     2.315
 323   1 H      0.046  0.954  0.000  0.000     2.369     2.407
 324   1 H      0.049  0.951  0.000  0.000     2.331     2.388
 325   1 H      0.047  0.953  0.000  0.000     2.355     2.400
 326   1 H      0.037  0.963  0.000  0.000     2.483     2.464
 327   1 H      0.045  0.955  0.000  0.000     2.378     2.412
 328   1 H      0.039  0.961  0.000  0.000     2.460     2.453
 329   1 H      0.041  0.959  0.000  0.000     2.439     2.442
 330   7 N     -0.401  1.323  4.077  0.000    30.387     8.187
 331   6 C      0.013  1.076  2.911  0.000    20.384     6.433
 332   6 C      0.261  1.054  2.685  0.000    22.603     7.784
 333   8 O     -0.508  1.755  4.753  0.000    23.964     6.563
 334   6 C     -0.027  1.078  2.949  0.000    21.019     6.521
 335   6 C     -0.063  1.053  3.010  0.000    21.712     6.634
 336   6 C     -0.112  1.040  3.072  0.000    22.701     6.794
 337   6 C     -0.103  1.038  3.065  0.000    22.525     6.769
 338   1 H      0.170  0.830  0.000  0.000     1.274     1.768
 339   1 H      0.034  0.966  0.000  0.000     2.530     2.487
 340   1 H      0.030  0.970  0.000  0.000     2.588     2.516
 341   1 H      0.053  0.947  0.000  0.000     2.283     2.363
 342   1 H      0.022  0.978  0.000  0.000     2.699     2.569
 343   1 H      0.054  0.946  0.000  0.000     2.269     2.356
 344   1 H      0.041  0.959  0.000  0.000     2.439     2.442
 345   1 H      0.045  0.955  0.000  0.000     2.388     2.417
 346   1 H      0.053  0.947  0.000  0.000     2.285     2.364
 347   1 H      0.030  0.970  0.000  0.000     2.585     2.514
 348   1 H      0.043  0.957  0.000  0.000     2.412     2.429
 349   7 N     -0.182  1.249  3.933  0.000    24.942     7.417
 350   6 C      0.016  1.063  2.922  0.000    20.327     6.422
 351   6 C      0.266  1.053  2.681  0.000    22.511     7.770
 352   8 O     -0.458  1.744  4.714  0.000    22.873     6.412
 353   6 C     -0.098  1.060  3.038  0.000    22.351     6.729
 354   6 C     -0.014  1.060  2.954  0.000    20.789     6.486
 355   6 C     -0.119  1.040  3.078  0.000    22.827     6.812
 356   6 C     -0.117  1.046  3.071  0.000    22.794     6.807
 357   1 H      0.226  0.774  0.000  0.000     0.983     1.553
 358   1 H      0.077  0.923  0.000  0.000     2.008     2.216
 359   1 H      0.073  0.927  0.000  0.000     2.051     2.240
 360   1 H      0.076  0.924  0.000  0.000     2.018     2.222
 361   1 H      0.032  0.968  0.000  0.000     2.563     2.504
 362   1 H      0.037  0.963  0.000  0.000     2.489     2.467
 363   1 H      0.062  0.938  0.000  0.000     2.176     2.307
 364   1 H      0.039  0.961  0.000  0.000     2.465     2.455
 365   1 H      0.048  0.952  0.000  0.000     2.345     2.395
 366   1 H      0.044  0.956  0.000  0.000     2.396     2.421
 367   1 H      0.028  0.972  0.000  0.000     2.608     2.525
 368   7 N     -0.180  1.239  3.941  0.000    24.909     7.412
 369   6 C      0.022  1.063  2.914  0.000    20.205     6.401
 370   6 C      0.285  1.046  2.669  0.000    22.182     7.714
 371   8 O     -0.460  1.753  4.708  0.000    22.925     6.420
 372   6 C     -0.110  1.069  3.041  0.000    22.608     6.770
 373   6 C      0.290  1.039  2.671  0.000    22.087     7.695
 374   8 O     -0.491  1.764  4.727  0.000    23.592     6.512
 375   7 N     -0.271  1.262  4.009  0.000    27.018     7.720
 376   1 H      0.205  0.795  0.000  0.000     1.082     1.629
 377   1 H      0.089  0.911  0.000  0.000     1.886     2.148
 378   1 H      0.096  0.904  0.000  0.000     1.822     2.111
 379   1 H      0.093  0.907  0.000  0.000     1.846     2.125
 380   1 H      0.202  0.798  0.000  0.000     1.097     1.641
 381   1 H      0.235  0.765  0.000  0.000     0.945     1.523
 382   7 N     -0.196  1.271  3.925  0.000    25.246     7.462
 383   6 C      0.027  1.050  2.923  0.000    20.093     6.378
 384   6 C      0.271  1.037  2.692  0.000    22.426     7.757
 385   8 O     -0.448  1.737  4.711  0.000    22.661     6.382
 386   6 C     -0.114  1.056  3.058  0.000    22.671     6.777
 387   6 C      0.288  1.039  2.673  0.000    22.119     7.701
 388   8 O     -0.497  1.749  4.748  0.000    23.728     6.531
 389   7 N     -0.293  1.272  4.021  0.000    27.549     7.795
 390   1 H      0.207  0.793  0.000  0.000     1.073     1.623
 391   1 H      0.086  0.914  0.000  0.000     1.918     2.166
 392   1 H      0.108  0.892  0.000  0.000     1.716     2.049
 393   1 H      0.081  0.919  0.000  0.000     1.968     2.194
 394   1 H      0.238  0.762  0.000  0.000     0.931     1.512
 395   1 H      0.237  0.763  0.000  0.000     0.936     1.516
 396   7 N     -0.178  1.265  3.914  0.000    24.861     7.405
 397   6 C      0.014  1.062  2.924  0.000    20.341     6.420
 398   6 C      0.199  1.084  2.717  0.000    23.761     7.983
 399   8 O     -0.333  1.731  4.602  0.000    20.379     6.053
 400   6 C     -0.025  1.069  2.956  0.000    20.988     6.516
 401   6 C     -0.063  1.049  3.014  0.000    21.694     6.629
 402   6 C     -0.106  1.037  3.069  0.000    22.580     6.776
 403   6 C     -0.115  1.037  3.078  0.000    22.756     6.802
 404   1 H      0.194  0.806  0.000  0.000     1.136     1.670
 405   1 H      0.089  0.911  0.000  0.000     1.891     2.150
 406   1 H      0.037  0.963  0.000  0.000     2.488     2.467
 407   1 H      0.043  0.957  0.000  0.000     2.407     2.426
 408   1 H      0.042  0.958  0.000  0.000     2.423     2.434
 409   1 H      0.039  0.961  0.000  0.000     2.461     2.453
 410   1 H      0.041  0.959  0.000  0.000     2.441     2.443
 411   1 H      0.054  0.946  0.000  0.000     2.275     2.359
 412   1 H      0.031  0.969  0.000  0.000     2.565     2.505
 413   1 H      0.054  0.946  0.000  0.000     2.269     2.355
 414   1 H      0.031  0.969  0.000  0.000     2.577     2.510
 415   7 N     -0.402  1.316  4.085  0.000    30.413     8.191
 416   6 C      0.029  1.053  2.918  0.000    20.074     6.378
 417   6 C      0.266  1.044  2.690  0.000    22.511     7.772
 418   8 O     -0.459  1.737  4.723  0.000    22.900     6.416
 419   6 C     -0.083  1.057  3.026  0.000    22.063     6.686
 420   6 C     -0.018  1.063  2.955  0.000    20.847     6.493
 421   6 C     -0.119  1.040  3.078  0.000    22.828     6.813
 422   6 C     -0.115  1.039  3.075  0.000    22.751     6.802
 423   1 H      0.176  0.824  0.000  0.000     1.235     1.741
 424   1 H      0.063  0.937  0.000  0.000     2.159     2.298
 425   1 H      0.042  0.958  0.000  0.000     2.417     2.431
 426   1 H      0.028  0.972  0.000  0.000     2.621     2.532
 427   1 H      0.048  0.952  0.000  0.000     2.348     2.396
 428   1 H      0.044  0.956  0.000  0.000     2.390     2.418
 429   1 H      0.056  0.944  0.000  0.000     2.250     2.346
 430   1 H      0.028  0.972  0.000  0.000     2.620     2.531
 431   1 H      0.048  0.952  0.000  0.000     2.350     2.397
 432   1 H      0.025  0.975  0.000  0.000     2.658     2.550
 433   1 H      0.032  0.968  0.000  0.000     2.560     2.502
 434   7 N     -0.183  1.248  3.934  0.000    24.955     7.419
 435   6 C      0.022  1.057  2.921  0.000    20.179     6.392
 436   6 C      0.216  1.075  2.709  0.000    23.439     7.930
 437   8 O     -0.385  1.739  4.646  0.000    21.390     6.201
 438   6 C     -0.085  1.055  3.030  0.000    22.116     6.695
 439   6 C     -0.083  1.057  3.026  0.000    22.070     6.687
 440   6 C     -0.015  1.057  2.958  0.000    20.928     6.528
 441   7 N     -0.167  1.251  3.916  0.000    24.608     7.368
 442   6 C      0.237  1.031  2.732  0.000    23.042     7.859
 443   7 N     -0.256  1.278  3.978  0.000    26.642     7.666
 444   7 N     -0.254  1.258  3.996  0.000    26.601     7.660
 445   1 H      0.243  0.757  0.000  0.000     0.911     1.495
 446   1 H      0.075  0.925  0.000  0.000     2.036     2.232
 447   1 H      0.084  0.916  0.000  0.000     1.938     2.177
 448   1 H      0.085  0.915  0.000  0.000     1.933     2.174
 449   1 H      0.071  0.929  0.000  0.000     2.078     2.254
 450   1 H      0.065  0.935  0.000  0.000     2.143     2.289
 451   1 H      0.071  0.929  0.000  0.000     2.072     2.251
 452   1 H      0.082  0.918  0.000  0.000     1.958     2.188
 453   1 H      0.244  0.756  0.000  0.000     0.906     1.491
 454   1 H      0.215  0.785  0.000  0.000     1.034     1.593
 455   1 H      0.231  0.769  0.000  0.000     0.962     1.537
 456   1 H      0.223  0.777  0.000  0.000     0.994     1.562
 457   1 H      0.237  0.763  0.000  0.000     0.937     1.517
 458   7 N     -0.410  1.326  4.084  0.000    30.661     8.224
 459   6 C      0.040  1.061  2.899  0.000    19.930     6.360
 460   6 C      0.197  1.102  2.701  0.000    23.798     7.989
 461   8 O     -0.371  1.733  4.638  0.000    21.108     6.160
 462   6 C     -0.114  1.043  3.071  0.000    22.741     6.799
 463   1 H      0.183  0.817  0.000  0.000     1.197     1.714
 464   1 H      0.054  0.946  0.000  0.000     2.275     2.359
 465   1 H      0.043  0.957  0.000  0.000     2.407     2.426
 466   1 H      0.049  0.951  0.000  0.000     2.338     2.391
 467   1 H      0.057  0.943  0.000  0.000     2.229     2.335
 468   7 N     -0.399  1.316  4.082  0.000    30.332     8.180
 469   6 C      0.020  1.064  2.916  0.000    20.253     6.411
 470   6 C      0.269  1.053  2.678  0.000    22.455     7.759
 471   8 O     -0.456  1.751  4.705  0.000    22.828     6.406
 472   6 C     -0.068  1.055  3.013  0.000    21.759     6.635
 473   6 C     -0.014  1.073  2.941  0.000    20.847     6.504
 474  16 S     -0.230  1.929  4.256  0.045   150.891    20.675
 475   6 C     -0.071  1.062  3.008  0.000    21.935     6.683
 476   1 H      0.155  0.845  0.000  0.000     1.368     1.832
 477   1 H      0.071  0.929  0.000  0.000     2.079     2.255
 478   1 H      0.049  0.951  0.000  0.000     2.328     2.386
 479   1 H      0.060  0.940  0.000  0.000     2.201     2.320
 480   1 H      0.047  0.953  0.000  0.000     2.363     2.404
 481   1 H      0.044  0.956  0.000  0.000     2.401     2.423
 482   1 H      0.080  0.920  0.000  0.000     1.979     2.200
 483   1 H      0.070  0.930  0.000  0.000     2.091     2.261
 484   1 H      0.062  0.938  0.000  0.000     2.170     2.304
 485   7 N     -0.189  1.271  3.918  0.000    25.092     7.440
 486   6 C      0.032  1.056  2.912  0.000    20.040     6.375
 487   6 C      0.205  1.087  2.708  0.000    23.648     7.964
 488   8 O     -0.360  1.746  4.614  0.000    20.903     6.130
 489   6 C     -0.083  1.062  3.021  0.000    22.067     6.686
 490   6 C     -0.003  1.065  2.938  0.000    20.596     6.456
 491   6 C     -0.097  1.037  3.060  0.000    22.414     6.753
 492   6 C     -0.099  1.041  3.058  0.000    22.465     6.761
 493   1 H      0.211  0.789  0.000  0.000     1.052     1.607
 494   1 H      0.078  0.922  0.000  0.000     2.002     2.213
 495   1 H      0.080  0.920  0.000  0.000     1.982     2.202
 496   1 H      0.075  0.925  0.000  0.000     2.034     2.230
 497   1 H      0.020  0.980  0.000  0.000     2.732     2.585
 498   1 H      0.016  0.984  0.000  0.000     2.800     2.617
 499   1 H      0.047  0.953  0.000  0.000     2.358     2.401
 500   1 H      0.029  0.971  0.000  0.000     2.602     2.522
 501   1 H      0.011  0.989  0.000  0.000     2.881     2.654
 502   1 H      0.033  0.967  0.000  0.000     2.545     2.495
 503   1 H      0.058  0.942  0.000  0.000     2.228     2.334
 504   7 N     -0.412  1.312  4.100  0.000    30.701     8.229
 505   6 C      0.038  1.049  2.913  0.000    19.946     6.360
 506   6 C      0.283  1.045  2.672  0.000    22.225     7.727
 507   8 O     -0.504  1.744  4.761  0.000    23.879     6.552
 508   6 C     -0.072  1.058  3.014  0.000    21.862     6.654
 509   6 C     -0.019  1.054  2.964  0.000    20.874     6.498
 510   6 C     -0.116  1.046  3.070  0.000    22.777     6.804
 511   6 C     -0.102  1.038  3.064  0.000    22.502     6.764
 512   1 H      0.167  0.833  0.000  0.000     1.289     1.778
 513   1 H      0.056  0.944  0.000  0.000     2.248     2.345
 514   1 H      0.058  0.942  0.000  0.000     2.224     2.332
 515   1 H      0.052  0.948  0.000  0.000     2.295     2.369
 516   1 H      0.046  0.954  0.000  0.000     2.369     2.407
 517   1 H      0.019  0.981  0.000  0.000     2.742     2.590
 518   1 H      0.060  0.940  0.000  0.000     2.194     2.316
 519   1 H      0.047  0.953  0.000  0.000     2.363     2.404
 520   1 H      0.012  0.988  0.000  0.000     2.852     2.641
 521   1 H      0.020  0.980  0.000  0.000     2.737     2.587
 522   1 H      0.036  0.964  0.000  0.000     2.507     2.476
 523   7 N     -0.185  1.251  3.934  0.000    25.010     7.428
 524   6 C      0.038  1.053  2.909  0.000    19.885     6.339
 525   6 C      0.218  1.080  2.702  0.000    23.396     7.923
 526   8 O     -0.387  1.747  4.640  0.000    21.429     6.206
 527   6 C     -0.043  1.048  2.995  0.000    21.341     6.577
 528   6 C     -0.095  1.071  3.024  0.000    22.317     6.728
 529   6 C      0.367  1.033  2.600  0.000    20.782     7.460
 530   8 O     -0.652  1.787  4.865  0.000    27.438     7.023
 531   8 O     -0.647  1.776  4.872  0.000    27.315     7.007
 532   1 H      0.239  0.761  0.000  0.000     0.927     1.508
 533   1 H      0.069  0.931  0.000  0.000     2.094     2.263
 534   1 H      0.020  0.980  0.000  0.000     2.733     2.586
 535   1 H      0.049  0.951  0.000  0.000     2.329     2.387
 536   1 H      0.039  0.961  0.000  0.000     2.466     2.456
 537   1 H      0.015  0.985  0.000  0.000     2.806     2.620
 538   7 N     -0.386  1.291  4.096  0.000    29.995     8.134
 539   6 C      0.047  1.044  2.908  0.000    19.785     6.333
 540   6 C      0.200  1.090  2.710  0.000    23.751     7.981
 541   8 O     -0.397  1.760  4.637  0.000    21.617     6.234
 542   6 C     -0.001  1.054  2.947  0.000    20.557     6.447
 543   6 C     -0.098  1.037  3.061  0.000    22.412     6.748
 544   6 C     -0.112  1.038  3.074  0.000    22.689     6.790
 545   1 H      0.168  0.832  0.000  0.000     1.286     1.776
 546   1 H      0.062  0.938  0.000  0.000     2.173     2.305
 547   1 H      0.026  0.974  0.000  0.000     2.649     2.545
 548   1 H      0.008  0.992  0.000  0.000     2.920     2.672
 549   1 H      0.019  0.981  0.000  0.000     2.746     2.591
 550   1 H      0.047  0.953  0.000  0.000     2.360     2.402
 551   1 H      0.018  0.982  0.000  0.000     2.771     2.603
 552   1 H      0.044  0.956  0.000  0.000     2.398     2.422
 553   1 H      0.084  0.916  0.000  0.000     1.942     2.179
 554   7 N     -0.386  1.305  4.081  0.000    29.986     8.133
 555   6 C      0.053  1.053  2.894  0.000    19.708     6.324
 556   6 C      0.197  1.094  2.709  0.000    23.799     7.989
 557   8 O     -0.392  1.757  4.636  0.000    21.526     6.220
 558   6 C     -0.054  1.050  3.004  0.000    21.538     6.607
 559   6 C     -0.095  1.070  3.025  0.000    22.327     6.730
 560   6 C      0.360  1.037  2.603  0.000    20.890     7.479
 561   8 O     -0.597  1.759  4.839  0.000    26.053     6.843
 562   8 O     -0.597  1.771  4.825  0.000    26.039     6.841
 563   1 H      0.180  0.820  0.000  0.000     1.212     1.724
 564   1 H      0.024  0.976  0.000  0.000     2.678     2.559
 565   1 H      0.054  0.946  0.000  0.000     2.275     2.359
 566   1 H      0.043  0.957  0.000  0.000     2.406     2.426
 567   1 H      0.032  0.968  0.000  0.000     2.560     2.502
 568   1 H      0.036  0.964  0.000  0.000     2.501     2.473
 569   7 N     -0.390  1.301  4.089  0.000    30.102     8.149
 570   6 C      0.034  1.054  2.912  0.000    20.022     6.373
 571   6 C      0.276  1.052  2.672  0.000    22.338     7.745
 572   8 O     -0.487  1.755  4.732  0.000    23.500     6.500
 573   6 C     -0.050  1.053  2.997  0.000    21.466     6.596
 574   6 C     -0.088  1.064  3.024  0.000    22.194     6.710
 575   6 C      0.356  1.036  2.608  0.000    20.959     7.492
 576   8 O     -0.624  1.768  4.856  0.000    26.726     6.931
 577   8 O     -0.626  1.768  4.859  0.000    26.774     6.937
 578   1 H      0.152  0.848  0.000  0.000     1.387     1.845
 579   1 H      0.046  0.954  0.000  0.000     2.373     2.409
 580   1 H      0.035  0.965  0.000  0.000     2.521     2.483
 581   1 H      0.047  0.953  0.000  0.000     2.357     2.401
 582   1 H      0.008  0.992  0.000  0.000     2.917     2.671
 583   1 H     -0.009  1.009  0.000  0.000     3.222     2.807
 584   7 N     -0.181  1.276  3.905  0.000    24.923     7.415
 585   6 C      0.042  1.048  2.909  0.000    19.836     6.336
 586   6 C      0.206  1.078  2.716  0.000    23.623     7.961
 587   8 O     -0.383  1.755  4.628  0.000    21.336     6.193
 588   6 C     -0.010  1.064  2.946  0.000    20.714     6.472
 589   6 C     -0.123  1.040  3.083  0.000    22.911     6.825
 590   6 C     -0.103  1.040  3.063  0.000    22.528     6.769
 591   1 H      0.214  0.786  0.000  0.000     1.036     1.595
 592   1 H      0.048  0.952  0.000  0.000     2.350     2.398
 593   1 H      0.029  0.971  0.000  0.000     2.600     2.521
 594   1 H      0.041  0.959  0.000  0.000     2.434     2.440
 595   1 H      0.065  0.935  0.000  0.000     2.139     2.287
 596   1 H      0.071  0.929  0.000  0.000     2.077     2.254
 597   1 H      0.023  0.977  0.000  0.000     2.694     2.567
 598   1 H      0.055  0.945  0.000  0.000     2.253     2.347
 599   1 H      0.040  0.960  0.000  0.000     2.452     2.449
 600   7 N     -0.384  1.295  4.090  0.000    29.942     8.127
 601   6 C      0.065  1.041  2.895  0.000    19.440     6.267
 602   6 C      0.199  1.088  2.712  0.000    23.752     7.982
 603   8 O     -0.386  1.753  4.633  0.000    21.412     6.204
 604   6 C     -0.088  1.059  3.029  0.000    22.158     6.698
 605   6 C      0.291  1.035  2.674  0.000    22.077     7.702
 606   8 O     -0.477  1.746  4.731  0.000    23.291     6.471
 607   7 N     -0.291  1.266  4.026  0.000    27.516     7.791
 608   1 H      0.197  0.803  0.000  0.000     1.124     1.661
 609   1 H      0.065  0.935  0.000  0.000     2.137     2.286
 610   1 H      0.066  0.934  0.000  0.000     2.134     2.285
 611   1 H      0.034  0.966  0.000  0.000     2.535     2.490
 612   1 H      0.225  0.775  0.000  0.000     0.986     1.555
 613   1 H      0.197  0.803  0.000  0.000     1.122     1.659
 614   1 H      0.190  0.810  0.000  0.000     1.159     1.686
 615   1 H      0.076  0.924  0.000  0.000     2.015     2.220
 616   1 H      0.184  0.816  0.000  0.000     1.190     1.709
 617   1 H      0.075  0.925  0.000  0.000     2.034     2.230
 618   1 H      0.171  0.829  0.000  0.000     1.266     1.763
 619   1 H      0.050  0.950  0.000  0.000     2.317     2.380
 620   1 H      0.179  0.821  0.000  0.000     1.217     1.728
 621   1 H      0.081  0.919  0.000  0.000     1.967     2.193
 622   1 H      0.187  0.813  0.000  0.000     1.175     1.698
 623   1 H      0.107  0.893  0.000  0.000     1.725     2.054
 624   1 H      0.186  0.814  0.000  0.000     1.179     1.700
 625   1 H      0.067  0.933  0.000  0.000     2.120     2.277
 626   1 H      0.177  0.823  0.000  0.000     1.230     1.737
 627   1 H      0.081  0.919  0.000  0.000     1.969     2.194
 628   1 H      0.200  0.800  0.000  0.000     1.108     1.649
 629   1 H      0.086  0.914  0.000  0.000     1.921     2.168
 630   1 H      0.191  0.809  0.000  0.000     1.151     1.680
 631   1 H      0.069  0.931  0.000  0.000     2.095     2.263
 632   1 H      0.196  0.804  0.000  0.000     1.126     1.662
 633   1 H      0.068  0.932  0.000  0.000     2.111     2.272
 634   1 H      0.172  0.828  0.000  0.000     1.261     1.759
 635   1 H      0.080  0.920  0.000  0.000     1.977     2.198
 636   1 H      0.196  0.804  0.000  0.000     1.124     1.660
 637   1 H      0.085  0.915  0.000  0.000     1.928     2.171
 638   1 H      0.200  0.800  0.000  0.000     1.108     1.649
 639   1 H      0.083  0.917  0.000  0.000     1.948     2.182

 Mol. C6AA /au·bohr⁶  :    3659967.204244
 Mol. C8AA /au·bohr⁸  :   80797533.122116
 Mol. α(0) /au        :       2848.963060

 
molecular dipole:
                 x           y           z       tot (Debye)
 q only:       30.184    -678.352      26.890
   full:       23.944    -681.721      27.523    1735.279
molecular quadrupole (traceless):
                xx          xy          yy          xz          yz          zz
 q only:    45676.156    6762.487  -90533.917    -455.176    5497.128   44857.761
  q+dip:    46207.873    5304.588  -91530.509    -310.766    5663.348   45322.636
   full:    46204.277    5305.551  -91523.830    -308.112    5665.337   45319.553
speedup  1.97
cpu  time for grad    1 m  4.5 s
wall time for grad    0 m 32.8 s

SCC energy    :    -973.4482700
rep           :      11.5099838
ES            :       4.0565449
AES           :      -0.1825876
AXC           :       0.3290630
disp          :      -0.8581247
XB            :       0.0000000
fix           :       0.0000000
Gborn         :       0.0000000
Gsasa         :       0.0000000
Ghb           :       0.0000000
Gshift        :       0.0000000
Gsolv         :      -1.5298373     -959.99
Etot ala COSMO:    -973.4482700
grad norm     :       0.8302939
total E       :    -961.8469562
atomizationE  :     175.6032926   110192.73
(atE without considering molecular charge,
 total energy contains solvation terms)
H-L gap (eV)  :          0.7989

------------------------------------------------------------------------
 * finished run on 2019/05/08 at 09:27:51.750     
------------------------------------------------------------------------
 total:
 * wall-time:     0 d,  0 h,  0 min, 34.420 sec
 *  cpu-time:     0 d,  0 h,  1 min,  7.401 sec
 * ratio c/w:     1.958 speedup
 SCF:
 * wall-time:     0 d,  0 h,  0 min, 33.998 sec
 *  cpu-time:     0 d,  0 h,  1 min,  6.737 sec
 * ratio c/w:     1.963 speedup

