      -----------------------------------------------------------      
     |                   =====================                   |     
     |                           x T B                           |     
     |                   =====================                   |     
     |                         S. Grimme                         |     
     |          Mulliken Center for Theoretical Chemistry        |     
     |                    University of Bonn                     |     
     |                 Version 6.0.1 (SAW181210)                 |     
      -----------------------------------------------------------      

   This program is distributed in the hope that it will be useful,
   but WITHOUT ANY WARRANTY; without even the implied warranty of
   MERCHANTABILITY or FITNESS FOR A PARTICULAR PURPOSE.
   
   FOR NON-COMMERCIAL, ACADEMIA USE ONLY.
   
   Cite this work as:
   S. Grimme, C. Bannwarth, P. Shushkov, J. Comput. Theory Chem., 2017,
   13, 1989-2009.
   C. Bannwarth, S. Ehlert and S. Grimme., ChemRxiv, 2018, preprint.
   http://doi.org/10.26434/chemrxiv.7246238.v1
   
   for sTDA-xTB:
   S. Grimme and C. Bannwarth, J. Chem. Phys., 2016, 145, 054103.
   
   in the mass-spec context:
   V. Asgeirsson, C. Bauer and S. Grimme, Chem. Sci., 2017, 8, 4879.
   
   if GBSA is used:
   P. Shushkov, F. März and S. Grimme, unpublished.
   
   for ANC optimizer:
   S. Grimme, unpublished.
   Rational Function algorithm used in ANCopt:
   F. Eckert, P. Pulay, H.-J. Werner, J. Comput. Chem., 1997, 18, 1473.
   
   with help from (in alphabetical order)
   C. Bannwarth, F. Bohle, G. Brandenburg, E. Caldeweyher, M. Checinski,
   S. Dohm, S. Ehlert, S. Ehrlich, F. März, H. Neugebauer, J. Pisarek,
   P. Pracht, P. Shushkov, and S. Spicher.
   
 * started run on 2019/04/15 at 15:18:44.321     
========================================================================
 # omp threads = 2
========================================================================
number of atoms            : 128
number of electrons        : 356
charge                     : 1
spin                       : .0
first test random number   : .0938

########################################################################
# WARNING! Please study the warnings concerning your input carefully
#  - Process number higher than OMP_NUM_THREADS, I hope you know what you are doing.
########################################################################

           ------------------------------------------------- 
          |                 G F N 2 - x T B                 |
          | Geometry, Frequencies, Noncovalent interactions |
          |            JCTC 2018 parametrisation            |
           ------------------------------------------------- 
 
      method parameters     
 k(s)        :  1.8500
 k(p)        :  2.2300
 k(d)        :  2.2300
 k(f)        :  2.0000
 kEN (H0ij)  : -2.0000
 D4 a1       :  0.5200
 D4 a2       :  5.0000
 D4 s6       :  1.0000
 D4 s8       :  2.7000
 D4 s9       :  5.0000
 alphaj      :  2.0000

 Solvent             : h2o
 Using internal parameter file: .param_gbsa2_h2o
 Gsolv ref. state (COSMO-RS): gsolv [1 M gas/solution]
 temperature (mdtemp)       :    298.150000000000     
 dielectric constant        :    80.2000000000000     
 rho                        :    1.00000000000000     
 mass                       :    18.0000000000000     
 surface tension            :    15.5689454083859     
 probe radius               :   0.975313790000000     
 vdW radii scaling          :    1.00000000000000     
 Gshift (Eh)                :   1.857443126794793E-003
 c1                         :    1.55243817000000     
 soset                      :   0.130326360000000     
 HB correction              :  T

            Z     q(EN)     CN     RAES       Cart. coordinates
     1  N   5.0   -0.10    4.14    3.27    46.23595    62.73273    58.24608
     2  C   4.0    0.01    4.31    4.21    46.86905    61.56549    60.71465
     3  C   4.0    0.14    3.37    3.07    47.45079    63.72435    62.59835
     4  O   6.0   -0.31    1.25    1.80    47.96304    65.83025    61.83901
     5  C   4.0    0.04    4.13    3.87    49.15666    59.81697    60.33800
     6  O   6.0   -0.23    2.06    1.83    48.31109    57.70719    58.94716
     7  H   1.0    0.09    1.03    1.43    46.46692    61.43342    56.81826
     8  H   1.0    0.07    1.02    1.43    44.40880    63.39588    58.23526
     9  H   1.0    0.10    1.03    1.43    47.48513    64.21884    57.90355
    10  H   1.0    0.06    1.04    1.44    45.27670    60.41491    61.36220
    11  H   1.0    0.06    1.01    1.43    50.61259    60.86268    59.28588
    12  H   1.0    0.05    1.01    1.43    49.88236    59.22595    62.18813
    13  H   1.0    0.14    1.02    1.43    49.62267    56.44458    58.84360
    14  N   5.0   -0.14    3.50    2.08    47.27475    63.06658    65.02272
    15  C   4.0    0.03    4.49    4.53    47.99603    64.74659    67.06303
    16  C   4.0    0.14    3.45    3.09    49.39857    63.10292    68.98482
    17  O   6.0   -0.28    1.26    1.80    48.95354    60.84836    69.19394
    18  C   4.0   -0.02    4.23    4.07    45.67576    66.13333    68.20232
    19  C   4.0   -0.05    4.11    3.83    43.52464    64.31704    68.82918
    20  C   4.0   -0.06    4.12    3.85    46.44705    67.65158    70.52753
    21  H   1.0    0.10    1.08    1.44    46.93445    61.26731    65.58658
    22  H   1.0    0.05    1.10    1.44    49.26711    66.18264    66.28447
    23  H   1.0    0.05    1.06    1.44    45.02944    67.45605    66.75085
    24  H   1.0    0.06    1.00    1.43    42.06408    65.32175    69.86517
    25  H   1.0    0.06    1.00    1.43    42.69352    63.53624    67.12356
    26  H   1.0    0.07    1.00    1.43    44.18704    62.77298    70.01236
    27  H   1.0    0.06    1.00    1.43    44.85704    68.76399    71.19523
    28  H   1.0    0.07    1.00    1.43    47.03601    66.42102    72.06291
    29  H   1.0    0.05    1.01    1.43    47.99014    68.93374    70.08909
    30  N   5.0   -0.14    3.54    2.10    51.22453    64.28581    70.27809
    31  C   4.0    0.04    4.37    4.33    52.69717    63.03832    72.19647
    32  C   4.0    0.09    3.24    3.04    52.51729    64.59048    74.64035
    33  O   6.0   -0.27    1.15    1.80    50.85720    66.14828    74.93949
    34  C   4.0   -0.03    4.08    3.76    55.35226    62.50760    71.19419
    35  S   6.0   -0.04    2.43    3.10    57.44350    65.26787    71.20824
    36  H   1.0    0.08    1.12    1.45    51.46521    66.16779    70.06838
    37  H   1.0    0.07    1.07    1.44    51.76996    61.20813    72.54143
    38  H   1.0    0.05    1.07    1.44    56.25123    61.03535    72.30349
    39  H   1.0    0.06    1.08    1.44    55.16647    61.87437    69.24564
    40  H   1.0    0.06    1.02    1.43    57.55878    65.55174    68.67963
    41  N   5.0   -0.17    3.24    1.97    55.25902    75.44441    71.36822
    42  C   4.0    0.03    4.38    4.35    55.26520    73.56542    69.37848
    43  C   4.0    0.15    3.49    3.11    54.68204    75.01439    66.90972
    44  O   6.0   -0.27    1.24    1.80    52.96313    76.54523    66.80228
    45  C   4.0   -0.03    4.09    3.79    53.32806    71.51984    69.92942
    46  S   6.0   -0.07    2.53    3.10    52.58235    69.68074    67.12090
    47  H   1.0    0.10    1.02    1.43    53.83453    75.46547    72.63842
    48  H   1.0    0.04    1.05    1.44    57.16833    72.75015    69.27314
    49  H   1.0    0.05    1.06    1.44    53.97752    70.30950    71.46436
    50  H   1.0    0.06    1.08    1.44    51.53139    72.36992    70.46506
    51  H   1.0    0.05    0.98    1.43    54.80340    68.51952    66.79579
    52  N   5.0   -0.15    3.52    2.09    56.17058    74.43933    64.94471
    53  C   4.0    0.04    4.40    4.38    56.16679    75.89666    62.62883
    54  C   4.0    0.15    3.39    3.07    54.65961    74.50316    60.54100
    55  O   6.0   -0.26    1.25    1.80    55.24450    74.63096    58.32456
    56  C   4.0   -0.02    4.29    4.17    58.87700    76.38711    61.73864
    57  C   4.0   -0.03    4.23    4.05    60.54508    77.55973    63.78843
    58  C   4.0    0.16    3.21    3.04    63.34239    77.24843    63.20885
    59  O   6.0   -0.25    1.21    1.80    64.15925    76.26163    61.29192
    60  N   5.0   -0.16    3.18    1.95    64.87786    78.14408    65.02811
    61  H   1.0    0.08    1.06    1.44    57.58158    73.14652    65.13078
    62  H   1.0    0.07    1.06    1.44    55.21245    77.69314    63.04202
    63  H   1.0    0.07    1.03    1.43    59.71418    74.61214    61.09507
    64  H   1.0    0.07    1.03    1.43    58.81505    77.60918    60.07952
    65  H   1.0    0.06    1.03    1.43    60.15714    79.57549    63.97193
    66  H   1.0    0.05    1.03    1.43    60.16288    76.73381    65.64136
    67  H   1.0    0.10    1.03    1.43    64.19610    78.91466    66.62470
    68  H   1.0    0.12    1.03    1.43    66.76255    78.03702    64.78355
    69  N   5.0   -0.14    3.50    2.08    52.76743    73.08033    61.45782
    70  C   4.0    0.04    4.41    4.40    51.04801    71.48882    60.01857
    71  C   4.0    0.17    3.55    3.14    52.17328    70.59135    57.49355
    72  O   6.0   -0.25    1.27    1.80    51.18024    71.13769    55.45975
    73  C   4.0   -0.03    4.29    4.18    48.52143    72.82167    59.57815
    74  C   4.0   -0.04    4.17    3.93    46.79025    72.58059    61.86853
    75  C   4.0    0.00    4.20    4.00    44.29168    73.98352    61.38607
    76  N   5.0   -0.13    3.39    2.02    42.17496    72.81157    62.65843
    77  C   4.0    0.10    3.34    3.06    40.66929    71.02277    61.73728
    78  N   5.0   -0.17    3.24    1.97    40.92376    70.08633    59.42223
    79  N   5.0   -0.17    3.25    1.97    38.85223    70.11489    63.23524
    80  H   1.0    0.09    1.11    1.44    52.27771    73.29063    63.29153
    81  H   1.0    0.05    1.06    1.44    50.73280    69.78596    61.16245
    82  H   1.0    0.07    1.03    1.43    48.88935    74.79705    59.11347
    83  H   1.0    0.07    1.04    1.43    47.66005    71.96982    57.90979
    84  H   1.0    0.06    1.03    1.43    46.45115    70.57540    62.21487
    85  H   1.0    0.05    1.02    1.43    47.73206    73.35461    63.53007
    86  H   1.0    0.06    1.03    1.43    44.43956    75.92569    62.05765
    87  H   1.0    0.06    1.03    1.43    43.92435    74.07425    59.35966
    88  H   1.0    0.09    1.07    1.44    41.96311    73.28606    64.49994
    89  H   1.0    0.10    1.03    1.43    42.28218    70.67790    58.22695
    90  H   1.0    0.10    1.03    1.43    39.56790    68.94800    58.71212
    91  H   1.0    0.10    1.03    1.43    38.58339    70.85544    64.95760
    92  H   1.0    0.10    1.03    1.43    37.65170    68.76762    62.63557
    93  N   5.0   -0.08    3.69    2.26    54.13296    69.02791    57.67242
    94  C   4.0    0.05    4.53    4.58    55.14504    67.82534    55.42291
    95  C   4.0    0.27    3.19    3.03    53.01566    66.25888    54.05061
    96  O   6.0   -0.27    1.19    1.80    51.42426    65.22581    55.43680
    97  C   4.0   -0.03    4.32    4.24    57.26116    66.10688    56.39710
    98  C   4.0   -0.04    4.26    4.11    57.92656    67.21220    58.98128
    99  C   4.0   -0.01    4.39    4.36    55.38169    68.15611    59.94999
   100  O   6.0   -0.23    1.16    1.80    53.17586    66.10567    51.70644
   101  H   1.0    0.08    1.04    1.43    55.84229    69.26414    54.09804
   102  H   1.0    0.06    1.03    1.43    56.53951    64.18258    56.58256
   103  H   1.0    0.06    1.02    1.43    58.85377    66.07321    55.09797
   104  H   1.0    0.05    1.02    1.43    58.79056    65.82780    60.22730
   105  H   1.0    0.06    1.03    1.43    59.20266    68.81423    58.75170
   106  H   1.0    0.05    1.02    1.43    54.27954    66.61513    60.78671
   107  H   1.0    0.05    1.04    1.43    55.58680    69.68036    61.31577
   108  N   5.0   -0.17    3.28    1.97    61.72074    61.18196    69.38554
   109  C   4.0    0.03    4.23    4.07    62.72803    61.07602    66.84387
   110  C   4.0    0.10    3.25    3.04    65.47846    61.92505    67.04826
   111  O   6.0   -0.25    1.15    1.80    66.01129    63.75947    68.32808
   112  C   4.0   -0.03    4.31    4.22    61.47369    62.95960    65.02784
   113  C   4.0    0.05    3.77    3.30    58.76471    62.41274    64.53620
   114  N   5.0   -0.20    2.63    1.91    56.89976    63.98883    65.37779
   115  C   4.0   -0.01    3.60    3.16    57.70730    60.40558    63.30014
   116  C   4.0    0.06    3.64    3.19    54.76572    62.96314    64.65120
   117  N   5.0   -0.11    3.46    2.05    55.16380    60.78145    63.40514
   118  H   1.0    0.10    1.08    1.44    61.36036    62.92537    70.10308
   119  H   1.0    0.05    1.05    1.44    62.51894    59.12674    66.19661
   120  H   1.0    0.06    1.04    1.43    61.60242    64.86840    65.79305
   121  H   1.0    0.05    1.03    1.43    62.53636    62.89087    63.25938
   122  H   1.0    0.06    1.02    1.43    58.54199    58.80317    62.39796
   123  H   1.0    0.05    1.02    1.43    52.92743    63.72276    65.01138
   124  H   1.0    0.08    1.05    1.44    53.83631    59.62957    62.68014
   125  H   1.0    0.07    1.05    1.44    53.78022    64.32817    76.02139
   126  H   1.0    0.10    1.07    1.44    56.66079    75.27240    72.31587
   127  H   1.0    0.10    1.08    1.44    60.24059    60.34638    69.44491
   128  H   1.0    0.07    1.04    1.43    66.83120    60.97469    66.13285

  Z AO/shell   Hii/eV     exponent
  1     Wed Apr 25 08:07:45 CEST 2018   EN: 2.200 GM2: 0.406  GM3: 0.0800  RAES: 1.40
     1s    -10.707211    1.230000
  6     Wed Apr 25 08:07:45 CEST 2018   EN: 2.550 GM2: 0.538  GM3: 0.1500  RAES: 3.00
     2s    -13.970922    2.096432
     2p    -10.063292    1.800000
  7     Wed Apr 25 08:07:45 CEST 2018   EN: 3.040 GM2: 0.461  GM3:-0.0640  RAES: 1.90
     2s    -16.686243    2.339881
     2p    -12.523956    2.014332
  8     Wed Apr 25 08:07:45 CEST 2018   EN: 3.440 GM2: 0.452  GM3:-0.0517  RAES: 1.80
     2s    -20.229985    2.439742
     2p    -15.503117    2.137023
 16     Tue Apr 24 11:44:34 CEST 2018   EN: 2.580 GM2: 0.340  GM3:-0.0502  RAES: 3.10
     3s    -20.029654    1.981333
     3p    -11.377694    2.025643
     3d     -0.420282    1.702555
 no old-style atom pair restraining (fixing) potential

molecular fragmentation (1/2 indicates fragments):
111111111111111111111111111111111111111122222222222222222222222222222222
22222222222222222222222222222222222222222222222222221222
# atoms in fragment 1/2:    41    87
 fragment masses (1/2) :      292.37      641.74
CMA distance (Bohr)    :   9.246
constraining FC (au)   :  0.0500
           ------------------------------------------------- 
          |        Self-Consistent Charge Iterations        |
           ------------------------------------------------- 

 Ncao       : 329
 Nao        : 327
 Nshell     : 193
 Nel        : 356
 T(el)      :   500.0
 intcut     :    35.0
 scfconv/Eh :  0.100E-06
   qconv/e  :  0.100E-04
 intneglect :  0.100E-08
 broydamp   :      0.400
 iter      E             dE          RMSdq      gap      omega  full diag
   1   -203.9780236 -0.203978E+03  0.474E+00    3.28       0.0  T
   2   -204.4593785 -0.481355E+00  0.223E+00    2.05       1.0  T
   3   -204.4886317 -0.292532E-01  0.120E+00    2.15       1.0  T
   4   -204.5185445 -0.299129E-01  0.289E-01    1.36       1.0  T
   5   -204.5203841 -0.183953E-02  0.145E-01    1.43       1.0  T
   6   -204.5208485 -0.464396E-03  0.632E-02    1.43       1.0  T
   7   -204.5209457 -0.971896E-04  0.293E-02    1.43       1.0  T
   8   -204.5209615 -0.158403E-04  0.131E-02    1.44       1.0  T
   9   -204.5209660 -0.446083E-05  0.630E-03    1.44       1.4  T
  10   -204.5209668 -0.826459E-06  0.289E-03    1.44       3.1  T
  11   -204.5209670 -0.218009E-06  0.119E-03    1.44       7.4  T
  12   -204.5209670 -0.317432E-07  0.567E-04    1.44      15.6  T
  13   -204.5209670 -0.664835E-08  0.240E-04    1.44      36.9  T
  14   -204.5209670 -0.580457E-09  0.828E-05    1.44     106.8  T
  15   -204.5209670 -0.140005E-09  0.359E-05    1.44     246.4  T
speedup  2.00
cpu  time for SCC    0.67 s
wall time for SCC    0.33 s

   *** convergence criteria satisfied after 15 iterations ***

          eigenvalues
 #    :         166        167        168        169        170        171        172        173
 occ. :        2.000      2.000      2.000      2.000      2.000      2.000      2.000      2.000
 eps  :       -11.108    -11.093    -11.019    -10.898    -10.743    -10.731    -10.709    -10.546
 #    :         174        175        176        177        178        179        180        181
 occ. :        2.000      2.000      2.000      2.000      2.000      0.000      0.000      0.000
 eps  :       -10.376    -10.317    -10.211     -9.984     -9.545     -8.103     -7.704     -6.595
 #    :         182        183        184        185        186        187        188        189
 occ. :        0.000      0.000      0.000      0.000      0.000      0.000      0.000      0.000
 eps  :        -6.365     -6.321     -6.111     -6.096     -6.055     -5.957     -5.856     -5.684


   #   Z            q   n(s)   n(p)   n(d)      C6AA      α(0)
   1   7 N     -0.142  1.224  3.918  0.000    24.067     7.286
   2   6 C     -0.031  1.078  2.953  0.000    21.143     6.550
   3   6 C      0.260  1.031  2.709  0.000    22.616     7.787
   4   8 O     -0.440  1.741  4.699  0.000    22.494     6.359
   5   6 C      0.064  1.038  2.898  0.000    19.725     6.364
   6   8 O     -0.469  1.711  4.758  0.000    22.237     6.366
   7   1 H      0.304  0.696  0.000  0.000     0.700     1.311
   8   1 H      0.313  0.687  0.000  0.000     0.676     1.288
   9   1 H      0.297  0.703  0.000  0.000     0.724     1.333
  10   1 H      0.151  0.849  0.000  0.000     1.385     1.840
  11   1 H      0.059  0.941  0.000  0.000     2.213     2.327
  12   1 H      0.059  0.941  0.000  0.000     2.217     2.328
  13   1 H      0.346  0.654  0.000  0.000     0.597     1.214
  14   7 N     -0.151  1.233  3.918  0.000    24.263     7.316
  15   6 C     -0.008  1.072  2.936  0.000    20.725     6.482
  16   6 C      0.273  1.042  2.686  0.000    22.393     7.749
  17   8 O     -0.476  1.746  4.730  0.000    23.260     6.466
  18   6 C     -0.022  1.067  2.956  0.000    20.940     6.509
  19   6 C     -0.128  1.039  3.088  0.000    23.005     6.839
  20   6 C     -0.127  1.041  3.086  0.000    22.987     6.836
  21   1 H      0.226  0.774  0.000  0.000     0.981     1.551
  22   1 H      0.089  0.911  0.000  0.000     1.888     2.149
  23   1 H      0.074  0.926  0.000  0.000     2.044     2.236
  24   1 H      0.059  0.941  0.000  0.000     2.207     2.323
  25   1 H      0.062  0.938  0.000  0.000     2.174     2.306
  26   1 H      0.040  0.960  0.000  0.000     2.454     2.450
  27   1 H      0.061  0.939  0.000  0.000     2.191     2.315
  28   1 H      0.044  0.956  0.000  0.000     2.395     2.420
  29   1 H      0.044  0.956  0.000  0.000     2.402     2.424
  30   7 N     -0.160  1.232  3.928  0.000    24.452     7.344
  31   6 C      0.021  1.058  2.921  0.000    20.217     6.400
  32   6 C      0.204  1.080  2.715  0.000    23.655     7.965
  33   8 O     -0.345  1.748  4.596  0.000    20.609     6.086
  34   6 C     -0.019  1.066  2.953  0.000    20.914     6.512
  35  16 S     -0.333  1.941  4.355  0.037   155.557    20.992
  36   1 H      0.212  0.788  0.000  0.000     1.045     1.601
  37   1 H      0.115  0.885  0.000  0.000     1.652     2.010
  38   1 H      0.067  0.933  0.000  0.000     2.123     2.278
  39   1 H      0.078  0.922  0.000  0.000     2.002     2.213
  40   1 H      0.206  0.794  0.000  0.000     1.069     1.617
  41   7 N     -0.387  1.315  4.072  0.000    30.002     8.135
  42   6 C      0.035  1.058  2.907  0.000    19.977     6.361
  43   6 C      0.274  1.044  2.682  0.000    22.368     7.745
  44   8 O     -0.462  1.746  4.715  0.000    22.953     6.423
  45   6 C     -0.016  1.072  2.944  0.000    20.856     6.502
  46  16 S     -0.289  1.926  4.324  0.039   153.550    20.856
  47   1 H      0.172  0.828  0.000  0.000     1.258     1.757
  48   1 H      0.033  0.967  0.000  0.000     2.548     2.496
  49   1 H      0.064  0.936  0.000  0.000     2.149     2.292
  50   1 H      0.075  0.925  0.000  0.000     2.034     2.231
  51   1 H      0.182  0.818  0.000  0.000     1.197     1.711
  52   7 N     -0.184  1.247  3.937  0.000    24.980     7.423
  53   6 C      0.012  1.067  2.921  0.000    20.389     6.430
  54   6 C      0.277  1.040  2.684  0.000    22.318     7.735
  55   8 O     -0.491  1.763  4.728  0.000    23.585     6.511
  56   6 C     -0.057  1.045  3.012  0.000    21.587     6.614
  57   6 C     -0.104  1.059  3.045  0.000    22.474     6.749
  58   6 C      0.292  1.036  2.672  0.000    22.046     7.688
  59   8 O     -0.505  1.759  4.746  0.000    23.903     6.555
  60   7 N     -0.297  1.267  4.031  0.000    27.663     7.811
  61   1 H      0.200  0.800  0.000  0.000     1.106     1.647
  62   1 H      0.087  0.913  0.000  0.000     1.905     2.159
  63   1 H      0.054  0.946  0.000  0.000     2.269     2.356
  64   1 H      0.061  0.939  0.000  0.000     2.188     2.313
  65   1 H      0.076  0.924  0.000  0.000     2.016     2.221
  66   1 H      0.073  0.927  0.000  0.000     2.049     2.239
  67   1 H      0.231  0.769  0.000  0.000     0.961     1.535
  68   1 H      0.228  0.772  0.000  0.000     0.975     1.547
  69   7 N     -0.180  1.245  3.935  0.000    24.903     7.412
  70   6 C      0.013  1.068  2.919  0.000    20.373     6.428
  71   6 C      0.280  1.036  2.684  0.000    22.261     7.727
  72   8 O     -0.536  1.764  4.773  0.000    24.601     6.650
  73   6 C     -0.071  1.051  3.020  0.000    21.851     6.654
  74   6 C     -0.090  1.059  3.031  0.000    22.219     6.711
  75   6 C     -0.026  1.052  2.974  0.000    21.125     6.558
  76   7 N     -0.136  1.208  3.928  0.000    23.954     7.269
  77   6 C      0.231  1.019  2.751  0.000    23.159     7.879
  78   7 N     -0.240  1.222  4.018  0.000    26.277     7.613
  79   7 N     -0.258  1.232  4.026  0.000    26.695     7.674
  80   1 H      0.213  0.787  0.000  0.000     1.040     1.597
  81   1 H      0.091  0.909  0.000  0.000     1.871     2.139
  82   1 H      0.045  0.955  0.000  0.000     2.388     2.417
  83   1 H      0.068  0.932  0.000  0.000     2.107     2.270
  84   1 H      0.089  0.911  0.000  0.000     1.888     2.149
  85   1 H      0.062  0.938  0.000  0.000     2.177     2.307
  86   1 H      0.086  0.914  0.000  0.000     1.923     2.168
  87   1 H      0.079  0.921  0.000  0.000     1.987     2.205
  88   1 H      0.237  0.763  0.000  0.000     0.934     1.514
  89   1 H      0.237  0.763  0.000  0.000     0.934     1.514
  90   1 H      0.257  0.743  0.000  0.000     0.858     1.451
  91   1 H      0.248  0.752  0.000  0.000     0.891     1.478
  92   1 H      0.259  0.741  0.000  0.000     0.851     1.445
  93   7 N     -0.082  1.233  3.849  0.000    22.828     7.096
  94   6 C      0.020  1.075  2.905  0.000    20.219     6.399
  95   6 C      0.373  1.026  2.602  0.000    20.684     7.443
  96   8 O     -0.604  1.734  4.870  0.000    26.212     6.864
  97   6 C     -0.054  1.051  3.003  0.000    21.519     6.600
  98   6 C     -0.061  1.050  3.012  0.000    21.657     6.621
  99   6 C     -0.003  1.051  2.953  0.000    20.673     6.479
 100   8 O     -0.652  1.784  4.868  0.000    27.441     7.023
 101   1 H     -0.003  1.003  0.000  0.000     3.114     2.760
 102   1 H      0.039  0.961  0.000  0.000     2.468     2.457
 103   1 H      0.031  0.969  0.000  0.000     2.575     2.509
 104   1 H      0.062  0.938  0.000  0.000     2.173     2.305
 105   1 H      0.043  0.957  0.000  0.000     2.409     2.427
 106   1 H      0.067  0.933  0.000  0.000     2.121     2.277
 107   1 H      0.058  0.942  0.000  0.000     2.227     2.334
 108   7 N     -0.382  1.319  4.063  0.000    29.884     8.119
 109   6 C      0.040  1.057  2.903  0.000    19.926     6.358
 110   6 C      0.204  1.084  2.711  0.000    23.659     7.967
 111   8 O     -0.361  1.753  4.607  0.000    20.911     6.131
 112   6 C     -0.072  1.049  3.022  0.000    21.856     6.654
 113   6 C      0.055  1.064  2.881  0.000    26.255     8.353
 114   7 N     -0.293  1.470  3.823  0.000    28.437     7.907
 115   6 C     -0.028  1.066  2.963  0.000    28.673     8.783
 116   6 C      0.078  1.059  2.863  0.000    26.039     8.351
 117   7 N     -0.084  1.236  3.848  0.000    22.876     7.104
 118   1 H      0.170  0.830  0.000  0.000     1.274     1.768
 119   1 H      0.055  0.945  0.000  0.000     2.258     2.350
 120   1 H      0.065  0.935  0.000  0.000     2.142     2.289
 121   1 H      0.040  0.960  0.000  0.000     2.443     2.444
 122   1 H      0.053  0.947  0.000  0.000     2.284     2.363
 123   1 H      0.055  0.945  0.000  0.000     2.253     2.347
 124   1 H      0.201  0.799  0.000  0.000     1.099     1.642
 125   1 H      0.076  0.924  0.000  0.000     2.019     2.222
 126   1 H      0.187  0.813  0.000  0.000     1.175     1.698
 127   1 H      0.177  0.823  0.000  0.000     1.229     1.737
 128   1 H      0.061  0.939  0.000  0.000     2.188     2.313

 Mol. C6AA /au·bohr⁶  :     161463.687882
 Mol. C8AA /au·bohr⁸  :    3782132.207799
 Mol. α(0) /au        :        605.511608

 
molecular dipole:
                 x           y           z       tot (Debye)
 q only:       36.386      64.036      71.249
   full:       37.454      63.560      71.396     260.953
molecular quadrupole (traceless):
                xx          xy          yy          xz          yz          zz
 q only:    -3291.415    3398.599    1064.491    4156.999    6942.729    2226.924
  q+dip:    -3166.283    3469.578     943.581    4264.282    6915.477    2222.702
   full:    -3165.797    3469.728     942.751    4264.335    6914.900    2223.047
speedup  2.00
cpu  time for grad    0.88 s
wall time for grad    0.44 s

SCC energy    :    -204.5262385
rep           :       2.3584898
ES            :       0.7586594
AES           :      -0.0323471
AXC           :       0.0748559
disp          :      -0.1538236
XB            :       0.0000000
fix           :       0.0000000
Gborn         :       0.0000000
Gsasa         :       0.0000000
Ghb           :       0.0000000
Gshift        :       0.0000000
Gsolv         :      -0.2747381     -172.40
Etot ala COSMO:    -204.5262385
grad norm     :       0.3048472
total E       :    -202.1566880
atomizationE  :      35.0141715    21971.72
(atE without considering molecular charge,
 total energy contains solvation terms)
H-L gap (eV)  :          1.4421

------------------------------------------------------------------------
 * finished run on 2019/04/15 at 15:18:44.872     
------------------------------------------------------------------------
 total:
 * wall-time:     0 d,  0 h,  0 min,  0.550 sec
 *  cpu-time:     0 d,  0 h,  0 min,  1.067 sec
 * ratio c/w:     1.939 speedup
 SCF:
 * wall-time:     0 d,  0 h,  0 min,  0.494 sec
 *  cpu-time:     0 d,  0 h,  0 min,  0.986 sec
 * ratio c/w:     1.996 speedup

