      -----------------------------------------------------------      
     |                   =====================                   |     
     |                           x T B                           |     
     |                   =====================                   |     
     |                         S. Grimme                         |     
     |          Mulliken Center for Theoretical Chemistry        |     
     |                    University of Bonn                     |     
     |                 Version 6.0.1 (SAW181210)                 |     
      -----------------------------------------------------------      

   This program is distributed in the hope that it will be useful,
   but WITHOUT ANY WARRANTY; without even the implied warranty of
   MERCHANTABILITY or FITNESS FOR A PARTICULAR PURPOSE.
   
   FOR NON-COMMERCIAL, ACADEMIA USE ONLY.
   
   Cite this work as:
   S. Grimme, C. Bannwarth, P. Shushkov, J. Comput. Theory Chem., 2017,
   13, 1989-2009.
   C. Bannwarth, S. Ehlert and S. Grimme., ChemRxiv, 2018, preprint.
   http://doi.org/10.26434/chemrxiv.7246238.v1
   
   for sTDA-xTB:
   S. Grimme and C. Bannwarth, J. Chem. Phys., 2016, 145, 054103.
   
   in the mass-spec context:
   V. Asgeirsson, C. Bauer and S. Grimme, Chem. Sci., 2017, 8, 4879.
   
   if GBSA is used:
   P. Shushkov, F. März and S. Grimme, unpublished.
   
   for ANC optimizer:
   S. Grimme, unpublished.
   Rational Function algorithm used in ANCopt:
   F. Eckert, P. Pulay, H.-J. Werner, J. Comput. Chem., 1997, 18, 1473.
   
   with help from (in alphabetical order)
   C. Bannwarth, F. Bohle, G. Brandenburg, E. Caldeweyher, M. Checinski,
   S. Dohm, S. Ehlert, S. Ehrlich, F. März, H. Neugebauer, J. Pisarek,
   P. Pracht, P. Shushkov, and S. Spicher.
   
 * started run on 2019/05/09 at 21:08:15.895     
========================================================================
 # omp threads = 2
========================================================================
number of atoms            : 156
number of electrons        : 396
charge                     : 1
spin                       : .0
first test random number   : .4311

########################################################################
# WARNING! Please study the warnings concerning your input carefully
#  - Process number higher than OMP_NUM_THREADS, I hope you know what you are doing.
########################################################################

           ------------------------------------------------- 
          |                 G F N 2 - x T B                 |
          | Geometry, Frequencies, Noncovalent interactions |
          |            JCTC 2018 parametrisation            |
           ------------------------------------------------- 
 
      method parameters     
 k(s)        :  1.8500
 k(p)        :  2.2300
 k(d)        :  2.2300
 k(f)        :  2.0000
 kEN (H0ij)  : -2.0000
 D4 a1       :  0.5200
 D4 a2       :  5.0000
 D4 s6       :  1.0000
 D4 s8       :  2.7000
 D4 s9       :  5.0000
 alphaj      :  2.0000

 Solvent             : h2o
 Using internal parameter file: .param_gbsa2_h2o
 Gsolv ref. state (COSMO-RS): gsolv [1 M gas/solution]
 temperature (mdtemp)       :    298.150000000000     
 dielectric constant        :    80.2000000000000     
 rho                        :    1.00000000000000     
 mass                       :    18.0000000000000     
 surface tension            :    15.5689454083859     
 probe radius               :   0.975313790000000     
 vdW radii scaling          :    1.00000000000000     
 Gshift (Eh)                :   1.857443126794793E-003
 c1                         :    1.55243817000000     
 soset                      :   0.130326360000000     
 HB correction              :  T

            Z     q(EN)     CN     RAES       Cart. coordinates
     1  N   5.0   -0.21    3.20    1.96   105.07449   103.20321   371.49596
     2  C   4.0    0.03    4.28    4.16   102.84259   104.71503   372.10456
     3  C   4.0    0.15    3.39    3.07   101.19772   103.54492   374.24866
     4  O   6.0   -0.32    1.30    1.80   100.48689   104.93644   375.90253
     5  C   4.0   -0.05    4.34    4.27   101.34175   105.15415   369.70766
     6  C   4.0   -0.02    4.17    3.94    99.20541   107.15507   369.93722
     7  C   4.0   -0.07    4.10    3.80   100.18371   109.83956   370.52274
     8  C   4.0   -0.07    4.13    3.87    97.84794   107.27588   367.38496
     9  H   1.0    0.09    1.04    1.43   105.40557   102.77294   369.75439
    10  H   1.0    0.04    1.04    1.43   103.43809   106.56759   372.92136
    11  H   1.0    0.04    1.03    1.43   102.62502   105.83350   368.23618
    12  H   1.0    0.04    1.04    1.43   100.49209   103.39266   369.13968
    13  H   1.0    0.05    1.05    1.44    97.91849   106.60233   371.43038
    14  H   1.0    0.04    1.00    1.43    98.60059   111.13148   370.55810
    15  H   1.0    0.04    1.00    1.43   101.08149   109.91172   372.36581
    16  H   1.0    0.05    1.00    1.43   101.50273   110.43410   369.09318
    17  H   1.0    0.05    1.01    1.43    96.39659   108.65896   367.44232
    18  H   1.0    0.05    1.01    1.43    99.22812   107.76958   365.94845
    19  H   1.0    0.05    1.01    1.43    97.06819   105.44946   366.95844
    20  N   5.0   -0.15    3.39    2.02   100.58320   101.16302   374.16706
    21  C   4.0    0.04    4.29    4.17    98.89471   100.08549   376.09024
    22  C   4.0    0.10    3.17    3.03    99.91912   100.27871   378.83388
    23  O   6.0   -0.30    1.15    1.80    98.69330   100.91405   380.49079
    24  C   4.0   -0.05    4.19    3.97    98.23752    97.29300   375.32833
    25  C   4.0   -0.05    4.12    3.84    96.24761    97.09675   373.15494
    26  C   4.0   -0.05    4.12    3.84    96.32249    94.55840   371.72131
    27  C   4.0   -0.03    4.12    3.83    93.65470    93.46631   371.39628
    28  N   5.0   -0.11    3.99    2.85    93.59006    91.13172   369.82796
    29  H   1.0    0.07    1.04    1.43   101.05982    99.99017   372.64018
    30  H   1.0    0.06    1.05    1.44    97.12682   101.17049   376.08464
    31  H   1.0    0.04    1.03    1.43    99.98957    96.39665   374.76092
    32  H   1.0    0.05    1.02    1.43    97.53215    96.33545   377.00701
    33  H   1.0    0.05    1.01    1.43    94.37226    97.39946   374.03723
    34  H   1.0    0.04    1.03    1.43    96.57197    98.66658   371.89089
    35  H   1.0    0.04    1.02    1.43    97.22232    94.91381   369.90072
    36  H   1.0    0.05    1.03    1.43    97.47427    93.25220   372.78964
    37  H   1.0    0.05    1.02    1.43    92.87284    93.03487   373.26209
    38  H   1.0    0.05    1.03    1.43    92.40883    94.84353   370.54495
    39  H   1.0    0.07    1.02    1.43    91.69930    90.69523   369.48948
    40  H   1.0    0.06    1.02    1.43    94.47011    91.39753   368.11582
    41  H   1.0    0.06    1.02    1.43    94.42823    89.63061   370.75364
    42  N   5.0   -0.21    3.27    1.97   104.59613   104.19831   380.51294
    43  C   4.0    0.03    4.35    4.29   104.80256   106.78893   381.32767
    44  C   4.0    0.15    3.56    3.14   102.30823   107.71686   382.34956
    45  O   6.0   -0.31    1.31    1.80   102.24986   109.42308   384.03363
    46  C   4.0   -0.03    4.33    4.26   105.39414   108.55557   379.10019
    47  C   4.0   -0.01    3.74    3.27   104.89799   111.28000   379.69076
    48  C   4.0   -0.00    3.63    3.19   103.49381   112.90831   378.29389
    49  C   4.0    0.02    3.89    3.45   106.17304   112.80042   381.52815
    50  N   5.0   -0.12    3.49    2.07   103.92473   115.34702   379.00184
    51  C   4.0    0.03    3.89    3.45   105.47312   115.35262   381.04832
    52  C   4.0   -0.04    3.37    3.07   107.90916   112.27100   383.49357
    53  C   4.0   -0.05    3.39    3.08   106.31087   117.35385   382.55598
    54  C   4.0   -0.04    3.37    3.07   108.73851   114.30789   384.94157
    55  C   4.0   -0.04    3.37    3.07   107.90287   116.77432   384.53327
    56  H   1.0    0.09    1.03    1.43   104.89894   103.71658   378.72784
    57  H   1.0    0.04    1.05    1.44   106.23346   106.94805   382.80005
    58  H   1.0    0.04    1.04    1.43   107.35073   108.33383   378.58403
    59  H   1.0    0.05    1.04    1.43   104.19351   108.03187   377.51861
    60  H   1.0    0.05    1.03    1.43   102.24561   112.49044   376.76336
    61  H   1.0    0.08    1.05    1.44   102.94297   116.87311   378.39029
    62  H   1.0    0.05    1.03    1.43   108.55046   110.37633   383.82130
    63  H   1.0    0.06    1.03    1.43   105.73595   119.24423   382.10526
    64  H   1.0    0.06    1.03    1.43   110.07913   113.94169   386.41407
    65  H   1.0    0.06    1.03    1.43   108.60052   118.23628   385.74491
    66  N   5.0   -0.13    3.43    2.04   100.29229   106.76315   381.35627
    67  C   4.0    0.02    4.26    4.12    97.79320   107.52993   382.08054
    68  C   4.0    0.16    3.34    3.06    97.28065   106.92407   384.85410
    69  O   6.0   -0.29    1.22    1.80    96.54349   108.60290   386.34774
    70  H   1.0    0.11    1.08    1.44   100.50697   105.66291   379.72899
    71  H   1.0    0.06    1.02    1.43    97.55240   109.59065   381.82578
    72  H   1.0    0.05    1.02    1.43    96.37924   106.54981   380.91719
    73  N   5.0   -0.14    3.44    2.04    97.68355   104.51492   385.52544
    74  C   4.0    0.04    4.43    4.43    97.88593   103.63295   388.13461
    75  C   4.0    0.17    3.52    3.12    99.66179   105.28763   389.72565
    76  O   6.0   -0.28    1.31    1.80    98.96876   106.17772   391.64500
    77  C   4.0   -0.05    4.43    4.44    98.94397   100.94805   388.23479
    78  C   4.0   -0.02    4.22    4.04    97.06141    98.98584   387.36663
    79  C   4.0   -0.07    4.18    3.96    98.30132    96.44276   387.84960
    80  C   4.0   -0.06    4.17    3.94    94.63987    98.96934   388.78845
    81  H   1.0    0.10    1.07    1.44    98.25910   103.29998   384.15039
    82  H   1.0    0.06    1.06    1.44    96.03895   103.70257   389.03380
    83  H   1.0    0.04    1.02    1.43   100.64239   100.88555   387.02875
    84  H   1.0    0.05    1.05    1.44    99.46072   100.57986   390.15308
    85  H   1.0    0.06    1.04    1.43    96.66313    99.27558   385.32051
    86  H   1.0    0.05    0.99    1.43    97.05874    94.93157   387.13428
    87  H   1.0    0.05    0.99    1.43   100.05002    96.27813   386.71767
    88  H   1.0    0.05    1.03    1.43    98.66660    96.18293   389.74907
    89  H   1.0    0.05    1.01    1.43    93.38413    97.55660   388.01676
    90  H   1.0    0.05    1.00    1.43    95.00150    98.48526   390.76647
    91  H   1.0    0.05    1.00    1.43    93.64121   100.76115   388.76443
    92  N   5.0   -0.14    3.54    2.11   101.94798   105.53858   388.88920
    93  C   4.0    0.04    4.60    4.66   103.77884   106.80486   390.41151
    94  C   4.0    0.15    3.60    3.17   102.90127   109.42658   390.95778
    95  O   6.0   -0.26    1.18    1.80   103.08612   110.32357   393.34110
    96  C   4.0   -0.03    4.28    4.17   106.44969   106.94037   389.25321
    97  C   4.0   -0.06    4.14    3.89   108.12346   108.64292   390.83863
    98  C   4.0   -0.07    4.13    3.86   107.44469   104.20488   389.19081
    99  H   1.0    0.07    1.02    1.43   102.55850   104.77260   387.10712
   100  H   1.0    0.06    1.06    1.44   103.93102   105.77493   392.22961
   101  H   1.0    0.05    1.05    1.44   106.29296   107.70348   387.34081
   102  H   1.0    0.05    1.01    1.43   110.06956   108.45244   390.30563
   103  H   1.0    0.06    1.00    1.43   107.56206   110.61288   390.65064
   104  H   1.0    0.06    1.00    1.43   107.91860   108.13687   392.84516
   105  H   1.0    0.05    1.01    1.43   109.28518   104.17513   388.38660
   106  H   1.0    0.05    1.01    1.43   107.48461   103.50525   391.11031
   107  H   1.0    0.04    1.00    1.43   106.17330   103.04338   388.08407
   108  N   5.0   -0.14    3.54    2.10   102.13166   110.78428   389.12310
   109  C   4.0    0.04    4.46    4.47   101.50443   113.49361   389.31143
   110  C   4.0    0.17    3.52    3.12    99.36085   113.72376   391.17943
   111  O   6.0   -0.26    1.26    1.80    99.32061   115.38547   392.73733
   112  C   4.0   -0.04    4.31    4.21   100.86393   114.83131   386.81068
   113  C   4.0   -0.02    4.19    3.98   100.05971   117.57180   387.20751
   114  C   4.0   -0.06    4.13    3.86   101.97993   119.28064   388.51776
   115  C   4.0   -0.07    4.14    3.88    99.78596   118.81180   384.54957
   116  H   1.0    0.11    1.13    1.45   102.15593   109.98299   387.36358
   117  H   1.0    0.06    1.07    1.44   103.14155   114.42790   390.12387
   118  H   1.0    0.05    1.03    1.43   102.52543   114.72987   385.59598
   119  H   1.0    0.06    1.03    1.43    99.34758   113.80539   385.86179
   120  H   1.0    0.06    1.05    1.44    98.26890   117.59555   388.20270
   121  H   1.0    0.05    0.99    1.43   101.34865   121.26739   388.43174
   122  H   1.0    0.07    1.02    1.43   102.27105   118.79845   390.41794
   123  H   1.0    0.04    1.00    1.43   103.76919   119.19982   387.49016
   124  H   1.0    0.05    0.99    1.43    99.28905   120.83430   384.76788
   125  H   1.0    0.04    1.01    1.43   101.57346   118.73357   383.59375
   126  H   1.0    0.05    1.01    1.43    98.38503   117.92774   383.43354
   127  N   5.0   -0.12    3.42    2.03    97.69915   111.89862   390.98902
   128  C   4.0    0.04    4.10    3.80    95.61751   111.57896   392.73133
   129  C   4.0    0.12    3.09    3.02    96.38769   112.04350   395.61879
   130  O   6.0   -0.24    1.10    1.80    95.35343   113.61110   396.94456
   131  H   1.0    0.11    1.09    1.44    97.72104   110.62493   389.53864
   132  H   1.0    0.07    1.02    1.43    94.06121   112.84870   392.27329
   133  H   1.0    0.06    1.02    1.43    94.93983   109.61739   392.64354
   134  N   5.0   -0.20    3.26    1.97    90.72921   107.21408   374.80823
   135  C   4.0    0.03    4.32    4.24    91.86110   107.53431   377.21946
   136  C   4.0    0.08    3.21    3.04    90.10797   106.83539   379.39818
   137  O   6.0   -0.26    1.10    1.80    90.86057   105.05357   380.86805
   138  C   4.0   -0.04    4.48    4.50    92.70036   110.21905   377.55239
   139  C   4.0   -0.04    4.18    3.97    94.90414   110.51932   375.80397
   140  S   6.0   -0.04    2.56    3.10    96.59048   113.33543   376.75388
   141  C   4.0   -0.06    3.94    3.52    93.90745   115.40341   376.36180
   142  H   1.0    0.09    1.03    1.43    89.94873   108.70403   373.94030
   143  H   1.0    0.05    1.07    1.44    93.48189   106.24890   377.37059
   144  H   1.0    0.04    1.04    1.43    91.12524   111.46681   377.13646
   145  H   1.0    0.05    1.03    1.43    93.28526   110.55252   379.56079
   146  H   1.0    0.05    1.09    1.44    96.21226   108.96847   375.96945
   147  H   1.0    0.04    1.07    1.44    94.29197   110.75484   373.86784
   148  H   1.0    0.05    1.06    1.44    94.61715   117.29678   376.41460
   149  H   1.0    0.05    1.03    1.43    93.10975   115.01285   374.46108
   150  H   1.0    0.05    1.03    1.43    92.47542   115.13137   377.79732
   151  H   1.0    0.10    1.07    1.44   106.47350   104.02647   372.00349
   152  H   1.0    0.06    1.05    1.44   101.71901    99.83746   379.20369
   153  H   1.0    0.09    1.08    1.44   105.71051   103.24261   381.37163
   154  H   1.0    0.08    1.04    1.43    97.77158   111.02354   396.40340
   155  H   1.0    0.09    1.08    1.44    91.89392   106.64987   373.70474
   156  H   1.0    0.06    1.04    1.43    88.46960   107.74979   379.62325

  Z AO/shell   Hii/eV     exponent
  1     Wed Apr 25 08:07:45 CEST 2018   EN: 2.200 GM2: 0.406  GM3: 0.0800  RAES: 1.40
     1s    -10.707211    1.230000
  6     Wed Apr 25 08:07:45 CEST 2018   EN: 2.550 GM2: 0.538  GM3: 0.1500  RAES: 3.00
     2s    -13.970922    2.096432
     2p    -10.063292    1.800000
  7     Wed Apr 25 08:07:45 CEST 2018   EN: 3.040 GM2: 0.461  GM3:-0.0640  RAES: 1.90
     2s    -16.686243    2.339881
     2p    -12.523956    2.014332
  8     Wed Apr 25 08:07:45 CEST 2018   EN: 3.440 GM2: 0.452  GM3:-0.0517  RAES: 1.80
     2s    -20.229985    2.439742
     2p    -15.503117    2.137023
 16     Tue Apr 24 11:44:34 CEST 2018   EN: 2.580 GM2: 0.340  GM3:-0.0502  RAES: 3.10
     3s    -20.029654    1.981333
     3p    -11.377694    2.025643
     3d     -0.420282    1.702555
 no old-style atom pair restraining (fixing) potential

molecular fragmentation (1/2 indicates fragments):
111111111111111111111111111111111111111112222222222222222222222222222222
222222222222222222222222222222222222222222222222222222222222222222222222
222222112222
# atoms in fragment 1/2:    43   113
 fragment masses (1/2) :      244.36      760.99
CMA distance (Bohr)    :  14.809
constraining FC (au)   :  0.0500
           ------------------------------------------------- 
          |        Self-Consistent Charge Iterations        |
           ------------------------------------------------- 

 Ncao       : 372
 Nao        : 371
 Nshell     : 227
 Nel        : 396
 T(el)      :   500.0
 intcut     :    35.0
 scfconv/Eh :  0.100E-06
   qconv/e  :  0.100E-04
 intneglect :  0.100E-08
 broydamp   :      0.400
 iter      E             dE          RMSdq      gap      omega  full diag
   1   -222.9087361 -0.222909E+03  0.423E+00    2.46       0.0  T
   2   -223.3404111 -0.431675E+00  0.207E+00    1.08       1.0  T
   3   -223.3595274 -0.191163E-01  0.114E+00    1.86       1.0  T
   4   -223.3969529 -0.374255E-01  0.276E-01    1.32       1.0  T
   5   -223.4007645 -0.381158E-02  0.129E-01    1.52       1.0  T
   6   -223.4013648 -0.600306E-03  0.551E-02    1.45       1.0  T
   7   -223.4015033 -0.138512E-03  0.236E-02    1.45       1.0  T
   8   -223.4015230 -0.196921E-04  0.121E-02    1.45       1.0  T
   9   -223.4015283 -0.531799E-05  0.487E-03    1.45       1.6  T
  10   -223.4015291 -0.795367E-06  0.247E-03    1.45       3.2  T
  11   -223.4015292 -0.117848E-06  0.108E-03    1.45       7.4  T
  12   -223.4015292 -0.258788E-07  0.506E-04    1.45      15.8  T
  13   -223.4015292 -0.523966E-08  0.224E-04    1.45      35.8  T
  14   -223.4015292 -0.108761E-08  0.118E-04    1.45      67.8  T
  15   -223.4015292 -0.395346E-09  0.496E-05    1.45     161.6  T
  16   -223.4015292 -0.723901E-10  0.212E-05    1.45     377.7  T
speedup  2.00
cpu  time for SCC    2.16 s
wall time for SCC    1.08 s

   *** convergence criteria satisfied after 16 iterations ***

          eigenvalues
 #    :         186        187        188        189        190        191        192        193
 occ. :        2.000      2.000      2.000      2.000      2.000      2.000      2.000      2.000
 eps  :       -11.144    -10.998    -10.977    -10.934    -10.799    -10.592    -10.406    -10.281
 #    :         194        195        196        197        198        199        200        201
 occ. :        2.000      2.000      2.000      2.000      2.000      0.000      0.000      0.000
 eps  :       -10.253    -10.212    -10.081     -9.784     -9.739     -8.285     -7.640     -7.277
 #    :         202        203        204        205        206        207        208        209
 occ. :        0.000      0.000      0.000      0.000      0.000      0.000      0.000      0.000
 eps  :        -6.464     -6.236     -6.145     -6.071     -5.789     -5.640     -5.613     -5.518


   #   Z            q   n(s)   n(p)   n(d)      C6AA      α(0)
   1   7 N     -0.403  1.298  4.105  0.000    30.447     8.195
   2   6 C      0.028  1.065  2.906  0.000    20.119     6.390
   3   6 C      0.270  1.042  2.688  0.000    22.436     7.756
   4   8 O     -0.504  1.735  4.769  0.000    23.878     6.552
   5   6 C     -0.076  1.061  3.014  0.000    21.938     6.667
   6   6 C     -0.014  1.061  2.954  0.000    20.799     6.487
   7   6 C     -0.110  1.038  3.072  0.000    22.660     6.787
   8   6 C     -0.121  1.038  3.083  0.000    22.867     6.816
   9   1 H      0.174  0.826  0.000  0.000     1.250     1.751
  10   1 H      0.024  0.976  0.000  0.000     2.678     2.559
  11   1 H      0.045  0.955  0.000  0.000     2.389     2.417
  12   1 H      0.055  0.945  0.000  0.000     2.262     2.352
  13   1 H      0.027  0.973  0.000  0.000     2.623     2.533
  14   1 H      0.037  0.963  0.000  0.000     2.485     2.465
  15   1 H      0.029  0.971  0.000  0.000     2.604     2.524
  16   1 H      0.038  0.962  0.000  0.000     2.477     2.461
  17   1 H      0.044  0.956  0.000  0.000     2.399     2.422
  18   1 H      0.039  0.961  0.000  0.000     2.464     2.455
  19   1 H      0.048  0.952  0.000  0.000     2.339     2.392
  20   7 N     -0.158  1.249  3.909  0.000    24.422     7.340
  21   6 C      0.005  1.075  2.919  0.000    20.507     6.450
  22   6 C      0.221  1.069  2.710  0.000    23.342     7.912
  23   8 O     -0.324  1.709  4.614  0.000    20.217     6.028
  24   6 C     -0.086  1.067  3.019  0.000    22.149     6.702
  25   6 C     -0.079  1.058  3.021  0.000    22.022     6.683
  26   6 C     -0.093  1.054  3.040  0.000    22.281     6.721
  27   6 C     -0.051  1.058  2.993  0.000    21.587     6.632
  28   7 N     -0.146  1.231  3.916  0.000    24.156     7.300
  29   1 H      0.226  0.774  0.000  0.000     0.981     1.552
  30   1 H      0.080  0.920  0.000  0.000     1.978     2.199
  31   1 H      0.076  0.924  0.000  0.000     2.016     2.220
  32   1 H      0.069  0.931  0.000  0.000     2.095     2.263
  33   1 H      0.061  0.939  0.000  0.000     2.186     2.312
  34   1 H      0.061  0.939  0.000  0.000     2.183     2.311
  35   1 H      0.082  0.918  0.000  0.000     1.959     2.189
  36   1 H      0.084  0.916  0.000  0.000     1.935     2.175
  37   1 H      0.116  0.884  0.000  0.000     1.646     2.006
  38   1 H      0.116  0.884  0.000  0.000     1.647     2.007
  39   1 H      0.301  0.699  0.000  0.000     0.711     1.321
  40   1 H      0.298  0.702  0.000  0.000     0.720     1.330
  41   1 H      0.298  0.702  0.000  0.000     0.718     1.327
  42   7 N     -0.394  1.296  4.098  0.000    30.200     8.162
  43   6 C      0.038  1.052  2.911  0.000    19.950     6.361
  44   6 C      0.262  1.046  2.692  0.000    22.592     7.785
  45   8 O     -0.545  1.767  4.778  0.000    24.806     6.678
  46   6 C     -0.067  1.049  3.018  0.000    21.775     6.641
  47   6 C     -0.033  1.066  2.967  0.000    28.785     8.799
  48   6 C     -0.006  1.064  2.941  0.000    28.103     8.693
  49   6 C     -0.017  1.079  2.938  0.000    28.235     8.700
  50   7 N     -0.108  1.228  3.880  0.000    23.360     7.178
  51   6 C      0.042  1.062  2.895  0.000    26.952     8.510
  52   6 C     -0.044  1.083  2.961  0.000    29.084     8.843
  53   6 C     -0.059  1.071  2.988  0.000    29.457     8.899
  54   6 C     -0.049  1.077  2.972  0.000    29.216     8.864
  55   6 C     -0.041  1.073  2.968  0.000    29.018     8.834
  56   1 H      0.165  0.835  0.000  0.000     1.303     1.788
  57   1 H      0.039  0.961  0.000  0.000     2.468     2.457
  58   1 H      0.056  0.944  0.000  0.000     2.252     2.347
  59   1 H      0.054  0.946  0.000  0.000     2.269     2.355
  60   1 H      0.045  0.955  0.000  0.000     2.382     2.414
  61   1 H      0.188  0.812  0.000  0.000     1.167     1.693
  62   1 H      0.025  0.975  0.000  0.000     2.659     2.550
  63   1 H      0.029  0.971  0.000  0.000     2.604     2.523
  64   1 H      0.017  0.983  0.000  0.000     2.778     2.606
  65   1 H      0.020  0.980  0.000  0.000     2.734     2.586
  66   7 N     -0.138  1.235  3.903  0.000    23.987     7.274
  67   6 C     -0.021  1.049  2.972  0.000    21.011     6.537
  68   6 C      0.273  1.045  2.681  0.000    22.380     7.746
  69   8 O     -0.516  1.765  4.751  0.000    24.147     6.588
  70   1 H      0.241  0.759  0.000  0.000     0.921     1.503
  71   1 H      0.080  0.920  0.000  0.000     1.975     2.198
  72   1 H      0.092  0.908  0.000  0.000     1.865     2.135
  73   7 N     -0.174  1.252  3.922  0.000    24.770     7.392
  74   6 C      0.007  1.066  2.927  0.000    20.463     6.442
  75   6 C      0.293  1.021  2.686  0.000    22.032     7.688
  76   8 O     -0.479  1.734  4.746  0.000    23.324     6.475
  77   6 C     -0.080  1.059  3.021  0.000    22.011     6.676
  78   6 C     -0.010  1.050  2.960  0.000    20.727     6.475
  79   6 C     -0.124  1.042  3.082  0.000    22.896     6.817
  80   6 C     -0.116  1.035  3.081  0.000    22.760     6.799
  81   1 H      0.231  0.769  0.000  0.000     0.962     1.536
  82   1 H      0.078  0.922  0.000  0.000     2.002     2.213
  83   1 H      0.056  0.944  0.000  0.000     2.247     2.344
  84   1 H      0.062  0.938  0.000  0.000     2.179     2.308
  85   1 H      0.050  0.950  0.000  0.000     2.323     2.384
  86   1 H      0.048  0.952  0.000  0.000     2.344     2.394
  87   1 H      0.042  0.958  0.000  0.000     2.421     2.433
  88   1 H      0.054  0.946  0.000  0.000     2.270     2.356
  89   1 H      0.054  0.946  0.000  0.000     2.264     2.353
  90   1 H      0.037  0.963  0.000  0.000     2.486     2.466
  91   1 H      0.030  0.970  0.000  0.000     2.587     2.515
  92   7 N     -0.177  1.245  3.931  0.000    24.823     7.400
  93   6 C      0.034  1.055  2.910  0.000    19.977     6.359
  94   6 C      0.266  1.051  2.684  0.000    22.519     7.771
  95   8 O     -0.615  1.818  4.797  0.000    26.501     6.902
  96   6 C     -0.019  1.064  2.955  0.000    20.878     6.499
  97   6 C     -0.109  1.035  3.073  0.000    22.636     6.784
  98   6 C     -0.131  1.042  3.089  0.000    23.061     6.846
  99   1 H      0.197  0.803  0.000  0.000     1.125     1.662
 100   1 H      0.068  0.932  0.000  0.000     2.104     2.269
 101   1 H      0.045  0.955  0.000  0.000     2.386     2.416
 102   1 H      0.066  0.934  0.000  0.000     2.129     2.282
 103   1 H      0.028  0.972  0.000  0.000     2.619     2.531
 104   1 H      0.041  0.959  0.000  0.000     2.432     2.439
 105   1 H      0.071  0.929  0.000  0.000     2.070     2.250
 106   1 H      0.056  0.944  0.000  0.000     2.249     2.345
 107   1 H      0.055  0.945  0.000  0.000     2.258     2.350
 108   7 N     -0.159  1.250  3.909  0.000    24.447     7.343
 109   6 C      0.026  1.061  2.913  0.000    20.138     6.388
 110   6 C      0.300  1.022  2.678  0.000    21.905     7.665
 111   8 O     -0.497  1.742  4.755  0.000    23.718     6.530
 112   6 C     -0.069  1.056  3.013  0.000    21.816     6.649
 113   6 C     -0.007  1.055  2.952  0.000    20.671     6.467
 114   6 C     -0.113  1.037  3.076  0.000    22.703     6.791
 115   6 C     -0.121  1.045  3.076  0.000    22.852     6.813
 116   1 H      0.242  0.758  0.000  0.000     0.916     1.499
 117   1 H      0.066  0.934  0.000  0.000     2.132     2.284
 118   1 H      0.065  0.935  0.000  0.000     2.142     2.289
 119   1 H      0.055  0.945  0.000  0.000     2.257     2.349
 120   1 H      0.025  0.975  0.000  0.000     2.663     2.552
 121   1 H      0.041  0.959  0.000  0.000     2.431     2.438
 122   1 H      0.036  0.964  0.000  0.000     2.506     2.475
 123   1 H      0.043  0.957  0.000  0.000     2.408     2.427
 124   1 H      0.040  0.960  0.000  0.000     2.448     2.447
 125   1 H      0.051  0.949  0.000  0.000     2.305     2.374
 126   1 H      0.047  0.953  0.000  0.000     2.361     2.403
 127   7 N     -0.161  1.235  3.926  0.000    24.482     7.349
 128   6 C     -0.023  1.056  2.967  0.000    21.078     6.553
 129   6 C      0.216  1.090  2.694  0.000    23.434     7.927
 130   8 O     -0.353  1.748  4.605  0.000    20.761     6.109
 131   1 H      0.219  0.781  0.000  0.000     1.012     1.576
 132   1 H      0.089  0.911  0.000  0.000     1.887     2.148
 133   1 H      0.102  0.898  0.000  0.000     1.768     2.079
 134   7 N     -0.382  1.297  4.085  0.000    29.871     8.117
 135   6 C      0.048  1.048  2.905  0.000    19.768     6.329
 136   6 C      0.182  1.106  2.712  0.000    24.085     8.037
 137   8 O     -0.392  1.789  4.603  0.000    21.524     6.220
 138   6 C     -0.063  1.053  3.010  0.000    21.655     6.615
 139   6 C     -0.006  1.058  2.948  0.000    20.664     6.469
 140  16 S     -0.223  1.919  4.254  0.049   150.577    20.653
 141   6 C     -0.059  1.054  3.005  0.000    21.710     6.647
 142   1 H      0.170  0.830  0.000  0.000     1.275     1.769
 143   1 H      0.061  0.939  0.000  0.000     2.185     2.312
 144   1 H      0.057  0.943  0.000  0.000     2.230     2.335
 145   1 H      0.033  0.967  0.000  0.000     2.540     2.492
 146   1 H      0.067  0.933  0.000  0.000     2.113     2.273
 147   1 H      0.060  0.940  0.000  0.000     2.196     2.317
 148   1 H      0.060  0.940  0.000  0.000     2.204     2.322
 149   1 H      0.055  0.945  0.000  0.000     2.253     2.348
 150   1 H      0.052  0.948  0.000  0.000     2.299     2.371
 151   1 H      0.171  0.829  0.000  0.000     1.265     1.762
 152   1 H      0.064  0.936  0.000  0.000     2.157     2.297
 153   1 H      0.186  0.814  0.000  0.000     1.180     1.702
 154   1 H      0.071  0.929  0.000  0.000     2.073     2.251
 155   1 H      0.194  0.806  0.000  0.000     1.135     1.669
 156   1 H      0.084  0.916  0.000  0.000     1.934     2.175

 Mol. C6AA /au·bohr⁶  :     217274.686644
 Mol. C8AA /au·bohr⁸  :    4927437.772234
 Mol. α(0) /au        :        703.782316

 
molecular dipole:
                 x           y           z       tot (Debye)
 q only:       94.217      84.257     357.061
   full:       94.700      84.519     355.730     960.031
molecular quadrupole (traceless):
                xx          xy          yy          xz          yz          zz
 q only:   -58000.706   11836.271  -61079.340   50381.913   44485.399  119080.046
  q+dip:   -57418.869   11944.714  -60569.280   50463.433   44408.739  117988.148
   full:   -57417.959   11946.562  -60567.684   50462.687   44409.142  117985.643
speedup  2.00
cpu  time for grad    3.15 s
wall time for grad    1.58 s

SCC energy    :    -223.4112724
rep           :       3.0016908
ES            :       0.6101297
AES           :      -0.0078307
AXC           :       0.0990190
disp          :      -0.1822772
XB            :       0.0000000
fix           :       0.0000000
Gborn         :       0.0000000
Gsasa         :       0.0000000
Ghb           :       0.0000000
Gshift        :       0.0000000
Gsolv         :      -0.2253177     -141.39
Etot ala COSMO:    -223.4112724
grad norm     :       0.5381808
total E       :    -220.3965901
atomizationE  :      42.1617601    26456.90
(atE without considering molecular charge,
 total energy contains solvation terms)
H-L gap (eV)  :          1.4536

------------------------------------------------------------------------
 * finished run on 2019/05/09 at 21:08:17.703     
------------------------------------------------------------------------
 total:
 * wall-time:     0 d,  0 h,  0 min,  1.805 sec
 *  cpu-time:     0 d,  0 h,  0 min,  3.462 sec
 * ratio c/w:     1.917 speedup
 SCF:
 * wall-time:     0 d,  0 h,  0 min,  1.667 sec
 *  cpu-time:     0 d,  0 h,  0 min,  3.331 sec
 * ratio c/w:     1.998 speedup

