      -----------------------------------------------------------      
     |                   =====================                   |     
     |                           x T B                           |     
     |                   =====================                   |     
     |                         S. Grimme                         |     
     |          Mulliken Center for Theoretical Chemistry        |     
     |                    University of Bonn                     |     
     |                 Version 6.0.1 (SAW181210)                 |     
      -----------------------------------------------------------      

   This program is distributed in the hope that it will be useful,
   but WITHOUT ANY WARRANTY; without even the implied warranty of
   MERCHANTABILITY or FITNESS FOR A PARTICULAR PURPOSE.
   
   FOR NON-COMMERCIAL, ACADEMIA USE ONLY.
   
   Cite this work as:
   S. Grimme, C. Bannwarth, P. Shushkov, J. Comput. Theory Chem., 2017,
   13, 1989-2009.
   C. Bannwarth, S. Ehlert and S. Grimme., ChemRxiv, 2018, preprint.
   http://doi.org/10.26434/chemrxiv.7246238.v1
   
   for sTDA-xTB:
   S. Grimme and C. Bannwarth, J. Chem. Phys., 2016, 145, 054103.
   
   in the mass-spec context:
   V. Asgeirsson, C. Bauer and S. Grimme, Chem. Sci., 2017, 8, 4879.
   
   if GBSA is used:
   P. Shushkov, F. März and S. Grimme, unpublished.
   
   for ANC optimizer:
   S. Grimme, unpublished.
   Rational Function algorithm used in ANCopt:
   F. Eckert, P. Pulay, H.-J. Werner, J. Comput. Chem., 1997, 18, 1473.
   
   with help from (in alphabetical order)
   C. Bannwarth, F. Bohle, G. Brandenburg, E. Caldeweyher, M. Checinski,
   S. Dohm, S. Ehlert, S. Ehrlich, F. März, H. Neugebauer, J. Pisarek,
   P. Pracht, P. Shushkov, and S. Spicher.
   
 * started run on 2019/05/05 at 17:07:24.628     
========================================================================
 # omp threads = 2
========================================================================
number of atoms            : 156
number of electrons        : 414
charge                     : 1
spin                       : .0
first test random number   : .2230

########################################################################
# WARNING! Please study the warnings concerning your input carefully
#  - Process number higher than OMP_NUM_THREADS, I hope you know what you are doing.
########################################################################

           ------------------------------------------------- 
          |                 G F N 2 - x T B                 |
          | Geometry, Frequencies, Noncovalent interactions |
          |            JCTC 2018 parametrisation            |
           ------------------------------------------------- 
 
      method parameters     
 k(s)        :  1.8500
 k(p)        :  2.2300
 k(d)        :  2.2300
 k(f)        :  2.0000
 kEN (H0ij)  : -2.0000
 D4 a1       :  0.5200
 D4 a2       :  5.0000
 D4 s6       :  1.0000
 D4 s8       :  2.7000
 D4 s9       :  5.0000
 alphaj      :  2.0000

 Solvent             : h2o
 Using internal parameter file: .param_gbsa2_h2o
 Gsolv ref. state (COSMO-RS): gsolv [1 M gas/solution]
 temperature (mdtemp)       :    298.150000000000     
 dielectric constant        :    80.2000000000000     
 rho                        :    1.00000000000000     
 mass                       :    18.0000000000000     
 surface tension            :    15.5689454083859     
 probe radius               :   0.975313790000000     
 vdW radii scaling          :    1.00000000000000     
 Gshift (Eh)                :   1.857443126794793E-003
 c1                         :    1.55243817000000     
 soset                      :   0.130326360000000     
 HB correction              :  T

            Z     q(EN)     CN     RAES       Cart. coordinates
     1  N   5.0   -0.19    3.20    1.96    24.41330    67.00481    33.14888
     2  C   4.0    0.04    4.21    4.03    22.63398    65.25836    34.35944
     3  C   4.0    0.09    3.20    3.04    20.01152    66.43577    34.50305
     4  O   6.0   -0.26    1.11    1.80    18.08023    65.13541    34.35996
     5  C   4.0   -0.04    4.24    4.08    23.60293    64.70026    37.07995
     6  C   4.0   -0.04    4.22    4.03    25.94623    63.03647    36.89045
     7  C   4.0   -0.00    4.21    4.02    25.50275    60.22452    36.63501
     8  N   5.0   -0.13    3.40    2.02    24.71050    59.15631    39.04830
     9  C   4.0    0.10    3.34    3.06    24.63893    56.69691    39.54390
    10  N   5.0   -0.17    3.25    1.97    25.71053    55.00908    38.03497
    11  N   5.0   -0.17    3.24    1.97    23.38557    55.89564    41.58835
    12  H   1.0    0.09    1.02    1.43    25.96215    67.59835    34.10348
    13  H   1.0    0.06    1.05    1.44    22.50155    63.52691    33.23934
    14  H   1.0    0.05    1.03    1.43    24.03222    66.49505    37.98282
    15  H   1.0    0.05    1.03    1.43    22.10209    63.77000    38.13459
    16  H   1.0    0.05    1.04    1.43    27.08069    63.64817    35.29033
    17  H   1.0    0.05    1.03    1.43    27.11091    63.32566    38.56822
    18  H   1.0    0.05    1.02    1.43    24.05808    59.82554    35.20932
    19  H   1.0    0.05    1.03    1.43    27.27360    59.34916    36.05392
    20  H   1.0    0.08    1.07    1.44    23.65367    60.31919    40.13599
    21  H   1.0    0.09    1.03    1.43    26.68473    55.45756    36.44803
    22  H   1.0    0.10    1.03    1.43    25.69603    53.17330    38.53525
    23  H   1.0    0.09    1.03    1.43    22.73521    57.14996    42.86175
    24  H   1.0    0.10    1.03    1.43    23.48258    54.07279    42.12616
    25  N   5.0   -0.18    3.18    1.95    10.05464    60.89122    36.78096
    26  C   4.0    0.03    4.21    4.03    10.53545    58.95711    38.71942
    27  C   4.0    0.16    3.44    3.09    11.12368    56.40975    37.47232
    28  O   6.0   -0.27    1.27    1.80    10.17857    55.67060    35.51770
    29  C   4.0   -0.06    4.11    3.82     8.23123    58.52219    40.40833
    30  H   1.0    0.09    1.02    1.43     8.64667    62.16307    37.04358
    31  H   1.0    0.05    1.05    1.44    12.16378    59.54957    39.85116
    32  H   1.0    0.06    1.00    1.43     8.70431    57.15891    41.86819
    33  H   1.0    0.06    1.00    1.43     7.65131    60.27693    41.30322
    34  H   1.0    0.07    1.00    1.43     6.66452    57.77578    39.30675
    35  N   5.0   -0.14    3.49    2.07    12.68647    54.90813    38.78263
    36  C   4.0    0.05    4.51    4.55    13.37824    52.46890    37.69564
    37  C   4.0    0.16    3.47    3.10    11.11281    50.76653    37.20697
    38  O   6.0   -0.29    1.22    1.80    11.02161    49.39961    35.32681
    39  C   4.0    0.05    4.25    4.11    15.25283    51.13622    39.48088
    40  O   6.0   -0.24    2.13    1.84    17.45246    52.66385    39.61013
    41  C   4.0   -0.05    4.11    3.82    16.01450    48.58094    38.46009
    42  H   1.0    0.10    1.10    1.44    13.36743    55.39713    40.50879
    43  H   1.0    0.07    1.05    1.44    14.28511    52.79096    35.86022
    44  H   1.0    0.05    1.04    1.43    14.38709    50.94626    41.34961
    45  H   1.0    0.13    1.03    1.43    17.11811    54.10570    40.68071
    46  H   1.0    0.06    1.00    1.43    17.36573    47.71830    39.74297
    47  H   1.0    0.05    1.01    1.43    14.39473    47.33787    38.29162
    48  H   1.0    0.07    1.00    1.43    16.89933    48.79563    36.62300
    49  N   5.0   -0.14    3.47    2.06     9.36032    50.76769    39.01254
    50  C   4.0    0.04    4.45    4.46     6.88380    49.56425    38.63027
    51  C   4.0    0.16    3.56    3.14     5.15382    51.44685    37.20663
    52  O   6.0   -0.31    1.32    1.80     4.47328    53.42786    38.24023
    53  C   4.0   -0.03    4.35    4.28     5.65917    49.01867    41.16538
    54  C   4.0    0.15    3.26    3.04     3.39801    47.32615    40.78528
    55  O   6.0   -0.33    1.32    1.80     2.06560    47.30925    38.86639
    56  N   5.0   -0.19    3.19    1.95     2.89947    45.81766    42.73808
    57  H   1.0    0.10    1.09    1.44     9.48562    51.99345    40.49245
    58  H   1.0    0.05    1.06    1.44     7.17069    47.85254    37.52855
    59  H   1.0    0.05    1.03    1.43     7.01347    48.11876    42.42522
    60  H   1.0    0.06    1.03    1.43     5.04337    50.79951    42.01244
    61  H   1.0    0.10    1.03    1.43     1.42857    44.60351    42.64449
    62  H   1.0    0.09    1.03    1.43     3.97910    45.82017    44.30449
    63  N   5.0   -0.10    3.66    2.22     4.45807    50.82746    34.87021
    64  C   4.0    0.04    4.62    4.69     2.90245    52.64886    33.50810
    65  C   4.0    0.15    3.46    3.10     0.42393    53.30515    34.86484
    66  O   6.0   -0.30    1.32    1.80    -0.65242    55.34648    34.42224
    67  C   4.0   -0.03    4.34    4.27     2.31490    51.38953    30.95928
    68  C   4.0   -0.03    4.25    4.11     4.60021    49.70086    30.55629
    69  C   4.0   -0.01    4.34    4.28     5.11396    48.70891    33.26108
    70  H   1.0    0.06    1.05    1.44     3.96661    54.40572    33.23901
    71  H   1.0    0.05    1.03    1.43     0.61974    50.23003    31.13517
    72  H   1.0    0.06    1.02    1.43     2.00396    52.77083    29.46885
    73  H   1.0    0.05    1.02    1.43     4.22765    48.15349    29.25953
    74  H   1.0    0.06    1.02    1.43     6.20975    50.79579    29.89360
    75  H   1.0    0.04    1.02    1.43     3.89306    47.09405    33.67595
    76  H   1.0    0.06    1.02    1.43     7.10189    48.21812    33.50487
    77  N   5.0   -0.14    3.47    2.06    -0.54586    51.52526    36.35595
    78  C   4.0    0.04    4.39    4.37    -2.89031    52.09909    37.78056
    79  C   4.0    0.16    3.42    3.08    -2.58924    54.39939    39.57504
    80  O   6.0   -0.28    1.23    1.80    -4.42624    55.66693    40.17455
    81  C   4.0   -0.04    4.36    4.30    -3.61087    49.77628    39.34848
    82  C   4.0   -0.02    4.19    3.99    -5.95852    50.17158    40.99021
    83  C   4.0   -0.06    4.12    3.83    -8.27943    49.93289    39.32031
    84  C   4.0   -0.06    4.07    3.74    -6.04917    48.27653    43.22416
    85  H   1.0    0.11    1.09    1.44     0.40097    49.91890    36.80451
    86  H   1.0    0.07    1.05    1.44    -4.37319    52.57675    36.42405
    87  H   1.0    0.05    1.03    1.43    -3.92544    48.19067    38.07043
    88  H   1.0    0.06    1.03    1.43    -1.99919    49.31412    40.55423
    89  H   1.0    0.07    1.07    1.44    -5.93838    52.05714    41.82574
    90  H   1.0    0.06    1.00    1.43    -9.96821    50.24870    40.44236
    91  H   1.0    0.06    1.00    1.43    -8.23132    51.28069    37.77795
    92  H   1.0    0.05    1.00    1.43    -8.39040    48.04122    38.52119
    93  H   1.0    0.06    1.00    1.43    -7.74557    48.59534    44.33212
    94  H   1.0    0.05    1.00    1.43    -6.06987    46.34305    42.52904
    95  H   1.0    0.05    1.00    1.43    -4.41999    48.53149    44.44698
    96  N   5.0   -0.14    3.50    2.08    -0.27029    54.87682    40.43600
    97  C   4.0    0.04    4.33    4.25     0.29731    57.03184    42.06548
    98  C   4.0    0.16    3.39    3.08     1.25155    59.35048    40.62642
    99  O   6.0   -0.30    1.27    1.80     1.95696    61.24611    41.79017
   100  C   4.0   -0.06    4.11    3.82     2.26578    56.20054    44.02831
   101  H   1.0    0.11    1.11    1.44     1.27688    54.01637    39.68483
   102  H   1.0    0.07    1.06    1.44    -1.47228    57.57246    42.99539
   103  H   1.0    0.06    1.00    1.43     2.77629    57.80984    45.19317
   104  H   1.0    0.05    1.00    1.43     1.45447    54.71880    45.18872
   105  H   1.0    0.06    1.00    1.43     3.93655    55.51140    43.05194
   106  N   5.0   -0.12    3.47    2.06     1.43730    59.14282    38.12059
   107  C   4.0    0.04    4.28    4.16     2.49950    61.16022    36.58483
   108  C   4.0    0.11    3.21    3.04     0.47302    63.08183    35.79956
   109  O   6.0   -0.24    1.12    1.80    -1.80545    62.65987    35.87513
   110  C   4.0    0.04    4.12    3.85     3.85254    60.06429    34.25380
   111  O   6.0   -0.22    2.07    1.83     2.01952    59.28052    32.48999
   112  H   1.0    0.12    1.10    1.44     0.52165    57.73915    37.19363
   113  H   1.0    0.05    1.06    1.44     3.85669    62.15742    37.78765
   114  H   1.0    0.06    1.01    1.43     4.94637    61.54485    33.32744
   115  H   1.0    0.06    1.01    1.43     5.10005    58.51382    34.83050
   116  H   1.0    0.16    1.08    1.44     0.99358    57.90109    33.17492
   117  N   5.0   -0.20    3.19    1.95     4.85694    41.87477    33.41989
   118  C   4.0    0.03    4.27    4.14     7.45905    42.28672    34.29671
   119  C   4.0    0.09    3.19    3.03     9.42065    40.60492    32.97210
   120  O   6.0   -0.26    1.11    1.80    11.58233    41.30419    32.45073
   121  C   4.0   -0.02    4.24    4.09     7.53367    42.08294    37.20759
   122  C   4.0   -0.06    4.12    3.84     7.07717    39.35501    38.04685
   123  C   4.0   -0.06    4.12    3.83    10.08823    42.99072    38.18315
   124  H   1.0    0.10    1.04    1.43     3.50871    41.38599    34.68756
   125  H   1.0    0.05    1.06    1.44     7.98431    44.22301    33.75889
   126  H   1.0    0.05    1.05    1.44     6.00498    43.27303    37.92704
   127  H   1.0    0.05    1.00    1.43     6.93549    39.25525    40.09289
   128  H   1.0    0.06    1.00    1.43     5.33457    38.60626    37.24876
   129  H   1.0    0.06    1.00    1.43     8.61670    38.13715    37.44084
   130  H   1.0    0.05    1.00    1.43    10.10123    42.95353    40.23395
   131  H   1.0    0.06    1.00    1.43    11.57281    41.75152    37.49913
   132  H   1.0    0.06    1.00    1.43    10.47835    44.89602    37.52384
   133  O   6.0   -0.28    1.92    1.82     4.71164    65.86693    41.90633
   134  H   1.0    0.15    0.97    1.43     3.82885    67.01874    42.99472
   135  H   1.0    0.16    1.00    1.43     3.75931    64.29939    41.94848
   136  O   6.0   -0.30    1.94    1.82     0.34239    42.97659    36.52952
   137  H   1.0    0.15    1.02    1.43     0.85392    44.47277    37.48197
   138  H   1.0    0.13    0.97    1.43    -0.64638    43.65599    35.15525
   139  O   6.0   -0.32    1.98    1.82    14.82606    56.51425    43.47614
   140  H   1.0    0.13    0.97    1.43    15.78327    56.07283    44.96262
   141  H   1.0    0.13    0.97    1.43    13.52306    57.64701    44.03411
   142  O   6.0   -0.31    1.95    1.82     9.82029    52.95979    44.09394
   143  H   1.0    0.13    0.97    1.43    11.25257    52.41414    45.07063
   144  H   1.0    0.14    0.99    1.43     8.35344    52.58780    45.12706
   145  O   6.0   -0.25    1.92    1.82    -6.61168    62.94547    42.48939
   146  H   1.0    0.15    0.97    1.43    -5.25971    61.75337    42.30343
   147  H   1.0    0.15    0.97    1.43    -6.17982    64.36093    41.42275
   148  O   6.0   -0.31    1.95    1.82     5.68334    51.50176    47.51321
   149  H   1.0    0.14    0.97    1.43     6.17206    50.73410    49.08708
   150  H   1.0    0.13    0.97    1.43     4.15170    52.41421    47.83640
   151  H   1.0    0.11    1.07    1.44    25.04466    66.28737    31.74203
   152  H   1.0    0.07    1.05    1.44    19.82504    68.30393    34.71814
   153  H   1.0    0.11    1.07    1.44    11.44653    61.84655    36.57466
   154  H   1.0    0.07    1.05    1.44     0.98279    64.79364    35.18238
   155  H   1.0    0.10    1.07    1.44     4.26643    43.30040    32.70474
   156  H   1.0    0.07    1.05    1.44     8.97209    38.83551    32.48320

  Z AO/shell   Hii/eV     exponent
  1     Wed Apr 25 08:07:45 CEST 2018   EN: 2.200 GM2: 0.406  GM3: 0.0800  RAES: 1.40
     1s    -10.707211    1.230000
  6     Wed Apr 25 08:07:45 CEST 2018   EN: 2.550 GM2: 0.538  GM3: 0.1500  RAES: 3.00
     2s    -13.970922    2.096432
     2p    -10.063292    1.800000
  7     Wed Apr 25 08:07:45 CEST 2018   EN: 3.040 GM2: 0.461  GM3:-0.0640  RAES: 1.90
     2s    -16.686243    2.339881
     2p    -12.523956    2.014332
  8     Wed Apr 25 08:07:45 CEST 2018   EN: 3.440 GM2: 0.452  GM3:-0.0517  RAES: 1.80
     2s    -20.229985    2.439742
     2p    -15.503117    2.137023
 no old-style atom pair restraining (fixing) potential

molecular fragmentation (1/2 indicates fragments):
111111111111111111111111222222222222222222222222222222222222222222222222
222222222222222222222222222222222222222222222222222222222222222222222222
222222112222
# atoms in fragment 1/2:    26   130
 fragment masses (1/2) :      159.21      865.97
CMA distance (Bohr)    :  20.983
constraining FC (au)   :  0.0500
           ------------------------------------------------- 
          |        Self-Consistent Charge Iterations        |
           ------------------------------------------------- 

 Ncao       : 366
 Nao        : 366
 Nshell     : 226
 Nel        : 414
 T(el)      :   500.0
 intcut     :    35.0
 scfconv/Eh :  0.100E-06
   qconv/e  :  0.100E-04
 intneglect :  0.100E-08
 broydamp   :      0.400
 iter      E             dE          RMSdq      gap      omega  full diag
   1   -240.3758168 -0.240376E+03  0.481E+00    3.47       0.0  T
   2   -240.9335416 -0.557725E+00  0.225E+00    1.98       1.0  T
   3   -240.9712496 -0.377080E-01  0.119E+00    2.06       1.0  T
   4   -241.0129949 -0.417454E-01  0.278E-01    1.63       1.0  T
   5   -241.0146462 -0.165131E-02  0.112E-01    1.78       1.0  T
   6   -241.0150699 -0.423660E-03  0.362E-02    1.75       1.0  T
   7   -241.0151104 -0.404897E-04  0.181E-02    1.74       1.0  T
   8   -241.0151147 -0.428369E-05  0.608E-03    1.74       1.3  T
   9   -241.0151161 -0.144102E-05  0.228E-03    1.74       3.5  T
  10   -241.0151162 -0.125283E-06  0.870E-04    1.74       9.2  T
  11   -241.0151162 -0.169444E-07  0.393E-04    1.74      20.4  T
  12   -241.0151162 -0.295987E-08  0.113E-04    1.74      71.0  T
  13   -241.0151162 -0.378208E-09  0.524E-05    1.74     152.7  T
  14   -241.0151162 -0.741238E-10  0.211E-05    1.74     379.4  T
speedup  2.00
cpu  time for SCC    0.71 s
wall time for SCC    0.36 s

   *** convergence criteria satisfied after 14 iterations ***

          eigenvalues
 #    :         195        196        197        198        199        200        201        202
 occ. :        2.000      2.000      2.000      2.000      2.000      2.000      2.000      2.000
 eps  :       -11.364    -11.284    -11.187    -11.153    -11.149    -11.073    -11.021    -10.967
 #    :         203        204        205        206        207        208        209        210
 occ. :        2.000      2.000      2.000      2.000      2.000      0.000      0.000      0.000
 eps  :       -10.893    -10.665    -10.013     -9.782     -9.733     -7.996     -7.740     -7.630
 #    :         211        212        213        214        215        216        217        218
 occ. :        0.000      0.000      0.000      0.000      0.000      0.000      0.000      0.000
 eps  :        -6.773     -6.658     -6.454     -6.388     -6.167     -6.118     -5.958     -5.635


   #   Z            q   n(s)   n(p)   n(d)      C6AA      α(0)
   1   7 N     -0.399  1.319  4.080  0.000    30.354     8.183
   2   6 C      0.034  1.063  2.904  0.000    20.025     6.375
   3   6 C      0.199  1.093  2.708  0.000    23.764     7.984
   4   8 O     -0.397  1.768  4.629  0.000    21.621     6.234
   5   6 C     -0.074  1.059  3.016  0.000    21.920     6.665
   6   6 C     -0.082  1.047  3.036  0.000    22.067     6.687
   7   6 C     -0.024  1.051  2.973  0.000    21.082     6.551
   8   7 N     -0.143  1.218  3.926  0.000    24.105     7.292
   9   6 C      0.233  1.018  2.749  0.000    23.105     7.870
  10   7 N     -0.243  1.226  4.017  0.000    26.336     7.622
  11   7 N     -0.255  1.238  4.017  0.000    26.637     7.665
  12   1 H      0.173  0.827  0.000  0.000     1.257     1.756
  13   1 H      0.065  0.935  0.000  0.000     2.143     2.289
  14   1 H      0.067  0.933  0.000  0.000     2.120     2.277
  15   1 H      0.060  0.940  0.000  0.000     2.202     2.321
  16   1 H      0.070  0.930  0.000  0.000     2.086     2.259
  17   1 H      0.080  0.920  0.000  0.000     1.980     2.201
  18   1 H      0.076  0.924  0.000  0.000     2.020     2.223
  19   1 H      0.088  0.912  0.000  0.000     1.894     2.152
  20   1 H      0.228  0.772  0.000  0.000     0.973     1.545
  21   1 H      0.245  0.755  0.000  0.000     0.904     1.489
  22   1 H      0.253  0.747  0.000  0.000     0.872     1.463
  23   1 H      0.246  0.754  0.000  0.000     0.897     1.484
  24   1 H      0.251  0.749  0.000  0.000     0.879     1.468
  25   7 N     -0.393  1.316  4.077  0.000    30.171     8.158
  26   6 C      0.031  1.061  2.908  0.000    20.065     6.381
  27   6 C      0.278  1.045  2.677  0.000    22.293     7.733
  28   8 O     -0.502  1.755  4.747  0.000    23.827     6.545
  29   6 C     -0.121  1.041  3.080  0.000    22.876     6.819
  30   1 H      0.147  0.853  0.000  0.000     1.422     1.868
  31   1 H      0.038  0.962  0.000  0.000     2.475     2.460
  32   1 H      0.068  0.932  0.000  0.000     2.106     2.270
  33   1 H      0.054  0.946  0.000  0.000     2.265     2.354
  34   1 H      0.041  0.959  0.000  0.000     2.431     2.438
  35   7 N     -0.211  1.259  3.952  0.000    25.586     7.513
  36   6 C      0.011  1.068  2.921  0.000    20.388     6.428
  37   6 C      0.280  1.041  2.678  0.000    22.253     7.725
  38   8 O     -0.507  1.753  4.753  0.000    23.939     6.560
  39   6 C      0.106  1.051  2.843  0.000    18.923     6.210
  40   8 O     -0.462  1.714  4.748  0.000    22.096     6.346
  41   6 C     -0.128  1.038  3.090  0.000    23.009     6.840
  42   1 H      0.239  0.761  0.000  0.000     0.928     1.509
  43   1 H      0.073  0.927  0.000  0.000     2.048     2.238
  44   1 H      0.044  0.956  0.000  0.000     2.393     2.419
  45   1 H      0.337  0.663  0.000  0.000     0.620     1.237
  46   1 H      0.076  0.924  0.000  0.000     2.018     2.222
  47   1 H      0.042  0.958  0.000  0.000     2.417     2.431
  48   1 H      0.062  0.938  0.000  0.000     2.174     2.306
  49   7 N     -0.189  1.256  3.933  0.000    25.097     7.440
  50   6 C      0.032  1.057  2.911  0.000    20.036     6.374
  51   6 C      0.262  1.049  2.689  0.000    22.584     7.783
  52   8 O     -0.507  1.746  4.761  0.000    23.938     6.560
  53   6 C     -0.116  1.060  3.055  0.000    22.697     6.780
  54   6 C      0.284  1.038  2.678  0.000    22.191     7.714
  55   8 O     -0.512  1.744  4.767  0.000    24.048     6.575
  56   7 N     -0.264  1.263  4.001  0.000    26.835     7.694
  57   1 H      0.233  0.767  0.000  0.000     0.952     1.528
  58   1 H      0.074  0.926  0.000  0.000     2.046     2.237
  59   1 H      0.105  0.895  0.000  0.000     1.737     2.061
  60   1 H      0.110  0.890  0.000  0.000     1.700     2.039
  61   1 H      0.241  0.759  0.000  0.000     0.921     1.503
  62   1 H      0.246  0.754  0.000  0.000     0.897     1.484
  63   7 N     -0.080  1.234  3.846  0.000    22.787     7.090
  64   6 C      0.023  1.065  2.913  0.000    20.162     6.387
  65   6 C      0.275  1.044  2.680  0.000    22.345     7.741
  66   8 O     -0.515  1.760  4.755  0.000    24.116     6.584
  67   6 C     -0.070  1.053  3.016  0.000    21.806     6.644
  68   6 C     -0.074  1.054  3.019  0.000    21.883     6.656
  69   6 C     -0.011  1.056  2.955  0.000    20.803     6.500
  70   1 H      0.070  0.930  0.000  0.000     2.084     2.257
  71   1 H      0.062  0.938  0.000  0.000     2.179     2.308
  72   1 H      0.070  0.930  0.000  0.000     2.086     2.258
  73   1 H      0.076  0.924  0.000  0.000     2.018     2.222
  74   1 H      0.066  0.934  0.000  0.000     2.135     2.285
  75   1 H      0.071  0.929  0.000  0.000     2.077     2.254
  76   1 H      0.081  0.919  0.000  0.000     1.969     2.194
  77   7 N     -0.181  1.259  3.922  0.000    24.915     7.413
  78   6 C      0.020  1.071  2.909  0.000    20.253     6.409
  79   6 C      0.281  1.042  2.678  0.000    22.250     7.724
  80   8 O     -0.496  1.755  4.740  0.000    23.686     6.525
  81   6 C     -0.077  1.060  3.018  0.000    21.969     6.672
  82   6 C     -0.014  1.056  2.958  0.000    20.791     6.486
  83   6 C     -0.114  1.039  3.075  0.000    22.737     6.798
  84   6 C     -0.122  1.046  3.076  0.000    22.904     6.825
  85   1 H      0.236  0.764  0.000  0.000     0.941     1.519
  86   1 H      0.073  0.927  0.000  0.000     2.050     2.239
  87   1 H      0.070  0.930  0.000  0.000     2.086     2.258
  88   1 H      0.060  0.940  0.000  0.000     2.197     2.318
  89   1 H      0.038  0.962  0.000  0.000     2.479     2.462
  90   1 H      0.039  0.961  0.000  0.000     2.464     2.455
  91   1 H      0.032  0.968  0.000  0.000     2.562     2.503
  92   1 H      0.046  0.954  0.000  0.000     2.374     2.409
  93   1 H      0.043  0.957  0.000  0.000     2.408     2.427
  94   1 H      0.050  0.950  0.000  0.000     2.314     2.379
  95   1 H      0.046  0.954  0.000  0.000     2.372     2.408
  96   7 N     -0.194  1.252  3.942  0.000    25.208     7.457
  97   6 C      0.024  1.060  2.916  0.000    20.177     6.397
  98   6 C      0.270  1.047  2.682  0.000    22.432     7.756
  99   8 O     -0.496  1.741  4.755  0.000    23.704     6.528
 100   6 C     -0.134  1.044  3.089  0.000    23.123     6.856
 101   1 H      0.219  0.781  0.000  0.000     1.016     1.579
 102   1 H      0.079  0.921  0.000  0.000     1.988     2.205
 103   1 H      0.083  0.917  0.000  0.000     1.945     2.181
 104   1 H      0.075  0.925  0.000  0.000     2.027     2.226
 105   1 H      0.078  0.922  0.000  0.000     2.003     2.213
 106   7 N     -0.163  1.237  3.926  0.000    24.527     7.355
 107   6 C      0.020  1.063  2.918  0.000    20.252     6.409
 108   6 C      0.205  1.085  2.709  0.000    23.640     7.962
 109   8 O     -0.368  1.760  4.608  0.000    21.054     6.152
 110   6 C      0.077  1.041  2.882  0.000    19.505     6.327
 111   8 O     -0.494  1.721  4.774  0.000    22.772     6.442
 112   1 H      0.203  0.797  0.000  0.000     1.090     1.636
 113   1 H      0.101  0.899  0.000  0.000     1.777     2.085
 114   1 H      0.076  0.924  0.000  0.000     2.016     2.220
 115   1 H      0.059  0.941  0.000  0.000     2.211     2.325
 116   1 H      0.328  0.672  0.000  0.000     0.643     1.260
 117   7 N     -0.401  1.314  4.087  0.000    30.404     8.189
 118   6 C      0.033  1.062  2.904  0.000    20.029     6.375
 119   6 C      0.203  1.092  2.705  0.000    23.681     7.969
 120   8 O     -0.390  1.766  4.624  0.000    21.484     6.214
 121   6 C     -0.012  1.066  2.946  0.000    20.752     6.479
 122   6 C     -0.121  1.040  3.081  0.000    22.881     6.820
 123   6 C     -0.118  1.040  3.078  0.000    22.805     6.809
 124   1 H      0.182  0.818  0.000  0.000     1.200     1.716
 125   1 H      0.046  0.954  0.000  0.000     2.376     2.410
 126   1 H      0.045  0.955  0.000  0.000     2.378     2.411
 127   1 H      0.056  0.944  0.000  0.000     2.247     2.344
 128   1 H      0.052  0.948  0.000  0.000     2.297     2.370
 129   1 H      0.036  0.964  0.000  0.000     2.506     2.475
 130   1 H      0.057  0.943  0.000  0.000     2.230     2.335
 131   1 H      0.039  0.961  0.000  0.000     2.463     2.454
 132   1 H      0.040  0.960  0.000  0.000     2.453     2.449
 133   8 O     -0.658  1.766  4.892  0.000    26.619     6.963
 134   1 H      0.327  0.673  0.000  0.000     0.646     1.263
 135   1 H      0.313  0.687  0.000  0.000     0.682     1.298
 136   8 O     -0.643  1.771  4.871  0.000    26.238     6.913
 137   1 H      0.316  0.684  0.000  0.000     0.674     1.289
 138   1 H      0.309  0.691  0.000  0.000     0.694     1.308
 139   8 O     -0.634  1.752  4.882  0.000    26.010     6.883
 140   1 H      0.345  0.655  0.000  0.000     0.599     1.216
 141   1 H      0.318  0.682  0.000  0.000     0.668     1.284
 142   8 O     -0.636  1.760  4.875  0.000    26.055     6.889
 143   1 H      0.323  0.677  0.000  0.000     0.655     1.272
 144   1 H      0.321  0.679  0.000  0.000     0.662     1.278
 145   8 O     -0.640  1.767  4.873  0.000    26.164     6.904
 146   1 H      0.306  0.694  0.000  0.000     0.702     1.316
 147   1 H      0.333  0.667  0.000  0.000     0.628     1.245
 148   8 O     -0.640  1.754  4.887  0.000    26.173     6.905
 149   1 H      0.340  0.660  0.000  0.000     0.611     1.228
 150   1 H      0.313  0.687  0.000  0.000     0.684     1.299
 151   1 H      0.179  0.821  0.000  0.000     1.219     1.730
 152   1 H      0.072  0.928  0.000  0.000     2.066     2.248
 153   1 H      0.181  0.819  0.000  0.000     1.209     1.723
 154   1 H      0.087  0.913  0.000  0.000     1.907     2.160
 155   1 H      0.169  0.831  0.000  0.000     1.277     1.770
 156   1 H      0.070  0.930  0.000  0.000     2.081     2.256

 Mol. C6AA /au·bohr⁶  :     197645.013006
 Mol. C8AA /au·bohr⁸  :    4248272.508473
 Mol. α(0) /au        :        658.474228

 
molecular dipole:
                 x           y           z       tot (Debye)
 q only:       28.706      52.288      46.999
   full:       28.700      52.740      48.069     195.501
molecular quadrupole (traceless):
                xx          xy          yy          xz          yz          zz
 q only:    -1805.581    2504.175    1331.504    1799.683    3673.809     474.076
  q+dip:    -1875.761    2514.585    1332.846    1816.522    3785.212     542.915
   full:    -1875.550    2514.451    1330.518    1817.098    3783.480     545.032
speedup  2.00
cpu  time for grad    0.98 s
wall time for grad    0.49 s

SCC energy    :    -241.0216701
rep           :       2.6986744
ES            :       0.8613526
AES           :      -0.0311852
AXC           :       0.0691356
disp          :      -0.1676851
XB            :       0.0000000
fix           :       0.0000000
Gborn         :       0.0000000
Gsasa         :       0.0000000
Ghb           :       0.0000000
Gshift        :       0.0000000
Gsolv         :      -0.2291602     -143.80
Etot ala COSMO:    -241.0216701
grad norm     :       0.3961007
total E       :    -238.3108973
atomizationE  :      40.4960166    25411.63
(atE without considering molecular charge,
 total energy contains solvation terms)
H-L gap (eV)  :          1.7363

------------------------------------------------------------------------
 * finished run on 2019/05/05 at 17:07:25.361     
------------------------------------------------------------------------
 total:
 * wall-time:     0 d,  0 h,  0 min,  0.732 sec
 *  cpu-time:     0 d,  0 h,  0 min,  1.261 sec
 * ratio c/w:     1.723 speedup
 SCF:
 * wall-time:     0 d,  0 h,  0 min,  0.553 sec
 *  cpu-time:     0 d,  0 h,  0 min,  1.104 sec
 * ratio c/w:     1.999 speedup

