      -----------------------------------------------------------      
     |                   =====================                   |     
     |                           x T B                           |     
     |                   =====================                   |     
     |                         S. Grimme                         |     
     |          Mulliken Center for Theoretical Chemistry        |     
     |                    University of Bonn                     |     
     |                 Version 6.0.1 (SAW181210)                 |     
      -----------------------------------------------------------      

   This program is distributed in the hope that it will be useful,
   but WITHOUT ANY WARRANTY; without even the implied warranty of
   MERCHANTABILITY or FITNESS FOR A PARTICULAR PURPOSE.
   
   FOR NON-COMMERCIAL, ACADEMIA USE ONLY.
   
   Cite this work as:
   S. Grimme, C. Bannwarth, P. Shushkov, J. Comput. Theory Chem., 2017,
   13, 1989-2009.
   C. Bannwarth, S. Ehlert and S. Grimme., ChemRxiv, 2018, preprint.
   http://doi.org/10.26434/chemrxiv.7246238.v1
   
   for sTDA-xTB:
   S. Grimme and C. Bannwarth, J. Chem. Phys., 2016, 145, 054103.
   
   in the mass-spec context:
   V. Asgeirsson, C. Bauer and S. Grimme, Chem. Sci., 2017, 8, 4879.
   
   if GBSA is used:
   P. Shushkov, F. März and S. Grimme, unpublished.
   
   for ANC optimizer:
   S. Grimme, unpublished.
   Rational Function algorithm used in ANCopt:
   F. Eckert, P. Pulay, H.-J. Werner, J. Comput. Chem., 1997, 18, 1473.
   
   with help from (in alphabetical order)
   C. Bannwarth, F. Bohle, G. Brandenburg, E. Caldeweyher, M. Checinski,
   S. Dohm, S. Ehlert, S. Ehrlich, F. März, H. Neugebauer, J. Pisarek,
   P. Pracht, P. Shushkov, and S. Spicher.
   
 * started run on 2019/05/12 at 13:11:27.812     
========================================================================
 # omp threads = 2
========================================================================
number of atoms            : 515
number of electrons        : 1374
charge                     : -1
spin                       : .0
first test random number   : .1452

########################################################################
# WARNING! Please study the warnings concerning your input carefully
#  - Process number higher than OMP_NUM_THREADS, I hope you know what you are doing.
########################################################################

           ------------------------------------------------- 
          |                 G F N 2 - x T B                 |
          | Geometry, Frequencies, Noncovalent interactions |
          |            JCTC 2018 parametrisation            |
           ------------------------------------------------- 
 
      method parameters     
 k(s)        :  1.8500
 k(p)        :  2.2300
 k(d)        :  2.2300
 k(f)        :  2.0000
 kEN (H0ij)  : -2.0000
 D4 a1       :  0.5200
 D4 a2       :  5.0000
 D4 s6       :  1.0000
 D4 s8       :  2.7000
 D4 s9       :  5.0000
 alphaj      :  2.0000

 Solvent             : h2o
 Using internal parameter file: .param_gbsa2_h2o
 Gsolv ref. state (COSMO-RS): gsolv [1 M gas/solution]
 temperature (mdtemp)       :    298.150000000000     
 dielectric constant        :    80.2000000000000     
 rho                        :    1.00000000000000     
 mass                       :    18.0000000000000     
 surface tension            :    15.5689454083859     
 probe radius               :   0.975313790000000     
 vdW radii scaling          :    1.00000000000000     
 Gshift (Eh)                :   1.857443126794793E-003
 c1                         :    1.55243817000000     
 soset                      :   0.130326360000000     
 HB correction              :  T

            Z     q(EN)     CN     RAES       Cart. coordinates
     1  N   5.0   -0.21    3.25    1.97    97.76719   123.51764   414.95896
     2  C   4.0    0.03    4.38    4.35    99.57177   124.07045   416.92908
     3  C   4.0    0.14    3.43    3.09   100.68944   126.71086   416.63365
     4  O   6.0   -0.28    1.20    1.80   100.39154   128.01039   414.61073
     5  C   4.0   -0.04    4.44    4.45   101.77671   122.24731   417.15408
     6  C   4.0   -0.04    4.35    4.30   101.17753   119.47394   417.20294
     7  C   4.0    0.15    3.31    3.05    99.99611   118.66803   419.58361
     8  O   6.0   -0.28    1.20    1.80   100.49783   119.88462   421.58648
     9  N   5.0   -0.23    3.20    1.96    98.51653   116.55921   419.44692
    10  H   1.0    0.11    1.07    1.44    98.33648   123.85232   413.35908
    11  H   1.0    0.05    1.12    1.45    98.52186   123.97383   418.50968
    12  H   1.0    0.05    1.09    1.44   102.86932   122.51572   415.61637
    13  H   1.0    0.07    1.10    1.44   102.74236   122.62553   418.66621
    14  H   1.0    0.04    1.10    1.44   100.01518   119.04362   415.79355
    15  H   1.0    0.05    1.09    1.44   102.76858   118.48017   416.98988
    16  H   1.0    0.10    1.07    1.44    98.28613   115.75357   418.02435
    17  H   1.0    0.11    1.07    1.44    97.72818   116.01601   420.87566
    18  N   5.0   -0.16    3.50    2.08   102.05387   127.47214   418.68489
    19  C   4.0    0.03    4.58    4.64   103.57420   129.73444   418.63361
    20  C   4.0    0.15    3.51    3.12   106.15560   128.98417   417.69354
    21  O   6.0   -0.30    1.28    1.80   107.45262   127.56063   418.95644
    22  C   4.0   -0.03    4.36    4.31   103.72670   131.20578   421.08316
    23  C   4.0   -0.09    4.17    3.94   105.20825   133.75357   420.55818
    24  C   4.0   -0.09    4.22    4.04   101.19234   131.60112   422.28596
    25  H   1.0    0.09    1.12    1.45   102.00958   126.71395   420.17818
    26  H   1.0    0.05    1.13    1.45   102.76926   130.96106   417.38728
    27  H   1.0    0.05    1.12    1.45   104.66671   130.20267   422.38602
    28  H   1.0    0.04    1.04    1.43   105.27037   134.73790   422.17766
    29  H   1.0    0.05    1.05    1.44   106.90356   133.36444   419.99715
    30  H   1.0    0.04    1.05    1.44   104.26151   134.72289   419.29779
    31  H   1.0    0.04    1.05    1.44   101.34768   132.61452   423.82514
    32  H   1.0    0.04    1.05    1.44   100.10919   132.57061   421.03547
    33  H   1.0    0.04    1.05    1.44   100.37896   129.98047   422.62633
    34  N   5.0   -0.16    3.53    2.10   106.90161   129.94759   415.47632
    35  C   4.0    0.04    4.56    4.62   109.06807   129.06490   414.13067
    36  C   4.0    0.16    3.48    3.11   111.43962   129.16666   415.91245
    37  O   6.0   -0.30    1.24    1.80   112.70510   127.28475   416.31587
    38  C   4.0    0.05    4.37    4.33   109.37934   130.67257   411.83208
    39  O   6.0   -0.25    2.22    1.86   110.58033   129.12290   410.23249
    40  C   4.0   -0.08    4.20    4.01   110.86705   133.22976   412.27193
    41  H   1.0    0.08    1.13    1.45   106.07591   131.23683   414.70623
    42  H   1.0    0.06    1.14    1.45   108.91278   127.30234   413.67345
    43  H   1.0    0.04    1.11    1.45   107.71984   131.25719   411.21355
    44  H   1.0    0.13    1.06    1.44   111.32982   130.08993   408.90521
    45  H   1.0    0.05    1.04    1.43   110.93633   134.20110   410.70360
    46  H   1.0    0.05    1.04    1.44   110.00855   134.23242   413.58935
    47  H   1.0    0.05    1.05    1.44   112.60155   132.84282   412.84552
    48  N   5.0   -0.15    3.58    2.14   111.99209   131.32272   417.06357
    49  C   4.0    0.04    4.46    4.48   114.29661   131.73262   418.46553
    50  C   4.0    0.16    3.45    3.10   114.28263   130.40544   420.97488
    51  O   6.0   -0.32    1.31    1.80   116.21917   129.53277   421.77924
    52  C   4.0    0.01    4.19    3.98   114.83224   134.59488   418.62129
    53  O   6.0   -0.27    2.06    1.83   112.43155   136.02201   418.77826
    54  H   1.0    0.09    1.13    1.45   110.94026   132.71847   417.04123
    55  H   1.0    0.05    1.14    1.45   115.74017   130.98676   417.55534
    56  H   1.0    0.05    1.06    1.44   115.86873   134.92743   420.13583
    57  H   1.0    0.04    1.06    1.44   115.69870   135.15055   417.09295
    58  H   1.0    0.13    1.05    1.44   112.77829   137.49013   419.54129
    59  N   5.0   -0.14    3.54    2.10   112.13649   130.18296   422.27020
    60  C   4.0    0.04    4.49    4.52   111.95037   128.92164   424.66860
    61  C   4.0    0.16    3.50    3.12   112.53234   126.14889   424.31496
    62  O   6.0   -0.31    1.29    1.80   113.79586   124.97642   425.85512
    63  C   4.0   -0.05    4.35    4.28   109.37429   129.19724   426.01511
    64  C   4.0   -0.04    4.25    4.10   108.67553   131.88827   426.79136
    65  C   4.0    0.24    3.14    3.03   110.43247   133.02522   428.75091
    66  O   6.0   -0.29    1.17    1.80   111.15255   131.71553   430.69492
    67  O   6.0   -0.27    1.17    1.80   111.24576   135.20683   428.29450
    68  H   1.0    0.09    1.10    1.44   110.58816   130.85117   421.70263
    69  H   1.0    0.06    1.12    1.45   113.21976   129.74683   425.80011
    70  H   1.0    0.05    1.08    1.44   108.04460   128.58376   424.83430
    71  H   1.0    0.06    1.09    1.44   109.37914   128.15346   427.54780
    72  H   1.0    0.05    1.09    1.44   108.74606   132.98951   425.26278
    73  H   1.0    0.04    1.08    1.44   106.94793   131.89802   427.47737
    74  N   5.0   -0.15    3.58    2.14   111.61840   125.02207   422.30806
    75  C   4.0    0.04    4.51    4.55   112.07751   122.40758   421.68888
    76  C   4.0    0.16    3.47    3.10   114.90841   122.06866   421.29917
    77  O   6.0   -0.31    1.25    1.80   115.98727   120.20653   422.19965
    78  C   4.0   -0.04    4.41    4.40   110.43213   121.48817   419.54590
    79  C   4.0   -0.04    4.35    4.29   110.12366   118.76915   419.30987
    80  C   4.0    0.15    3.25    3.04   108.34858   117.53000   421.16161
    81  O   6.0   -0.29    1.22    1.80   106.48392   118.66654   421.79449
    82  N   5.0   -0.23    3.16    1.95   108.91643   115.07960   422.06425
    83  H   1.0    0.11    1.13    1.45   110.59373   125.81826   421.12009
    84  H   1.0    0.06    1.13    1.45   111.63063   121.30757   423.15996
    85  H   1.0    0.07    1.11    1.44   108.73330   122.24177   419.74666
    86  H   1.0    0.06    1.09    1.44   111.19234   122.16082   417.93561
    87  H   1.0    0.05    1.11    1.45   109.50756   118.31788   417.56483
    88  H   1.0    0.05    1.09    1.44   111.83555   117.91337   419.50006
    89  H   1.0    0.10    1.06    1.44   110.32127   114.32073   421.47260
    90  H   1.0    0.12    1.06    1.44   107.93300   114.34603   423.14911
    91  N   5.0   -0.15    3.51    2.09   116.22691   123.89589   420.17401
    92  C   4.0    0.03    4.43    4.43   118.93734   123.69903   419.77432
    93  C   4.0    0.16    3.48    3.11   120.39728   123.93351   422.28269
    94  O   6.0   -0.31    1.28    1.80   122.20745   122.56313   422.78922
    95  C   4.0   -0.08    4.22    4.04   119.88147   125.61720   417.88653
    96  H   1.0    0.11    1.12    1.45   115.53318   125.35937   419.60163
    97  H   1.0    0.05    1.12    1.45   119.26821   121.97036   419.09703
    98  H   1.0    0.04    1.05    1.44   121.71365   125.47267   417.70430
    99  H   1.0    0.05    1.05    1.44   119.03698   125.33068   416.24415
   100  H   1.0    0.05    1.05    1.44   119.43466   127.33501   418.51147
   101  N   5.0   -0.15    3.54    2.11   119.70777   125.71955   423.79246
   102  C   4.0    0.03    4.46    4.48   120.72448   125.99604   426.31012
   103  C   4.0    0.16    3.48    3.11   120.62173   123.43405   427.81524
   104  O   6.0   -0.30    1.24    1.80   122.31780   122.81785   429.33988
   105  C   4.0   -0.05    4.40    4.38   119.42889   128.05367   427.81107
   106  C   4.0   -0.05    4.28    4.15   120.41545   128.73643   430.33161
   107  C   4.0   -0.05    4.31    4.22   118.44225   130.19788   431.96259
   108  C   4.0   -0.02    4.31    4.21   117.70335   132.68047   430.80002
   109  N   5.0   -0.14    4.21    3.49   115.94008   133.90394   432.40951
   110  H   1.0    0.11    1.14    1.45   118.50066   126.93149   423.43345
   111  H   1.0    0.05    1.12    1.45   122.55049   126.43891   426.17083
   112  H   1.0    0.05    1.09    1.44   119.40879   129.62043   426.75778
   113  H   1.0    0.06    1.09    1.44   117.60391   127.52404   428.04893
   114  H   1.0    0.05    1.08    1.44   120.90647   127.18119   431.27336
   115  H   1.0    0.05    1.08    1.44   121.92874   129.83448   430.16070
   116  H   1.0    0.04    1.09    1.44   116.92828   129.13016   432.14713
   117  H   1.0    0.05    1.08    1.44   119.18041   130.52712   433.66255
   118  H   1.0    0.06    1.08    1.44   119.22357   133.74841   430.55172
   119  H   1.0    0.06    1.09    1.44   116.88757   132.37634   429.13930
   120  H   1.0    0.11    1.09    1.44   115.45766   135.48065   431.76168
   121  H   1.0    0.10    1.10    1.44   114.53379   132.99265   432.70118
   122  H   1.0    0.10    1.12    1.45   116.68715   134.27311   433.99462
   123  N   5.0   -0.15    3.57    2.13   118.62983   121.98941   427.46018
   124  C   4.0    0.04    4.59    4.66   118.36870   119.63772   428.70779
   125  C   4.0    0.17    3.58    3.16   120.30831   117.80902   427.77253
   126  O   6.0   -0.30    1.32    1.80   121.62291   116.60171   429.16105
   127  C   4.0   -0.04    4.53    4.58   115.74453   118.62133   428.45620
   128  C   4.0   -0.02    3.72    3.26   115.42417   115.90473   428.87168
   129  C   4.0   -0.04    3.70    3.24   115.08859   114.89737   431.04276
   130  C   4.0   -0.03    3.71    3.25   115.49457   114.26887   426.93369
   131  C   4.0   -0.04    3.61    3.17   114.71377   112.28106   431.35661
   132  C   4.0   -0.04    3.59    3.16   115.13895   111.71567   427.24082
   133  C   4.0   -0.06    3.49    3.11   114.77851   110.70905   429.54375
   134  H   1.0    0.11    1.13    1.45   117.30406   122.42016   426.41482
   135  H   1.0    0.06    1.13    1.45   118.65885   119.88085   430.58496
   136  H   1.0    0.05    1.10    1.44   114.59765   119.53312   429.58287
   137  H   1.0    0.06    1.10    1.44   115.20827   118.98666   426.64019
   138  H   1.0    0.05    1.10    1.44   115.16412   115.97322   432.60853
   139  H   1.0    0.06    1.08    1.44   115.74073   114.91287   425.17400
   140  H   1.0    0.04    1.08    1.44   114.44478   111.61733   433.13732
   141  H   1.0    0.05    1.08    1.44   115.13807   110.58901   425.72379
   142  H   1.0    0.05    1.10    1.44   114.58585   108.91462   429.75164
   143  N   5.0   -0.14    3.59    2.15   120.63269   117.62818   425.34367
   144  C   4.0    0.04    4.63    4.70   122.40358   115.79587   424.28669
   145  C   4.0    0.16    3.56    3.14   125.03362   116.45833   425.07090
   146  O   6.0   -0.29    1.30    1.80   126.25699   114.91927   426.30054
   147  C   4.0   -0.05    4.46    4.47   122.21918   115.49247   421.51302
   148  C   4.0   -0.02    3.80    3.33   119.98306   114.10179   420.94821
   149  C   4.0   -0.01    3.65    3.20   117.71135   115.03643   420.06484
   150  C   4.0    0.00    3.90    3.47   119.58949   111.46313   421.38320
   151  N   5.0   -0.14    3.47    2.06   115.93657   113.17426   419.82886
   152  C   4.0    0.03    3.91    3.48   116.98875   110.93850   420.67854
   153  C   4.0   -0.05    3.44    3.09   121.08611   109.49951   422.19576
   154  C   4.0   -0.06    3.44    3.09   115.97745   108.51856   420.79611
   155  C   4.0   -0.04    3.46    3.10   120.01752   107.13998   422.31186
   156  C   4.0   -0.05    3.45    3.09   117.50949   106.66277   421.65021
   157  H   1.0    0.11    1.11    1.45   119.78283   118.56234   424.12877
   158  H   1.0    0.06    1.15    1.45   121.91750   114.12926   425.02238
   159  H   1.0    0.05    1.09    1.44   122.14857   117.19321   420.65339
   160  H   1.0    0.04    1.10    1.44   123.71880   114.57907   420.81933
   161  H   1.0    0.06    1.07    1.44   117.40753   116.79623   419.63204
   162  H   1.0    0.08    1.09    1.44   114.35664   113.35592   419.23698
   163  H   1.0    0.06    1.09    1.44   122.79783   109.79059   422.68629
   164  H   1.0    0.05    1.08    1.44   114.24611   108.19816   420.26867
   165  H   1.0    0.07    1.08    1.44   121.04778   105.72509   422.93847
   166  H   1.0    0.06    1.09    1.44   116.82886   104.95650   421.78060
   167  N   5.0   -0.16    3.52    2.09   125.95194   118.72994   424.61919
   168  C   4.0    0.04    4.52    4.57   128.45347   119.36195   425.45574
   169  C   4.0    0.16    3.40    3.08   128.85069   118.99901   428.44052
   170  O   6.0   -0.28    1.20    1.80   130.99240   118.46902   429.32988
   171  C   4.0   -0.05    4.60    4.67   129.21803   121.96474   424.64938
   172  C   4.0   -0.03    4.37    4.33   129.29261   122.58864   421.98130
   173  C   4.0   -0.09    4.22    4.04   130.98157   125.02048   421.77814
   174  C   4.0   -0.08    4.39    4.36   130.28079   120.42635   420.68594
   175  H   1.0    0.11    1.13    1.45   125.09356   120.00630   423.87633
   176  H   1.0    0.06    1.13    1.45   129.65992   118.14202   424.68192
   177  H   1.0    0.05    1.10    1.44   128.01623   123.17329   425.50911
   178  H   1.0    0.05    1.11    1.44   130.94627   122.32610   425.37566
   179  H   1.0    0.05    1.12    1.45   127.62666   122.96770   421.17816
   180  H   1.0    0.04    1.04    1.43   131.08822   125.51207   419.93372
   181  H   1.0    0.04    1.05    1.44   130.18331   126.40138   422.70776
   182  H   1.0    0.04    1.05    1.44   132.66021   124.64551   422.40024
   183  H   1.0    0.04    1.05    1.44   130.40094   120.78365   418.80266
   184  H   1.0    0.04    1.06    1.44   132.01494   120.04374   421.28515
   185  H   1.0    0.04    1.08    1.44   129.18818   118.94936   420.91933
   186  N   5.0   -0.14    3.41    2.02   126.81181   119.26262   429.91203
   187  C   4.0    0.03    4.35    4.30   126.95257   118.81899   432.58253
   188  C   4.0    0.17    3.37    3.07   127.70003   116.16708   433.26601
   189  O   6.0   -0.26    1.21    1.80   129.41482   115.84165   434.84493
   190  H   1.0    0.12    1.12    1.45   125.25907   119.70834   429.33438
   191  H   1.0    0.07    1.09    1.44   128.21746   120.01774   433.32617
   192  H   1.0    0.05    1.08    1.44   125.29517   119.19373   433.37611
   193  N   5.0   -0.15    3.49    2.07   126.47583   114.22712   432.07511
   194  C   4.0    0.04    4.50    4.53   127.08304   111.58597   432.48970
   195  C   4.0    0.09    3.27    3.05   129.85083   111.02421   431.79941
   196  O   6.0   -0.27    1.09    1.80   131.00276   109.10159   432.76438
   197  C   4.0   -0.04    4.72    4.78   125.53507   109.92359   431.14001
   198  C   4.0   -0.02    4.48    4.51   122.91626   109.93005   431.77306
   199  C   4.0   -0.08    4.28    4.15   121.16475   108.68165   429.97360
   200  C   4.0   -0.07    4.41    4.40   122.81634   108.70093   434.24895
   201  H   1.0    0.12    1.12    1.45   125.20930   114.49692   430.99080
   202  H   1.0    0.07    1.13    1.45   126.89884   111.32982   434.37217
   203  H   1.0    0.06    1.11    1.44   125.63953   110.41604   429.23615
   204  H   1.0    0.05    1.13    1.45   126.16567   108.16591   431.23293
   205  H   1.0    0.05    1.14    1.45   122.16168   111.69730   431.89255
   206  H   1.0    0.04    1.05    1.44   119.40383   108.70530   430.58245
   207  H   1.0    0.05    1.05    1.44   121.25365   109.56786   428.31475
   208  H   1.0    0.05    1.06    1.44   121.72037   106.90809   429.73642
   209  H   1.0    0.04    1.05    1.44   121.00964   108.50692   434.84549
   210  H   1.0    0.05    1.07    1.44   123.55687   106.99301   434.11288
   211  H   1.0    0.06    1.07    1.44   123.73923   109.69818   435.51209
   212  O   6.0   -0.30    1.99    1.82    97.23637   130.92799   412.15401
   213  H   1.0    0.14    1.01    1.43    98.45957   132.04981   412.24489
   214  H   1.0    0.13    1.00    1.43    95.84211   131.92602   412.21672
   215  O   6.0   -0.33    2.01    1.83   112.20847   126.40128   430.78100
   216  H   1.0    0.15    1.01    1.43   113.17454   127.72577   431.17021
   217  H   1.0    0.15    1.02    1.43   113.25572   125.49408   429.79161
   218  N   5.0   -0.23    3.25    1.97   107.48885   139.16511   439.33515
   219  C   4.0    0.03    4.30    4.20   108.38437   136.64719   438.71396
   220  C   4.0    0.07    3.23    3.04   106.54723   134.59374   439.56655
   221  O   6.0   -0.30    1.14    1.80   105.83987   132.94286   438.07863
   222  C   4.0   -0.04    4.38    4.34   110.90238   136.25490   439.83803
   223  C   4.0   -0.04    4.15    3.90   112.56992   134.05719   438.81046
   224  C   4.0    0.24    3.06    3.02   115.53752   134.56787   439.16288
   225  O   6.0   -0.28    1.15    1.80   116.36775   135.61145   441.15119
   226  O   6.0   -0.30    1.22    1.80   117.11047   134.06172   437.42098
   227  H   1.0    0.10    1.08    1.44   108.53095   140.09576   440.24303
   228  H   1.0    0.06    1.13    1.45   108.50613   136.46777   436.84693
   229  H   1.0    0.06    1.09    1.44   111.92022   137.83771   439.60924
   230  H   1.0    0.05    1.09    1.44   110.72568   135.93226   441.67468
   231  H   1.0    0.05    1.07    1.44   112.16423   132.49317   439.67278
   232  H   1.0    0.06    1.07    1.44   112.26615   133.89417   436.96144
   233  N   5.0   -0.23    3.23    1.96   101.01520   131.48220   435.88539
   234  C   4.0    0.03    4.24    4.08   102.10424   130.37205   433.59712
   235  C   4.0    0.08    3.23    3.04   103.35529   127.87214   434.12899
   236  O   6.0   -0.31    1.14    1.80   103.08680   126.07499   432.64103
   237  C   4.0   -0.07    4.22    4.03   103.94235   132.14472   432.32816
   238  H   1.0    0.12    1.09    1.44   101.95745   132.72019   436.51700
   239  H   1.0    0.04    1.11    1.45   100.63908   130.07473   432.40128
   240  H   1.0    0.05    1.05    1.44   104.59598   131.36550   430.76668
   241  H   1.0    0.04    1.05    1.44   103.05680   133.75798   431.87106
   242  H   1.0    0.07    1.06    1.44   105.33224   132.52459   433.49026
   243  N   5.0   -0.22    3.25    1.97    98.70850   122.86929   434.34823
   244  C   4.0    0.03    4.36    4.30    98.04907   122.07382   431.78994
   245  C   4.0    0.15    3.45    3.09    99.95927   120.10641   430.84889
   246  O   6.0   -0.30    1.26    1.80    99.28890   118.08112   429.91555
   247  C   4.0   -0.05    4.33    4.25    97.75768   124.22506   430.00012
   248  C   4.0   -0.06    4.18    3.96    95.12401   125.23710   429.29267
   249  C   4.0   -0.06    4.13    3.86    94.97448   127.16820   426.96674
   250  C   4.0   -0.05    4.10    3.80    92.85387   129.17612   427.27448
   251  N   5.0   -0.17    3.99    2.85    92.95741   130.74774   429.88015
   252  H   1.0    0.10    1.07    1.44    98.95399   124.54871   434.48877
   253  H   1.0    0.04    1.12    1.45    96.34164   121.21973   431.90634
   254  H   1.0    0.05    1.09    1.44    98.74170   125.69178   430.68014
   255  H   1.0    0.05    1.09    1.44    98.56605   123.73208   428.34620
   256  H   1.0    0.04    1.08    1.44    94.00610   123.80634   428.89442
   257  H   1.0    0.04    1.07    1.44    94.41790   126.14318   430.81646
   258  H   1.0    0.04    1.07    1.44    96.62566   128.08301   426.90677
   259  H   1.0    0.04    1.08    1.44    94.70382   126.22049   425.43936
   260  H   1.0    0.04    1.07    1.44    92.93755   130.37290   425.88955
   261  H   1.0    0.04    1.06    1.44    91.19975   128.28263   427.28290
   262  H   1.0    0.06    1.06    1.44    91.68715   131.89089   429.86296
   263  H   1.0    0.06    1.06    1.44    92.82292   129.67676   431.18186
   264  H   1.0    0.06    1.06    1.44    94.48341   131.56620   429.91776
   265  N   5.0   -0.15    3.56    2.12   102.41860   120.66887   431.06130
   266  C   4.0    0.04    4.57    4.63   104.34164   119.18264   429.94515
   267  C   4.0    0.08    3.34    3.06   104.30168   116.55361   431.06538
   268  O   6.0   -0.31    1.16    1.80   104.35677   114.59409   429.74512
   269  C   4.0   -0.02    4.46    4.49   106.83999   120.40278   430.15369
   270  C   4.0   -0.07    4.28    4.15   108.88065   118.53220   429.38493
   271  C   4.0   -0.07    4.28    4.16   106.89518   122.82421   428.80360
   272  H   1.0    0.11    1.14    1.45   102.95746   122.05958   431.93743
   273  H   1.0    0.07    1.14    1.45   103.92642   118.97922   428.10632
   274  H   1.0    0.05    1.13    1.45   107.28613   120.86156   431.96111
   275  H   1.0    0.05    1.04    1.44   110.58512   119.36903   429.41676
   276  H   1.0    0.05    1.06    1.44   108.90301   117.07292   430.51355
   277  H   1.0    0.06    1.05    1.44   108.54935   117.97763   427.61981
   278  H   1.0    0.06    1.05    1.44   108.56152   123.70232   429.01202
   279  H   1.0    0.05    1.05    1.44   106.68056   122.49018   426.93610
   280  H   1.0    0.06    1.06    1.44   105.54151   123.93906   429.36946
   281  N   5.0   -0.22    3.28    1.98    99.10210   112.44446   429.40452
   282  C   4.0    0.04    4.39    4.36    99.64367   111.40013   426.99221
   283  C   4.0    0.17    3.51    3.12   101.46466   109.16931   427.22559
   284  O   6.0   -0.28    1.27    1.80   101.07762   107.15605   426.09787
   285  C   4.0    0.04    4.26    4.12   100.66028   113.34399   425.13738
   286  O   6.0   -0.25    2.12    1.84   101.92666   112.12623   423.14994
   287  H   1.0    0.13    1.09    1.44    99.77585   114.03618   429.64033
   288  H   1.0    0.05    1.11    1.45    98.00184   110.74464   426.25409
   289  H   1.0    0.05    1.06    1.44    99.24497   114.38668   424.46696
   290  H   1.0    0.07    1.07    1.44   101.85640   114.46159   426.04900
   291  H   1.0    0.14    1.06    1.44   102.48487   113.30385   422.04524
   292  N   5.0   -0.15    3.54    2.11   103.45656   109.45625   428.59479
   293  C   4.0    0.04    4.40    4.38   105.22042   107.40273   429.00180
   294  C   4.0    0.10    3.31    3.06   103.91137   105.13605   430.03212
   295  O   6.0   -0.28    1.13    1.80   104.47183   103.03665   429.27988
   296  C   4.0   -0.08    4.23    4.06   107.40575   108.12905   430.64217
   297  H   1.0    0.11    1.14    1.45   103.87338   110.93321   429.44462
   298  H   1.0    0.06    1.13    1.45   105.94105   106.98358   427.30340
   299  H   1.0    0.05    1.05    1.44   108.59870   106.73055   430.82928
   300  H   1.0    0.05    1.05    1.44   108.31256   109.62790   429.91468
   301  H   1.0    0.04    1.05    1.44   106.76403   108.63659   432.35349
   302  N   5.0   -0.22    3.23    1.96   115.99272   128.18800   442.74590
   303  C   4.0    0.04    4.24    4.09   117.42102   126.86746   440.87506
   304  C   4.0    0.09    3.21    3.04   119.76374   125.44097   442.02982
   305  O   6.0   -0.30    1.12    1.80   120.87107   123.83409   440.77690
   306  C   4.0    0.03    4.25    4.09   118.50678   128.62582   438.90719
   307  O   6.0   -0.24    2.06    1.83   120.56137   130.18946   439.90415
   308  H   1.0    0.11    1.07    1.44   116.13584   129.92203   442.69118
   309  H   1.0    0.04    1.12    1.45   116.27428   125.65674   440.10961
   310  H   1.0    0.05    1.06    1.44   119.21675   127.61911   437.47228
   311  H   1.0    0.05    1.07    1.44   117.13983   129.72850   438.23904
   312  H   1.0    0.15    1.05    1.44   121.07841   131.22592   438.69225
   313  N   5.0   -0.22    3.24    1.96   120.20127   118.02453   441.85056
   314  C   4.0    0.03    4.31    4.22   121.00097   116.53727   439.70259
   315  C   4.0    0.09    3.25    3.04   123.66567   115.64386   440.00131
   316  O   6.0   -0.29    1.14    1.80   124.23023   113.61652   439.12536
   317  C   4.0   -0.04    4.40    4.37   120.81711   118.01878   437.19110
   318  C   4.0   -0.01    3.57    3.15   118.30840   119.22198   436.50829
   319  C   4.0   -0.05    3.55    3.14   116.02690   117.96339   436.77639
   320  C   4.0   -0.04    3.58    3.15   118.18617   121.56380   435.49822
   321  C   4.0   -0.05    3.48    3.11   113.71780   119.07051   436.09773
   322  C   4.0   -0.05    3.54    3.13   115.98490   122.72143   434.81265
   323  C   4.0    0.07    3.52    3.13   113.73279   121.49874   435.11077
   324  O   6.0   -0.26    2.17    1.85   111.59821   122.66472   434.42076
   325  H   1.0    0.12    1.08    1.44   120.23084   119.76145   441.49075
   326  H   1.0    0.05    1.12    1.45   119.83227   115.09484   439.58546
   327  H   1.0    0.06    1.09    1.44   122.08829   119.39353   437.26312
   328  H   1.0    0.05    1.09    1.44   121.25609   116.83676   435.81242
   329  H   1.0    0.05    1.08    1.44   116.02528   116.25956   437.48227
   330  H   1.0    0.06    1.09    1.44   119.77934   122.48960   435.19987
   331  H   1.0    0.06    1.08    1.44   112.15792   118.19444   436.33156
   332  H   1.0    0.05    1.09    1.44   116.00802   124.41600   434.07235
   333  H   1.0    0.15    1.11    1.45   111.91881   124.26787   434.02498
   334  N   5.0   -0.23    3.25    1.97   113.67080   102.33811   436.57771
   335  C   4.0    0.02    4.33    4.26   116.08717   103.47480   436.19141
   336  C   4.0    0.07    3.20    3.04   118.17355   101.53596   435.47975
   337  O   6.0   -0.30    1.09    1.80   119.58972   101.89324   433.56910
   338  C   4.0   -0.05    4.57    4.63   116.96929   105.00428   438.36674
   339  C   4.0   -0.03    4.42    4.41   115.09662   106.98411   439.24847
   340  C   4.0   -0.09    4.26    4.13   116.07195   108.10349   441.71052
   341  C   4.0   -0.09    4.38    4.35   114.90414   108.80285   437.34749
   342  H   1.0    0.09    1.08    1.44   112.83914   102.92618   437.97948
   343  H   1.0    0.04    1.13    1.45   115.89467   104.59342   434.67799
   344  H   1.0    0.04    1.09    1.44   117.26203   103.80713   439.84344
   345  H   1.0    0.04    1.10    1.44   118.57594   105.84791   437.98934
   346  H   1.0    0.04    1.14    1.45   113.39612   106.28928   439.60903
   347  H   1.0    0.04    1.05    1.44   114.86058   109.38321   442.33621
   348  H   1.0    0.04    1.05    1.44   116.24565   106.74383   442.99356
   349  H   1.0    0.04    1.05    1.44   117.72880   108.89349   441.41442
   350  H   1.0    0.04    1.06    1.44   113.77674   110.23239   437.89240
   351  H   1.0    0.04    1.07    1.44   116.59022   109.53124   436.93728
   352  H   1.0    0.04    1.07    1.44   114.17654   108.05747   435.78878
   353  N   5.0   -0.21    3.29    1.98   117.07322    98.24406   428.92765
   354  C   4.0    0.04    4.29    4.18   117.54853   100.05904   427.08655
   355  C   4.0    0.08    3.26    3.05   120.31321   100.51749   426.76341
   356  O   6.0   -0.29    1.12    1.80   121.14654   100.72682   424.53670
   357  C   4.0   -0.08    4.25    4.09   116.17560   102.49135   427.71868
   358  H   1.0    0.09    1.07    1.44   116.09253    98.90785   430.30566
   359  H   1.0    0.05    1.13    1.45   116.90366    99.40147   425.45224
   360  H   1.0    0.04    1.04    1.44   116.47661   103.75612   426.32205
   361  H   1.0    0.04    1.05    1.44   114.35491   102.19184   427.86080
   362  H   1.0    0.05    1.05    1.44   116.84759   103.20487   429.30059
   363  N   5.0   -0.23    3.22    1.96   123.89589   116.22691   414.21180
   364  C   4.0    0.02    4.22    4.04   123.69903   118.93734   414.61149
   365  C   4.0    0.07    3.20    3.04   123.93351   120.39728   412.10311
   366  O   6.0   -0.32    1.13    1.80   122.56313   122.20745   411.59658
   367  C   4.0   -0.09    4.21    4.02   125.61720   119.88147   416.49928
   368  H   1.0    0.09    1.07    1.44   125.35937   115.53318   414.78418
   369  H   1.0    0.04    1.12    1.45   121.97036   119.26821   415.28878
   370  H   1.0    0.05    1.05    1.44   125.47267   121.71365   416.68151
   371  H   1.0    0.04    1.05    1.44   125.33068   119.03698   418.14166
   372  H   1.0    0.04    1.05    1.44   127.33501   119.43466   415.87433
   373  N   5.0   -0.21    3.27    1.97   117.62818   120.63269   409.04214
   374  C   4.0    0.03    4.50    4.54   115.79587   122.40358   410.09911
   375  C   4.0    0.15    3.51    3.12   116.45833   125.03362   409.31491
   376  O   6.0   -0.30    1.29    1.80   114.91927   126.25699   408.08527
   377  C   4.0   -0.04    4.46    4.47   115.49247   122.21918   412.87278
   378  C   4.0   -0.02    3.80    3.33   114.10179   119.98306   413.43760
   379  C   4.0   -0.02    3.65    3.20   115.03643   117.71135   414.32096
   380  C   4.0    0.00    3.91    3.47   111.46313   119.58949   413.00261
   381  N   5.0   -0.14    3.47    2.06   113.17426   115.93657   414.55694
   382  C   4.0    0.03    3.94    3.52   110.93850   116.98875   413.70727
   383  C   4.0   -0.05    3.44    3.09   109.49951   121.08611   412.19005
   384  C   4.0   -0.06    3.45    3.09   108.51856   115.97745   413.58969
   385  C   4.0   -0.05    3.46    3.10   107.13998   120.01752   412.07394
   386  C   4.0   -0.05    3.45    3.09   106.66277   117.50949   412.73559
   387  H   1.0    0.10    1.06    1.44   118.56234   119.78283   410.25704
   388  H   1.0    0.05    1.15    1.45   114.12926   121.91750   409.36343
   389  H   1.0    0.05    1.09    1.44   117.19321   122.14857   413.73241
   390  H   1.0    0.06    1.10    1.44   114.57907   123.71880   413.56648
   391  H   1.0    0.05    1.06    1.44   116.79623   117.40753   414.75377
   392  H   1.0    0.08    1.09    1.44   113.35592   114.35664   415.14882
   393  H   1.0    0.06    1.09    1.44   109.79059   122.79783   411.69951
   394  H   1.0    0.05    1.08    1.44   108.19816   114.24611   414.11713
   395  H   1.0    0.05    1.08    1.44   105.72509   121.04778   411.44734
   396  H   1.0    0.05    1.09    1.44   104.95650   116.82886   412.60521
   397  N   5.0   -0.16    3.50    2.08   118.72994   125.95194   409.76662
   398  C   4.0    0.04    4.45    4.46   119.36195   128.45347   408.93007
   399  C   4.0    0.08    3.17    3.03   118.99901   128.85069   405.94529
   400  O   6.0   -0.29    1.09    1.80   118.46902   130.99240   405.05593
   401  C   4.0   -0.05    4.60    4.66   121.96474   129.21803   409.73643
   402  C   4.0   -0.03    4.37    4.33   122.58864   129.29261   412.40451
   403  C   4.0   -0.09    4.22    4.04   125.02048   130.98157   412.60766
   404  C   4.0   -0.08    4.39    4.36   120.42635   130.28079   413.69986
   405  H   1.0    0.11    1.13    1.45   120.00630   125.09356   410.50948
   406  H   1.0    0.06    1.13    1.45   118.14202   129.65992   409.70388
   407  H   1.0    0.05    1.10    1.44   123.17329   128.01623   408.87669
   408  H   1.0    0.05    1.11    1.44   122.32610   130.94627   409.01015
   409  H   1.0    0.05    1.12    1.45   122.96770   127.62666   413.20764
   410  H   1.0    0.04    1.04    1.43   125.51207   131.08822   414.45209
   411  H   1.0    0.04    1.05    1.44   126.40138   130.18331   411.67804
   412  H   1.0    0.05    1.05    1.44   124.64551   132.66021   411.98556
   413  H   1.0    0.04    1.05    1.44   120.78365   130.40094   415.58315
   414  H   1.0    0.04    1.06    1.44   120.04374   132.01494   413.10065
   415  H   1.0    0.05    1.08    1.44   118.94936   129.18818   413.46648
   416  N   5.0   -0.22    3.32    1.99   114.22712   126.47583   402.31070
   417  C   4.0    0.03    4.51    4.55   111.58597   127.08304   401.89610
   418  C   4.0    0.14    3.46    3.10   111.02421   129.85083   402.58639
   419  O   6.0   -0.28    1.18    1.80   109.10159   131.00276   401.62142
   420  C   4.0   -0.04    4.72    4.78   109.92359   125.53507   403.24580
   421  C   4.0   -0.03    4.48    4.51   109.93005   122.91626   402.61274
   422  C   4.0   -0.09    4.28    4.15   108.68165   121.16475   404.41220
   423  C   4.0   -0.08    4.41    4.40   108.70093   122.81634   400.13686
   424  H   1.0    0.10    1.08    1.44   114.49692   125.20930   403.39500
   425  H   1.0    0.04    1.13    1.45   111.32982   126.89884   400.01364
   426  H   1.0    0.06    1.11    1.44   110.41604   125.63953   405.14966
   427  H   1.0    0.05    1.13    1.45   108.16591   126.16567   403.15288
   428  H   1.0    0.04    1.14    1.45   111.69730   122.16168   402.49326
   429  H   1.0    0.04    1.05    1.44   108.70530   119.40383   403.80335
   430  H   1.0    0.04    1.05    1.44   109.56786   121.25365   406.07106
   431  H   1.0    0.04    1.06    1.44   106.90809   121.72037   404.64938
   432  H   1.0    0.04    1.05    1.44   108.50692   121.00964   399.54032
   433  H   1.0    0.04    1.07    1.44   106.99301   123.55687   400.27293
   434  H   1.0    0.04    1.07    1.44   109.69818   123.73923   398.87371
   435  N   5.0   -0.15    3.40    2.02   112.60389   130.92293   404.25522
   436  C   4.0    0.02    4.26    4.12   112.05999   133.30193   405.47318
   437  C   4.0    0.10    3.18    3.03   111.59595   135.41136   403.67502
   438  O   6.0   -0.28    1.12    1.80   110.13268   137.15767   404.29652
   439  H   1.0    0.12    1.12    1.45   114.11429   130.24668   404.76055
   440  H   1.0    0.06    1.09    1.44   110.50475   133.08718   406.52391
   441  H   1.0    0.05    1.08    1.44   113.46078   133.77243   406.62730
   442  N   5.0   -0.22    3.26    1.97   123.38210   142.71273   417.32224
   443  C   4.0    0.03    4.28    4.15   122.97220   140.40820   415.92028
   444  C   4.0    0.08    3.22    3.04   124.29937   140.42218   413.41092
   445  O   6.0   -0.30    1.14    1.80   125.17204   138.48565   412.60657
   446  C   4.0    0.01    4.19    3.97   120.10994   139.87257   415.76452
   447  O   6.0   -0.27    2.06    1.83   118.68281   142.27327   415.60754
   448  H   1.0    0.11    1.09    1.44   121.98634   143.76456   417.34458
   449  H   1.0    0.04    1.13    1.45   123.71805   138.96465   416.83046
   450  H   1.0    0.04    1.06    1.44   119.77739   138.83609   414.24997
   451  H   1.0    0.04    1.06    1.44   119.55426   139.00612   417.29285
   452  H   1.0    0.13    1.05    1.44   117.21469   141.92653   414.84452
   453  N   5.0   -0.23    3.25    1.97   128.75288   135.97487   424.61919
   454  C   4.0    0.02    4.39    4.36   126.25134   135.34286   425.45574
   455  C   4.0    0.14    3.36    3.07   125.85413   135.70581   428.44052
   456  O   6.0   -0.29    1.20    1.80   123.71241   136.23579   429.32988
   457  C   4.0   -0.05    4.60    4.67   125.48679   132.74007   424.64938
   458  C   4.0   -0.03    4.37    4.33   125.41221   132.11617   421.98130
   459  C   4.0   -0.09    4.23    4.06   123.72324   129.68433   421.77814
   460  C   4.0   -0.08    4.38    4.35   124.42403   134.27847   420.68594
   461  H   1.0    0.09    1.07    1.44   129.61125   134.69851   423.87633
   462  H   1.0    0.05    1.13    1.45   125.04490   136.56279   424.68192
   463  H   1.0    0.04    1.10    1.44   126.68858   131.53153   425.50911
   464  H   1.0    0.05    1.11    1.44   123.75854   132.37872   425.37566
   465  H   1.0    0.04    1.12    1.45   127.07815   131.73712   421.17816
   466  H   1.0    0.04    1.04    1.43   123.61660   129.19275   419.93372
   467  H   1.0    0.04    1.05    1.44   124.52150   128.30344   422.70776
   468  H   1.0    0.05    1.05    1.44   122.04461   130.05931   422.40024
   469  H   1.0    0.04    1.05    1.44   124.30388   133.92116   418.80266
   470  H   1.0    0.04    1.06    1.44   122.68987   134.66108   421.28515
   471  H   1.0    0.04    1.08    1.44   125.51664   135.75545   420.91933
   472  N   5.0   -0.16    3.37    2.01   127.89301   135.44219   429.91203
   473  C   4.0    0.02    4.27    4.14   127.75225   135.88583   432.58253
   474  C   4.0    0.09    3.17    3.03   127.00478   138.53774   433.26601
   475  O   6.0   -0.27    1.12    1.80   125.29000   138.86316   434.84493
   476  H   1.0    0.09    1.11    1.44   129.44574   134.99648   429.33438
   477  H   1.0    0.06    1.09    1.44   126.48735   134.68708   433.32617
   478  H   1.0    0.04    1.08    1.44   129.40965   135.51108   433.37611
   479  N   5.0   -0.22    3.13    1.94   119.40424   141.90417   432.98742
   480  C   4.0    0.01    4.12    3.84   117.19407   141.52188   434.55948
   481  C   4.0    0.24    3.07    3.02   114.89393   140.17461   433.15580
   482  O   6.0   -0.26    1.16    1.80   114.84871   139.73714   430.76136
   483  O   6.0   -0.28    1.16    1.80   112.97798   139.41818   434.35738
   484  H   1.0    0.12    1.07    1.44   120.79681   141.21070   433.59639
   485  H   1.0    0.06    1.08    1.44   117.61508   140.48523   436.00768
   486  H   1.0    0.05    1.08    1.44   116.55419   143.18379   435.10830
   487  H   1.0    0.09    1.08    1.44    97.36149   121.86670   415.00763
   488  H   1.0    0.07    1.04    1.43   130.77183   112.15200   430.59486
   489  H   1.0    0.10    1.08    1.44   107.19752   140.03364   437.90220
   490  H   1.0    0.05    1.04    1.43   105.90616   134.57821   441.34415
   491  H   1.0    0.09    1.07    1.44    99.48140   132.12533   435.52983
   492  H   1.0    0.06    1.04    1.44   104.40660   127.65356   435.68399
   493  H   1.0    0.09    1.07    1.44    97.45477   122.44407   435.41589
   494  H   1.0    0.05    1.05    1.44   104.22822   116.32631   432.93995
   495  H   1.0    0.10    1.08    1.44    97.41772   112.57026   429.60354
   496  H   1.0    0.06    1.05    1.44   102.56777   105.33651   431.34575
   497  H   1.0    0.09    1.08    1.44   114.34097   127.82941   442.55697
   498  H   1.0    0.06    1.04    1.43   120.34677   125.84511   443.78133
   499  H   1.0    0.09    1.08    1.44   118.61318   117.59322   442.28011
   500  H   1.0    0.06    1.05    1.44   124.92685   116.71971   440.90851
   501  H   1.0    0.09    1.08    1.44   112.67623   102.64786   435.23329
   502  H   1.0    0.05    1.04    1.43   118.41742    99.98284   436.52828
   503  H   1.0    0.09    1.09    1.44   116.21036    96.94993   428.23970
   504  H   1.0    0.06    1.04    1.43   121.43292   100.64813   428.28007
   505  H   1.0    0.09    1.08    1.44   122.62302   115.43995   415.01992
   506  H   1.0    0.05    1.04    1.44   125.22921   119.88218   410.82762
   507  H   1.0    0.09    1.07    1.44   116.81572   119.46112   408.11483
   508  H   1.0    0.06    1.04    1.43   119.19367   127.38644   404.76666
   509  H   1.0    0.09    1.08    1.44   114.94354   126.02211   400.83644
   510  H   1.0    0.06    1.05    1.44   112.45095   135.42175   401.98981
   511  H   1.0    0.09    1.08    1.44   123.76492   142.33519   418.93577
   512  H   1.0    0.06    1.05    1.44   124.44883   142.03047   412.43004
   513  H   1.0    0.09    1.08    1.44   128.66889   137.23285   423.47769
   514  H   1.0    0.05    1.04    1.43   127.87993   140.00432   432.45711
   515  H   1.0    0.12    1.09    1.44   119.13370   141.22363   431.45241

  Z AO/shell   Hii/eV     exponent
  1     Wed Apr 25 08:07:45 CEST 2018   EN: 2.200 GM2: 0.406  GM3: 0.0800  RAES: 1.40
     1s    -10.707211    1.230000
  6     Wed Apr 25 08:07:45 CEST 2018   EN: 2.550 GM2: 0.538  GM3: 0.1500  RAES: 3.00
     2s    -13.970922    2.096432
     2p    -10.063292    1.800000
  7     Wed Apr 25 08:07:45 CEST 2018   EN: 3.040 GM2: 0.461  GM3:-0.0640  RAES: 1.90
     2s    -16.686243    2.339881
     2p    -12.523956    2.014332
  8     Wed Apr 25 08:07:45 CEST 2018   EN: 3.440 GM2: 0.452  GM3:-0.0517  RAES: 1.80
     2s    -20.229985    2.439742
     2p    -15.503117    2.137023
 no old-style atom pair restraining (fixing) potential

molecular fragmentation (1/2 indicates fragments):
111111111111111111111111111111111111111111111111111111111111111111111111
111111111111111111111111111111111111111111111111111111111111111111111111
111111111111111111111111111111111111111111111111111111111111111111122222
222222222222222222222222222222222222222222222222222222222222222222222222
222222222222222222222222222222222222222222222222222222222222222222222222
222222222222222222222222222222222222222222222222222222222222222222222222
222222222222222222222222222222222222222222222222222222112222222222222222
22222222222
# atoms in fragment 1/2:   213   302
 fragment masses (1/2) :     1490.72     1954.39
CMA distance (Bohr)    :   3.364
constraining FC (au)   :  0.0500
           ------------------------------------------------- 
          |        Self-Consistent Charge Iterations        |
           ------------------------------------------------- 

 Ncao       : 1241
 Nao        : 1241
 Nshell     : 757
 Nel        : 1374
 T(el)      :   500.0
 intcut     :    35.0
 scfconv/Eh :  0.100E-06
   qconv/e  :  0.100E-04
 intneglect :  0.100E-08
 broydamp   :      0.400
 iter      E             dE          RMSdq      gap      omega  full diag
   1   -788.2988478 -0.788299E+03  0.469E+00    2.18       0.0  T
   2   -790.1825429 -0.188370E+01  0.223E+00    1.24       1.0  T
   3   -790.2930616 -0.110519E+00  0.132E+00    2.03       1.0  T
   4   -790.4527740 -0.159712E+00  0.271E-01    1.43       1.0  T
   5   -790.4643693 -0.115953E-01  0.133E-01    1.56       1.0  T
   6   -790.4665864 -0.221712E-02  0.612E-02    1.59       1.0  T
   7   -790.4671494 -0.562970E-03  0.249E-02    1.59       1.0  T
   8   -790.4672385 -0.890815E-04  0.121E-02    1.58       1.0  T
   9   -790.4672559 -0.174595E-04  0.489E-03    1.58       1.0  T
  10   -790.4672592 -0.329560E-05  0.214E-03    1.57       2.1  T
  11   -790.4672596 -0.407332E-06  0.897E-04    1.57       4.9  T
  12   -790.4672597 -0.100081E-06  0.428E-04    1.57      10.3  T
  13   -790.4672598 -0.170122E-07  0.177E-04    1.57      24.9  T
  14   -790.4672598 -0.324053E-08  0.951E-05    1.57      46.3  T
  15   -790.4672598 -0.919158E-09  0.405E-05    1.57     108.8  T
speedup  1.87
cpu  time for SCC   35.70 s
wall time for SCC   19.07 s

   *** convergence criteria satisfied after 15 iterations ***

          eigenvalues
 #    :         675        676        677        678        679        680        681        682
 occ. :        2.000      2.000      2.000      2.000      2.000      2.000      2.000      2.000
 eps  :       -10.149    -10.066    -10.050     -9.989     -9.951     -9.915     -9.908     -9.880
 #    :         683        684        685        686        687        688        689        690
 occ. :        2.000      2.000      2.000      2.000      2.000      0.000      0.000      0.000
 eps  :        -9.834     -9.828     -9.809     -9.800     -9.763     -8.190     -8.097     -8.058
 #    :         691        692        693        694        695        696        697        698
 occ. :        0.000      0.000      0.000      0.000      0.000      0.000      0.000      0.000
 eps  :        -8.055     -8.024     -7.959     -7.915     -7.881     -7.823     -7.787     -7.714


   #   Z            q   n(s)   n(p)   n(d)      C6AA      α(0)
   1   7 N     -0.403  1.301  4.101  0.000    30.448     8.195
   2   6 C      0.026  1.035  2.938  0.000    20.137     6.390
   3   6 C      0.251  1.063  2.687  0.000    22.792     7.818
   4   8 O     -0.480  1.782  4.698  0.000    23.356     6.479
   5   6 C     -0.083  1.009  3.074  0.000    22.067     6.684
   6   6 C     -0.102  1.011  3.091  0.000    22.429     6.739
   7   6 C      0.273  1.045  2.682  0.000    22.382     7.747
   8   8 O     -0.506  1.777  4.729  0.000    23.916     6.557
   9   7 N     -0.306  1.213  4.093  0.000    27.887     7.843
  10   1 H      0.174  0.826  0.000  0.000     1.248     1.750
  11   1 H      0.073  0.927  0.000  0.000     2.048     2.238
  12   1 H      0.048  0.952  0.000  0.000     2.340     2.392
  13   1 H      0.074  0.926  0.000  0.000     2.040     2.233
  14   1 H      0.075  0.925  0.000  0.000     2.033     2.230
  15   1 H      0.090  0.910  0.000  0.000     1.879     2.144
  16   1 H      0.237  0.763  0.000  0.000     0.936     1.515
  17   1 H      0.218  0.782  0.000  0.000     1.018     1.581
  18   7 N     -0.184  1.212  3.972  0.000    24.976     7.422
  19   6 C      0.008  1.039  2.953  0.000    20.433     6.434
  20   6 C      0.269  1.042  2.689  0.000    22.461     7.761
  21   8 O     -0.485  1.738  4.747  0.000    23.462     6.494
  22   6 C     -0.037  1.043  2.994  0.000    21.195     6.548
  23   6 C     -0.155  0.993  3.161  0.000    23.545     6.917
  24   6 C     -0.158  0.988  3.169  0.000    23.591     6.922
  25   1 H      0.217  0.783  0.000  0.000     1.024     1.585
  26   1 H      0.082  0.918  0.000  0.000     1.957     2.187
  27   1 H      0.052  0.948  0.000  0.000     2.294     2.368
  28   1 H      0.062  0.938  0.000  0.000     2.175     2.306
  29   1 H      0.040  0.960  0.000  0.000     2.448     2.447
  30   1 H      0.072  0.928  0.000  0.000     2.064     2.246
  31   1 H      0.075  0.925  0.000  0.000     2.027     2.226
  32   1 H      0.066  0.934  0.000  0.000     2.135     2.285
  33   1 H      0.073  0.927  0.000  0.000     2.052     2.240
  34   7 N     -0.200  1.224  3.976  0.000    25.354     7.478
  35   6 C      0.012  1.042  2.946  0.000    20.365     6.423
  36   6 C      0.271  1.049  2.681  0.000    22.428     7.755
  37   8 O     -0.469  1.735  4.734  0.000    23.117     6.446
  38   6 C      0.107  1.017  2.876  0.000    18.891     6.201
  39   8 O     -0.449  1.694  4.755  0.000    21.814     6.305
  40   6 C     -0.188  1.001  3.187  0.000    24.238     7.019
  41   1 H      0.217  0.783  0.000  0.000     1.021     1.583
  42   1 H      0.106  0.894  0.000  0.000     1.728     2.055
  43   1 H      0.046  0.954  0.000  0.000     2.368     2.406
  44   1 H      0.324  0.676  0.000  0.000     0.653     1.269
  45   1 H      0.077  0.923  0.000  0.000     2.007     2.215
  46   1 H      0.069  0.931  0.000  0.000     2.093     2.262
  47   1 H      0.067  0.933  0.000  0.000     2.117     2.275
  48   7 N     -0.179  1.210  3.969  0.000    24.884     7.409
  49   6 C      0.006  1.039  2.955  0.000    20.480     6.443
  50   6 C      0.273  1.035  2.692  0.000    22.394     7.749
  51   8 O     -0.483  1.721  4.762  0.000    23.411     6.487
  52   6 C      0.040  1.017  2.943  0.000    20.121     6.426
  53   8 O     -0.501  1.713  4.788  0.000    22.913     6.462
  54   1 H      0.223  0.777  0.000  0.000     0.997     1.564
  55   1 H      0.112  0.888  0.000  0.000     1.682     2.028
  56   1 H      0.068  0.932  0.000  0.000     2.107     2.270
  57   1 H      0.097  0.903  0.000  0.000     1.814     2.106
  58   1 H      0.343  0.657  0.000  0.000     0.604     1.220
  59   7 N     -0.186  1.223  3.963  0.000    25.023     7.429
  60   6 C      0.023  1.036  2.941  0.000    20.188     6.397
  61   6 C      0.275  1.036  2.689  0.000    22.350     7.742
  62   8 O     -0.505  1.734  4.771  0.000    23.898     6.554
  63   6 C     -0.083  1.018  3.065  0.000    22.073     6.687
  64   6 C     -0.107  1.021  3.086  0.000    22.538     6.757
  65   6 C      0.351  1.034  2.614  0.000    21.034     7.506
  66   8 O     -0.675  1.788  4.887  0.000    28.030     7.098
  67   8 O     -0.650  1.795  4.855  0.000    27.372     7.015
  68   1 H      0.204  0.796  0.000  0.000     1.084     1.631
  69   1 H      0.072  0.928  0.000  0.000     2.060     2.244
  70   1 H      0.066  0.934  0.000  0.000     2.124     2.279
  71   1 H      0.090  0.910  0.000  0.000     1.879     2.143
  72   1 H      0.050  0.950  0.000  0.000     2.322     2.383
  73   1 H      0.062  0.938  0.000  0.000     2.174     2.306
  74   7 N     -0.175  1.218  3.958  0.000    24.794     7.395
  75   6 C      0.016  1.036  2.948  0.000    20.307     6.415
  76   6 C      0.264  1.047  2.689  0.000    22.553     7.777
  77   8 O     -0.492  1.740  4.752  0.000    23.607     6.514
  78   6 C     -0.081  1.004  3.077  0.000    22.031     6.680
  79   6 C     -0.110  1.014  3.096  0.000    22.587     6.764
  80   6 C      0.274  1.050  2.676  0.000    22.365     7.743
  81   8 O     -0.452  1.743  4.709  0.000    22.743     6.394
  82   7 N     -0.324  1.213  4.111  0.000    28.344     7.907
  83   1 H      0.222  0.778  0.000  0.000     1.000     1.566
  84   1 H      0.094  0.906  0.000  0.000     1.837     2.119
  85   1 H      0.091  0.909  0.000  0.000     1.867     2.136
  86   1 H      0.075  0.925  0.000  0.000     2.026     2.226
  87   1 H      0.102  0.898  0.000  0.000     1.765     2.077
  88   1 H      0.069  0.931  0.000  0.000     2.098     2.265
  89   1 H      0.213  0.787  0.000  0.000     1.041     1.598
  90   1 H      0.222  0.778  0.000  0.000     1.002     1.568
  91   7 N     -0.181  1.217  3.964  0.000    24.923     7.415
  92   6 C      0.013  1.041  2.946  0.000    20.360     6.424
  93   6 C      0.269  1.038  2.694  0.000    22.464     7.762
  94   8 O     -0.503  1.739  4.764  0.000    23.845     6.547
  95   6 C     -0.161  0.991  3.170  0.000    23.654     6.931
  96   1 H      0.210  0.790  0.000  0.000     1.056     1.610
  97   1 H      0.094  0.906  0.000  0.000     1.844     2.123
  98   1 H      0.091  0.909  0.000  0.000     1.872     2.139
  99   1 H      0.090  0.910  0.000  0.000     1.878     2.143
 100   1 H      0.076  0.924  0.000  0.000     2.022     2.224
 101   7 N     -0.166  1.214  3.952  0.000    24.590     7.365
 102   6 C      0.010  1.042  2.948  0.000    20.409     6.432
 103   6 C      0.265  1.049  2.686  0.000    22.527     7.772
 104   8 O     -0.511  1.761  4.750  0.000    24.038     6.574
 105   6 C     -0.092  1.012  3.079  0.000    22.234     6.710
 106   6 C     -0.087  1.011  3.076  0.000    22.156     6.700
 107   6 C     -0.100  1.017  3.083  0.000    22.391     6.734
 108   6 C     -0.033  0.998  3.035  0.000    21.230     6.572
 109   7 N     -0.121  1.152  3.969  0.000    23.631     7.220
 110   1 H      0.225  0.775  0.000  0.000     0.987     1.556
 111   1 H      0.096  0.904  0.000  0.000     1.818     2.108
 112   1 H      0.070  0.930  0.000  0.000     2.080     2.255
 113   1 H      0.063  0.937  0.000  0.000     2.166     2.301
 114   1 H      0.076  0.924  0.000  0.000     2.020     2.223
 115   1 H      0.072  0.928  0.000  0.000     2.065     2.247
 116   1 H      0.066  0.934  0.000  0.000     2.124     2.279
 117   1 H      0.074  0.926  0.000  0.000     2.045     2.236
 118   1 H      0.109  0.891  0.000  0.000     1.702     2.040
 119   1 H      0.102  0.898  0.000  0.000     1.770     2.080
 120   1 H      0.256  0.744  0.000  0.000     0.861     1.453
 121   1 H      0.272  0.728  0.000  0.000     0.801     1.402
 122   1 H      0.278  0.722  0.000  0.000     0.784     1.387
 123   7 N     -0.168  1.213  3.955  0.000    24.640     7.372
 124   6 C      0.027  1.025  2.948  0.000    20.109     6.381
 125   6 C      0.291  1.023  2.686  0.000    22.070     7.694
 126   8 O     -0.498  1.730  4.767  0.000    23.723     6.531
 127   6 C     -0.097  1.011  3.086  0.000    22.318     6.720
 128   6 C      0.015  1.045  2.940  0.000    27.667     8.628
 129   6 C     -0.053  1.055  2.999  0.000    29.263     8.871
 130   6 C     -0.058  1.060  2.999  0.000    29.391     8.891
 131   6 C     -0.042  1.055  2.986  0.000    28.981     8.829
 132   6 C     -0.047  1.060  2.987  0.000    29.132     8.853
 133   6 C     -0.040  1.035  3.005  0.000    29.002     8.833
 134   1 H      0.216  0.784  0.000  0.000     1.025     1.586
 135   1 H      0.077  0.923  0.000  0.000     2.012     2.218
 136   1 H      0.069  0.931  0.000  0.000     2.093     2.262
 137   1 H      0.073  0.927  0.000  0.000     2.052     2.240
 138   1 H      0.044  0.956  0.000  0.000     2.397     2.421
 139   1 H      0.044  0.956  0.000  0.000     2.400     2.423
 140   1 H      0.052  0.948  0.000  0.000     2.300     2.371
 141   1 H      0.051  0.949  0.000  0.000     2.310     2.377
 142   1 H      0.063  0.937  0.000  0.000     2.168     2.302
 143   7 N     -0.187  1.221  3.966  0.000    25.043     7.432
 144   6 C      0.027  1.033  2.940  0.000    20.096     6.377
 145   6 C      0.273  1.035  2.692  0.000    22.392     7.750
 146   8 O     -0.509  1.752  4.756  0.000    23.981     6.566
 147   6 C     -0.078  1.001  3.078  0.000    21.972     6.669
 148   6 C     -0.046  1.056  2.989  0.000    29.080     8.844
 149   6 C     -0.027  1.051  2.976  0.000    28.647     8.779
 150   6 C     -0.027  1.079  2.949  0.000    28.560     8.758
 151   7 N     -0.116  1.196  3.920  0.000    23.535     7.205
 152   6 C      0.029  1.074  2.896  0.000    27.263     8.560
 153   6 C     -0.052  1.052  3.001  0.000    29.302     8.876
 154   6 C     -0.068  1.050  3.018  0.000    29.699     8.936
 155   6 C     -0.053  1.060  2.993  0.000    29.324     8.881
 156   6 C     -0.050  1.056  2.994  0.000    29.239     8.868
 157   1 H      0.216  0.784  0.000  0.000     1.029     1.589
 158   1 H      0.092  0.908  0.000  0.000     1.858     2.131
 159   1 H      0.064  0.936  0.000  0.000     2.150     2.293
 160   1 H      0.074  0.926  0.000  0.000     2.043     2.235
 161   1 H      0.062  0.938  0.000  0.000     2.170     2.303
 162   1 H      0.187  0.813  0.000  0.000     1.176     1.699
 163   1 H      0.041  0.959  0.000  0.000     2.431     2.438
 164   1 H      0.061  0.939  0.000  0.000     2.190     2.314
 165   1 H      0.037  0.963  0.000  0.000     2.487     2.466
 166   1 H      0.048  0.952  0.000  0.000     2.344     2.394
 167   7 N     -0.185  1.214  3.971  0.000    25.005     7.427
 168   6 C      0.015  1.045  2.940  0.000    20.332     6.420
 169   6 C      0.262  1.062  2.675  0.000    22.574     7.779
 170   8 O     -0.512  1.773  4.739  0.000    24.052     6.575
 171   6 C     -0.087  1.012  3.075  0.000    22.114     6.686
 172   6 C     -0.022  1.020  3.002  0.000    20.924     6.505
 173   6 C     -0.157  0.997  3.160  0.000    23.564     6.916
 174   6 C     -0.147  0.983  3.164  0.000    23.312     6.872
 175   1 H      0.228  0.772  0.000  0.000     0.972     1.544
 176   1 H      0.094  0.906  0.000  0.000     1.842     2.122
 177   1 H      0.049  0.951  0.000  0.000     2.333     2.388
 178   1 H      0.071  0.929  0.000  0.000     2.069     2.249
 179   1 H      0.054  0.946  0.000  0.000     2.264     2.353
 180   1 H      0.062  0.938  0.000  0.000     2.176     2.307
 181   1 H      0.054  0.946  0.000  0.000     2.271     2.357
 182   1 H      0.058  0.942  0.000  0.000     2.220     2.330
 183   1 H      0.057  0.943  0.000  0.000     2.230     2.335
 184   1 H      0.052  0.948  0.000  0.000     2.295     2.369
 185   1 H      0.052  0.948  0.000  0.000     2.299     2.371
 186   7 N     -0.160  1.208  3.952  0.000    24.469     7.347
 187   6 C     -0.028  1.008  3.020  0.000    21.123     6.552
 188   6 C      0.274  1.046  2.680  0.000    22.369     7.744
 189   8 O     -0.502  1.763  4.740  0.000    23.830     6.545
 190   1 H      0.215  0.785  0.000  0.000     1.034     1.593
 191   1 H      0.097  0.903  0.000  0.000     1.810     2.104
 192   1 H      0.091  0.909  0.000  0.000     1.865     2.135
 193   7 N     -0.187  1.219  3.967  0.000    25.045     7.433
 194   6 C      0.044  1.025  2.930  0.000    19.821     6.337
 195   6 C      0.194  1.105  2.701  0.000    23.859     8.001
 196   8 O     -0.395  1.784  4.611  0.000    21.577     6.228
 197   6 C     -0.075  0.996  3.079  0.000    21.870     6.646
 198   6 C     -0.013  1.009  3.005  0.000    20.763     6.478
 199   6 C     -0.139  0.985  3.154  0.000    23.188     6.859
 200   6 C     -0.147  0.987  3.160  0.000    23.289     6.864
 201   1 H      0.226  0.774  0.000  0.000     0.984     1.554
 202   1 H      0.107  0.893  0.000  0.000     1.724     2.053
 203   1 H      0.059  0.941  0.000  0.000     2.215     2.327
 204   1 H      0.084  0.916  0.000  0.000     1.938     2.177
 205   1 H      0.042  0.958  0.000  0.000     2.428     2.436
 206   1 H      0.064  0.936  0.000  0.000     2.149     2.292
 207   1 H      0.041  0.959  0.000  0.000     2.435     2.440
 208   1 H      0.054  0.946  0.000  0.000     2.270     2.356
 209   1 H      0.052  0.948  0.000  0.000     2.299     2.371
 210   1 H      0.055  0.945  0.000  0.000     2.257     2.349
 211   1 H      0.052  0.948  0.000  0.000     2.294     2.368
 212   8 O     -0.656  1.742  4.914  0.000    26.560     6.956
 213   1 H      0.322  0.678  0.000  0.000     0.657     1.273
 214   1 H      0.334  0.666  0.000  0.000     0.626     1.242
 215   8 O     -0.608  1.707  4.901  0.000    25.375     6.799
 216   1 H      0.294  0.706  0.000  0.000     0.739     1.350
 217   1 H      0.316  0.684  0.000  0.000     0.675     1.290
 218   7 N     -0.404  1.273  4.131  0.000    30.472     8.198
 219   6 C      0.043  1.025  2.932  0.000    19.861     6.347
 220   6 C      0.190  1.098  2.712  0.000    23.937     8.013
 221   8 O     -0.366  1.750  4.615  0.000    21.010     6.145
 222   6 C     -0.061  1.011  3.050  0.000    21.660     6.623
 223   6 C     -0.115  1.027  3.088  0.000    22.705     6.785
 224   6 C      0.350  1.050  2.600  0.000    21.057     7.509
 225   8 O     -0.632  1.785  4.847  0.000    26.924     6.957
 226   8 O     -0.641  1.765  4.877  0.000    27.160     6.987
 227   1 H      0.181  0.819  0.000  0.000     1.206     1.720
 228   1 H      0.051  0.949  0.000  0.000     2.308     2.375
 229   1 H      0.044  0.956  0.000  0.000     2.395     2.420
 230   1 H      0.055  0.945  0.000  0.000     2.252     2.347
 231   1 H      0.048  0.952  0.000  0.000     2.338     2.391
 232   1 H      0.029  0.971  0.000  0.000     2.600     2.521
 233   7 N     -0.415  1.297  4.117  0.000    30.791     8.241
 234   6 C      0.036  1.035  2.929  0.000    19.973     6.365
 235   6 C      0.195  1.095  2.710  0.000    23.833     7.995
 236   8 O     -0.370  1.748  4.622  0.000    21.099     6.158
 237   6 C     -0.134  0.986  3.148  0.000    23.100     6.848
 238   1 H      0.169  0.831  0.000  0.000     1.276     1.769
 239   1 H      0.085  0.915  0.000  0.000     1.930     2.172
 240   1 H      0.052  0.948  0.000  0.000     2.289     2.366
 241   1 H      0.068  0.932  0.000  0.000     2.106     2.269
 242   1 H      0.047  0.953  0.000  0.000     2.352     2.398
 243   7 N     -0.424  1.306  4.118  0.000    31.059     8.277
 244   6 C      0.025  1.037  2.938  0.000    20.161     6.394
 245   6 C      0.263  1.056  2.681  0.000    22.557     7.778
 246   8 O     -0.511  1.755  4.756  0.000    24.027     6.572
 247   6 C     -0.098  1.017  3.081  0.000    22.352     6.729
 248   6 C     -0.105  1.029  3.076  0.000    22.506     6.755
 249   6 C     -0.114  1.030  3.084  0.000    22.677     6.781
 250   6 C     -0.068  1.059  3.009  0.000    21.946     6.694
 251   7 N     -0.162  1.170  3.992  0.000    24.496     7.351
 252   1 H      0.178  0.822  0.000  0.000     1.225     1.734
 253   1 H      0.064  0.936  0.000  0.000     2.152     2.294
 254   1 H      0.071  0.929  0.000  0.000     2.079     2.254
 255   1 H      0.056  0.944  0.000  0.000     2.248     2.344
 256   1 H      0.071  0.929  0.000  0.000     2.078     2.254
 257   1 H      0.070  0.930  0.000  0.000     2.084     2.258
 258   1 H      0.085  0.915  0.000  0.000     1.924     2.169
 259   1 H      0.105  0.895  0.000  0.000     1.738     2.062
 260   1 H      0.142  0.858  0.000  0.000     1.447     1.881
 261   1 H      0.138  0.862  0.000  0.000     1.476     1.900
 262   1 H      0.296  0.704  0.000  0.000     0.724     1.333
 263   1 H      0.282  0.718  0.000  0.000     0.770     1.375
 264   1 H      0.283  0.717  0.000  0.000     0.766     1.371
 265   7 N     -0.173  1.215  3.958  0.000    24.747     7.388
 266   6 C      0.028  1.028  2.944  0.000    20.082     6.377
 267   6 C      0.195  1.093  2.712  0.000    23.838     7.996
 268   8 O     -0.379  1.757  4.622  0.000    21.266     6.183
 269   6 C     -0.024  1.027  2.997  0.000    20.957     6.509
 270   6 C     -0.144  0.988  3.156  0.000    23.299     6.877
 271   6 C     -0.151  0.985  3.166  0.000    23.440     6.897
 272   1 H      0.229  0.771  0.000  0.000     0.968     1.541
 273   1 H      0.095  0.905  0.000  0.000     1.829     2.115
 274   1 H      0.069  0.931  0.000  0.000     2.098     2.265
 275   1 H      0.056  0.944  0.000  0.000     2.241     2.341
 276   1 H      0.058  0.942  0.000  0.000     2.219     2.329
 277   1 H      0.055  0.945  0.000  0.000     2.261     2.351
 278   1 H      0.061  0.939  0.000  0.000     2.189     2.313
 279   1 H      0.052  0.948  0.000  0.000     2.298     2.370
 280   1 H      0.073  0.927  0.000  0.000     2.048     2.238
 281   7 N     -0.411  1.295  4.116  0.000    30.676     8.226
 282   6 C      0.028  1.034  2.938  0.000    20.110     6.386
 283   6 C      0.279  1.040  2.681  0.000    22.288     7.732
 284   8 O     -0.539  1.760  4.779  0.000    24.659     6.658
 285   6 C      0.070  1.003  2.927  0.000    19.577     6.331
 286   8 O     -0.493  1.702  4.791  0.000    22.742     6.438
 287   1 H      0.182  0.818  0.000  0.000     1.204     1.719
 288   1 H      0.052  0.948  0.000  0.000     2.296     2.370
 289   1 H      0.038  0.962  0.000  0.000     2.473     2.459
 290   1 H      0.053  0.947  0.000  0.000     2.282     2.362
 291   1 H      0.326  0.674  0.000  0.000     0.648     1.264
 292   7 N     -0.165  1.219  3.946  0.000    24.568     7.362
 293   6 C      0.024  1.029  2.948  0.000    20.169     6.392
 294   6 C      0.215  1.073  2.712  0.000    23.454     7.932
 295   8 O     -0.376  1.751  4.625  0.000    21.200     6.173
 296   6 C     -0.157  0.991  3.166  0.000    23.565     6.916
 297   1 H      0.238  0.762  0.000  0.000     0.930     1.511
 298   1 H      0.102  0.898  0.000  0.000     1.763     2.076
 299   1 H      0.090  0.910  0.000  0.000     1.878     2.143
 300   1 H      0.089  0.911  0.000  0.000     1.889     2.149
 301   1 H      0.080  0.920  0.000  0.000     1.979     2.200
 302   7 N     -0.394  1.281  4.112  0.000    30.198     8.161
 303   6 C      0.030  1.031  2.939  0.000    20.090     6.385
 304   6 C      0.199  1.103  2.698  0.000    23.757     7.982
 305   8 O     -0.358  1.747  4.611  0.000    20.868     6.125
 306   6 C      0.073  1.005  2.922  0.000    19.544     6.327
 307   8 O     -0.506  1.709  4.796  0.000    23.015     6.476
 308   1 H      0.162  0.838  0.000  0.000     1.324     1.802
 309   1 H      0.087  0.913  0.000  0.000     1.910     2.161
 310   1 H      0.055  0.945  0.000  0.000     2.261     2.351
 311   1 H      0.048  0.952  0.000  0.000     2.349     2.396
 312   1 H      0.322  0.678  0.000  0.000     0.659     1.275
 313   7 N     -0.407  1.307  4.099  0.000    30.563     8.211
 314   6 C      0.031  1.033  2.936  0.000    20.055     6.378
 315   6 C      0.204  1.081  2.714  0.000    23.656     7.966
 316   8 O     -0.373  1.744  4.629  0.000    21.149     6.166
 317   6 C     -0.087  1.018  3.069  0.000    22.133     6.695
 318   6 C     -0.000  1.073  2.927  0.000    28.032     8.684
 319   6 C     -0.056  1.066  2.990  0.000    29.393     8.892
 320   6 C     -0.048  1.057  2.991  0.000    29.188     8.862
 321   6 C     -0.083  1.057  3.026  0.000    30.086     8.995
 322   6 C     -0.096  1.052  3.045  0.000    30.423     9.046
 323   6 C      0.141  1.037  2.822  0.000    24.918     8.182
 324   8 O     -0.418  1.671  4.747  0.000    21.200     6.216
 325   1 H      0.170  0.830  0.000  0.000     1.272     1.767
 326   1 H      0.084  0.916  0.000  0.000     1.940     2.178
 327   1 H      0.051  0.949  0.000  0.000     2.305     2.374
 328   1 H      0.065  0.935  0.000  0.000     2.140     2.288
 329   1 H      0.070  0.930  0.000  0.000     2.081     2.256
 330   1 H      0.036  0.964  0.000  0.000     2.500     2.473
 331   1 H      0.085  0.915  0.000  0.000     1.927     2.171
 332   1 H      0.039  0.961  0.000  0.000     2.457     2.451
 333   1 H      0.335  0.665  0.000  0.000     0.624     1.240
 334   7 N     -0.406  1.288  4.118  0.000    30.529     8.206
 335   6 C      0.042  1.027  2.931  0.000    19.877     6.349
 336   6 C      0.178  1.111  2.711  0.000    24.175     8.052
 337   8 O     -0.388  1.784  4.604  0.000    21.445     6.209
 338   6 C     -0.089  1.018  3.072  0.000    22.162     6.695
 339   6 C     -0.013  1.016  2.997  0.000    20.774     6.482
 340   6 C     -0.149  0.990  3.159  0.000    23.394     6.889
 341   6 C     -0.133  0.976  3.156  0.000    23.032     6.831
 342   1 H      0.185  0.815  0.000  0.000     1.184     1.704
 343   1 H      0.059  0.941  0.000  0.000     2.215     2.327
 344   1 H      0.053  0.947  0.000  0.000     2.284     2.363
 345   1 H      0.059  0.941  0.000  0.000     2.205     2.322
 346   1 H      0.049  0.951  0.000  0.000     2.333     2.388
 347   1 H      0.054  0.946  0.000  0.000     2.266     2.354
 348   1 H      0.048  0.952  0.000  0.000     2.348     2.396
 349   1 H      0.049  0.951  0.000  0.000     2.331     2.387
 350   1 H      0.049  0.951  0.000  0.000     2.334     2.389
 351   1 H      0.045  0.955  0.000  0.000     2.381     2.413
 352   1 H      0.052  0.948  0.000  0.000     2.294     2.368
 353   7 N     -0.400  1.299  4.102  0.000    30.384     8.187
 354   6 C      0.051  1.015  2.934  0.000    19.730     6.325
 355   6 C      0.194  1.098  2.709  0.000    23.868     8.002
 356   8 O     -0.406  1.777  4.629  0.000    21.801     6.260
 357   6 C     -0.144  0.991  3.153  0.000    23.306     6.878
 358   1 H      0.173  0.827  0.000  0.000     1.254     1.754
 359   1 H      0.063  0.937  0.000  0.000     2.167     2.302
 360   1 H      0.060  0.940  0.000  0.000     2.201     2.320
 361   1 H      0.078  0.922  0.000  0.000     1.999     2.211
 362   1 H      0.067  0.933  0.000  0.000     2.119     2.276
 363   7 N     -0.408  1.294  4.114  0.000    30.593     8.215
 364   6 C      0.032  1.033  2.934  0.000    20.046     6.377
 365   6 C      0.189  1.100  2.711  0.000    23.958     8.016
 366   8 O     -0.366  1.749  4.617  0.000    21.013     6.146
 367   6 C     -0.149  0.989  3.160  0.000    23.417     6.896
 368   1 H      0.183  0.817  0.000  0.000     1.198     1.714
 369   1 H      0.062  0.938  0.000  0.000     2.180     2.309
 370   1 H      0.069  0.931  0.000  0.000     2.101     2.266
 371   1 H      0.068  0.932  0.000  0.000     2.107     2.270
 372   1 H      0.069  0.931  0.000  0.000     2.093     2.262
 373   7 N     -0.411  1.305  4.107  0.000    30.693     8.228
 374   6 C      0.033  1.029  2.938  0.000    19.997     6.363
 375   6 C      0.262  1.044  2.695  0.000    22.588     7.784
 376   8 O     -0.500  1.746  4.754  0.000    23.777     6.538
 377   6 C     -0.079  1.002  3.077  0.000    21.989     6.672
 378   6 C     -0.041  1.062  2.979  0.000    28.970     8.827
 379   6 C     -0.028  1.050  2.978  0.000    28.671     8.783
 380   6 C     -0.030  1.080  2.950  0.000    28.617     8.767
 381   7 N     -0.124  1.203  3.921  0.000    23.691     7.229
 382   6 C      0.025  1.076  2.899  0.000    27.359     8.575
 383   6 C     -0.053  1.053  3.001  0.000    29.316     8.879
 384   6 C     -0.073  1.052  3.021  0.000    29.817     8.954
 385   6 C     -0.061  1.059  3.002  0.000    29.520     8.911
 386   6 C     -0.057  1.056  3.001  0.000    29.421     8.896
 387   1 H      0.171  0.829  0.000  0.000     1.269     1.765
 388   1 H      0.061  0.939  0.000  0.000     2.189     2.313
 389   1 H      0.053  0.947  0.000  0.000     2.287     2.365
 390   1 H      0.065  0.935  0.000  0.000     2.143     2.289
 391   1 H      0.055  0.945  0.000  0.000     2.258     2.350
 392   1 H      0.197  0.803  0.000  0.000     1.119     1.657
 393   1 H      0.044  0.956  0.000  0.000     2.396     2.421
 394   1 H      0.057  0.943  0.000  0.000     2.232     2.336
 395   1 H      0.037  0.963  0.000  0.000     2.486     2.465
 396   1 H      0.051  0.949  0.000  0.000     2.309     2.376
 397   7 N     -0.170  1.210  3.959  0.000    24.671     7.377
 398   6 C      0.015  1.044  2.940  0.000    20.318     6.418
 399   6 C      0.189  1.110  2.701  0.000    23.958     8.015
 400   8 O     -0.380  1.772  4.609  0.000    21.294     6.187
 401   6 C     -0.092  1.015  3.077  0.000    22.195     6.698
 402   6 C     -0.023  1.020  3.003  0.000    20.950     6.509
 403   6 C     -0.156  0.997  3.159  0.000    23.554     6.915
 404   6 C     -0.149  0.983  3.167  0.000    23.370     6.880
 405   1 H      0.231  0.769  0.000  0.000     0.959     1.534
 406   1 H      0.101  0.899  0.000  0.000     1.779     2.086
 407   1 H      0.066  0.934  0.000  0.000     2.128     2.281
 408   1 H      0.079  0.921  0.000  0.000     1.990     2.206
 409   1 H      0.055  0.945  0.000  0.000     2.258     2.350
 410   1 H      0.051  0.949  0.000  0.000     2.305     2.374
 411   1 H      0.059  0.941  0.000  0.000     2.206     2.322
 412   1 H      0.062  0.938  0.000  0.000     2.171     2.304
 413   1 H      0.046  0.954  0.000  0.000     2.373     2.409
 414   1 H      0.055  0.945  0.000  0.000     2.259     2.350
 415   1 H      0.054  0.946  0.000  0.000     2.269     2.355
 416   7 N     -0.415  1.287  4.128  0.000    30.798     8.242
 417   6 C      0.043  1.023  2.934  0.000    19.849     6.342
 418   6 C      0.251  1.070  2.679  0.000    22.794     7.819
 419   8 O     -0.538  1.790  4.747  0.000    24.638     6.655
 420   6 C     -0.072  0.995  3.077  0.000    21.816     6.638
 421   6 C     -0.010  1.010  3.000  0.000    20.697     6.468
 422   6 C     -0.141  0.985  3.156  0.000    23.234     6.866
 423   6 C     -0.142  0.986  3.156  0.000    23.189     6.850
 424   1 H      0.178  0.822  0.000  0.000     1.225     1.733
 425   1 H      0.057  0.943  0.000  0.000     2.239     2.340
 426   1 H      0.052  0.948  0.000  0.000     2.300     2.372
 427   1 H      0.058  0.942  0.000  0.000     2.227     2.333
 428   1 H      0.035  0.965  0.000  0.000     2.512     2.479
 429   1 H      0.056  0.944  0.000  0.000     2.247     2.344
 430   1 H      0.042  0.958  0.000  0.000     2.420     2.432
 431   1 H      0.047  0.953  0.000  0.000     2.354     2.399
 432   1 H      0.045  0.955  0.000  0.000     2.388     2.416
 433   1 H      0.048  0.952  0.000  0.000     2.340     2.392
 434   1 H      0.046  0.954  0.000  0.000     2.366     2.405
 435   7 N     -0.158  1.211  3.947  0.000    24.422     7.340
 436   6 C     -0.037  1.010  3.027  0.000    21.282     6.578
 437   6 C      0.209  1.078  2.713  0.000    23.573     7.951
 438   8 O     -0.388  1.766  4.621  0.000    21.434     6.207
 439   1 H      0.232  0.768  0.000  0.000     0.958     1.533
 440   1 H      0.110  0.890  0.000  0.000     1.699     2.038
 441   1 H      0.131  0.869  0.000  0.000     1.527     1.932
 442   7 N     -0.405  1.296  4.109  0.000    30.500     8.202
 443   6 C      0.023  1.032  2.945  0.000    20.206     6.402
 444   6 C      0.203  1.081  2.716  0.000    23.676     7.969
 445   8 O     -0.359  1.740  4.619  0.000    20.869     6.125
 446   6 C      0.049  1.014  2.937  0.000    19.971     6.402
 447   8 O     -0.513  1.728  4.785  0.000    23.176     6.499
 448   1 H      0.193  0.807  0.000  0.000     1.143     1.675
 449   1 H      0.080  0.920  0.000  0.000     1.974     2.197
 450   1 H      0.062  0.938  0.000  0.000     2.171     2.304
 451   1 H      0.068  0.932  0.000  0.000     2.105     2.269
 452   1 H      0.341  0.659  0.000  0.000     0.609     1.225
 453   7 N     -0.409  1.286  4.123  0.000    30.636     8.220
 454   6 C      0.020  1.042  2.938  0.000    20.258     6.412
 455   6 C      0.245  1.073  2.682  0.000    22.893     7.834
 456   8 O     -0.530  1.784  4.745  0.000    24.449     6.629
 457   6 C     -0.086  1.012  3.073  0.000    22.086     6.682
 458   6 C     -0.020  1.020  3.000  0.000    20.887     6.499
 459   6 C     -0.157  0.997  3.160  0.000    23.565     6.916
 460   6 C     -0.136  0.980  3.157  0.000    23.102     6.841
 461   1 H      0.191  0.809  0.000  0.000     1.151     1.680
 462   1 H      0.061  0.939  0.000  0.000     2.183     2.310
 463   1 H      0.049  0.951  0.000  0.000     2.335     2.389
 464   1 H      0.048  0.952  0.000  0.000     2.338     2.391
 465   1 H      0.055  0.945  0.000  0.000     2.261     2.351
 466   1 H      0.059  0.941  0.000  0.000     2.210     2.325
 467   1 H      0.050  0.950  0.000  0.000     2.316     2.380
 468   1 H      0.051  0.949  0.000  0.000     2.302     2.372
 469   1 H      0.051  0.949  0.000  0.000     2.311     2.377
 470   1 H      0.042  0.958  0.000  0.000     2.424     2.435
 471   1 H      0.051  0.949  0.000  0.000     2.305     2.374
 472   7 N     -0.162  1.212  3.949  0.000    24.496     7.351
 473   6 C     -0.038  1.011  3.027  0.000    21.302     6.580
 474   6 C      0.205  1.082  2.714  0.000    23.654     7.965
 475   8 O     -0.392  1.780  4.612  0.000    21.521     6.220
 476   1 H      0.245  0.755  0.000  0.000     0.905     1.490
 477   1 H      0.103  0.897  0.000  0.000     1.755     2.071
 478   1 H      0.132  0.868  0.000  0.000     1.519     1.927
 479   7 N     -0.414  1.285  4.129  0.000    30.777     8.239
 480   6 C     -0.024  1.009  3.015  0.000    21.094     6.555
 481   6 C      0.335  1.058  2.607  0.000    21.315     7.555
 482   8 O     -0.657  1.788  4.869  0.000    27.571     7.040
 483   8 O     -0.646  1.779  4.867  0.000    27.282     7.003
 484   1 H      0.175  0.825  0.000  0.000     1.240     1.745
 485   1 H      0.025  0.975  0.000  0.000     2.661     2.551
 486   1 H      0.044  0.956  0.000  0.000     2.396     2.420
 487   1 H      0.186  0.814  0.000  0.000     1.181     1.702
 488   1 H      0.077  0.923  0.000  0.000     2.013     2.218
 489   1 H      0.182  0.818  0.000  0.000     1.204     1.719
 490   1 H      0.085  0.915  0.000  0.000     1.926     2.170
 491   1 H      0.203  0.797  0.000  0.000     1.089     1.634
 492   1 H      0.068  0.932  0.000  0.000     2.108     2.270
 493   1 H      0.186  0.814  0.000  0.000     1.181     1.702
 494   1 H      0.078  0.922  0.000  0.000     2.003     2.213
 495   1 H      0.189  0.811  0.000  0.000     1.162     1.688
 496   1 H      0.066  0.934  0.000  0.000     2.124     2.279
 497   1 H      0.191  0.809  0.000  0.000     1.154     1.683
 498   1 H      0.088  0.912  0.000  0.000     1.899     2.155
 499   1 H      0.190  0.810  0.000  0.000     1.157     1.685
 500   1 H      0.063  0.937  0.000  0.000     2.162     2.299
 501   1 H      0.180  0.820  0.000  0.000     1.213     1.725
 502   1 H      0.079  0.921  0.000  0.000     1.991     2.206
 503   1 H      0.188  0.812  0.000  0.000     1.166     1.692
 504   1 H      0.076  0.924  0.000  0.000     2.020     2.222
 505   1 H      0.178  0.822  0.000  0.000     1.225     1.734
 506   1 H      0.080  0.920  0.000  0.000     1.974     2.197
 507   1 H      0.182  0.818  0.000  0.000     1.204     1.719
 508   1 H      0.085  0.915  0.000  0.000     1.926     2.170
 509   1 H      0.179  0.821  0.000  0.000     1.219     1.729
 510   1 H      0.083  0.917  0.000  0.000     1.945     2.181
 511   1 H      0.183  0.817  0.000  0.000     1.197     1.714
 512   1 H      0.074  0.926  0.000  0.000     2.047     2.237
 513   1 H      0.181  0.819  0.000  0.000     1.209     1.722
 514   1 H      0.092  0.908  0.000  0.000     1.863     2.135
 515   1 H      0.171  0.829  0.000  0.000     1.267     1.763

 Mol. C6AA /au·bohr⁶  :    2379723.621912
 Mol. C8AA /au·bohr⁸  :   52793099.077682
 Mol. α(0) /au        :       2316.428438

 
molecular dipole:
                 x           y           z       tot (Debye)
 q only:     -138.120    -130.448    -441.307
   full:     -140.052    -126.403    -442.085    1221.735
molecular quadrupole (traceless):
                xx          xy          yy          xz          yz          zz
 q only:    87864.198  -26841.584   89092.583  -91276.168  -86364.504 -176956.780
  q+dip:    87251.662  -26498.860   90642.292  -92653.243  -83871.653 -177893.954
   full:    87250.869  -26498.657   90639.636  -92657.093  -83865.372 -177890.504
speedup  1.83
cpu  time for grad   47.67 s
wall time for grad   26.11 s

SCC energy    :    -790.4908821
rep           :      14.9458658
ES            :       2.4630489
AES           :      -0.0536469
AXC           :       0.1750078
disp          :      -0.6485477
XB            :       0.0000000
fix           :       0.0000000
Gborn         :       0.0000000
Gsasa         :       0.0000000
Ghb           :       0.0000000
Gshift        :       0.0000000
Gsolv         :      -0.5804423     -364.23
Etot ala COSMO:    -790.4908821
grad norm     :       2.0410727
total E       :    -775.4739959
atomizationE  :     140.1031597    87916.06
(atE without considering molecular charge,
 total energy contains solvation terms)
H-L gap (eV)  :          1.5723

------------------------------------------------------------------------
 * finished run on 2019/05/12 at 13:11:56.061     
------------------------------------------------------------------------
 total:
 * wall-time:     0 d,  0 h,  0 min, 28.247 sec
 *  cpu-time:     0 d,  0 h,  0 min, 51.165 sec
 * ratio c/w:     1.811 speedup
 SCF:
 * wall-time:     0 d,  0 h,  0 min, 27.481 sec
 *  cpu-time:     0 d,  0 h,  0 min, 50.190 sec
 * ratio c/w:     1.826 speedup

