      -----------------------------------------------------------      
     |                   =====================                   |     
     |                           x T B                           |     
     |                   =====================                   |     
     |                         S. Grimme                         |     
     |          Mulliken Center for Theoretical Chemistry        |     
     |                    University of Bonn                     |     
     |                 Version 6.0.1 (SAW181210)                 |     
      -----------------------------------------------------------      

   This program is distributed in the hope that it will be useful,
   but WITHOUT ANY WARRANTY; without even the implied warranty of
   MERCHANTABILITY or FITNESS FOR A PARTICULAR PURPOSE.
   
   FOR NON-COMMERCIAL, ACADEMIA USE ONLY.
   
   Cite this work as:
   S. Grimme, C. Bannwarth, P. Shushkov, J. Comput. Theory Chem., 2017,
   13, 1989-2009.
   C. Bannwarth, S. Ehlert and S. Grimme., ChemRxiv, 2018, preprint.
   http://doi.org/10.26434/chemrxiv.7246238.v1
   
   for sTDA-xTB:
   S. Grimme and C. Bannwarth, J. Chem. Phys., 2016, 145, 054103.
   
   in the mass-spec context:
   V. Asgeirsson, C. Bauer and S. Grimme, Chem. Sci., 2017, 8, 4879.
   
   if GBSA is used:
   P. Shushkov, F. März and S. Grimme, unpublished.
   
   for ANC optimizer:
   S. Grimme, unpublished.
   Rational Function algorithm used in ANCopt:
   F. Eckert, P. Pulay, H.-J. Werner, J. Comput. Chem., 1997, 18, 1473.
   
   with help from (in alphabetical order)
   C. Bannwarth, F. Bohle, G. Brandenburg, E. Caldeweyher, M. Checinski,
   S. Dohm, S. Ehlert, S. Ehrlich, F. März, H. Neugebauer, J. Pisarek,
   P. Pracht, P. Shushkov, and S. Spicher.
   
 * started run on 2019/05/11 at 21:00:22.268     
========================================================================
 # omp threads = 2
========================================================================
number of atoms            : 610
number of electrons        : 1628
charge                     : 0
spin                       : .0
first test random number   : .0628

########################################################################
# WARNING! Please study the warnings concerning your input carefully
#  - Process number higher than OMP_NUM_THREADS, I hope you know what you are doing.
########################################################################

           ------------------------------------------------- 
          |                 G F N 2 - x T B                 |
          | Geometry, Frequencies, Noncovalent interactions |
          |            JCTC 2018 parametrisation            |
           ------------------------------------------------- 
 
      method parameters     
 k(s)        :  1.8500
 k(p)        :  2.2300
 k(d)        :  2.2300
 k(f)        :  2.0000
 kEN (H0ij)  : -2.0000
 D4 a1       :  0.5200
 D4 a2       :  5.0000
 D4 s6       :  1.0000
 D4 s8       :  2.7000
 D4 s9       :  5.0000
 alphaj      :  2.0000

 Solvent             : h2o
 Using internal parameter file: .param_gbsa2_h2o
 Gsolv ref. state (COSMO-RS): gsolv [1 M gas/solution]
 temperature (mdtemp)       :    298.150000000000     
 dielectric constant        :    80.2000000000000     
 rho                        :    1.00000000000000     
 mass                       :    18.0000000000000     
 surface tension            :    15.5689454083859     
 probe radius               :   0.975313790000000     
 vdW radii scaling          :    1.00000000000000     
 Gshift (Eh)                :   1.857443126794793E-003
 c1                         :    1.55243817000000     
 soset                      :   0.130326360000000     
 HB correction              :  T

            Z     q(EN)     CN     RAES       Cart. coordinates
     1  N   5.0   -0.20    3.16    1.95     5.05481   180.61031    -2.15933
     2  C   4.0    0.03    4.10    3.80     3.40079   178.43278    -1.62871
     3  C   4.0    0.08    3.19    3.03     4.79321   176.27899    -0.24141
     4  O   6.0   -0.28    1.10    1.80     4.20054   175.31451     1.80269
     5  C   4.0   -0.07    4.10    3.80     2.40060   177.32678    -4.09028
     6  H   1.0    0.09    1.03    1.43     5.83950   180.56119    -3.90564
     7  H   1.0    0.05    1.04    1.43     1.83618   179.06715    -0.41766
     8  H   1.0    0.04    0.99    1.43     1.36685   175.55671    -3.74297
     9  H   1.0    0.04    0.99    1.43     1.08120   178.62580    -5.00992
    10  H   1.0    0.05    0.99    1.43     3.91315   176.91499    -5.43541
    11  N   5.0   -0.21    3.20    1.96    -5.69773   148.40789    -8.86897
    12  C   4.0    0.02    4.28    4.15    -4.59480   150.09151   -10.79533
    13  C   4.0    0.15    3.51    3.12    -1.77453   150.57069   -10.03748
    14  O   6.0   -0.33    1.43    1.80     0.01719   149.94598   -11.17274
    15  C   4.0   -0.05    4.18    3.97    -6.09995   152.58381   -11.06779
    16  C   4.0   -0.05    4.14    3.89    -8.85919   152.17231   -11.91669
    17  C   4.0   -0.04    4.11    3.83   -10.53944   154.57334   -12.14092
    18  C   4.0   -0.03    4.10    3.81   -13.35756   153.93698   -12.18304
    19  N   5.0   -0.10    4.01    2.89   -14.49987   154.13546   -14.73562
    20  H   1.0    0.08    1.03    1.43    -7.30468   149.02706    -8.08245
    21  H   1.0    0.04    1.05    1.44    -4.62444   149.11901   -12.60647
    22  H   1.0    0.04    1.01    1.43    -6.10855   153.66393    -9.27573
    23  H   1.0    0.04    1.02    1.43    -5.09861   153.74958   -12.47509
    24  H   1.0    0.05    1.03    1.43    -8.86259   151.21975   -13.73173
    25  H   1.0    0.04    1.03    1.43    -9.74967   150.90760   -10.57047
    26  H   1.0    0.05    1.02    1.43   -10.08967   155.80295   -10.53289
    27  H   1.0    0.06    1.03    1.43   -10.05130   155.59630   -13.84485
    28  H   1.0    0.04    1.02    1.43   -13.68487   152.02452   -11.44093
    29  H   1.0    0.05    1.03    1.43   -14.39141   155.22343   -10.96860
    30  H   1.0    0.08    1.03    1.43   -16.42862   154.03912   -14.54242
    31  H   1.0    0.11    1.05    1.44   -14.06685   155.88335   -15.48657
    32  H   1.0    0.11    1.08    1.44   -13.96593   152.70796   -16.14432
    33  N   5.0   -0.15    3.52    2.09    -1.56633   151.75701    -7.89657
    34  C   4.0    0.04    4.54    4.59     0.91837   151.97732    -7.03538
    35  C   4.0    0.10    3.40    3.08     2.70566   149.74413    -7.47377
    36  O   6.0   -0.30    1.20    1.80     4.63813   150.01039    -8.62635
    37  C   4.0   -0.06    4.39    4.36     1.01844   152.59280    -4.20270
    38  C   4.0   -0.02    4.22    4.05     3.48197   154.13093    -3.85758
    39  C   4.0   -0.08    4.13    3.87     3.23556   156.61480    -5.34104
    40  C   4.0   -0.08    4.10    3.79     3.96792   154.56881    -1.06711
    41  H   1.0    0.07    1.04    1.43    -3.12947   152.06261    -6.71254
    42  H   1.0    0.05    1.10    1.44     1.76159   153.54886    -8.08811
    43  H   1.0    0.04    1.04    1.43    -0.54470   153.73650    -3.63068
    44  H   1.0    0.04    1.02    1.43     1.04673   150.87084    -3.07657
    45  H   1.0    0.05    1.04    1.43     5.05616   152.97830    -4.65081
    46  H   1.0    0.04    1.02    1.43     4.32657   158.01953    -4.49274
    47  H   1.0    0.04    0.99    1.43     3.86133   156.38669    -7.30990
    48  H   1.0    0.04    1.00    1.43     1.22598   157.17483    -5.37291
    49  H   1.0    0.04    1.00    1.43     5.85175   155.27854    -0.76267
    50  H   1.0    0.04    1.01    1.43     2.59329   155.83208    -0.31740
    51  H   1.0    0.04    0.99    1.43     3.80038   152.73482    -0.06628
    52  N   5.0   -0.19    3.34    2.00     2.97611   145.01857   -10.00435
    53  C   4.0    0.03    4.38    4.35     3.67860   144.03853   -12.46722
    54  C   4.0    0.16    3.53    3.13     5.59657   145.89478   -13.57508
    55  O   6.0   -0.32    1.39    1.80     7.46217   145.17510   -14.71839
    56  C   4.0   -0.02    4.23    4.07     1.41997   143.36603   -14.10422
    57  C   4.0   -0.07    4.11    3.83    -0.60047   141.94106   -12.55987
    58  C   4.0   -0.07    4.11    3.82     0.24702   145.63764   -15.47664
    59  H   1.0    0.09    1.03    1.43     1.20630   145.67037    -9.72933
    60  H   1.0    0.05    1.05    1.44     4.72819   142.25566   -12.16069
    61  H   1.0    0.05    1.06    1.44     2.12657   142.05783   -15.54524
    62  H   1.0    0.05    1.00    1.43    -1.94517   141.01004   -13.79680
    63  H   1.0    0.04    1.00    1.43     0.27981   140.51921   -11.35876
    64  H   1.0    0.04    1.00    1.43    -1.64588   143.22413   -11.34660
    65  H   1.0    0.04    1.00    1.43    -1.40454   145.01391   -16.52669
    66  H   1.0    0.06    1.02    1.43    -0.30307   147.06220   -14.12323
    67  H   1.0    0.05    1.01    1.43     1.61391   146.41293   -16.77056
    68  N   5.0   -0.14    3.56    2.13     5.13835   148.34155   -13.27214
    69  C   4.0    0.05    4.62    4.69     7.08847   149.92141   -14.33189
    70  C   4.0    0.10    3.37    3.07     9.54603   149.32093   -13.05477
    71  O   6.0   -0.32    1.19    1.80    11.49242   149.22699   -14.21764
    72  C   4.0   -0.02    4.29    4.17     6.58346   152.74477   -14.26743
    73  C   4.0   -0.07    4.14    3.87     8.52479   153.96949   -15.93577
    74  C   4.0   -0.07    4.18    3.97     3.93293   153.07736   -15.19961
    75  H   1.0    0.12    1.09    1.44     3.66669   148.99651   -12.18125
    76  H   1.0    0.05    1.09    1.44     7.29551   149.35526   -16.29092
    77  H   1.0    0.05    1.05    1.44     6.78137   153.45605   -12.33288
    78  H   1.0    0.04    0.99    1.43     8.18723   156.03481   -16.07879
    79  H   1.0    0.05    0.98    1.43    10.49592   153.76088   -15.22425
    80  H   1.0    0.04    0.99    1.43     8.53465   153.21796   -17.88323
    81  H   1.0    0.04    1.01    1.43     3.45004   154.99186   -15.52513
    82  H   1.0    0.04    1.00    1.43     3.70681   152.00256   -16.97718
    83  H   1.0    0.06    1.00    1.43     2.56184   152.26205   -13.86032
    84  N   5.0   -0.19    3.28    1.98    12.35006   144.00360   -16.25289
    85  C   4.0    0.04    4.34    4.27    13.38291   144.99846   -18.62050
    86  C   4.0    0.15    3.43    3.09    16.11223   145.73855   -18.21787
    87  O   6.0   -0.27    1.24    1.80    17.80971   144.96991   -19.59612
    88  C   4.0   -0.03    4.31    4.21    11.57590   147.06366   -19.49844
    89  C   4.0   -0.02    4.21    4.01     9.08762   145.89125   -20.35877
    90  C   4.0    0.26    3.14    3.03     8.60813   146.88444   -23.05387
    91  O   6.0   -0.33    1.32    1.80     6.91935   148.50896   -23.04965
    92  O   6.0   -0.28    1.17    1.80     9.85340   146.20627   -24.85051
    93  H   1.0    0.13    1.09    1.44    10.65442   144.69877   -15.72491
    94  H   1.0    0.06    1.04    1.43    13.46544   143.49363   -20.09585
    95  H   1.0    0.07    1.05    1.44    11.32761   148.37791   -17.95159
    96  H   1.0    0.06    1.04    1.43    12.46399   148.04437   -21.08672
    97  H   1.0    0.05    1.00    1.43     9.27261   143.76233   -20.38862
    98  H   1.0    0.06    1.02    1.43     7.50933   146.29543   -19.09999
    99  N   5.0   -0.14    3.49    2.07    16.56322   147.28939   -16.29881
   100  C   4.0    0.04    4.33    4.25    19.10844   148.15832   -15.86483
   101  C   4.0    0.09    3.18    3.03    20.70996   145.98378   -14.72046
   102  O   6.0   -0.26    1.10    1.80    22.89738   145.50332   -15.44264
   103  C   4.0   -0.04    4.21    4.01    19.05698   150.65483   -14.35038
   104  C   4.0   -0.04    4.12    3.83    17.91052   152.82812   -15.74275
   105  C   4.0   -0.01    4.12    3.84    19.74434   154.64036   -17.25087
   106  N   5.0   -0.14    3.37    2.01    22.12429   155.22481   -15.98346
   107  C   4.0    0.10    3.33    3.06    23.00986   157.54920   -15.36225
   108  N   5.0   -0.16    3.29    1.98    21.48028   159.51937   -15.36263
   109  N   5.0   -0.17    3.23    1.96    25.41052   157.84115   -14.82694
   110  H   1.0    0.10    1.08    1.44    15.18559   147.81501   -15.09483
   111  H   1.0    0.07    1.07    1.44    20.00335   148.47637   -17.68014
   112  H   1.0    0.05    1.03    1.43    18.00337   150.27955   -12.62524
   113  H   1.0    0.05    1.01    1.43    21.04592   151.07423   -13.79258
   114  H   1.0    0.05    1.01    1.43    16.57989   152.09994   -17.22694
   115  H   1.0    0.05    1.04    1.43    16.83431   153.96896   -14.45882
   116  H   1.0    0.05    1.02    1.43    20.20885   153.81333   -19.06929
   117  H   1.0    0.05    1.01    1.43    18.71875   156.45709   -17.62228
   118  H   1.0    0.08    1.07    1.44    23.40279   153.82399   -16.09280
   119  H   1.0    0.10    1.03    1.43    19.55263   159.22515   -15.32552
   120  H   1.0    0.14    1.08    1.44    21.96307   161.10387   -14.48967
   121  H   1.0    0.09    1.01    1.43    26.70453   156.36372   -14.93579
   122  H   1.0    0.10    1.03    1.43    26.12446   159.59839   -14.51830
   123  N   5.0   -0.21    3.20    1.96   -10.06462   179.05028    -2.27308
   124  C   4.0    0.02    4.21    4.02    -8.17333   177.05334    -2.28349
   125  C   4.0    0.14    3.41    3.08    -9.17812   174.52900    -3.31970
   126  O   6.0   -0.34    1.39    1.80    -9.00364   174.00896    -5.56075
   127  C   4.0   -0.08    4.14    3.88    -7.16831   176.86445     0.40609
   128  H   1.0    0.08    1.04    1.43   -10.21076   179.92929    -0.56271
   129  H   1.0    0.04    1.05    1.44    -6.62754   177.59303    -3.58581
   130  H   1.0    0.04    1.00    1.43    -5.77315   175.39567     0.59863
   131  H   1.0    0.04    0.99    1.43    -6.26130   178.66765     0.94215
   132  H   1.0    0.04    1.00    1.43    -8.69916   176.54765     1.73502
   133  N   5.0   -0.15    3.44    2.04   -10.18546   172.84622    -1.72040
   134  C   4.0    0.03    4.41    4.40   -10.55667   170.25132    -2.47639
   135  C   4.0    0.15    3.55    3.14   -11.85332   169.93932    -5.02636
   136  O   6.0   -0.32    1.32    1.80   -11.57913   167.97077    -6.19581
   137  C   4.0   -0.05    4.34    4.28   -12.12248   168.64949    -0.64236
   138  C   4.0   -0.03    4.14    3.88   -11.21267   168.22702     2.08365
   139  C   4.0   -0.08    4.11    3.83   -12.73210   166.01890     3.20285
   140  C   4.0   -0.08    4.09    3.78    -8.39978   167.64880     2.40932
   141  H   1.0    0.07    1.07    1.44   -10.58663   173.35783     0.06532
   142  H   1.0    0.04    1.07    1.44    -8.73132   169.35680    -2.67839
   143  H   1.0    0.04    1.02    1.43   -14.06040   169.42222    -0.51422
   144  H   1.0    0.05    1.04    1.43   -12.29453   166.79808    -1.56470
   145  H   1.0    0.04    1.05    1.44   -11.70026   169.90093     3.20399
   146  H   1.0    0.04    1.00    1.43   -12.28112   165.77141     5.18731
   147  H   1.0    0.04    1.00    1.43   -14.76176   166.36110     3.06398
   148  H   1.0    0.04    1.00    1.43   -12.30169   164.26692     2.21584
   149  H   1.0    0.04    0.99    1.43    -8.04719   167.35353     4.44735
   150  H   1.0    0.04    1.01    1.43    -7.89662   165.94721     1.43329
   151  H   1.0    0.04    1.01    1.43    -7.26464   169.20698     1.79303
   152  N   5.0   -0.14    3.53    2.10   -13.50151   171.67327    -5.84755
   153  C   4.0    0.03    4.44    4.45   -15.11241   171.05206    -7.98565
   154  C   4.0    0.15    3.38    3.07   -13.63583   170.58984   -10.45492
   155  O   6.0   -0.30    1.19    1.80   -14.56903   169.44417   -12.25646
   156  C   4.0   -0.05    4.23    4.05   -17.18045   173.04864    -8.33426
   157  C   4.0   -0.05    4.16    3.91   -19.72369   171.90848    -9.16970
   158  C   4.0   -0.05    4.13    3.86   -21.21935   170.54222    -7.07912
   159  C   4.0   -0.04    4.11    3.82   -23.29095   168.83680    -8.14919
   160  N   5.0   -0.12    4.01    2.90   -25.35806   170.33557    -9.35216
   161  H   1.0    0.09    1.07    1.44   -13.34443   173.52051    -5.34423
   162  H   1.0    0.05    1.07    1.44   -15.98057   169.23522    -7.56090
   163  H   1.0    0.04    1.03    1.43   -17.40125   174.07291    -6.55200
   164  H   1.0    0.04    1.02    1.43   -16.55374   174.43813    -9.73841
   165  H   1.0    0.04    1.03    1.43   -20.82233   173.46261    -9.95479
   166  H   1.0    0.05    1.03    1.43   -19.29094   170.61027   -10.70511
   167  H   1.0    0.04    1.03    1.43   -19.93528   169.36607    -5.97668
   168  H   1.0    0.04    1.02    1.43   -22.03529   171.94954    -5.78675
   169  H   1.0    0.04    1.03    1.43   -22.47428   167.62382    -9.58703
   170  H   1.0    0.04    1.02    1.43   -24.10132   167.68587    -6.63683
   171  H   1.0    0.05    1.02    1.43   -26.70219   169.17455   -10.15083
   172  H   1.0    0.05    1.01    1.43   -26.24376   171.49048    -8.03165
   173  H   1.0    0.05    1.03    1.43   -24.63419   171.46695   -10.73542
   174  N   5.0   -0.14    3.62    2.18   -11.28086   171.52918   -10.39056
   175  C   4.0    0.03    4.42    4.41    -9.38021   171.53450   -12.35874
   176  C   4.0    0.15    3.41    3.08    -8.07201   168.94330   -12.56044
   177  O   6.0   -0.29    1.21    1.80    -7.39136   167.92949   -14.51431
   178  C   4.0   -0.02    4.30    4.19    -7.52895   173.77583   -11.74006
   179  C   4.0   -0.04    4.21    4.03    -5.55786   173.05037    -9.76256
   180  C   4.0   -0.07    4.14    3.87    -9.07505   176.10464   -10.94071
   181  C   4.0   -0.08    3.98    3.59    -3.52878   175.01864    -9.16517
   182  H   1.0    0.10    1.15    1.45   -10.74865   172.44464    -8.82419
   183  H   1.0    0.06    1.03    1.43   -10.30642   171.90584   -14.22104
   184  H   1.0    0.04    1.06    1.44    -6.56652   174.21403   -13.49302
   185  H   1.0    0.06    1.07    1.44    -6.51190   172.66345    -7.98547
   186  H   1.0    0.04    1.04    1.43    -4.57115   171.34421   -10.37216
   187  H   1.0    0.04    1.00    1.43    -7.98998   177.81276   -11.26815
   188  H   1.0    0.04    0.99    1.43   -10.83798   176.26407   -12.04242
   189  H   1.0    0.06    1.01    1.43    -9.56344   176.06539    -8.92629
   190  H   1.0    0.04    0.98    1.43    -2.11063   174.21046    -7.82169
   191  H   1.0    0.04    1.00    1.43    -2.46874   175.57700   -10.82482
   192  H   1.0    0.04    1.00    1.43    -4.29511   176.69246    -8.25074
   193  N   5.0   -0.15    3.58    2.14    -7.75322   167.88465   -10.27150
   194  C   4.0    0.03    4.36    4.31    -6.62887   165.44492    -9.76686
   195  C   4.0    0.15    3.45    3.10    -8.51250   163.31380   -10.27690
   196  O   6.0   -0.32    1.28    1.80    -8.29634   161.21206    -9.38917
   197  C   4.0   -0.04    4.38    4.34    -5.83746   165.27972    -6.99057
   198  C   4.0   -0.03    4.15    3.89    -3.54995   166.78258    -6.02863
   199  C   4.0   -0.08    4.11    3.83    -4.25488   169.36407    -4.95734
   200  C   4.0   -0.08    4.14    3.88    -2.22278   165.34709    -3.95869
   201  H   1.0    0.10    1.12    1.45    -8.74320   168.56963    -8.81895
   202  H   1.0    0.05    1.04    1.43    -5.02041   165.15532   -11.08757
   203  H   1.0    0.06    1.04    1.43    -7.52510   165.81345    -5.94604
   204  H   1.0    0.05    1.06    1.44    -5.46779   163.28767    -6.69010
   205  H   1.0    0.04    1.04    1.43    -2.23085   167.02387    -7.64311
   206  H   1.0    0.04    0.98    1.43    -2.75107   170.76748    -5.38196
   207  H   1.0    0.05    1.00    1.43    -5.99081   170.11170    -5.79088
   208  H   1.0    0.04    1.02    1.43    -4.44950   169.27478    -2.96202
   209  H   1.0    0.04    1.00    1.43    -0.59363   166.41336    -3.31567
   210  H   1.0    0.04    1.00    1.43    -3.48069   165.03765    -2.35609
   211  H   1.0    0.04    0.99    1.43    -1.56268   163.48654    -4.59791
   212  N   5.0   -0.14    3.55    2.12   -10.51620   163.90872   -11.74707
   213  C   4.0    0.04    4.48    4.51   -12.12652   161.86406   -12.55589
   214  C   4.0    0.15    3.46    3.10   -11.28056   160.88783   -15.11581
   215  O   6.0   -0.29    1.32    1.80   -12.19340   158.95992   -16.02604
   216  C   4.0   -0.02    4.27    4.14   -14.95028   162.49722   -12.41161
   217  C   4.0    0.16    3.23    3.04   -16.33770   160.12837   -11.52777
   218  O   6.0   -0.29    1.20    1.80   -17.39277   158.68827   -12.95840
   219  N   5.0   -0.19    3.19    1.95   -16.18208   159.72116    -9.02266
   220  H   1.0    0.10    1.09    1.44   -10.84388   165.64417   -12.45729
   221  H   1.0    0.07    1.10    1.44   -11.72774   160.30050   -11.25038
   222  H   1.0    0.06    1.02    1.43   -15.21698   164.06876   -11.07095
   223  H   1.0    0.07    1.03    1.43   -15.67521   163.05037   -14.25638
   224  H   1.0    0.09    1.03    1.43   -17.02388   158.18036    -8.30089
   225  H   1.0    0.09    1.02    1.43   -15.24856   160.90982    -7.83577
   226  N   5.0   -0.13    3.46    2.06    -9.40679   162.15044   -16.28857
   227  C   4.0    0.05    4.64    4.70    -8.68267   161.12069   -18.69442
   228  C   4.0    0.14    3.64    3.19    -6.13939   159.95003   -18.78380
   229  O   6.0   -0.33    1.60    1.81    -4.17732   161.17752   -19.04923
   230  C   4.0   -0.03    4.42    4.42    -8.68689   162.98323   -20.89206
   231  C   4.0    0.15    3.29    3.05   -11.43470   163.17515   -21.64074
   232  O   6.0   -0.27    1.24    1.80   -12.63777   161.23877   -21.97361
   233  N   5.0   -0.19    3.18    1.95   -12.31741   165.52373   -21.76615
   234  H   1.0    0.10    1.06    1.44    -8.62767   163.81611   -15.69419
   235  H   1.0    0.09    1.14    1.45   -10.09611   159.67677   -19.11701
   236  H   1.0    0.06    1.05    1.44    -7.82873   164.76440   -20.33922
   237  H   1.0    0.05    1.04    1.43    -7.66033   162.07044   -22.44873
   238  H   1.0    0.10    1.03    1.43   -14.12661   165.85407   -22.11937
   239  H   1.0    0.08    1.03    1.43   -11.15717   167.01148   -21.35648
   240  N   5.0   -0.15    3.55    2.12    -6.19178   157.50513   -19.06280
   241  C   4.0    0.03    4.56    4.62    -3.90974   156.33652   -19.97041
   242  C   4.0    0.17    3.73    3.26    -2.61226   158.20321   -21.76128
   243  O   6.0   -0.34    1.58    1.80    -0.43128   158.78450   -21.49079
   244  C   4.0   -0.03    4.32    4.23    -4.45701   153.68393   -21.03526
   245  C   4.0   -0.04    4.22    4.04    -2.09978   152.63995   -22.35852
   246  C   4.0   -0.07    4.10    3.80    -6.72507   153.47602   -22.80618
   247  C   4.0   -0.08    4.08    3.76     0.21768   152.77590   -20.68397
   248  H   1.0    0.08    1.07    1.44    -7.79854   156.50075   -18.96022
   249  H   1.0    0.04    1.06    1.44    -2.59231   156.09599   -18.36779
   250  H   1.0    0.04    1.04    1.44    -4.86852   152.46191   -19.37537
   251  H   1.0    0.06    1.03    1.43    -2.48772   150.69470   -22.91649
   252  H   1.0    0.05    1.03    1.43    -1.87400   153.72024   -24.10353
   253  H   1.0    0.06    1.00    1.43    -6.79468   151.50276   -23.45911
   254  H   1.0    0.05    1.00    1.43    -8.52127   153.90622   -21.92056
   255  H   1.0    0.04    1.00    1.43    -6.49490   154.62408   -24.49419
   256  H   1.0    0.05    1.02    1.43     1.67423   151.55406   -21.42758
   257  H   1.0    0.05    1.00    1.43     0.92979   154.71150   -20.55893
   258  H   1.0    0.04    1.01    1.43    -0.24791   152.12428   -18.80985
   259  N   5.0   -0.14    3.57    2.13    -3.90131   159.12195   -23.74052
   260  C   4.0    0.03    4.53    4.58    -2.32883   159.86042   -25.93112
   261  C   4.0    0.17    3.50    3.12    -0.29180   161.73085   -24.97257
   262  O   6.0   -0.32    1.23    1.80     1.89747   161.67721   -25.34778
   263  C   4.0   -0.06    4.26    4.12    -4.05104   161.07822   -27.94246
   264  C   4.0   -0.05    4.16    3.92    -5.25363   159.08805   -29.68907
   265  C   4.0   -0.01    4.21    4.03    -3.27916   157.94060   -31.45715
   266  N   5.0   -0.13    3.41    2.03    -4.34228   155.97605   -33.06260
   267  C   4.0    0.11    3.35    3.06    -3.16231   154.86587   -34.98574
   268  N   5.0   -0.17    3.27    1.97    -0.77612   155.44630   -35.47127
   269  N   5.0   -0.16    3.27    1.97    -4.44908   153.45974   -36.56027
   270  H   1.0    0.07    1.06    1.44    -5.59158   158.32335   -24.19912
   271  H   1.0    0.04    1.06    1.44    -1.38734   158.20942   -26.66595
   272  H   1.0    0.04    1.02    1.43    -5.57951   162.14549   -27.00004
   273  H   1.0    0.04    1.03    1.43    -2.96476   162.39740   -29.05149
   274  H   1.0    0.04    1.02    1.43    -6.13430   157.58844   -28.57673
   275  H   1.0    0.05    1.03    1.43    -6.73544   159.98864   -30.80307
   276  H   1.0    0.05    1.03    1.43    -2.47006   159.41397   -32.65849
   277  H   1.0    0.04    1.02    1.43    -1.73213   157.12157   -30.31270
   278  H   1.0    0.09    1.07    1.44    -6.15198   155.44073   -32.70251
   279  H   1.0    0.08    1.03    1.43     0.30208   156.29477   -34.11065
   280  H   1.0    0.13    1.05    1.44     0.26745   154.43733   -36.75642
   281  H   1.0    0.09    1.03    1.43    -6.24440   152.92509   -36.05405
   282  H   1.0    0.13    1.05    1.44    -3.53601   152.12980   -37.70378
   283  N   5.0   -0.14    3.78    2.39    -1.61556   163.53419   -23.78898
   284  C   4.0    0.02    4.42    4.42    -0.94215   165.96616   -22.75919
   285  C   4.0    0.16    3.50    3.11     0.71354   165.57219   -20.41731
   286  O   6.0   -0.33    1.33    1.80     1.99078   167.12914   -19.36536
   287  C   4.0    0.05    4.25    4.10    -3.47466   167.21521   -21.93070
   288  O   6.0   -0.24    2.15    1.85    -4.25226   166.31056   -19.55181
   289  C   4.0   -0.08    4.08    3.77    -5.49652   167.04877   -24.00750
   290  H   1.0    0.08    1.16    1.46    -3.42365   163.05515   -23.42949
   291  H   1.0    0.04    1.05    1.44     0.01137   167.11404   -24.15355
   292  H   1.0    0.05    1.05    1.44    -3.08751   169.20086   -21.61758
   293  H   1.0    0.15    1.07    1.44    -4.06403   164.46870   -19.39626
   294  H   1.0    0.05    1.00    1.43    -7.11927   168.19754   -23.48326
   295  H   1.0    0.04    1.00    1.43    -4.72821   167.77760   -25.76757
   296  H   1.0    0.04    0.99    1.43    -6.20961   165.12635   -24.38617
   297  N   5.0   -0.13    3.77    2.37     0.50143   163.16293   -19.58113
   298  C   4.0    0.04    4.58    4.64     1.63994   162.52925   -17.22079
   299  C   4.0    0.15    3.60    3.17     4.17811   161.48490   -17.92802
   300  O   6.0   -0.33    1.46    1.80     6.12155   162.55849   -17.31002
   301  C   4.0   -0.04    4.40    4.38    -0.10749   160.83954   -15.75763
   302  C   4.0   -0.03    4.21    4.02     1.00484   160.22324   -13.19195
   303  C   4.0   -0.08    4.15    3.89     2.27443   162.53813   -11.97706
   304  C   4.0   -0.08    4.09    3.79    -1.03180   159.16537   -11.43937
   305  H   1.0    0.13    1.21    1.47    -0.69876   161.93856   -20.33573
   306  H   1.0    0.06    1.09    1.44     1.93562   164.31773   -16.22072
   307  H   1.0    0.06    1.03    1.43    -1.92071   161.86839   -15.54863
   308  H   1.0    0.06    1.03    1.43    -0.52305   159.12009   -16.83813
   309  H   1.0    0.04    1.07    1.44     2.43570   158.79187   -13.47767
   310  H   1.0    0.04    1.02    1.43     2.78266   162.08373   -10.09510
   311  H   1.0    0.05    1.00    1.43     3.99686   163.05263   -13.01445
   312  H   1.0    0.04    1.00    1.43     0.99429   164.15869   -11.97829
   313  H   1.0    0.04    1.00    1.43    -0.21701   158.65498    -9.63290
   314  H   1.0    0.05    1.00    1.43    -2.55859   160.50932   -11.12991
   315  H   1.0    0.04    0.99    1.43    -1.86241   157.45004   -12.26515
   316  N   5.0   -0.15    3.59    2.15     4.12965   159.53050   -19.50382
   317  C   4.0    0.03    4.48    4.50     6.30333   158.89560   -20.96794
   318  C   4.0    0.16    3.56    3.14     7.71380   161.24928   -21.83635
   319  O   6.0   -0.32    1.26    1.80     9.94696   161.17557   -22.22508
   320  C   4.0   -0.04    4.37    4.33     5.54819   157.51032   -23.39399
   321  C   4.0   -0.05    4.18    3.96     5.45485   154.67285   -23.16859
   322  C   4.0   -0.01    4.33    4.25     3.69445   153.84565   -25.27346
   323  N   5.0   -0.14    3.41    2.03     3.42251   151.14455   -25.65869
   324  C   4.0    0.11    3.38    3.07     2.85715   150.17768   -27.82418
   325  N   5.0   -0.17    3.29    1.98     1.97903   151.60575   -29.69152
   326  N   5.0   -0.16    3.26    1.97     3.18699   147.73668   -28.32098
   327  H   1.0    0.11    1.14    1.45     2.46110   158.76077   -20.01016
   328  H   1.0    0.04    1.06    1.44     7.63147   157.74053   -19.91016
   329  H   1.0    0.07    1.05    1.44     3.71963   158.28637   -23.98251
   330  H   1.0    0.05    1.03    1.43     6.88497   158.06102   -24.90458
   331  H   1.0    0.05    1.03    1.43     7.30971   153.83275   -23.44987
   332  H   1.0    0.04    1.03    1.43     4.81371   154.12226   -21.29100
   333  H   1.0    0.04    1.03    1.43     1.81053   154.66649   -24.94067
   334  H   1.0    0.04    1.05    1.44     4.45907   154.66135   -26.99797
   335  H   1.0    0.12    1.14    1.45     4.63703   150.04234   -24.50164
   336  H   1.0    0.08    1.03    1.43     2.22919   153.51130   -29.71380
   337  H   1.0    0.10    1.02    1.43     1.57835   150.80828   -31.42005
   338  H   1.0    0.10    1.04    1.43     3.62318   146.58832   -26.87219
   339  H   1.0    0.10    1.03    1.43     2.09307   146.89796   -29.68077
   340  N   5.0   -0.12    3.58    2.14     6.22850   163.23060   -22.28413
   341  C   4.0    0.04    4.32    4.24     7.19800   165.69175   -22.90912
   342  C   4.0    0.16    3.50    3.12     8.47917   166.95202   -20.61514
   343  O   6.0   -0.31    1.35    1.80    10.74351   167.20822   -20.62742
   344  C   4.0   -0.07    4.10    3.80     5.14315   167.30929   -24.16384
   345  H   1.0    0.10    1.10    1.44     4.29257   162.98888   -22.33270
   346  H   1.0    0.06    1.07    1.44     8.73881   165.42187   -24.24660
   347  H   1.0    0.05    1.01    1.43     5.99711   168.83144   -25.19492
   348  H   1.0    0.06    1.00    1.43     4.09987   166.09642   -25.49296
   349  H   1.0    0.06    1.02    1.43     3.86476   168.10260   -22.77287
   350  N   5.0   -0.14    3.53    2.10     7.11254   167.74857   -18.66375
   351  C   4.0    0.04    4.40    4.37     8.40435   169.18448   -16.67954
   352  C   4.0    0.16    3.38    3.07    10.26015   167.37430   -15.30391
   353  O   6.0   -0.31    1.22    1.80    11.72485   168.09682   -13.69887
   354  C   4.0   -0.04    4.13    3.86     6.51602   170.83426   -15.11943
   355  C   4.0   -0.03    4.15    3.90     7.77149   172.99296   -13.61972
   356  C   4.0    0.16    3.17    3.03     6.32879   175.28547   -12.57010
   357  O   6.0   -0.28    1.21    1.80     7.20036   176.51976   -10.82437
   358  N   5.0   -0.18    3.17    1.95     4.14998   175.99104   -13.63041
   359  H   1.0    0.11    1.10    1.44     5.16134   167.63346   -18.64394
   360  H   1.0    0.06    1.08    1.44     9.67240   170.48667   -17.62170
   361  H   1.0    0.05    1.02    1.43     5.21954   171.60966   -16.54556
   362  H   1.0    0.05    1.02    1.43     5.40531   169.62813   -13.86016
   363  H   1.0    0.07    1.03    1.43     8.77890   172.17837   -12.02343
   364  H   1.0    0.07    1.03    1.43     9.21468   173.88805   -14.80724
   365  H   1.0    0.08    1.03    1.43     3.28073   175.00385   -14.95641
   366  H   1.0    0.09    1.02    1.43     3.25026   177.57836   -12.94043
   367  N   5.0   -0.12    3.66    2.22    10.29319   165.00259   -16.27528
   368  C   4.0    0.04    4.37    4.33    11.83430   162.96169   -15.41164
   369  C   4.0    0.15    3.55    3.14    14.55822   163.09037   -16.33124
   370  O   6.0   -0.29    1.26    1.80    16.32841   162.38341   -15.06704
   371  C   4.0   -0.06    4.23    4.06    10.91546   160.49774   -16.49587
   372  H   1.0    0.12    1.21    1.47     8.71576   164.46438   -17.23756
   373  H   1.0    0.06    1.07    1.44    11.87460   162.91874   -13.37764
   374  H   1.0    0.04    1.00    1.43    12.13006   158.96196   -15.82126
   375  H   1.0    0.06    1.02    1.43     8.99264   160.12170   -15.90805
   376  H   1.0    0.07    1.02    1.43    11.03372   160.50843   -18.58206
   377  N   5.0   -0.14    3.59    2.15    14.71281   163.66585   -18.79506
   378  C   4.0    0.03    4.46    4.47    17.12036   164.04151   -20.07041
   379  C   4.0    0.17    3.50    3.11    18.96343   165.45686   -18.36192
   380  O   6.0   -0.27    1.24    1.80    21.17307   165.14310   -18.42013
   381  C   4.0   -0.04    4.30    4.19    16.68283   165.67746   -22.42701
   382  C   4.0   -0.04    4.19    3.97    15.32617   164.21385   -24.52152
   383  C   4.0   -0.01    4.20    4.01    17.12766   162.32061   -25.77485
   384  N   5.0   -0.14    3.41    2.03    15.67670   160.26333   -26.86193
   385  C   4.0    0.10    3.34    3.06    15.20307   159.85332   -29.28220
   386  N   5.0   -0.18    3.25    1.97    16.60168   160.83907   -31.09632
   387  N   5.0   -0.18    3.25    1.97    13.26200   158.36025   -29.86820
   388  H   1.0    0.11    1.10    1.44    13.16339   164.47207   -19.62158
   389  H   1.0    0.05    1.05    1.44    17.92370   162.19803   -20.55896
   390  H   1.0    0.06    1.02    1.43    15.53980   167.32175   -21.89073
   391  H   1.0    0.05    1.03    1.43    18.49730   166.36469   -23.11598
   392  H   1.0    0.07    1.03    1.43    13.71111   163.23734   -23.70654
   393  H   1.0    0.05    1.02    1.43    14.60039   165.54245   -25.91873
   394  H   1.0    0.04    1.03    1.43    18.25680   163.28246   -27.20372
   395  H   1.0    0.04    1.03    1.43    18.41712   161.53668   -24.35444
   396  H   1.0    0.08    1.08    1.44    14.45669   159.50421   -25.58658
   397  H   1.0    0.08    1.03    1.43    18.15852   161.88075   -30.70025
   398  H   1.0    0.08    1.03    1.43    16.30270   160.36717   -32.93064
   399  H   1.0    0.09    1.03    1.43    12.19044   157.57164   -28.50147
   400  H   1.0    0.09    1.03    1.43    12.96079   157.77198   -31.65287
   401  N   5.0   -0.13    3.65    2.21    17.71126   167.14277   -16.94976
   402  C   4.0    0.03    4.43    4.43    18.90871   168.96289   -15.33440
   403  C   4.0    0.18    3.51    3.12    20.42224   167.45972   -13.40725
   404  O   6.0   -0.26    1.31    1.80    22.54304   166.85943   -13.73388
   405  C   4.0   -0.04    4.19    3.99    16.88533   170.86667   -14.43378
   406  C   4.0   -0.02    4.16    3.93    16.15112   172.49082   -16.71143
   407  C   4.0    0.26    3.04    3.02    14.42817   174.95021   -16.67504
   408  O   6.0   -0.28    1.17    1.80    13.49034   175.42297   -18.80258
   409  O   6.0   -0.27    1.15    1.80    14.18292   176.21654   -14.77347
   410  H   1.0    0.09    1.11    1.45    15.81967   167.37497   -17.22274
   411  H   1.0    0.06    1.07    1.44    20.33213   169.98516   -16.41834
   412  H   1.0    0.07    1.04    1.43    15.23096   169.87299   -13.68918
   413  H   1.0    0.06    1.02    1.43    17.66339   172.04364   -12.93716
   414  H   1.0    0.05    1.03    1.43    17.90693   173.21731   -17.57676
   415  H   1.0    0.06    1.03    1.43    15.24046   171.30385   -18.16018
   416  N   5.0   -0.14    3.46    2.05    19.22782   166.98033   -11.20557
   417  C   4.0    0.05    4.35    4.29    20.87580   166.23792    -9.18787
   418  C   4.0    0.10    3.21    3.04    22.18428   163.68044    -9.53830
   419  O   6.0   -0.28    1.19    1.80    21.81482   162.02330   -11.06459
   420  C   4.0    0.03    4.13    3.86    19.75999   166.75933    -6.59866
   421  O   6.0   -0.25    2.05    1.83    21.75444   167.26650    -4.89249
   422  H   1.0    0.09    1.05    1.44    17.33056   166.92397   -11.07419
   423  H   1.0    0.07    1.08    1.44    22.49105   167.56987    -9.34975
   424  H   1.0    0.05    1.00    1.43    18.59260   168.51335    -6.75368
   425  H   1.0    0.04    1.02    1.43    18.59455   165.26010    -5.91660
   426  H   1.0    0.12    1.03    1.43    21.69972   165.93999    -3.63190
   427  N   5.0   -0.21    3.23    1.96    -5.83263   141.31059   -40.88983
   428  C   4.0    0.03    4.28    4.15    -4.55572   143.64314   -40.37557
   429  C   4.0    0.08    3.25    3.04    -3.99538   145.04205   -42.79182
   430  O   6.0   -0.28    1.17    1.80    -3.87793   147.29730   -43.20943
   431  C   4.0   -0.04    4.31    4.22    -2.19156   142.87129   -38.84888
   432  C   4.0   -0.02    4.23    4.07    -0.34975   145.05246   -38.81650
   433  C   4.0    0.26    3.16    3.03    -1.75202   147.39670   -37.68193
   434  O   6.0   -0.27    1.23    1.80    -1.94186   149.31016   -38.98894
   435  O   6.0   -0.30    1.19    1.80    -2.45015   147.12932   -35.47909
   436  H   1.0    0.08    1.03    1.43    -4.87640   139.76543   -40.11113
   437  H   1.0    0.05    1.07    1.44    -5.63301   144.86770   -39.15092
   438  H   1.0    0.05    1.02    1.43    -2.75582   142.47740   -36.88011
   439  H   1.0    0.04    1.01    1.43    -1.31578   141.13487   -39.67027
   440  H   1.0    0.05    1.03    1.43     1.23597   144.63493   -37.61397
   441  H   1.0    0.07    1.03    1.43     0.31038   145.43967   -40.73221
   442  N   5.0   -0.20    3.23    1.96   -10.64372   146.91312   -45.20472
   443  C   4.0    0.03    4.39    4.37   -10.79724   149.23759   -43.70742
   444  C   4.0    0.16    3.53    3.13    -9.41563   151.28486   -45.30093
   445  O   6.0   -0.32    1.42    1.80   -10.66382   152.85673   -46.33724
   446  C   4.0   -0.02    4.25    4.10    -9.85558   148.80592   -41.02875
   447  C   4.0   -0.06    4.12    3.85    -9.37923   151.30937   -39.73338
   448  C   4.0   -0.08    4.10    3.81   -11.66220   147.11742   -39.58801
   449  H   1.0    0.08    1.03    1.43    -9.83133   145.40232   -44.37063
   450  H   1.0    0.05    1.05    1.44   -12.77424   149.87560   -43.66893
   451  H   1.0    0.06    1.07    1.44    -8.02324   147.86199   -41.15231
   452  H   1.0    0.05    0.99    1.43    -9.18469   151.05530   -37.66678
   453  H   1.0    0.06    1.00    1.43    -7.58389   152.11842   -40.41323
   454  H   1.0    0.05    0.99    1.43   -10.88072   152.70110   -39.97439
   455  H   1.0    0.04    0.99    1.43   -10.89718   146.68289   -37.69500
   456  H   1.0    0.04    1.00    1.43   -13.49685   148.00361   -39.27069
   457  H   1.0    0.04    1.00    1.43   -11.95564   145.32109   -40.55950
   458  N   5.0   -0.14    3.48    2.06    -6.99321   151.23371   -45.66106
   459  C   4.0    0.06    4.58    4.64    -6.02379   153.32629   -46.94643
   460  C   4.0    0.09    3.33    3.06    -7.09612   153.90953   -49.47969
   461  O   6.0   -0.29    1.15    1.80    -7.24550   156.13452   -50.13293
   462  C   4.0   -0.03    4.34    4.27    -3.15387   153.18930   -47.17232
   463  C   4.0    0.16    3.28    3.05    -2.27454   154.70068   -44.85805
   464  O   6.0   -0.29    1.26    1.80    -3.05201   154.17834   -42.77528
   465  N   5.0   -0.19    3.17    1.95    -0.92489   156.78122   -45.40855
   466  H   1.0    0.11    1.06    1.44    -5.74386   150.05903   -44.59906
   467  H   1.0    0.06    1.11    1.45    -6.41875   155.04059   -45.82090
   468  H   1.0    0.06    1.03    1.43    -2.55271   151.24741   -47.13653
   469  H   1.0    0.05    1.01    1.43    -2.43463   154.06705   -48.95576
   470  H   1.0    0.09    1.03    1.43    -0.32575   157.95028   -44.06155
   471  H   1.0    0.08    1.02    1.43    -0.43914   157.18526   -47.24809
   472  N   5.0   -0.19    3.21    1.96   -11.75205   158.02482   -47.62367
   473  C   4.0    0.04    4.19    3.99   -10.45538   160.16954   -46.44164
   474  C   4.0    0.10    3.21    3.04    -9.55002   161.93872   -48.52551
   475  O   6.0   -0.28    1.12    1.80    -9.12227   164.14446   -48.13757
   476  C   4.0   -0.04    4.22    4.04    -8.23115   159.36761   -44.72433
   477  C   4.0   -0.04    4.12    3.84    -8.84724   157.64406   -42.47755
   478  C   4.0    0.00    4.15    3.91    -6.63183   157.35547   -40.56887
   479  N   5.0   -0.13    3.40    2.02    -7.10671   158.70981   -38.20481
   480  C   4.0    0.10    3.32    3.06    -5.84151   160.43735   -36.99774
   481  N   5.0   -0.18    3.26    1.97    -3.42447   160.84912   -37.27169
   482  N   5.0   -0.18    3.28    1.98    -7.04674   161.81907   -35.28254
   483  H   1.0    0.12    1.06    1.44   -11.29669   156.24866   -47.15681
   484  H   1.0    0.05    1.06    1.44   -11.85155   161.20464   -45.34769
   485  H   1.0    0.06    1.03    1.43    -6.83702   158.48704   -45.97713
   486  H   1.0    0.05    1.04    1.43    -7.46706   161.13374   -44.06380
   487  H   1.0    0.05    1.03    1.43   -10.45129   158.43296   -41.43338
   488  H   1.0    0.06    1.03    1.43    -9.49042   155.79796   -43.13548
   489  H   1.0    0.06    1.01    1.43    -6.37827   155.28364   -40.10335
   490  H   1.0    0.06    1.04    1.43    -4.89390   157.95189   -41.39367
   491  H   1.0    0.10    1.08    1.44    -8.90754   158.24863   -37.53803
   492  H   1.0    0.09    1.03    1.43    -2.36614   159.85853   -38.53913
   493  H   1.0    0.08    1.02    1.43    -2.60312   162.52901   -36.65887
   494  H   1.0    0.09    1.02    1.43    -8.95491   161.62525   -34.99102
   495  H   1.0    0.08    1.02    1.43    -6.17805   163.21056   -34.25508
   496  N   5.0   -0.22    3.21    1.96   -18.50059   151.54750   -34.82925
   497  C   4.0    0.03    4.27    4.13   -16.43813   152.53403   -33.30879
   498  C   4.0    0.08    3.21    3.04   -16.45152   151.43924   -30.62297
   499  O   6.0   -0.31    1.13    1.80   -14.65846   150.92737   -29.38824
   500  C   4.0   -0.04    4.32    4.23   -16.76877   155.40145   -33.10631
   501  C   4.0   -0.03    4.19    3.97   -14.25422   156.63170   -32.43365
   502  C   4.0    0.24    3.19    3.03   -12.36281   155.75044   -34.48903
   503  O   6.0   -0.32    1.19    1.80   -12.51007   156.78301   -36.56846
   504  O   6.0   -0.31    1.18    1.80   -10.84176   154.04984   -33.88210
   505  H   1.0    0.09    1.04    1.43   -19.58996   152.80628   -35.67621
   506  H   1.0    0.06    1.07    1.44   -14.61817   152.10024   -34.20986
   507  H   1.0    0.05    1.04    1.43   -17.38708   156.11859   -34.91911
   508  H   1.0    0.04    1.01    1.43   -18.26449   155.81841   -31.70577
   509  H   1.0    0.05    1.02    1.43   -14.47222   158.68534   -32.42211
   510  H   1.0    0.06    1.01    1.43   -13.64230   156.00538   -30.53696
   511  N   5.0   -0.20    3.25    1.97   -15.66079   143.41665   -30.10271
   512  C   4.0    0.03    4.39    4.36   -12.97908   143.03886   -30.16686
   513  C   4.0    0.16    3.62    3.18   -11.76062   143.57193   -27.58597
   514  O   6.0   -0.33    1.46    1.80   -10.40790   142.12219   -26.59251
   515  C   4.0   -0.05    4.40    4.38   -11.82981   144.89435   -32.03304
   516  C   4.0   -0.01    4.29    4.17    -9.07441   145.36229   -31.31891
   517  C   4.0   -0.06    4.12    3.84    -7.53690   142.93954   -31.55826
   518  C   4.0   -0.06    4.08    3.77    -8.05400   147.60313   -32.81184
   519  H   1.0    0.08    1.02    1.43   -16.31022   145.16132   -30.63201
   520  H   1.0    0.04    1.06    1.44   -12.58169   141.09029   -30.67000
   521  H   1.0    0.03    1.01    1.43   -11.95104   144.20768   -34.00094
   522  H   1.0    0.05    1.02    1.43   -12.86294   146.70575   -31.94858
   523  H   1.0    0.06    1.10    1.44    -8.96727   145.95467   -29.32911
   524  H   1.0    0.07    1.00    1.43    -5.59923   143.32632   -30.93234
   525  H   1.0    0.05    1.01    1.43    -8.28990   141.41127   -30.40846
   526  H   1.0    0.04    1.00    1.43    -7.41750   142.33068   -33.51756
   527  H   1.0    0.07    1.00    1.43    -6.11956   148.00428   -32.23813
   528  H   1.0    0.05    1.00    1.43    -8.01862   147.24973   -34.83042
   529  H   1.0    0.06    0.99    1.43    -9.21241   149.30388   -32.46864
   530  N   5.0   -0.14    3.57    2.13   -12.63838   145.62129   -26.44735
   531  C   4.0    0.03    4.35    4.30   -11.76157   146.20645   -23.91444
   532  C   4.0    0.08    3.44    3.09   -11.99308   143.86021   -22.48911
   533  O   6.0   -0.28    1.10    1.80   -10.06180   142.71354   -21.26762
   534  C   4.0   -0.04    4.35    4.30   -13.67526   148.04320   -22.74337
   535  C   4.0   -0.03    4.15    3.90   -13.13477   150.80546   -23.12840
   536  C   4.0    0.25    3.13    3.03   -13.50433   152.24851   -20.56853
   537  O   6.0   -0.33    1.37    1.80   -13.62946   151.00715   -18.64272
   538  O   6.0   -0.28    1.18    1.80   -13.58729   154.56179   -20.63808
   539  H   1.0    0.09    1.06    1.44   -13.44141   147.09673   -27.44641
   540  H   1.0    0.06    1.06    1.44    -9.92367   147.03485   -23.92049
   541  H   1.0    0.05    1.02    1.43   -15.63757   147.69182   -23.33015
   542  H   1.0    0.07    1.07    1.44   -13.58616   147.79937   -20.66213
   543  H   1.0    0.05    1.01    1.43   -11.14823   151.11485   -23.76321
   544  H   1.0    0.07    1.01    1.43   -14.27844   151.74108   -24.60889
   545  N   5.0   -0.19    3.23    1.96    -8.02359   138.06357   -24.52855
   546  C   4.0    0.04    4.21    4.01    -5.41884   138.47846   -23.96525
   547  C   4.0    0.10    3.22    3.04    -4.99986   138.11926   -21.21836
   548  O   6.0   -0.29    1.15    1.80    -3.06111   137.25174   -20.48782
   549  C   4.0   -0.03    4.24    4.08    -4.42872   140.99383   -25.24622
   550  C   4.0   -0.02    4.16    3.92    -5.26559   143.45026   -24.14581
   551  C   4.0    0.26    3.09    3.02    -4.43261   145.73272   -25.87021
   552  O   6.0   -0.30    1.22    1.80    -3.28786   145.30439   -27.76335
   553  O   6.0   -0.31    1.20    1.80    -5.05642   147.83100   -25.06915
   554  H   1.0    0.13    1.09    1.44    -8.91789   139.60242   -25.41806
   555  H   1.0    0.05    1.04    1.43    -4.24032   136.99325   -24.92503
   556  H   1.0    0.06    1.04    1.43    -2.41556   140.93445   -25.29187
   557  H   1.0    0.05    1.02    1.43    -5.06195   140.93262   -27.23879
   558  H   1.0    0.08    1.04    1.43    -7.33816   143.54191   -23.88089
   559  H   1.0    0.05    1.02    1.43    -4.43178   143.74559   -22.25608
   560  N   5.0   -0.20    3.21    1.96     9.57378   156.26086   -45.89851
   561  C   4.0    0.03    4.23    4.07     9.62670   157.41826   -43.40332
   562  C   4.0    0.08    3.16    3.03    12.18088   158.70689   -42.96441
   563  O   6.0   -0.30    1.17    1.80    12.20105   161.04479   -42.89606
   564  C   4.0   -0.05    4.17    3.94     8.60509   155.50999   -41.45179
   565  C   4.0   -0.03    4.16    3.92     5.69302   155.51468   -41.74301
   566  C   4.0    0.26    3.04    3.02     4.13159   153.31504   -40.44139
   567  O   6.0   -0.29    1.19    1.80     3.61097   153.58196   -38.17650
   568  O   6.0   -0.27    1.15    1.80     3.49378   151.52517   -41.85770
   569  H   1.0    0.09    1.02    1.43     9.60671   154.33793   -45.99983
   570  H   1.0    0.05    1.07    1.44     8.29480   159.01018   -43.41460
   571  H   1.0    0.05    1.01    1.43     9.38445   153.61594   -41.83069
   572  H   1.0    0.05    1.02    1.43     9.11504   156.03276   -39.53151
   573  H   1.0    0.05    1.03    1.43     4.99302   157.29757   -41.01616
   574  H   1.0    0.05    1.03    1.43     5.26084   155.38594   -43.77605
   575  N   5.0   -0.20    3.20    1.96    11.47363   166.35115   -42.03293
   576  C   4.0    0.04    4.13    3.86    12.35291   167.45417   -39.70769
   577  C   4.0    0.09    3.22    3.04    13.89763   169.85085   -40.23408
   578  O   6.0   -0.27    1.11    1.80    13.10310   171.99346   -39.87418
   579  C   4.0   -0.07    4.08    3.76    14.00934   165.65706   -38.14660
   580  H   1.0    0.12    1.07    1.44    11.95266   164.55285   -42.40796
   581  H   1.0    0.05    1.05    1.44    10.75342   168.09658   -38.56301
   582  H   1.0    0.05    0.98    1.43    15.05350   166.77483   -36.68113
   583  H   1.0    0.05    1.01    1.43    12.87872   164.28789   -37.19513
   584  H   1.0    0.05    1.00    1.43    15.41073   164.69290   -39.30613
   585  H   1.0    0.09    1.07    1.44   -17.87314   150.56823   -36.07019
   586  H   1.0    0.06    1.06    1.44   -18.09240   151.09212   -29.75228
   587  H   1.0    0.09    1.08    1.44   -16.41537   142.30896   -31.14970
   588  H   1.0    0.06    1.05    1.44   -13.66589   142.98958   -22.36765
   589  H   1.0    0.10    1.08    1.44    -8.17331   136.72792   -25.57076
   590  H   1.0    0.07    1.05    1.44    -6.34660   138.60645   -19.98549
   591  H   1.0    0.10    1.07    1.44     8.15165   156.72313   -46.70871
   592  H   1.0    0.05    1.04    1.43    13.74100   157.66286   -42.74735
   593  H   1.0    0.10    1.08    1.44     9.77321   166.36790   -42.06190
   594  H   1.0    0.06    1.05    1.44    15.65707   169.71162   -40.90942
   595  H   1.0    0.09    1.07    1.44     4.15426   182.04852    -2.04471
   596  H   1.0    0.06    1.05    1.44     6.34938   175.51888    -0.99748
   597  H   1.0    0.09    1.07    1.44    -6.05201   146.89910    -9.56940
   598  H   1.0    0.05    1.06    1.44     2.26733   148.03577    -6.79521
   599  H   1.0    0.09    1.07    1.44     3.16205   143.79879    -8.83382
   600  H   1.0    0.07    1.05    1.44     9.58785   148.98812   -11.19506
   601  H   1.0    0.10    1.07    1.44    12.15025   142.31971   -16.38388
   602  H   1.0    0.06    1.04    1.43    19.99159   144.90325   -13.34661
   603  H   1.0    0.09    1.07    1.44    -9.65338   180.22773    -3.42940
   604  H   1.0    0.06    1.06    1.44    23.59125   163.17282    -8.38338
   605  H   1.0    0.09    1.07    1.44    -7.39717   141.36124   -40.22483
   606  H   1.0    0.06    1.06    1.44    -3.64611   144.08084   -44.38089
   607  H   1.0    0.09    1.07    1.44   -12.21041   146.41121   -45.63617
   608  H   1.0    0.06    1.05    1.44    -7.67489   152.50717   -50.60640
   609  H   1.0    0.10    1.07    1.44   -13.41716   158.11348   -47.28884
   610  H   1.0    0.07    1.05    1.44    -9.29330   161.28071   -50.27827

  Z AO/shell   Hii/eV     exponent
  1     Wed Apr 25 08:07:45 CEST 2018   EN: 2.200 GM2: 0.406  GM3: 0.0800  RAES: 1.40
     1s    -10.707211    1.230000
  6     Wed Apr 25 08:07:45 CEST 2018   EN: 2.550 GM2: 0.538  GM3: 0.1500  RAES: 3.00
     2s    -13.970922    2.096432
     2p    -10.063292    1.800000
  7     Wed Apr 25 08:07:45 CEST 2018   EN: 3.040 GM2: 0.461  GM3:-0.0640  RAES: 1.90
     2s    -16.686243    2.339881
     2p    -12.523956    2.014332
  8     Wed Apr 25 08:07:45 CEST 2018   EN: 3.440 GM2: 0.452  GM3:-0.0517  RAES: 1.80
     2s    -20.229985    2.439742
     2p    -15.503117    2.137023
 no old-style atom pair restraining (fixing) potential

molecular fragmentation (1/2 indicates fragments):
111111111122222222222222222222222222222222222222222222222222222222222222
222222222222222222222222222222222222222222222222222222222222222222222222
222222222222222222222222222222222222222222222222222222222222222222222222
222222222222222222222222222222222222222222222222222222222222222222222222
222222222222222222222222222222222222222222222222222222222222222222222222
222222222222222222222222222222222222222222222222222222222222222222222222
222222222222222222222222222222222222222222222222222222222222222222222222
222222222222222222222222222222222222222222222222222222222222222222222222
2222222222222222221122222222222222
# atoms in fragment 1/2:    12   598
 fragment masses (1/2) :       73.09     3997.73
CMA distance (Bohr)    :  28.646
constraining FC (au)   :  0.0500
           ------------------------------------------------- 
          |        Self-Consistent Charge Iterations        |
           ------------------------------------------------- 

 Ncao       : 1462
 Nao        : 1462
 Nshell     : 894
 Nel        : 1628
 T(el)      :   500.0
 intcut     :    35.0
 scfconv/Eh :  0.100E-06
   qconv/e  :  0.100E-04
 intneglect :  0.100E-08
 broydamp   :      0.400
 iter      E             dE          RMSdq      gap      omega  full diag
   1   -932.7232496 -0.932723E+03  0.463E+00    2.62       0.0  T
   2   -935.0704970 -0.234725E+01  0.214E+00    1.17       1.0  T
   3   -935.2158045 -0.145307E+00  0.124E+00    1.86       1.0  T
   4   -935.3683574 -0.152553E+00  0.303E-01    0.70       1.0  T
   5   -935.3866442 -0.182869E-01  0.171E-01    1.22       1.0  T
   6   -935.3916412 -0.499701E-02  0.734E-02    1.04       1.0  T
   7   -935.3923922 -0.750903E-03  0.280E-02    1.10       1.0  T
   8   -935.3924841 -0.919199E-04  0.132E-02    1.10       1.0  T
   9   -935.3925022 -0.181683E-04  0.578E-03    1.10       1.0  T
  10   -935.3925064 -0.418576E-05  0.242E-03    1.10       1.7  T
  11   -935.3925071 -0.652285E-06  0.999E-04    1.10       4.1  T
  12   -935.3925072 -0.126768E-06  0.424E-04    1.10       9.5  T
  13   -935.3925072 -0.242246E-07  0.192E-04    1.10      21.1  T
  14   -935.3925072 -0.335649E-08  0.861E-05    1.10      47.0  T
  15   -935.3925072 -0.102193E-08  0.325E-05    1.10     124.6  T
speedup  1.44
cpu  time for SCC   57.88 s
wall time for SCC   40.23 s

   *** convergence criteria satisfied after 15 iterations ***

          eigenvalues
 #    :         802        803        804        805        806        807        808        809
 occ. :        2.000      2.000      2.000      2.000      2.000      2.000      2.000      2.000
 eps  :       -10.090    -10.075     -9.993     -9.934     -9.814     -9.726     -9.678     -9.558
 #    :         810        811        812        813        814        815        816        817
 occ. :        2.000      2.000      2.000      2.000      2.000      0.000      0.000      0.000
 eps  :        -9.556     -9.537     -9.529     -9.519     -9.458     -8.355     -8.013     -7.914
 #    :         818        819        820        821        822        823        824        825
 occ. :        0.000      0.000      0.000      0.000      0.000      0.000      0.000      0.000
 eps  :        -7.820     -7.808     -7.747     -7.639     -7.544     -7.453     -7.402     -7.365


   #   Z            q   n(s)   n(p)   n(d)      C6AA      α(0)
   1   7 N     -0.397  1.332  4.064  0.000    30.283     8.173
   2   6 C      0.041  1.057  2.902  0.000    19.914     6.358
   3   6 C      0.200  1.097  2.702  0.000    23.736     7.979
   4   8 O     -0.384  1.764  4.620  0.000    21.364     6.197
   5   6 C     -0.118  1.045  3.073  0.000    22.812     6.810
   6   1 H      0.166  0.834  0.000  0.000     1.300     1.786
   7   1 H      0.065  0.935  0.000  0.000     2.143     2.289
   8   1 H      0.046  0.954  0.000  0.000     2.365     2.405
   9   1 H      0.066  0.934  0.000  0.000     2.126     2.280
  10   1 H      0.051  0.949  0.000  0.000     2.303     2.373
  11   7 N     -0.397  1.319  4.078  0.000    30.303     8.176
  12   6 C      0.014  1.069  2.918  0.000    20.366     6.429
  13   6 C      0.279  1.031  2.691  0.000    22.289     7.736
  14   8 O     -0.459  1.719  4.740  0.000    22.894     6.415
  15   6 C     -0.078  1.065  3.012  0.000    21.988     6.678
  16   6 C     -0.072  1.054  3.018  0.000    21.883     6.661
  17   6 C     -0.084  1.054  3.030  0.000    22.115     6.696
  18   6 C     -0.029  1.051  2.978  0.000    21.188     6.571
  19   7 N     -0.178  1.252  3.926  0.000    24.850     7.404
  20   1 H      0.180  0.820  0.000  0.000     1.213     1.725
  21   1 H      0.022  0.978  0.000  0.000     2.705     2.572
  22   1 H      0.067  0.933  0.000  0.000     2.124     2.279
  23   1 H      0.037  0.963  0.000  0.000     2.489     2.467
  24   1 H      0.034  0.966  0.000  0.000     2.529     2.487
  25   1 H      0.055  0.945  0.000  0.000     2.264     2.353
  26   1 H      0.081  0.919  0.000  0.000     1.973     2.196
  27   1 H      0.058  0.942  0.000  0.000     2.226     2.333
  28   1 H      0.098  0.902  0.000  0.000     1.803     2.100
  29   1 H      0.100  0.900  0.000  0.000     1.783     2.088
  30   1 H      0.268  0.732  0.000  0.000     0.817     1.416
  31   1 H      0.276  0.724  0.000  0.000     0.789     1.391
  32   1 H      0.284  0.716  0.000  0.000     0.765     1.370
  33   7 N     -0.156  1.245  3.911  0.000    24.374     7.332
  34   6 C      0.017  1.050  2.933  0.000    20.248     6.398
  35   6 C      0.210  1.076  2.713  0.000    23.543     7.946
  36   8 O     -0.360  1.740  4.620  0.000    20.895     6.129
  37   6 C     -0.090  1.064  3.026  0.000    22.201     6.706
  38   6 C     -0.014  1.063  2.951  0.000    20.791     6.485
  39   6 C     -0.127  1.043  3.084  0.000    22.992     6.837
  40   6 C     -0.121  1.040  3.081  0.000    22.874     6.819
  41   1 H      0.227  0.773  0.000  0.000     0.979     1.550
  42   1 H      0.089  0.911  0.000  0.000     1.889     2.149
  43   1 H      0.079  0.921  0.000  0.000     1.988     2.205
  44   1 H      0.052  0.948  0.000  0.000     2.295     2.369
  45   1 H      0.024  0.976  0.000  0.000     2.681     2.561
  46   1 H      0.064  0.936  0.000  0.000     2.148     2.292
  47   1 H      0.036  0.964  0.000  0.000     2.498     2.472
  48   1 H      0.050  0.950  0.000  0.000     2.322     2.383
  49   1 H      0.045  0.955  0.000  0.000     2.386     2.416
  50   1 H      0.059  0.941  0.000  0.000     2.208     2.324
  51   1 H      0.033  0.967  0.000  0.000     2.540     2.493
  52   7 N     -0.386  1.307  4.079  0.000    29.980     8.132
  53   6 C      0.034  1.059  2.907  0.000    20.021     6.373
  54   6 C      0.273  1.045  2.682  0.000    22.385     7.751
  55   8 O     -0.515  1.745  4.769  0.000    24.111     6.583
  56   6 C     -0.011  1.059  2.952  0.000    20.738     6.477
  57   6 C     -0.107  1.039  3.068  0.000    22.607     6.780
  58   6 C     -0.115  1.036  3.079  0.000    22.756     6.802
  59   1 H      0.160  0.840  0.000  0.000     1.332     1.808
  60   1 H      0.026  0.974  0.000  0.000     2.650     2.546
  61   1 H      0.007  0.993  0.000  0.000     2.937     2.680
  62   1 H      0.033  0.967  0.000  0.000     2.548     2.496
  63   1 H      0.041  0.959  0.000  0.000     2.434     2.440
  64   1 H      0.050  0.950  0.000  0.000     2.326     2.385
  65   1 H      0.025  0.975  0.000  0.000     2.657     2.549
  66   1 H      0.073  0.927  0.000  0.000     2.056     2.242
  67   1 H      0.023  0.977  0.000  0.000     2.681     2.561
  68   7 N     -0.164  1.250  3.914  0.000    24.549     7.359
  69   6 C      0.032  1.052  2.916  0.000    19.997     6.359
  70   6 C      0.214  1.076  2.709  0.000    23.467     7.934
  71   8 O     -0.355  1.726  4.629  0.000    20.806     6.116
  72   6 C     -0.012  1.051  2.960  0.000    20.747     6.478
  73   6 C     -0.121  1.048  3.073  0.000    22.873     6.819
  74   6 C     -0.127  1.038  3.089  0.000    22.973     6.831
  75   1 H      0.244  0.756  0.000  0.000     0.906     1.491
  76   1 H      0.074  0.926  0.000  0.000     2.043     2.235
  77   1 H      0.063  0.937  0.000  0.000     2.161     2.299
  78   1 H      0.058  0.942  0.000  0.000     2.226     2.333
  79   1 H      0.047  0.953  0.000  0.000     2.354     2.400
  80   1 H      0.044  0.956  0.000  0.000     2.392     2.419
  81   1 H      0.065  0.935  0.000  0.000     2.143     2.289
  82   1 H      0.038  0.962  0.000  0.000     2.475     2.460
  83   1 H      0.058  0.942  0.000  0.000     2.220     2.330
  84   7 N     -0.415  1.318  4.097  0.000    30.782     8.240
  85   6 C      0.046  1.060  2.895  0.000    19.823     6.341
  86   6 C      0.270  1.045  2.684  0.000    22.435     7.757
  87   8 O     -0.524  1.754  4.770  0.000    24.328     6.613
  88   6 C     -0.053  1.052  3.001  0.000    21.513     6.601
  89   6 C     -0.074  1.067  3.007  0.000    21.922     6.666
  90   6 C      0.378  1.016  2.606  0.000    20.597     7.428
  91   8 O     -0.620  1.733  4.888  0.000    26.624     6.918
  92   8 O     -0.621  1.762  4.859  0.000    26.653     6.922
  93   1 H      0.193  0.807  0.000  0.000     1.144     1.675
  94   1 H     -0.007  1.007  0.000  0.000     3.189     2.793
  95   1 H      0.080  0.920  0.000  0.000     1.981     2.201
  96   1 H      0.015  0.985  0.000  0.000     2.804     2.618
  97   1 H     -0.021  1.021  0.000  0.000     3.460     2.909
  98   1 H      0.020  0.980  0.000  0.000     2.741     2.589
  99   7 N     -0.162  1.239  3.924  0.000    24.512     7.353
 100   6 C      0.018  1.062  2.921  0.000    20.277     6.411
 101   6 C      0.198  1.095  2.707  0.000    23.772     7.984
 102   8 O     -0.374  1.767  4.607  0.000    21.172     6.169
 103   6 C     -0.078  1.056  3.022  0.000    21.986     6.676
 104   6 C     -0.083  1.055  3.028  0.000    22.097     6.694
 105   6 C     -0.032  1.065  2.966  0.000    21.248     6.583
 106   7 N     -0.154  1.214  3.941  0.000    24.337     7.327
 107   6 C      0.239  1.017  2.744  0.000    23.009     7.853
 108   7 N     -0.226  1.241  3.985  0.000    25.950     7.566
 109   7 N     -0.244  1.237  4.007  0.000    26.365     7.626
 110   1 H      0.233  0.767  0.000  0.000     0.951     1.528
 111   1 H      0.102  0.898  0.000  0.000     1.767     2.079
 112   1 H      0.078  0.922  0.000  0.000     1.998     2.210
 113   1 H      0.085  0.915  0.000  0.000     1.930     2.173
 114   1 H      0.064  0.936  0.000  0.000     2.154     2.296
 115   1 H      0.082  0.918  0.000  0.000     1.956     2.187
 116   1 H      0.086  0.914  0.000  0.000     1.914     2.164
 117   1 H      0.083  0.917  0.000  0.000     1.951     2.184
 118   1 H      0.223  0.777  0.000  0.000     0.997     1.564
 119   1 H      0.233  0.767  0.000  0.000     0.952     1.529
 120   1 H      0.238  0.762  0.000  0.000     0.929     1.510
 121   1 H      0.256  0.744  0.000  0.000     0.859     1.452
 122   1 H      0.251  0.749  0.000  0.000     0.878     1.468
 123   7 N     -0.394  1.322  4.072  0.000    30.199     8.162
 124   6 C      0.035  1.056  2.909  0.000    20.000     6.371
 125   6 C      0.262  1.055  2.683  0.000    22.580     7.781
 126   8 O     -0.486  1.735  4.751  0.000    23.478     6.497
 127   6 C     -0.127  1.045  3.082  0.000    22.985     6.835
 128   1 H      0.170  0.830  0.000  0.000     1.271     1.766
 129   1 H      0.036  0.964  0.000  0.000     2.503     2.474
 130   1 H      0.048  0.952  0.000  0.000     2.344     2.394
 131   1 H      0.049  0.951  0.000  0.000     2.335     2.390
 132   1 H      0.058  0.942  0.000  0.000     2.224     2.332
 133   7 N     -0.171  1.238  3.934  0.000    24.712     7.383
 134   6 C      0.018  1.055  2.928  0.000    20.281     6.412
 135   6 C      0.276  1.044  2.680  0.000    22.333     7.740
 136   8 O     -0.494  1.743  4.751  0.000    23.661     6.522
 137   6 C     -0.079  1.062  3.017  0.000    21.990     6.675
 138   6 C     -0.014  1.060  2.954  0.000    20.789     6.486
 139   6 C     -0.120  1.045  3.075  0.000    22.857     6.816
 140   6 C     -0.118  1.037  3.081  0.000    22.816     6.811
 141   1 H      0.215  0.785  0.000  0.000     1.032     1.591
 142   1 H      0.083  0.917  0.000  0.000     1.947     2.182
 143   1 H      0.060  0.940  0.000  0.000     2.202     2.321
 144   1 H      0.070  0.930  0.000  0.000     2.083     2.257
 145   1 H      0.037  0.963  0.000  0.000     2.483     2.464
 146   1 H      0.041  0.959  0.000  0.000     2.432     2.439
 147   1 H      0.044  0.956  0.000  0.000     2.394     2.419
 148   1 H      0.044  0.956  0.000  0.000     2.390     2.418
 149   1 H      0.038  0.962  0.000  0.000     2.469     2.458
 150   1 H      0.048  0.952  0.000  0.000     2.341     2.393
 151   1 H      0.039  0.961  0.000  0.000     2.458     2.452
 152   7 N     -0.181  1.247  3.934  0.000    24.928     7.415
 153   6 C      0.007  1.067  2.926  0.000    20.455     6.439
 154   6 C      0.268  1.046  2.686  0.000    22.473     7.762
 155   8 O     -0.493  1.753  4.740  0.000    23.630     6.517
 156   6 C     -0.078  1.057  3.021  0.000    21.991     6.677
 157   6 C     -0.088  1.054  3.034  0.000    22.187     6.706
 158   6 C     -0.096  1.055  3.041  0.000    22.336     6.729
 159   6 C     -0.053  1.061  2.992  0.000    21.623     6.638
 160   7 N     -0.146  1.228  3.918  0.000    24.149     7.299
 161   1 H      0.208  0.792  0.000  0.000     1.065     1.616
 162   1 H      0.098  0.902  0.000  0.000     1.804     2.101
 163   1 H      0.075  0.925  0.000  0.000     2.028     2.227
 164   1 H      0.051  0.949  0.000  0.000     2.310     2.377
 165   1 H      0.069  0.931  0.000  0.000     2.094     2.263
 166   1 H      0.069  0.931  0.000  0.000     2.102     2.267
 167   1 H      0.083  0.917  0.000  0.000     1.950     2.184
 168   1 H      0.086  0.914  0.000  0.000     1.918     2.166
 169   1 H      0.117  0.883  0.000  0.000     1.635     2.000
 170   1 H      0.123  0.877  0.000  0.000     1.587     1.970
 171   1 H      0.299  0.701  0.000  0.000     0.716     1.326
 172   1 H      0.300  0.700  0.000  0.000     0.715     1.325
 173   1 H      0.289  0.711  0.000  0.000     0.746     1.353
 174   7 N     -0.190  1.242  3.948  0.000    25.119     7.444
 175   6 C      0.009  1.078  2.914  0.000    20.450     6.441
 176   6 C      0.267  1.046  2.687  0.000    22.493     7.766
 177   8 O     -0.482  1.747  4.735  0.000    23.396     6.485
 178   6 C     -0.024  1.069  2.955  0.000    20.966     6.513
 179   6 C     -0.077  1.051  3.026  0.000    21.969     6.673
 180   6 C     -0.127  1.046  3.081  0.000    23.001     6.840
 181   6 C     -0.102  1.040  3.061  0.000    22.512     6.768
 182   1 H      0.223  0.777  0.000  0.000     0.998     1.565
 183   1 H      0.067  0.933  0.000  0.000     2.116     2.275
 184   1 H      0.048  0.952  0.000  0.000     2.347     2.396
 185   1 H      0.077  0.923  0.000  0.000     2.011     2.218
 186   1 H      0.029  0.971  0.000  0.000     2.605     2.524
 187   1 H      0.052  0.948  0.000  0.000     2.296     2.370
 188   1 H      0.041  0.959  0.000  0.000     2.434     2.440
 189   1 H      0.071  0.929  0.000  0.000     2.073     2.252
 190   1 H      0.026  0.974  0.000  0.000     2.649     2.545
 191   1 H      0.032  0.968  0.000  0.000     2.558     2.501
 192   1 H      0.042  0.958  0.000  0.000     2.420     2.433
 193   7 N     -0.192  1.251  3.941  0.000    25.165     7.450
 194   6 C      0.022  1.063  2.916  0.000    20.227     6.406
 195   6 C      0.268  1.047  2.684  0.000    22.468     7.763
 196   8 O     -0.452  1.736  4.716  0.000    22.741     6.394
 197   6 C     -0.088  1.058  3.030  0.000    22.166     6.701
 198   6 C     -0.009  1.055  2.953  0.000    20.697     6.471
 199   6 C     -0.118  1.044  3.073  0.000    22.801     6.808
 200   6 C     -0.118  1.044  3.074  0.000    22.797     6.806
 201   1 H      0.217  0.783  0.000  0.000     1.021     1.583
 202   1 H      0.068  0.932  0.000  0.000     2.109     2.271
 203   1 H      0.070  0.930  0.000  0.000     2.084     2.257
 204   1 H      0.081  0.919  0.000  0.000     1.967     2.193
 205   1 H      0.028  0.972  0.000  0.000     2.620     2.532
 206   1 H      0.028  0.972  0.000  0.000     2.616     2.529
 207   1 H      0.045  0.955  0.000  0.000     2.384     2.415
 208   1 H      0.049  0.951  0.000  0.000     2.327     2.385
 209   1 H      0.044  0.956  0.000  0.000     2.396     2.421
 210   1 H      0.047  0.953  0.000  0.000     2.357     2.401
 211   1 H      0.040  0.960  0.000  0.000     2.449     2.447
 212   7 N     -0.185  1.236  3.949  0.000    25.004     7.427
 213   6 C      0.015  1.057  2.928  0.000    20.323     6.417
 214   6 C      0.268  1.044  2.688  0.000    22.473     7.765
 215   8 O     -0.469  1.744  4.725  0.000    23.109     6.445
 216   6 C     -0.109  1.064  3.045  0.000    22.586     6.766
 217   6 C      0.290  1.033  2.677  0.000    22.078     7.694
 218   8 O     -0.476  1.746  4.730  0.000    23.270     6.468
 219   7 N     -0.288  1.265  4.023  0.000    27.432     7.779
 220   1 H      0.196  0.804  0.000  0.000     1.128     1.663
 221   1 H      0.111  0.889  0.000  0.000     1.684     2.029
 222   1 H      0.097  0.903  0.000  0.000     1.815     2.107
 223   1 H      0.080  0.920  0.000  0.000     1.978     2.199
 224   1 H      0.235  0.765  0.000  0.000     0.945     1.522
 225   1 H      0.236  0.764  0.000  0.000     0.940     1.519
 226   7 N     -0.178  1.243  3.935  0.000    24.849     7.404
 227   6 C      0.015  1.047  2.938  0.000    20.289     6.406
 228   6 C      0.266  1.035  2.699  0.000    22.516     7.774
 229   8 O     -0.472  1.731  4.742  0.000    23.178     6.455
 230   6 C     -0.122  1.070  3.052  0.000    22.800     6.794
 231   6 C      0.291  1.025  2.684  0.000    22.070     7.693
 232   8 O     -0.497  1.766  4.731  0.000    23.724     6.530
 233   7 N     -0.283  1.263  4.020  0.000    27.312     7.762
 234   1 H      0.220  0.780  0.000  0.000     1.007     1.572
 235   1 H      0.109  0.891  0.000  0.000     1.707     2.043
 236   1 H      0.115  0.885  0.000  0.000     1.651     2.009
 237   1 H      0.066  0.934  0.000  0.000     2.125     2.280
 238   1 H      0.240  0.760  0.000  0.000     0.921     1.503
 239   1 H      0.238  0.762  0.000  0.000     0.930     1.511
 240   7 N     -0.150  1.240  3.910  0.000    24.248     7.313
 241   6 C      0.009  1.068  2.923  0.000    20.413     6.429
 242   6 C      0.293  1.041  2.665  0.000    22.025     7.686
 243   8 O     -0.446  1.713  4.733  0.000    22.628     6.378
 244   6 C     -0.020  1.069  2.951  0.000    20.892     6.501
 245   6 C     -0.061  1.049  3.013  0.000    21.675     6.628
 246   6 C     -0.110  1.036  3.074  0.000    22.662     6.788
 247   6 C     -0.134  1.040  3.094  0.000    23.134     6.859
 248   1 H      0.213  0.787  0.000  0.000     1.042     1.599
 249   1 H      0.089  0.911  0.000  0.000     1.887     2.149
 250   1 H      0.045  0.955  0.000  0.000     2.382     2.414
 251   1 H      0.042  0.958  0.000  0.000     2.420     2.433
 252   1 H      0.031  0.969  0.000  0.000     2.566     2.505
 253   1 H      0.051  0.949  0.000  0.000     2.313     2.379
 254   1 H      0.039  0.961  0.000  0.000     2.459     2.452
 255   1 H      0.038  0.962  0.000  0.000     2.474     2.460
 256   1 H      0.055  0.945  0.000  0.000     2.264     2.353
 257   1 H      0.067  0.933  0.000  0.000     2.124     2.279
 258   1 H      0.047  0.953  0.000  0.000     2.356     2.400
 259   7 N     -0.213  1.280  3.933  0.000    25.649     7.522
 260   6 C     -0.008  1.078  2.930  0.000    20.703     6.474
 261   6 C      0.289  1.026  2.685  0.000    22.098     7.697
 262   8 O     -0.415  1.715  4.700  0.000    21.973     6.285
 263   6 C     -0.102  1.065  3.036  0.000    22.437     6.744
 264   6 C     -0.089  1.054  3.035  0.000    22.190     6.707
 265   6 C     -0.041  1.059  2.982  0.000    21.395     6.601
 266   7 N     -0.154  1.208  3.946  0.000    24.325     7.325
 267   6 C      0.237  1.016  2.747  0.000    23.033     7.858
 268   7 N     -0.244  1.241  4.003  0.000    26.354     7.624
 269   7 N     -0.248  1.264  3.984  0.000    26.455     7.639
 270   1 H      0.201  0.799  0.000  0.000     1.103     1.645
 271   1 H      0.073  0.927  0.000  0.000     2.048     2.238
 272   1 H      0.083  0.917  0.000  0.000     1.945     2.181
 273   1 H      0.108  0.892  0.000  0.000     1.712     2.046
 274   1 H      0.052  0.948  0.000  0.000     2.293     2.368
 275   1 H      0.090  0.910  0.000  0.000     1.882     2.145
 276   1 H      0.111  0.889  0.000  0.000     1.691     2.033
 277   1 H      0.075  0.925  0.000  0.000     2.029     2.228
 278   1 H      0.206  0.794  0.000  0.000     1.078     1.627
 279   1 H      0.250  0.750  0.000  0.000     0.884     1.473
 280   1 H      0.228  0.772  0.000  0.000     0.972     1.544
 281   1 H      0.204  0.796  0.000  0.000     1.088     1.634
 282   1 H      0.240  0.760  0.000  0.000     0.922     1.504
 283   7 N     -0.206  1.235  3.971  0.000    25.470     7.496
 284   6 C     -0.016  1.074  2.942  0.000    20.875     6.506
 285   6 C      0.278  1.036  2.685  0.000    22.295     7.733
 286   8 O     -0.463  1.728  4.735  0.000    22.987     6.428
 287   6 C      0.104  1.048  2.848  0.000    18.964     6.216
 288   8 O     -0.487  1.724  4.764  0.000    22.625     6.421
 289   6 C     -0.159  1.054  3.104  0.000    23.644     6.935
 290   1 H      0.203  0.797  0.000  0.000     1.090     1.635
 291   1 H      0.093  0.907  0.000  0.000     1.851     2.128
 292   1 H      0.070  0.930  0.000  0.000     2.083     2.257
 293   1 H      0.328  0.672  0.000  0.000     0.643     1.260
 294   1 H      0.077  0.923  0.000  0.000     2.015     2.220
 295   1 H      0.082  0.918  0.000  0.000     1.960     2.189
 296   1 H      0.053  0.947  0.000  0.000     2.280     2.361
 297   7 N     -0.204  1.254  3.950  0.000    25.433     7.490
 298   6 C      0.016  1.054  2.930  0.000    20.284     6.410
 299   6 C      0.270  1.039  2.691  0.000    22.437     7.759
 300   8 O     -0.492  1.735  4.756  0.000    23.601     6.513
 301   6 C     -0.079  1.059  3.020  0.000    21.992     6.675
 302   6 C     -0.019  1.055  2.964  0.000    20.874     6.498
 303   6 C     -0.124  1.041  3.083  0.000    22.938     6.829
 304   6 C     -0.118  1.043  3.074  0.000    22.809     6.810
 305   1 H      0.238  0.762  0.000  0.000     0.932     1.512
 306   1 H      0.087  0.913  0.000  0.000     1.906     2.159
 307   1 H      0.063  0.937  0.000  0.000     2.162     2.299
 308   1 H      0.047  0.953  0.000  0.000     2.362     2.404
 309   1 H      0.036  0.964  0.000  0.000     2.504     2.475
 310   1 H      0.061  0.939  0.000  0.000     2.182     2.310
 311   1 H      0.034  0.966  0.000  0.000     2.533     2.489
 312   1 H      0.039  0.961  0.000  0.000     2.464     2.455
 313   1 H      0.056  0.944  0.000  0.000     2.245     2.343
 314   1 H      0.046  0.954  0.000  0.000     2.369     2.407
 315   1 H      0.031  0.969  0.000  0.000     2.574     2.509
 316   7 N     -0.193  1.248  3.945  0.000    25.196     7.455
 317   6 C      0.003  1.057  2.940  0.000    20.530     6.450
 318   6 C      0.281  1.034  2.685  0.000    22.238     7.723
 319   8 O     -0.463  1.719  4.744  0.000    22.979     6.427
 320   6 C     -0.094  1.063  3.030  0.000    22.263     6.714
 321   6 C     -0.083  1.049  3.035  0.000    22.088     6.691
 322   6 C     -0.027  1.056  2.971  0.000    21.089     6.545
 323   7 N     -0.157  1.254  3.903  0.000    24.404     7.337
 324   6 C      0.251  1.008  2.740  0.000    22.775     7.814
 325   7 N     -0.255  1.235  4.020  0.000    26.629     7.664
 326   7 N     -0.265  1.259  4.006  0.000    26.862     7.698
 327   1 H      0.240  0.760  0.000  0.000     0.921     1.504
 328   1 H      0.087  0.913  0.000  0.000     1.906     2.159
 329   1 H      0.088  0.912  0.000  0.000     1.902     2.157
 330   1 H      0.074  0.926  0.000  0.000     2.043     2.236
 331   1 H      0.072  0.928  0.000  0.000     2.059     2.244
 332   1 H      0.075  0.925  0.000  0.000     2.031     2.229
 333   1 H      0.080  0.920  0.000  0.000     1.978     2.200
 334   1 H      0.080  0.920  0.000  0.000     1.974     2.197
 335   1 H      0.261  0.739  0.000  0.000     0.842     1.437
 336   1 H      0.247  0.753  0.000  0.000     0.897     1.484
 337   1 H      0.214  0.786  0.000  0.000     1.038     1.596
 338   1 H      0.209  0.791  0.000  0.000     1.061     1.614
 339   1 H      0.217  0.783  0.000  0.000     1.025     1.586
 340   7 N     -0.182  1.240  3.942  0.000    24.943     7.417
 341   6 C      0.015  1.061  2.924  0.000    20.329     6.421
 342   6 C      0.275  1.043  2.682  0.000    22.347     7.741
 343   8 O     -0.492  1.736  4.757  0.000    23.612     6.515
 344   6 C     -0.151  1.048  3.103  0.000    23.475     6.909
 345   1 H      0.203  0.797  0.000  0.000     1.090     1.636
 346   1 H      0.086  0.914  0.000  0.000     1.919     2.166
 347   1 H      0.071  0.929  0.000  0.000     2.073     2.252
 348   1 H      0.082  0.918  0.000  0.000     1.962     2.191
 349   1 H      0.066  0.934  0.000  0.000     2.130     2.282
 350   7 N     -0.200  1.264  3.937  0.000    25.355     7.479
 351   6 C      0.024  1.068  2.908  0.000    20.174     6.396
 352   6 C      0.276  1.045  2.679  0.000    22.338     7.739
 353   8 O     -0.504  1.746  4.758  0.000    23.866     6.550
 354   6 C     -0.068  1.059  3.009  0.000    21.811     6.651
 355   6 C     -0.086  1.052  3.034  0.000    22.150     6.701
 356   6 C      0.293  1.041  2.666  0.000    22.033     7.685
 357   8 O     -0.512  1.753  4.759  0.000    24.043     6.574
 358   7 N     -0.284  1.261  4.022  0.000    27.323     7.763
 359   1 H      0.238  0.762  0.000  0.000     0.931     1.512
 360   1 H      0.059  0.941  0.000  0.000     2.207     2.323
 361   1 H      0.067  0.933  0.000  0.000     2.117     2.276
 362   1 H      0.068  0.932  0.000  0.000     2.103     2.268
 363   1 H      0.066  0.934  0.000  0.000     2.128     2.281
 364   1 H      0.050  0.950  0.000  0.000     2.325     2.385
 365   1 H      0.229  0.771  0.000  0.000     0.971     1.544
 366   1 H      0.236  0.764  0.000  0.000     0.939     1.518
 367   7 N     -0.211  1.261  3.949  0.000    25.585     7.512
 368   6 C      0.030  1.044  2.926  0.000    20.078     6.380
 369   6 C      0.271  1.044  2.686  0.000    22.428     7.756
 370   8 O     -0.479  1.733  4.746  0.000    23.323     6.475
 371   6 C     -0.142  1.050  3.093  0.000    23.263     6.871
 372   1 H      0.246  0.754  0.000  0.000     0.898     1.484
 373   1 H      0.059  0.941  0.000  0.000     2.215     2.327
 374   1 H      0.064  0.936  0.000  0.000     2.148     2.292
 375   1 H      0.074  0.926  0.000  0.000     2.038     2.232
 376   1 H      0.080  0.920  0.000  0.000     1.984     2.203
 377   7 N     -0.194  1.258  3.935  0.000    25.201     7.456
 378   6 C      0.000  1.071  2.929  0.000    20.575     6.458
 379   6 C      0.291  1.025  2.684  0.000    22.066     7.692
 380   8 O     -0.442  1.721  4.721  0.000    22.531     6.364
 381   6 C     -0.076  1.056  3.020  0.000    21.952     6.669
 382   6 C     -0.093  1.057  3.035  0.000    22.262     6.717
 383   6 C     -0.034  1.058  2.976  0.000    21.265     6.580
 384   7 N     -0.138  1.218  3.920  0.000    23.991     7.275
 385   6 C      0.234  1.014  2.752  0.000    23.089     7.867
 386   7 N     -0.239  1.223  4.015  0.000    26.239     7.608
 387   7 N     -0.260  1.233  4.027  0.000    26.746     7.681
 388   1 H      0.218  0.782  0.000  0.000     1.017     1.580
 389   1 H      0.094  0.906  0.000  0.000     1.836     2.119
 390   1 H      0.050  0.950  0.000  0.000     2.326     2.385
 391   1 H      0.064  0.936  0.000  0.000     2.148     2.292
 392   1 H      0.086  0.914  0.000  0.000     1.921     2.167
 393   1 H      0.073  0.927  0.000  0.000     2.053     2.241
 394   1 H      0.092  0.908  0.000  0.000     1.862     2.134
 395   1 H      0.094  0.906  0.000  0.000     1.840     2.121
 396   1 H      0.232  0.768  0.000  0.000     0.955     1.530
 397   1 H      0.252  0.748  0.000  0.000     0.877     1.467
 398   1 H      0.249  0.751  0.000  0.000     0.887     1.475
 399   1 H      0.237  0.763  0.000  0.000     0.934     1.514
 400   1 H      0.249  0.751  0.000  0.000     0.887     1.476
 401   7 N     -0.193  1.241  3.952  0.000    25.193     7.455
 402   6 C      0.021  1.061  2.917  0.000    20.217     6.402
 403   6 C      0.290  1.032  2.678  0.000    22.079     7.697
 404   8 O     -0.429  1.717  4.711  0.000    22.261     6.326
 405   6 C     -0.066  1.056  3.010  0.000    21.772     6.643
 406   6 C     -0.092  1.078  3.014  0.000    22.262     6.719
 407   6 C      0.376  1.024  2.600  0.000    20.633     7.433
 408   8 O     -0.666  1.775  4.892  0.000    27.803     7.069
 409   8 O     -0.618  1.760  4.857  0.000    26.556     6.909
 410   1 H      0.185  0.815  0.000  0.000     1.186     1.706
 411   1 H      0.052  0.948  0.000  0.000     2.297     2.370
 412   1 H      0.059  0.941  0.000  0.000     2.207     2.323
 413   1 H      0.038  0.962  0.000  0.000     2.476     2.461
 414   1 H      0.010  0.990  0.000  0.000     2.885     2.656
 415   1 H      0.011  0.989  0.000  0.000     2.867     2.648
 416   7 N     -0.189  1.236  3.953  0.000    25.104     7.441
 417   6 C      0.020  1.058  2.921  0.000    20.219     6.400
 418   6 C      0.198  1.083  2.719  0.000    23.773     7.985
 419   8 O     -0.350  1.731  4.618  0.000    20.703     6.100
 420   6 C      0.066  1.039  2.896  0.000    19.699     6.359
 421   8 O     -0.480  1.733  4.747  0.000    22.468     6.399
 422   1 H      0.199  0.801  0.000  0.000     1.112     1.652
 423   1 H      0.110  0.890  0.000  0.000     1.695     2.036
 424   1 H      0.061  0.939  0.000  0.000     2.192     2.316
 425   1 H      0.064  0.936  0.000  0.000     2.157     2.297
 426   1 H      0.358  0.642  0.000  0.000     0.569     1.185
 427   7 N     -0.387  1.325  4.062  0.000    29.999     8.134
 428   6 C      0.055  1.039  2.906  0.000    19.664     6.316
 429   6 C      0.201  1.084  2.715  0.000    23.732     7.978
 430   8 O     -0.367  1.746  4.622  0.000    21.042     6.150
 431   6 C     -0.041  1.064  2.976  0.000    21.291     6.568
 432   6 C     -0.088  1.058  3.030  0.000    22.173     6.704
 433   6 C      0.376  1.016  2.608  0.000    20.623     7.432
 434   8 O     -0.589  1.756  4.833  0.000    25.856     6.818
 435   8 O     -0.635  1.764  4.871  0.000    26.983     6.964
 436   1 H      0.170  0.830  0.000  0.000     1.275     1.769
 437   1 H      0.028  0.972  0.000  0.000     2.621     2.532
 438   1 H      0.035  0.965  0.000  0.000     2.511     2.478
 439   1 H      0.037  0.963  0.000  0.000     2.496     2.471
 440   1 H      0.011  0.989  0.000  0.000     2.873     2.650
 441   1 H      0.002  0.998  0.000  0.000     3.027     2.721
 442   7 N     -0.396  1.321  4.075  0.000    30.265     8.171
 443   6 C      0.025  1.069  2.906  0.000    20.163     6.395
 444   6 C      0.280  1.038  2.681  0.000    22.259     7.730
 445   8 O     -0.478  1.720  4.759  0.000    23.300     6.472
 446   6 C     -0.009  1.051  2.958  0.000    20.709     6.472
 447   6 C     -0.107  1.043  3.064  0.000    22.606     6.780
 448   6 C     -0.097  1.038  3.059  0.000    22.411     6.750
 449   1 H      0.149  0.851  0.000  0.000     1.411     1.861
 450   1 H      0.041  0.959  0.000  0.000     2.440     2.443
 451   1 H      0.022  0.978  0.000  0.000     2.700     2.570
 452   1 H      0.032  0.968  0.000  0.000     2.554     2.499
 453   1 H      0.045  0.955  0.000  0.000     2.382     2.414
 454   1 H      0.045  0.955  0.000  0.000     2.381     2.413
 455   1 H      0.021  0.979  0.000  0.000     2.717     2.578
 456   1 H      0.038  0.962  0.000  0.000     2.475     2.460
 457   1 H      0.038  0.962  0.000  0.000     2.478     2.462
 458   7 N     -0.156  1.245  3.911  0.000    24.376     7.333
 459   6 C      0.046  1.038  2.916  0.000    19.751     6.319
 460   6 C      0.204  1.074  2.722  0.000    23.665     7.967
 461   8 O     -0.358  1.746  4.612  0.000    20.859     6.123
 462   6 C     -0.106  1.069  3.037  0.000    22.511     6.753
 463   6 C      0.291  1.034  2.676  0.000    22.069     7.693
 464   8 O     -0.465  1.745  4.719  0.000    23.018     6.432
 465   7 N     -0.284  1.262  4.022  0.000    27.342     7.766
 466   1 H      0.222  0.778  0.000  0.000     1.003     1.569
 467   1 H      0.088  0.912  0.000  0.000     1.900     2.156
 468   1 H      0.082  0.918  0.000  0.000     1.956     2.187
 469   1 H      0.070  0.930  0.000  0.000     2.086     2.259
 470   1 H      0.227  0.773  0.000  0.000     0.978     1.549
 471   1 H      0.231  0.769  0.000  0.000     0.960     1.535
 472   7 N     -0.408  1.311  4.097  0.000    30.590     8.214
 473   6 C      0.037  1.060  2.904  0.000    19.979     6.368
 474   6 C      0.207  1.090  2.704  0.000    23.611     7.958
 475   8 O     -0.372  1.740  4.633  0.000    21.137     6.164
 476   6 C     -0.073  1.055  3.018  0.000    21.890     6.661
 477   6 C     -0.069  1.052  3.016  0.000    21.820     6.652
 478   6 C     -0.027  1.060  2.966  0.000    21.152     6.567
 479   7 N     -0.141  1.215  3.927  0.000    24.058     7.285
 480   6 C      0.235  1.008  2.758  0.000    23.082     7.866
 481   7 N     -0.244  1.234  4.010  0.000    26.361     7.625
 482   7 N     -0.257  1.232  4.026  0.000    26.683     7.672
 483   1 H      0.173  0.827  0.000  0.000     1.254     1.754
 484   1 H      0.056  0.944  0.000  0.000     2.247     2.344
 485   1 H      0.050  0.950  0.000  0.000     2.318     2.381
 486   1 H      0.072  0.928  0.000  0.000     2.059     2.244
 487   1 H      0.066  0.934  0.000  0.000     2.133     2.284
 488   1 H      0.038  0.962  0.000  0.000     2.475     2.460
 489   1 H      0.074  0.926  0.000  0.000     2.041     2.235
 490   1 H      0.085  0.915  0.000  0.000     1.927     2.171
 491   1 H      0.222  0.778  0.000  0.000     1.001     1.568
 492   1 H      0.227  0.773  0.000  0.000     0.976     1.548
 493   1 H      0.277  0.723  0.000  0.000     0.786     1.389
 494   1 H      0.223  0.777  0.000  0.000     0.996     1.564
 495   1 H      0.268  0.732  0.000  0.000     0.818     1.417
 496   7 N     -0.401  1.309  4.092  0.000    30.388     8.187
 497   6 C      0.045  1.052  2.903  0.000    19.837     6.344
 498   6 C      0.208  1.084  2.707  0.000    23.581     7.953
 499   8 O     -0.376  1.739  4.637  0.000    21.203     6.174
 500   6 C     -0.048  1.056  2.992  0.000    21.422     6.587
 501   6 C     -0.097  1.068  3.029  0.000    22.353     6.732
 502   6 C      0.374  1.020  2.606  0.000    20.664     7.440
 503   8 O     -0.613  1.753  4.860  0.000    26.443     6.894
 504   8 O     -0.650  1.779  4.872  0.000    27.385     7.016
 505   1 H      0.179  0.821  0.000  0.000     1.218     1.729
 506   1 H      0.033  0.967  0.000  0.000     2.549     2.497
 507   1 H      0.051  0.949  0.000  0.000     2.301     2.372
 508   1 H      0.035  0.965  0.000  0.000     2.514     2.479
 509   1 H      0.038  0.962  0.000  0.000     2.471     2.458
 510   1 H      0.009  0.991  0.000  0.000     2.911     2.668
 511   7 N     -0.389  1.315  4.074  0.000    30.064     8.143
 512   6 C      0.029  1.054  2.917  0.000    20.090     6.383
 513   6 C      0.300  1.033  2.667  0.000    21.915     7.667
 514   8 O     -0.449  1.719  4.730  0.000    22.689     6.386
 515   6 C     -0.067  1.065  3.002  0.000    21.767     6.640
 516   6 C      0.008  1.051  2.941  0.000    20.414     6.426
 517   6 C     -0.095  1.035  3.060  0.000    22.379     6.746
 518   6 C     -0.090  1.037  3.054  0.000    22.284     6.731
 519   1 H      0.157  0.843  0.000  0.000     1.356     1.824
 520   1 H      0.048  0.952  0.000  0.000     2.344     2.394
 521   1 H      0.037  0.963  0.000  0.000     2.493     2.469
 522   1 H      0.033  0.967  0.000  0.000     2.550     2.497
 523   1 H      0.009  0.991  0.000  0.000     2.913     2.669
 524   1 H      0.032  0.968  0.000  0.000     2.554     2.499
 525   1 H      0.033  0.967  0.000  0.000     2.547     2.496
 526   1 H      0.024  0.976  0.000  0.000     2.679     2.560
 527   1 H      0.037  0.963  0.000  0.000     2.495     2.470
 528   1 H      0.022  0.978  0.000  0.000     2.707     2.573
 529   1 H      0.036  0.964  0.000  0.000     2.500     2.472
 530   7 N     -0.184  1.258  3.927  0.000    24.993     7.425
 531   6 C      0.056  1.039  2.905  0.000    19.638     6.308
 532   6 C      0.185  1.098  2.716  0.000    24.034     8.031
 533   8 O     -0.438  1.817  4.621  0.000    22.462     6.354
 534   6 C     -0.070  1.055  3.015  0.000    21.820     6.647
 535   6 C     -0.097  1.067  3.030  0.000    22.366     6.735
 536   6 C      0.374  1.016  2.611  0.000    20.670     7.440
 537   8 O     -0.567  1.733  4.834  0.000    25.314     6.746
 538   8 O     -0.599  1.753  4.846  0.000    26.095     6.849
 539   1 H      0.212  0.788  0.000  0.000     1.047     1.603
 540   1 H      0.063  0.937  0.000  0.000     2.160     2.298
 541   1 H      0.059  0.941  0.000  0.000     2.209     2.324
 542   1 H      0.079  0.921  0.000  0.000     1.985     2.203
 543   1 H      0.023  0.977  0.000  0.000     2.688     2.564
 544   1 H      0.029  0.971  0.000  0.000     2.600     2.521
 545   7 N     -0.418  1.330  4.088  0.000    30.878     8.253
 546   6 C      0.046  1.059  2.895  0.000    19.822     6.344
 547   6 C      0.218  1.074  2.707  0.000    23.393     7.922
 548   8 O     -0.387  1.730  4.657  0.000    21.428     6.206
 549   6 C     -0.035  1.054  2.981  0.000    21.200     6.556
 550   6 C     -0.097  1.068  3.029  0.000    22.354     6.733
 551   6 C      0.383  1.015  2.602  0.000    20.514     7.412
 552   8 O     -0.614  1.748  4.866  0.000    26.462     6.897
 553   8 O     -0.647  1.747  4.900  0.000    27.315     7.007
 554   1 H      0.191  0.809  0.000  0.000     1.152     1.682
 555   1 H      0.021  0.979  0.000  0.000     2.726     2.582
 556   1 H      0.013  0.987  0.000  0.000     2.846     2.638
 557   1 H      0.026  0.974  0.000  0.000     2.643     2.542
 558   1 H      0.049  0.951  0.000  0.000     2.337     2.391
 559   1 H     -0.014  1.014  0.000  0.000     3.311     2.846
 560   7 N     -0.381  1.309  4.072  0.000    29.854     8.115
 561   6 C      0.033  1.063  2.904  0.000    20.033     6.375
 562   6 C      0.196  1.094  2.710  0.000    23.815     7.992
 563   8 O     -0.354  1.748  4.606  0.000    20.779     6.112
 564   6 C     -0.054  1.060  2.994  0.000    21.547     6.609
 565   6 C     -0.101  1.081  3.020  0.000    22.426     6.743
 566   6 C      0.367  1.028  2.605  0.000    20.769     7.458
 567   8 O     -0.616  1.752  4.865  0.000    26.519     6.904
 568   8 O     -0.659  1.796  4.864  0.000    27.627     7.047
 569   1 H      0.154  0.846  0.000  0.000     1.375     1.837
 570   1 H      0.063  0.937  0.000  0.000     2.160     2.299
 571   1 H      0.021  0.979  0.000  0.000     2.714     2.576
 572   1 H      0.044  0.956  0.000  0.000     2.391     2.418
 573   1 H      0.038  0.962  0.000  0.000     2.471     2.458
 574   1 H      0.015  0.985  0.000  0.000     2.804     2.619
 575   7 N     -0.401  1.311  4.090  0.000    30.412     8.190
 576   6 C      0.045  1.050  2.905  0.000    19.847     6.346
 577   6 C      0.201  1.096  2.703  0.000    23.716     7.976
 578   8 O     -0.391  1.762  4.629  0.000    21.503     6.217
 579   6 C     -0.133  1.049  3.084  0.000    23.125     6.858
 580   1 H      0.195  0.805  0.000  0.000     1.133     1.668
 581   1 H      0.044  0.956  0.000  0.000     2.403     2.424
 582   1 H      0.046  0.954  0.000  0.000     2.366     2.406
 583   1 H      0.072  0.928  0.000  0.000     2.058     2.244
 584   1 H      0.063  0.937  0.000  0.000     2.169     2.303
 585   1 H      0.173  0.827  0.000  0.000     1.256     1.756
 586   1 H      0.067  0.933  0.000  0.000     2.122     2.278
 587   1 H      0.200  0.800  0.000  0.000     1.107     1.648
 588   1 H      0.091  0.909  0.000  0.000     1.866     2.136
 589   1 H      0.176  0.824  0.000  0.000     1.236     1.742
 590   1 H      0.062  0.938  0.000  0.000     2.180     2.309
 591   1 H      0.183  0.817  0.000  0.000     1.198     1.714
 592   1 H      0.082  0.918  0.000  0.000     1.962     2.190
 593   1 H      0.180  0.820  0.000  0.000     1.211     1.724
 594   1 H      0.068  0.932  0.000  0.000     2.112     2.272
 595   1 H      0.192  0.808  0.000  0.000     1.147     1.677
 596   1 H      0.071  0.929  0.000  0.000     2.075     2.252
 597   1 H      0.167  0.833  0.000  0.000     1.292     1.781
 598   1 H      0.059  0.941  0.000  0.000     2.207     2.323
 599   1 H      0.181  0.819  0.000  0.000     1.211     1.723
 600   1 H      0.067  0.933  0.000  0.000     2.120     2.277
 601   1 H      0.156  0.844  0.000  0.000     1.358     1.825
 602   1 H      0.075  0.925  0.000  0.000     2.034     2.230
 603   1 H      0.181  0.819  0.000  0.000     1.210     1.723
 604   1 H      0.093  0.907  0.000  0.000     1.853     2.128
 605   1 H      0.181  0.819  0.000  0.000     1.211     1.723
 606   1 H      0.077  0.923  0.000  0.000     2.013     2.218
 607   1 H      0.192  0.808  0.000  0.000     1.147     1.677
 608   1 H      0.071  0.929  0.000  0.000     2.069     2.249
 609   1 H      0.171  0.829  0.000  0.000     1.264     1.761
 610   1 H      0.073  0.927  0.000  0.000     2.049     2.238

 Mol. C6AA /au·bohr⁶  :    3254778.543161
 Mol. C8AA /au·bohr⁸  :   71004334.778190
 Mol. α(0) /au        :       2685.072814

 
molecular dipole:
                 x           y           z       tot (Debye)
 q only:      -26.325      36.727      36.943
   full:      -30.459      33.458      36.082     147.098
molecular quadrupole (traceless):
                xx          xy          yy          xz          yz          zz
 q only:    -4068.702   -7176.052   11424.556     -38.368    7492.346   -7355.854
  q+dip:    -3660.204   -8171.829   10499.659      80.214    7488.555   -6839.455
   full:    -3658.553   -8166.929   10499.465      88.097    7488.977   -6840.912
speedup  1.46
cpu  time for grad    1 m 13.4 s
wall time for grad    0 m 50.3 s

SCC energy    :    -935.4248589
rep           :      11.3379597
ES            :       3.2714582
AES           :      -0.1706308
AXC           :       0.3146749
disp          :      -0.7705309
XB            :       0.0000000
fix           :       0.0000000
Gborn         :       0.0000000
Gsasa         :       0.0000000
Ghb           :       0.0000000
Gshift        :       0.0000000
Gsolv         :      -0.9142170     -573.68
Etot ala COSMO:    -935.4248589
grad norm     :       0.9292634
total E       :    -924.0195937
atomizationE  :     166.1495816   104260.44
(atE without considering molecular charge,
 total energy contains solvation terms)
H-L gap (eV)  :          1.1030

------------------------------------------------------------------------
 * finished run on 2019/05/11 at 21:01:14.207     
------------------------------------------------------------------------
 total:
 * wall-time:     0 d,  0 h,  0 min, 51.937 sec
 *  cpu-time:     0 d,  0 h,  1 min, 15.516 sec
 * ratio c/w:     1.454 speedup
 SCF:
 * wall-time:     0 d,  0 h,  0 min, 51.256 sec
 *  cpu-time:     0 d,  0 h,  1 min, 14.855 sec
 * ratio c/w:     1.460 speedup

