      -----------------------------------------------------------      
     |                   =====================                   |     
     |                           x T B                           |     
     |                   =====================                   |     
     |                         S. Grimme                         |     
     |          Mulliken Center for Theoretical Chemistry        |     
     |                    University of Bonn                     |     
     |                 Version 6.0.1 (SAW181210)                 |     
      -----------------------------------------------------------      

   This program is distributed in the hope that it will be useful,
   but WITHOUT ANY WARRANTY; without even the implied warranty of
   MERCHANTABILITY or FITNESS FOR A PARTICULAR PURPOSE.
   
   FOR NON-COMMERCIAL, ACADEMIA USE ONLY.
   
   Cite this work as:
   S. Grimme, C. Bannwarth, P. Shushkov, J. Comput. Theory Chem., 2017,
   13, 1989-2009.
   C. Bannwarth, S. Ehlert and S. Grimme., ChemRxiv, 2018, preprint.
   http://doi.org/10.26434/chemrxiv.7246238.v1
   
   for sTDA-xTB:
   S. Grimme and C. Bannwarth, J. Chem. Phys., 2016, 145, 054103.
   
   in the mass-spec context:
   V. Asgeirsson, C. Bauer and S. Grimme, Chem. Sci., 2017, 8, 4879.
   
   if GBSA is used:
   P. Shushkov, F. März and S. Grimme, unpublished.
   
   for ANC optimizer:
   S. Grimme, unpublished.
   Rational Function algorithm used in ANCopt:
   F. Eckert, P. Pulay, H.-J. Werner, J. Comput. Chem., 1997, 18, 1473.
   
   with help from (in alphabetical order)
   C. Bannwarth, F. Bohle, G. Brandenburg, E. Caldeweyher, M. Checinski,
   S. Dohm, S. Ehlert, S. Ehrlich, F. März, H. Neugebauer, J. Pisarek,
   P. Pracht, P. Shushkov, and S. Spicher.
   
 * started run on 2019/05/11 at 04:46:51.500     
========================================================================
 # omp threads = 2
========================================================================
number of atoms            : 388
number of electrons        : 1028
charge                     : -1
spin                       : .0
first test random number   : .0720

########################################################################
# WARNING! Please study the warnings concerning your input carefully
#  - Process number higher than OMP_NUM_THREADS, I hope you know what you are doing.
########################################################################

           ------------------------------------------------- 
          |                 G F N 2 - x T B                 |
          | Geometry, Frequencies, Noncovalent interactions |
          |            JCTC 2018 parametrisation            |
           ------------------------------------------------- 
 
      method parameters     
 k(s)        :  1.8500
 k(p)        :  2.2300
 k(d)        :  2.2300
 k(f)        :  2.0000
 kEN (H0ij)  : -2.0000
 D4 a1       :  0.5200
 D4 a2       :  5.0000
 D4 s6       :  1.0000
 D4 s8       :  2.7000
 D4 s9       :  5.0000
 alphaj      :  2.0000

 Solvent             : h2o
 Using internal parameter file: .param_gbsa2_h2o
 Gsolv ref. state (COSMO-RS): gsolv [1 M gas/solution]
 temperature (mdtemp)       :    298.150000000000     
 dielectric constant        :    80.2000000000000     
 rho                        :    1.00000000000000     
 mass                       :    18.0000000000000     
 surface tension            :    15.5689454083859     
 probe radius               :   0.975313790000000     
 vdW radii scaling          :    1.00000000000000     
 Gshift (Eh)                :   1.857443126794793E-003
 c1                         :    1.55243817000000     
 soset                      :   0.130326360000000     
 HB correction              :  T

            Z     q(EN)     CN     RAES       Cart. coordinates
     1  N   5.0   -0.21    3.15    1.95    78.11409   117.01264   -32.98878
     2  C   4.0    0.03    4.24    4.08    80.47884   117.93894   -34.00273
     3  C   4.0    0.08    3.27    3.05    82.79891   117.11210   -32.49388
     4  O   6.0   -0.29    1.12    1.80    84.41472   115.79032   -33.53801
     5  C   4.0   -0.05    4.38    4.35    80.85467   120.80015   -34.09935
     6  C   4.0   -0.03    4.15    3.91    79.61085   122.29231   -36.24004
     7  C   4.0   -0.08    4.10    3.81    81.12147   124.73053   -36.68909
     8  C   4.0   -0.08    4.13    3.85    79.40888   120.77662   -38.66812
     9  H   1.0    0.08    1.02    1.43    77.18037   118.27251   -31.86985
    10  H   1.0    0.05    1.06    1.44    80.73244   117.08258   -35.87239
    11  H   1.0    0.04    1.03    1.43    80.29826   121.59490   -32.28410
    12  H   1.0    0.06    1.06    1.44    82.89952   121.06598   -34.27729
    13  H   1.0    0.03    1.05    1.44    77.69006   122.80084   -35.64637
    14  H   1.0    0.03    1.00    1.43    80.25706   125.85429   -38.17561
    15  H   1.0    0.04    1.00    1.43    81.18185   125.85453   -34.96727
    16  H   1.0    0.04    1.00    1.43    83.04669   124.29853   -37.22836
    17  H   1.0    0.04    1.00    1.43    78.64307   121.94005   -40.17990
    18  H   1.0    0.04    1.00    1.43    81.27145   120.12456   -39.23627
    19  H   1.0    0.04    1.01    1.43    78.19049   119.14378   -38.43909
    20  N   5.0   -0.19    3.21    1.96    90.83581   116.79594   -36.97887
    21  C   4.0    0.03    4.38    4.35    90.04661   119.33008   -37.65416
    22  C   4.0    0.15    3.40    3.08    89.91517   121.10410   -35.32605
    23  O   6.0   -0.29    1.23    1.80    88.03326   121.20959   -33.99465
    24  C   4.0   -0.01    4.37    4.32    87.42132   119.23986   -38.88855
    25  C   4.0   -0.05    4.19    3.98    87.24225   117.36947   -41.10571
    26  C   4.0   -0.07    4.16    3.92    86.69913   121.90389   -39.70050
    27  C   4.0   -0.08    4.02    3.65    84.80744   115.83526   -41.00548
    28  H   1.0    0.08    1.03    1.43    90.11167   115.36135   -38.05816
    29  H   1.0    0.03    1.05    1.44    91.43525   120.09849   -38.98481
    30  H   1.0    0.06    1.06    1.44    86.13336   118.61275   -37.38813
    31  H   1.0    0.03    1.04    1.43    87.28628   118.40178   -42.87988
    32  H   1.0    0.04    1.04    1.43    88.81109   116.04294   -41.11172
    33  H   1.0    0.03    1.00    1.43    84.86102   121.91026   -40.61790
    34  H   1.0    0.07    1.01    1.43    86.61960   123.14384   -38.06941
    35  H   1.0    0.04    1.03    1.43    88.09149   122.67378   -40.96569
    36  H   1.0    0.04    1.00    1.43    84.86428   114.26633   -42.32873
    37  H   1.0    0.05    1.00    1.43    84.53956   115.07030   -39.11963
    38  H   1.0    0.04    1.00    1.43    83.16113   116.98887   -41.44498
    39  N   5.0   -0.14    3.42    2.03    91.92046   122.68117   -35.02406
    40  C   4.0    0.03    4.35    4.29    91.76794   125.10272   -33.68065
    41  C   4.0    0.15    3.51    3.12    90.01946   126.93209   -35.13945
    42  O   6.0   -0.30    1.33    1.80    89.44505   126.55165   -37.35835
    43  C   4.0   -0.03    4.25    4.09    94.39644   126.31562   -33.56661
    44  C   4.0    0.24    3.15    3.03    94.56122   128.83203   -31.95140
    45  O   6.0   -0.30    1.18    1.80    94.75435   128.57547   -29.62046
    46  O   6.0   -0.29    1.17    1.80    94.50268   130.85398   -33.14836
    47  H   1.0    0.07    1.07    1.44    93.23246   122.69405   -36.40876
    48  H   1.0    0.05    1.05    1.44    91.01951   124.76944   -31.78234
    49  H   1.0    0.05    1.02    1.43    95.73926   124.97848   -32.75397
    50  H   1.0    0.05    1.02    1.43    94.97756   126.78453   -35.49573
    51  N   5.0   -0.09    3.65    2.21    89.23294   129.01765   -33.94847
    52  C   4.0    0.03    4.57    4.63    87.62292   130.78136   -35.34396
    53  C   4.0    0.16    3.40    3.08    88.69448   131.63407   -37.92404
    54  O   6.0   -0.31    1.28    1.80    87.99846   130.73406   -39.92786
    55  C   4.0   -0.05    4.34    4.28    87.14780   132.96482   -33.44798
    56  C   4.0   -0.03    4.25    4.09    89.01514   132.51519   -31.27617
    57  C   4.0   -0.01    4.40    4.38    89.20173   129.64448   -31.26257
    58  H   1.0    0.05    1.05    1.44    85.86078   129.78789   -35.82635
    59  H   1.0    0.05    1.02    1.43    87.39612   134.82663   -34.27497
    60  H   1.0    0.04    1.02    1.43    85.22374   132.81590   -32.72127
    61  H   1.0    0.08    1.03    1.43    90.86723   133.30925   -31.69553
    62  H   1.0    0.05    1.02    1.43    88.35616   133.26632   -29.47982
    63  H   1.0    0.07    1.07    1.44    90.84337   128.94363   -30.26690
    64  H   1.0    0.04    1.02    1.43    87.50762   128.79884   -30.40390
    65  N   5.0   -0.13    3.47    2.06    90.30036   133.60785   -37.74978
    66  C   4.0    0.03    4.36    4.30    90.26243   135.83053   -39.38676
    67  C   4.0    0.16    3.46    3.10    90.06107   135.07311   -42.19126
    68  O   6.0   -0.32    1.33    1.80    88.14500   135.21450   -43.47687
    69  C   4.0   -0.04    4.29    4.18    92.58336   137.50863   -38.82751
    70  C   4.0    0.15    3.20    3.04    92.84920   138.37324   -36.05627
    71  O   6.0   -0.30    1.23    1.80    91.66632   137.46609   -34.29716
    72  N   5.0   -0.19    3.18    1.95    94.52668   140.24453   -35.73907
    73  H   1.0    0.10    1.11    1.45    90.86832   134.07445   -35.97390
    74  H   1.0    0.05    1.05    1.44    88.55046   136.93285   -38.94323
    75  H   1.0    0.05    1.03    1.43    94.32889   136.49437   -39.24501
    76  H   1.0    0.04    1.03    1.43    92.48556   139.18078   -40.03051
    77  H   1.0    0.10    1.03    1.43    94.93423   140.78517   -33.95605
    78  H   1.0    0.08    1.03    1.43    95.64452   140.84427   -37.15548
    79  N   5.0   -0.15    3.54    2.10    92.24410   134.32346   -43.18265
    80  C   4.0    0.03    4.42    4.42    92.49228   133.69753   -45.82966
    81  C   4.0    0.17    3.60    3.16    90.22726   132.19448   -46.72008
    82  O   6.0   -0.32    1.42    1.80    89.13902   132.64932   -48.71225
    83  C   4.0   -0.04    4.31    4.22    94.86442   132.05092   -46.10540
    84  C   4.0   -0.03    4.14    3.88    95.52879   131.18561   -48.77152
    85  C   4.0    0.25    3.08    3.02    97.49436   128.92757   -48.61127
    86  O   6.0   -0.30    1.17    1.80    96.74699   126.99281   -47.49104
    87  O   6.0   -0.29    1.15    1.80    99.60435   129.26244   -49.59902
    88  H   1.0    0.08    1.08    1.44    93.75424   134.00339   -42.06415
    89  H   1.0    0.05    1.05    1.44    92.65272   135.42505   -46.96420
    90  H   1.0    0.05    1.03    1.43    96.48317   133.08429   -45.34510
    91  H   1.0    0.06    1.04    1.43    94.61356   130.35061   -44.95368
    92  H   1.0    0.05    1.02    1.43    93.85866   130.46513   -49.74584
    93  H   1.0    0.05    1.02    1.43    96.36538   132.70320   -49.88353
    94  N   5.0   -0.14    3.66    2.22    89.68041   130.18448   -45.32550
    95  C   4.0    0.03    4.53    4.58    87.91120   128.35030   -46.26828
    96  C   4.0    0.16    3.62    3.18    85.44356   129.67720   -46.70147
    97  O   6.0   -0.32    1.44    1.80    84.05345   129.32915   -48.52663
    98  C   4.0   -0.05    4.37    4.32    87.80682   126.19419   -44.38348
    99  C   4.0   -0.02    4.21    4.02    90.27161   124.66155   -44.64722
   100  C   4.0   -0.07    4.08    3.77    91.94109   124.72646   -42.28099
   101  C   4.0   -0.08    4.10    3.80    89.66195   121.98284   -45.54825
   102  H   1.0    0.09    1.08    1.44    90.41066   129.90773   -43.58775
   103  H   1.0    0.05    1.06    1.44    88.56885   127.65463   -48.11481
   104  H   1.0    0.06    1.03    1.43    87.57247   126.96046   -42.48660
   105  H   1.0    0.04    1.03    1.43    86.16365   125.02784   -44.81271
   106  H   1.0    0.05    1.07    1.44    91.40224   125.54333   -46.14121
   107  H   1.0    0.04    1.00    1.43    92.24411   122.84130   -41.53164
   108  H   1.0    0.05    1.00    1.43    93.78011   125.52784   -42.75017
   109  H   1.0    0.07    1.02    1.43    91.12087   125.85937   -40.78583
   110  H   1.0    0.04    1.00    1.43    91.13595   120.66001   -45.02938
   111  H   1.0    0.03    1.01    1.43    87.88576   121.34298   -44.75629
   112  H   1.0    0.04    1.00    1.43    89.46408   121.95764   -47.59519
   113  N   5.0   -0.13    3.72    2.30    84.88075   131.29688   -44.90184
   114  C   4.0    0.04    4.51    4.55    82.62202   132.75082   -45.22891
   115  C   4.0    0.17    3.59    3.16    82.78936   133.86933   -47.89724
   116  O   6.0   -0.30    1.29    1.80    81.20038   133.55795   -49.54251
   117  C   4.0   -0.05    4.34    4.27    82.38362   134.65481   -43.08508
   118  C   4.0   -0.02    4.24    4.08    83.24836   133.60763   -40.51169
   119  C   4.0   -0.07    4.11    3.83    82.40440   135.37073   -38.38790
   120  C   4.0   -0.07    4.14    3.89    82.29579   130.94873   -39.96224
   121  H   1.0    0.11    1.12    1.45    86.05668   131.65221   -43.44668
   122  H   1.0    0.05    1.05    1.44    80.98876   131.46786   -45.24317
   123  H   1.0    0.05    1.03    1.43    83.50961   136.32730   -43.50779
   124  H   1.0    0.03    1.03    1.43    80.40976   135.23374   -42.95209
   125  H   1.0    0.07    1.10    1.44    85.29614   133.61645   -40.50521
   126  H   1.0    0.04    1.00    1.43    83.26728   134.81113   -36.61164
   127  H   1.0    0.04    1.00    1.43    82.95873   137.31008   -38.78426
   128  H   1.0    0.05    1.00    1.43    80.36658   135.32688   -38.14602
   129  H   1.0    0.04    1.00    1.43    82.66008   130.47547   -37.99828
   130  H   1.0    0.03    1.00    1.43    80.25942   130.86963   -40.25310
   131  H   1.0    0.05    1.01    1.43    83.18782   129.52611   -41.13311
   132  N   5.0   -0.14    3.57    2.13    84.87604   135.23561   -48.27977
   133  C   4.0    0.05    4.46    4.47    85.21714   136.43984   -50.69994
   134  C   4.0    0.18    3.57    3.15    85.00540   134.55967   -52.87547
   135  O   6.0   -0.29    1.40    1.80    84.11609   135.21340   -54.91043
   136  C   4.0   -0.03    4.30    4.20    87.74020   137.84047   -50.80930
   137  C   4.0    0.15    3.21    3.04    87.93302   139.55749   -53.13539
   138  O   6.0   -0.27    1.21    1.80    87.85660   138.78977   -55.30557
   139  N   5.0   -0.19    3.18    1.95    88.22840   142.02214   -52.58318
   140  H   1.0    0.11    1.09    1.44    86.22311   135.37636   -46.93170
   141  H   1.0    0.05    1.06    1.44    83.66443   137.79586   -50.99410
   142  H   1.0    0.04    1.03    1.43    87.93550   138.95494   -49.08799
   143  H   1.0    0.06    1.03    1.43    89.25989   136.45019   -50.89834
   144  H   1.0    0.09    1.03    1.43    88.52900   143.23845   -54.01988
   145  H   1.0    0.08    1.03    1.43    88.52341   142.63045   -50.80694
   146  N   5.0   -0.13    3.59    2.15    85.82231   132.21447   -52.45241
   147  C   4.0    0.04    4.45    4.46    85.87886   130.46269   -54.54082
   148  C   4.0    0.17    3.59    3.16    83.35255   130.54365   -55.90655
   149  O   6.0   -0.31    1.21    1.80    83.13523   130.42537   -58.21171
   150  C   4.0    0.04    4.19    3.98    86.26123   127.72780   -53.65535
   151  O   6.0   -0.26    2.11    1.84    84.09289   126.62005   -52.67072
   152  H   1.0    0.13    1.14    1.45    86.89471   131.87381   -50.90274
   153  H   1.0    0.05    1.05    1.44    87.38039   130.97027   -55.88370
   154  H   1.0    0.04    1.02    1.43    86.80632   126.60282   -55.30258
   155  H   1.0    0.04    1.01    1.43    87.84186   127.70041   -52.30102
   156  H   1.0    0.16    1.10    1.44    83.76365   127.40469   -51.03003
   157  N   5.0   -0.13    3.62    2.17    81.42414   130.52351   -54.28840
   158  C   4.0    0.04    4.42    4.42    78.84910   130.63297   -55.10197
   159  C   4.0    0.16    3.37    3.07    77.86174   133.39030   -55.17911
   160  O   6.0   -0.31    1.23    1.80    75.79918   133.94333   -54.31891
   161  C   4.0   -0.03    4.36    4.31    77.20283   128.93657   -53.44700
   162  C   4.0   -0.04    4.05    3.70    76.63357   126.41634   -54.69143
   163  S   6.0   -0.04    2.60    3.10    74.34074   124.56308   -52.92629
   164  C   4.0   -0.07    3.90    3.46    71.82430   126.86860   -52.46971
   165  H   1.0    0.12    1.11    1.44    81.74788   130.88323   -52.43727
   166  H   1.0    0.06    1.07    1.44    78.81814   129.98336   -57.07573
   167  H   1.0    0.05    1.03    1.43    78.14624   128.64998   -51.63577
   168  H   1.0    0.06    1.06    1.44    75.46316   129.98758   -53.10481
   169  H   1.0    0.04    1.07    1.44    75.88471   126.68995   -56.59268
   170  H   1.0    0.05    1.07    1.44    78.32562   125.24613   -54.78473
   171  H   1.0    0.04    1.05    1.44    70.33314   125.90747   -51.44704
   172  H   1.0    0.04    1.04    1.43    72.50197   128.41567   -51.30513
   173  H   1.0    0.04    1.04    1.43    71.17824   127.55499   -54.28838
   174  N   5.0   -0.14    3.50    2.08    79.35263   134.97606   -56.50100
   175  C   4.0    0.04    4.31    4.21    78.73284   137.60671   -56.99521
   176  C   4.0    0.15    3.39    3.08    79.87951   138.57041   -59.49791
   177  O   6.0   -0.30    1.23    1.80    79.82062   140.82424   -60.01472
   178  C   4.0   -0.05    4.10    3.81    79.56908   139.37893   -54.86217
   179  H   1.0    0.12    1.14    1.45    81.22980   134.59358   -56.50714
   180  H   1.0    0.06    1.05    1.44    76.66726   137.69961   -57.17065
   181  H   1.0    0.05    1.00    1.43    78.96349   141.29100   -55.29201
   182  H   1.0    0.05    1.00    1.43    78.74718   138.75379   -53.08555
   183  H   1.0    0.07    1.00    1.43    81.61875   139.32511   -54.72231
   184  N   5.0   -0.14    3.44    2.04    80.82889   136.79086   -61.05025
   185  C   4.0    0.04    4.31    4.22    82.22063   137.47695   -63.31007
   186  C   4.0    0.15    3.37    3.07    82.24039   135.55260   -65.50928
   187  O   6.0   -0.28    1.22    1.80    82.18968   136.35091   -67.68785
   188  C   4.0   -0.06    4.11    3.82    84.96415   138.08533   -62.59542
   189  H   1.0    0.09    1.08    1.44    81.00772   135.01447   -60.38171
   190  H   1.0    0.07    1.06    1.44    81.32161   139.19203   -64.04405
   191  H   1.0    0.05    1.00    1.43    86.00972   138.67074   -64.26043
   192  H   1.0    0.06    1.00    1.43    84.98421   139.59466   -61.20123
   193  H   1.0    0.06    1.00    1.43    85.86475   136.43093   -61.77124
   194  N   5.0   -0.13    3.42    2.03    82.60563   133.11403   -64.95941
   195  C   4.0    0.04    4.28    4.15    82.84535   131.17903   -66.89784
   196  C   4.0    0.26    3.16    3.03    80.36065   130.83800   -68.52475
   197  O   6.0   -0.29    1.17    1.80    80.66982   129.75220   -70.58695
   198  C   4.0   -0.07    4.10    3.80    83.56501   128.67286   -65.68606
   199  O   6.0   -0.27    1.18    1.80    78.35426   131.60725   -67.59602
   200  H   1.0    0.09    1.07    1.44    82.51532   132.50191   -63.15557
   201  H   1.0    0.06    1.05    1.44    84.29401   131.79530   -68.24970
   202  H   1.0    0.05    1.00    1.43    83.45972   127.19724   -67.11181
   203  H   1.0    0.05    1.00    1.43    85.46809   128.75169   -64.91277
   204  H   1.0    0.06    1.00    1.43    82.24706   128.23155   -64.17055
   205  N   5.0   -0.22    3.18    1.95    91.51923   107.47975   -53.46513
   206  C   4.0    0.03    4.23    4.06    90.93567   109.72800   -51.95961
   207  C   4.0    0.07    3.21    3.04    88.66146   111.07869   -53.11584
   208  O   6.0   -0.31    1.11    1.80    86.85085   111.73570   -51.81948
   209  C   4.0   -0.05    4.25    4.11    93.15383   111.52377   -51.61813
   210  C   4.0   -0.05    4.20    4.01    92.97929   112.73301   -49.01411
   211  C   4.0   -0.02    4.18    3.97    95.46386   114.03139   -48.34305
   212  N   5.0   -0.15    3.36    2.00    95.42330   114.97281   -45.75078
   213  C   4.0    0.09    3.31    3.06    95.39099   117.37144   -44.91983
   214  N   5.0   -0.19    3.24    1.97    95.78130   119.34066   -46.43692
   215  N   5.0   -0.20    3.23    1.96    94.90740   117.88758   -42.46726
   216  H   1.0    0.07    1.02    1.43    93.27676   106.71064   -53.30547
   217  H   1.0    0.04    1.06    1.44    90.28418   109.08252   -50.09389
   218  H   1.0    0.04    1.03    1.43    94.89025   110.41127   -51.72699
   219  H   1.0    0.04    1.02    1.43    93.17992   112.93640   -53.11814
   220  H   1.0    0.05    1.02    1.43    91.42119   114.08052   -48.96348
   221  H   1.0    0.04    1.03    1.43    92.59926   111.26871   -47.61249
   222  H   1.0    0.04    1.02    1.43    97.01488   112.67308   -48.49733
   223  H   1.0    0.04    1.03    1.43    95.82738   115.57464   -49.65498
   224  H   1.0    0.07    1.07    1.44    95.11089   113.60852   -44.44827
   225  H   1.0    0.08    1.03    1.43    96.04675   119.14207   -48.31059
   226  H   1.0    0.09    1.03    1.43    95.75393   121.13381   -45.78785
   227  H   1.0    0.08    1.03    1.43    94.83411   116.47506   -41.19392
   228  H   1.0    0.08    1.03    1.43    95.31916   119.63078   -41.81764
   229  N   5.0   -0.22    3.24    1.96    80.86096   114.91808   -52.32991
   230  C   4.0    0.03    4.29    4.18    79.77021   117.19009   -53.38744
   231  C   4.0    0.07    3.23    3.04    77.31915   116.68754   -54.76485
   232  O   6.0   -0.32    1.17    1.80    75.69114   118.31886   -54.87884
   233  C   4.0   -0.05    4.37    4.33    81.62151   118.45521   -55.15032
   234  C   4.0   -0.02    4.18    3.97    83.55246   120.03283   -53.67319
   235  C   4.0   -0.08    4.13    3.85    84.28414   118.99352   -51.05972
   236  C   4.0   -0.08    4.11    3.82    85.87620   120.36723   -55.35967
   237  H   1.0    0.09    1.03    1.43    82.68060   114.47909   -52.68749
   238  H   1.0    0.04    1.06    1.44    79.24430   118.50113   -51.86143
   239  H   1.0    0.04    1.04    1.43    82.53483   117.01253   -56.28890
   240  H   1.0    0.05    1.03    1.43    80.58406   119.70400   -56.41920
   241  H   1.0    0.05    1.06    1.44    82.74211   121.90875   -53.34137
   242  H   1.0    0.04    1.00    1.43    85.60313   120.31698   -50.20009
   243  H   1.0    0.04    1.00    1.43    82.68257   118.82007   -49.79189
   244  H   1.0    0.05    1.00    1.43    85.23909   117.17688   -51.19568
   245  H   1.0    0.04    1.00    1.43    87.14152   121.77671   -54.55992
   246  H   1.0    0.04    1.00    1.43    86.91574   118.60678   -55.52705
   247  H   1.0    0.04    1.00    1.43    85.30055   121.01431   -57.21958
   248  N   5.0   -0.20    3.26    1.97    72.22559   115.28312   -49.23698
   249  C   4.0    0.03    4.32    4.24    71.75142   117.73019   -48.16167
   250  C   4.0    0.15    3.46    3.10    70.27799   119.35327   -50.01717
   251  O   6.0   -0.31    1.41    1.80    68.18975   120.14324   -49.30813
   252  C   4.0   -0.04    4.27    4.15    74.23401   118.76898   -47.10879
   253  C   4.0   -0.02    3.51    3.12    75.07718   117.18747   -44.83355
   254  C   4.0   -0.05    3.46    3.10    74.26032   117.78081   -42.39931
   255  C   4.0   -0.05    3.45    3.09    76.66239   115.07403   -45.02516
   256  C   4.0   -0.05    3.43    3.09    74.97086   116.40039   -40.28083
   257  C   4.0   -0.05    3.42    3.08    77.41655   113.68109   -42.93191
   258  C   4.0    0.06    3.42    3.08    76.58490   114.32969   -40.51469
   259  O   6.0   -0.25    2.09    1.84    77.27255   113.03019   -38.41199
   260  H   1.0    0.08    1.03    1.43    74.00140   114.95200   -49.86096
   261  H   1.0    0.05    1.06    1.44    70.41676   117.46200   -46.58528
   262  H   1.0    0.04    1.03    1.43    75.65795   118.70029   -48.59443
   263  H   1.0    0.04    1.03    1.43    73.95784   120.72073   -46.51387
   264  H   1.0    0.04    1.03    1.43    73.02798   119.38569   -42.12731
   265  H   1.0    0.05    1.04    1.43    77.30052   114.49352   -46.85200
   266  H   1.0    0.05    1.03    1.43    74.28385   116.91028   -38.42735
   267  H   1.0    0.05    1.03    1.43    78.64599   112.06199   -43.10129
   268  H   1.0    0.11    1.02    1.43    78.35679   111.58106   -38.87539
   269  N   5.0   -0.14    3.48    2.07    71.00510   119.82978   -52.34909
   270  C   4.0    0.04    4.41    4.40    69.19115   121.17310   -53.94048
   271  C   4.0    0.10    3.30    3.05    66.47798   120.13865   -53.67149
   272  O   6.0   -0.29    1.12    1.80    64.71993   121.61872   -53.32134
   273  C   4.0   -0.05    4.27    4.13    70.05322   121.12293   -56.69629
   274  C   4.0   -0.05    4.16    3.93    68.69900   123.10407   -58.32410
   275  C   4.0   -0.01    4.17    3.94    69.24529   122.63216   -61.14827
   276  N   5.0   -0.14    3.37    2.01    68.21621   124.68112   -62.71647
   277  C   4.0    0.09    3.32    3.06    68.22275   124.85215   -65.23513
   278  N   5.0   -0.19    3.24    1.97    69.24616   123.03825   -66.65246
   279  N   5.0   -0.19    3.23    1.96    67.27033   126.92122   -66.34244
   280  H   1.0    0.11    1.09    1.44    72.63339   119.20729   -53.16513
   281  H   1.0    0.05    1.08    1.44    69.05094   123.12600   -53.28601
   282  H   1.0    0.05    1.04    1.43    72.08599   121.46574   -56.71910
   283  H   1.0    0.04    1.03    1.43    69.72403   119.23450   -57.46091
   284  H   1.0    0.05    1.03    1.43    66.67062   122.99087   -57.97824
   285  H   1.0    0.04    1.02    1.43    69.34919   124.98418   -57.79070
   286  H   1.0    0.04    1.02    1.43    71.29018   122.52383   -61.42230
   287  H   1.0    0.04    1.02    1.43    68.39679   120.82449   -61.68110
   288  H   1.0    0.07    1.07    1.44    67.33950   126.06976   -61.74067
   289  H   1.0    0.08    1.03    1.43    69.91453   121.45310   -65.84405
   290  H   1.0    0.08    1.03    1.43    69.17958   123.12412   -68.55234
   291  H   1.0    0.08    1.03    1.43    66.36200   128.25106   -65.32564
   292  H   1.0    0.08    1.03    1.43    67.10813   126.99811   -68.23715
   293  N   5.0   -0.19    3.24    1.96    63.71896   122.42712   -47.44898
   294  C   4.0    0.03    4.28    4.15    62.90643   125.02241   -47.22153
   295  C   4.0    0.08    3.29    3.05    60.32865   125.16713   -48.44032
   296  O   6.0   -0.29    1.11    1.80    58.35083   125.85513   -47.44678
   297  C   4.0   -0.05    4.37    4.34    64.54189   126.87973   -48.65127
   298  C   4.0   -0.03    4.19    3.99    66.50986   128.18401   -46.98638
   299  C   4.0   -0.08    4.18    3.96    66.34045   131.01404   -47.38510
   300  C   4.0   -0.08    4.16    3.93    66.33199   127.60512   -44.18194
   301  H   1.0    0.12    1.06    1.44    65.36898   121.94945   -48.28347
   302  H   1.0    0.04    1.07    1.44    62.67585   125.48407   -45.22527
   303  H   1.0    0.05    1.03    1.43    65.43286   125.89022   -50.22209
   304  H   1.0    0.04    1.05    1.44    63.30212   128.33084   -49.43803
   305  H   1.0    0.04    1.06    1.44    68.39008   127.56202   -47.58869
   306  H   1.0    0.03    1.01    1.43    67.61091   131.97952   -46.09878
   307  H   1.0    0.04    1.01    1.43    66.86588   131.45295   -49.31136
   308  H   1.0    0.04    1.00    1.43    64.43302   131.68274   -47.05304
   309  H   1.0    0.04    1.00    1.43    67.89899   128.52679   -43.21877
   310  H   1.0    0.04    1.00    1.43    64.59826   128.32396   -43.36547
   311  H   1.0    0.04    1.00    1.43    66.47792   125.59005   -43.81893
   312  N   5.0   -0.17    3.43    2.03    65.85941   136.52931   -48.29298
   313  C   4.0    0.03    4.38    4.35    68.45171   136.82462   -47.48246
   314  C   4.0    0.07    3.17    3.03    69.31950   139.53675   -46.87802
   315  O   6.0   -0.32    1.18    1.80    70.54404   139.80498   -44.93015
   316  C   4.0   -0.05    4.31    4.22    70.03086   135.68740   -49.61314
   317  C   4.0   -0.05    4.24    4.07    68.30109   135.71945   -51.93596
   318  C   4.0   -0.01    4.24    4.08    65.59425   135.87440   -50.93936
   319  H   1.0    0.04    1.06    1.44    68.72242   135.81980   -45.69073
   320  H   1.0    0.05    1.03    1.43    71.74046   136.77851   -49.96310
   321  H   1.0    0.04    1.02    1.43    70.60091   133.77129   -49.13654
   322  H   1.0    0.04    1.02    1.43    68.71653   137.38199   -53.07755
   323  H   1.0    0.04    1.02    1.43    68.60433   134.06684   -53.11980
   324  H   1.0    0.04    1.02    1.43    64.55540   137.36405   -51.92740
   325  H   1.0    0.03    1.02    1.43    64.54299   134.10764   -51.12891
   326  N   5.0   -0.21    3.24    1.96    73.13039   138.69651   -39.43933
   327  C   4.0    0.03    4.19    3.98    75.84314   138.51664   -39.15407
   328  C   4.0    0.07    3.16    3.03    76.74384   139.54857   -36.56186
   329  O   6.0   -0.31    1.11    1.80    77.84287   138.24419   -35.00307
   330  C   4.0   -0.05    4.29    4.18    77.11863   139.87524   -41.39337
   331  C   4.0   -0.02    4.21    4.01    75.85789   139.45823   -44.00648
   332  C   4.0   -0.08    4.10    3.81    77.64117   140.28160   -46.13738
   333  C   4.0   -0.07    4.13    3.86    75.03509   136.73909   -44.52142
   334  H   1.0    0.10    1.06    1.44    72.48217   139.17318   -41.17183
   335  H   1.0    0.04    1.05    1.44    76.35598   136.50340   -39.17981
   336  H   1.0    0.04    1.03    1.43    77.14199   141.91036   -41.05197
   337  H   1.0    0.04    1.03    1.43    79.07703   139.23261   -41.47955
   338  H   1.0    0.06    1.08    1.44    74.21922   140.69646   -44.12527
   339  H   1.0    0.04    1.00    1.43    76.66630   140.15416   -47.94216
   340  H   1.0    0.04    1.00    1.43    78.24137   142.22700   -45.87140
   341  H   1.0    0.04    1.00    1.43    79.29423   139.05870   -46.21739
   342  H   1.0    0.05    1.00    1.43    74.36833   136.57554   -46.45464
   343  H   1.0    0.04    1.00    1.43    76.63572   135.46098   -44.31634
   344  H   1.0    0.04    1.00    1.43    73.53482   136.10415   -43.27992
   345  N   5.0   -0.22    3.32    1.99    76.63267   137.67689   -27.94190
   346  C   4.0    0.03    4.34    4.26    78.06598   135.97392   -26.33500
   347  C   4.0    0.15    3.34    3.06    80.90785   136.63683   -26.15890
   348  O   6.0   -0.30    1.19    1.80    82.38343   135.36211   -24.91827
   349  C   4.0   -0.04    4.34    4.27    77.67106   133.30790   -27.37378
   350  C   4.0   -0.04    4.06    3.74    74.87627   132.64610   -27.29910
   351  S   6.0   -0.06    2.43    3.10    73.91844   129.96235   -29.28487
   352  C   4.0   -0.07    3.88    3.43    76.40787   129.56417   -31.60039
   353  H   1.0    0.09    1.03    1.43    76.45402   137.20442   -29.78905
   354  H   1.0    0.04    1.05    1.44    77.30766   136.13643   -24.40885
   355  H   1.0    0.04    1.04    1.43    78.34583   133.33325   -29.32719
   356  H   1.0    0.05    1.03    1.43    78.81362   131.98836   -26.28912
   357  H   1.0    0.04    1.07    1.44    74.28736   132.15990   -25.39117
   358  H   1.0    0.04    1.08    1.44    73.73690   134.22187   -27.96166
   359  H   1.0    0.04    1.05    1.44    75.92257   127.84215   -32.60651
   360  H   1.0    0.04    1.03    1.43    76.45249   131.14695   -32.90749
   361  H   1.0    0.04    1.04    1.43    78.22087   129.31719   -30.67406
   362  N   5.0   -0.14    3.47    2.06    81.50312   138.68910   -27.53307
   363  C   4.0    0.04    4.21    4.01    83.69181   140.29047   -27.26919
   364  C   4.0    0.08    3.18    3.03    83.37852   142.34926   -25.20342
   365  O   6.0   -0.29    1.12    1.80    85.25366   143.51279   -24.51265
   366  C   4.0   -0.06    4.11    3.83    84.20669   141.60435   -29.79244
   367  H   1.0    0.08    1.11    1.45    80.07006   139.57243   -28.45567
   368  H   1.0    0.06    1.05    1.44    85.30215   139.11946   -26.70463
   369  H   1.0    0.05    1.00    1.43    85.89020   142.76389   -29.63463
   370  H   1.0    0.05    1.00    1.43    84.45597   140.20965   -31.27708
   371  H   1.0    0.04    1.00    1.43    82.60140   142.80015   -30.25852
   372  H   1.0    0.09    1.07    1.44    90.45104   106.22390   -53.04756
   373  H   1.0    0.05    1.05    1.44    88.62319   111.44741   -54.96885
   374  H   1.0    0.09    1.07    1.44    80.78136   114.98702   -50.63242
   375  H   1.0    0.05    1.05    1.44    77.02445   115.01249   -55.58852
   376  H   1.0    0.09    1.08    1.44    71.91229   114.08181   -48.07454
   377  H   1.0    0.06    1.04    1.43    66.16047   118.27908   -53.78219
   378  H   1.0    0.09    1.08    1.44    63.86707   121.74076   -45.89994
   379  H   1.0    0.06    1.06    1.44    60.10984   124.66897   -50.25003
   380  H   1.0    0.08    1.12    1.45    65.03823   135.50864   -47.20833
   381  H   1.0    0.05    1.04    1.43    68.87679   140.95327   -48.04787
   382  H   1.0    0.09    1.07    1.44    72.42059   137.19398   -39.07721
   383  H   1.0    0.05    1.05    1.44    76.43238   141.35541   -36.10426
   384  H   1.0    0.09    1.07    1.44    75.04190   137.80743   -27.35455
   385  H   1.0    0.05    1.04    1.43    81.67287   142.69883   -24.46883
   386  H   1.0    0.10    1.07    1.44    77.06584   116.61333   -34.26717
   387  H   1.0    0.05    1.04    1.43    82.99079   117.64156   -30.69001
   388  H   1.0    0.09    1.07    1.44    92.52716   116.67427   -37.10964

  Z AO/shell   Hii/eV     exponent
  1     Wed Apr 25 08:07:45 CEST 2018   EN: 2.200 GM2: 0.406  GM3: 0.0800  RAES: 1.40
     1s    -10.707211    1.230000
  6     Wed Apr 25 08:07:45 CEST 2018   EN: 2.550 GM2: 0.538  GM3: 0.1500  RAES: 3.00
     2s    -13.970922    2.096432
     2p    -10.063292    1.800000
  7     Wed Apr 25 08:07:45 CEST 2018   EN: 3.040 GM2: 0.461  GM3:-0.0640  RAES: 1.90
     2s    -16.686243    2.339881
     2p    -12.523956    2.014332
  8     Wed Apr 25 08:07:45 CEST 2018   EN: 3.440 GM2: 0.452  GM3:-0.0517  RAES: 1.80
     2s    -20.229985    2.439742
     2p    -15.503117    2.137023
 16     Tue Apr 24 11:44:34 CEST 2018   EN: 2.580 GM2: 0.340  GM3:-0.0502  RAES: 3.10
     3s    -20.029654    1.981333
     3p    -11.377694    2.025643
     3d     -0.420282    1.702555
 no old-style atom pair restraining (fixing) potential

molecular fragmentation (1/2 indicates fragments):
111111111111111111122222222222222222222222222222222222222222222222222222
222222222222222222222222222222222222222222222222222222222222222222222222
222222222222222222222222222222222222222222222222222222222222222222222222
222222222222222222222222222222222222222222222222222222222222222222222222
222222222222222222222222222222222222222222222222222222222222222222222222
2222222222222222222222222112
# atoms in fragment 1/2:    21   367
 fragment masses (1/2) :      115.17     2486.04
CMA distance (Bohr)    :  14.790
constraining FC (au)   :  0.0500
           ------------------------------------------------- 
          |        Self-Consistent Charge Iterations        |
           ------------------------------------------------- 

 Ncao       : 940
 Nao        : 938
 Nshell     : 570
 Nel        : 1028
 T(el)      :   500.0
 intcut     :    35.0
 scfconv/Eh :  0.100E-06
   qconv/e  :  0.100E-04
 intneglect :  0.100E-08
 broydamp   :      0.400
 iter      E             dE          RMSdq      gap      omega  full diag
   1   -585.4783604 -0.585478E+03  0.459E+00    3.11       0.0  T
   2   -586.8875614 -0.140920E+01  0.213E+00    1.57       1.0  T
   3   -586.9746583 -0.870969E-01  0.123E+00    1.82       1.0  T
   4   -587.0709629 -0.963045E-01  0.247E-01    1.34       1.0  T
   5   -587.0756187 -0.465584E-02  0.125E-01    1.48       1.0  T
   6   -587.0763362 -0.717485E-03  0.531E-02    1.45       1.0  T
   7   -587.0765750 -0.238827E-03  0.228E-02    1.43       1.0  T
   8   -587.0766098 -0.348006E-04  0.113E-02    1.42       1.0  T
   9   -587.0766209 -0.110496E-04  0.510E-03    1.41       1.0  T
  10   -587.0766226 -0.175129E-05  0.215E-03    1.41       2.4  T
  11   -587.0766229 -0.235933E-06  0.988E-04    1.41       5.1  T
  12   -587.0766229 -0.438133E-07  0.442E-04    1.41      11.5  T
  13   -587.0766229 -0.125835E-07  0.232E-04    1.41      21.9  T
  14   -587.0766229 -0.220348E-08  0.998E-05    1.41      50.9  T
  15   -587.0766229 -0.100033E-08  0.433E-05    1.41     117.2  T
speedup  1.93
cpu  time for SCC   16.46 s
wall time for SCC    8.53 s

   *** convergence criteria satisfied after 15 iterations ***

          eigenvalues
 #    :         502        503        504        505        506        507        508        509
 occ. :        2.000      2.000      2.000      2.000      2.000      2.000      2.000      2.000
 eps  :       -10.160    -10.047    -10.001     -9.930     -9.869     -9.855     -9.843     -9.768
 #    :         510        511        512        513        514        515        516        517
 occ. :        2.000      2.000      2.000      2.000      2.000      0.000      0.000      0.000
 eps  :        -9.717     -9.537     -9.464     -9.448     -9.370     -7.961     -7.817     -7.803
 #    :         518        519        520        521        522        523        524        525
 occ. :        0.000      0.000      0.000      0.000      0.000      0.000      0.000      0.000
 eps  :        -7.644     -7.558     -7.490     -7.280     -7.271     -7.224     -6.962     -6.808


   #   Z            q   n(s)   n(p)   n(d)      C6AA      α(0)
   1   7 N     -0.382  1.324  4.058  0.000    29.891     8.120
   2   6 C      0.040  1.052  2.908  0.000    19.918     6.358
   3   6 C      0.201  1.092  2.707  0.000    23.734     7.980
   4   8 O     -0.377  1.757  4.620  0.000    21.225     6.177
   5   6 C     -0.069  1.057  3.011  0.000    21.788     6.641
   6   6 C     -0.003  1.056  2.948  0.000    20.607     6.457
   7   6 C     -0.111  1.041  3.070  0.000    22.674     6.789
   8   6 C     -0.114  1.038  3.076  0.000    22.737     6.799
   9   1 H      0.161  0.839  0.000  0.000     1.326     1.804
  10   1 H      0.065  0.935  0.000  0.000     2.136     2.286
  11   1 H      0.034  0.966  0.000  0.000     2.535     2.490
  12   1 H      0.040  0.960  0.000  0.000     2.447     2.446
  13   1 H      0.031  0.969  0.000  0.000     2.578     2.511
  14   1 H      0.043  0.957  0.000  0.000     2.405     2.425
  15   1 H      0.020  0.980  0.000  0.000     2.736     2.587
  16   1 H      0.039  0.961  0.000  0.000     2.464     2.455
  17   1 H      0.041  0.959  0.000  0.000     2.441     2.443
  18   1 H      0.042  0.958  0.000  0.000     2.421     2.433
  19   1 H      0.045  0.955  0.000  0.000     2.383     2.414
  20   7 N     -0.402  1.331  4.071  0.000    30.430     8.193
  21   6 C      0.036  1.065  2.899  0.000    19.990     6.368
  22   6 C      0.286  1.053  2.660  0.000    22.146     7.706
  23   8 O     -0.485  1.753  4.733  0.000    23.465     6.495
  24   6 C     -0.016  1.062  2.954  0.000    20.818     6.489
  25   6 C     -0.075  1.055  3.021  0.000    21.940     6.669
  26   6 C     -0.119  1.039  3.080  0.000    22.823     6.811
  27   6 C     -0.111  1.037  3.073  0.000    22.681     6.791
  28   1 H      0.183  0.817  0.000  0.000     1.199     1.715
  29   1 H      0.008  0.992  0.000  0.000     2.931     2.677
  30   1 H      0.047  0.953  0.000  0.000     2.359     2.402
  31   1 H      0.058  0.942  0.000  0.000     2.218     2.329
  32   1 H      0.049  0.951  0.000  0.000     2.331     2.387
  33   1 H      0.040  0.960  0.000  0.000     2.455     2.450
  34   1 H      0.017  0.983  0.000  0.000     2.777     2.606
  35   1 H      0.066  0.934  0.000  0.000     2.130     2.282
  36   1 H      0.050  0.950  0.000  0.000     2.317     2.380
  37   1 H      0.038  0.962  0.000  0.000     2.481     2.463
  38   1 H      0.030  0.970  0.000  0.000     2.580     2.512
  39   7 N     -0.202  1.273  3.930  0.000    25.401     7.485
  40   6 C      0.046  1.058  2.896  0.000    19.825     6.342
  41   6 C      0.258  1.052  2.690  0.000    22.657     7.795
  42   8 O     -0.487  1.738  4.749  0.000    23.499     6.499
  43   6 C     -0.102  1.076  3.026  0.000    22.454     6.747
  44   6 C      0.375  1.023  2.602  0.000    20.641     7.435
  45   8 O     -0.634  1.774  4.861  0.000    26.982     6.964
  46   8 O     -0.620  1.765  4.855  0.000    26.613     6.916
  47   1 H      0.196  0.804  0.000  0.000     1.128     1.664
  48   1 H      0.041  0.959  0.000  0.000     2.438     2.442
  49   1 H      0.039  0.961  0.000  0.000     2.459     2.452
  50   1 H      0.020  0.980  0.000  0.000     2.734     2.586
  51   7 N     -0.095  1.247  3.848  0.000    23.090     7.137
  52   6 C      0.026  1.071  2.903  0.000    20.123     6.384
  53   6 C      0.286  1.046  2.668  0.000    22.152     7.707
  54   8 O     -0.447  1.731  4.716  0.000    22.642     6.380
  55   6 C     -0.074  1.059  3.015  0.000    21.897     6.658
  56   6 C     -0.060  1.048  3.012  0.000    21.637     6.619
  57   6 C      0.006  1.049  2.945  0.000    20.503     6.451
  58   1 H      0.063  0.937  0.000  0.000     2.166     2.302
  59   1 H      0.068  0.932  0.000  0.000     2.107     2.270
  60   1 H      0.063  0.937  0.000  0.000     2.165     2.301
  61   1 H      0.063  0.937  0.000  0.000     2.169     2.303
  62   1 H      0.062  0.938  0.000  0.000     2.180     2.309
  63   1 H      0.058  0.942  0.000  0.000     2.223     2.331
  64   1 H      0.039  0.961  0.000  0.000     2.456     2.451
  65   7 N     -0.209  1.266  3.944  0.000    25.559     7.509
  66   6 C      0.028  1.064  2.908  0.000    20.115     6.388
  67   6 C      0.277  1.040  2.683  0.000    22.320     7.736
  68   8 O     -0.466  1.736  4.730  0.000    23.035     6.435
  69   6 C     -0.122  1.068  3.053  0.000    22.823     6.801
  70   6 C      0.290  1.035  2.675  0.000    22.082     7.694
  71   8 O     -0.481  1.753  4.728  0.000    23.365     6.481
  72   7 N     -0.285  1.267  4.017  0.000    27.346     7.766
  73   1 H      0.229  0.771  0.000  0.000     0.970     1.543
  74   1 H      0.076  0.924  0.000  0.000     2.018     2.222
  75   1 H      0.081  0.919  0.000  0.000     1.966     2.193
  76   1 H      0.102  0.898  0.000  0.000     1.770     2.081
  77   1 H      0.243  0.757  0.000  0.000     0.912     1.496
  78   1 H      0.240  0.760  0.000  0.000     0.925     1.506
  79   7 N     -0.175  1.245  3.930  0.000    24.788     7.394
  80   6 C      0.019  1.062  2.919  0.000    20.252     6.407
  81   6 C      0.288  1.034  2.678  0.000    22.114     7.702
  82   8 O     -0.491  1.735  4.756  0.000    23.592     6.512
  83   6 C     -0.057  1.055  3.002  0.000    21.588     6.614
  84   6 C     -0.094  1.065  3.029  0.000    22.294     6.724
  85   6 C      0.367  1.028  2.605  0.000    20.777     7.459
  86   8 O     -0.623  1.757  4.866  0.000    26.699     6.928
  87   8 O     -0.638  1.778  4.861  0.000    27.081     6.977
  88   1 H      0.211  0.789  0.000  0.000     1.051     1.606
  89   1 H      0.077  0.923  0.000  0.000     2.009     2.216
  90   1 H      0.049  0.951  0.000  0.000     2.329     2.386
  91   1 H      0.048  0.952  0.000  0.000     2.347     2.396
  92   1 H      0.012  0.988  0.000  0.000     2.864     2.647
  93   1 H      0.020  0.980  0.000  0.000     2.738     2.587
  94   7 N     -0.171  1.237  3.933  0.000    24.690     7.380
  95   6 C      0.032  1.056  2.913  0.000    20.027     6.368
  96   6 C      0.276  1.032  2.692  0.000    22.334     7.741
  97   8 O     -0.497  1.738  4.759  0.000    23.722     6.530
  98   6 C     -0.084  1.063  3.021  0.000    22.089     6.690
  99   6 C     -0.018  1.059  2.959  0.000    20.853     6.495
 100   6 C     -0.120  1.042  3.078  0.000    22.870     6.820
 101   6 C     -0.131  1.048  3.084  0.000    23.078     6.850
 102   1 H      0.211  0.789  0.000  0.000     1.050     1.605
 103   1 H      0.058  0.942  0.000  0.000     2.224     2.332
 104   1 H      0.073  0.927  0.000  0.000     2.048     2.238
 105   1 H      0.069  0.931  0.000  0.000     2.098     2.265
 106   1 H      0.034  0.966  0.000  0.000     2.534     2.489
 107   1 H      0.044  0.956  0.000  0.000     2.390     2.418
 108   1 H      0.022  0.978  0.000  0.000     2.710     2.574
 109   1 H      0.054  0.946  0.000  0.000     2.270     2.356
 110   1 H      0.063  0.937  0.000  0.000     2.165     2.301
 111   1 H      0.061  0.939  0.000  0.000     2.185     2.311
 112   1 H      0.046  0.954  0.000  0.000     2.374     2.409
 113   7 N     -0.168  1.241  3.927  0.000    24.626     7.370
 114   6 C      0.027  1.058  2.915  0.000    20.106     6.381
 115   6 C      0.288  1.039  2.673  0.000    22.125     7.704
 116   8 O     -0.487  1.744  4.743  0.000    23.497     6.499
 117   6 C     -0.078  1.057  3.020  0.000    21.979     6.674
 118   6 C     -0.017  1.055  2.962  0.000    20.852     6.495
 119   6 C     -0.115  1.041  3.074  0.000    22.750     6.800
 120   6 C     -0.114  1.039  3.075  0.000    22.741     6.799
 121   1 H      0.232  0.768  0.000  0.000     0.956     1.532
 122   1 H      0.073  0.927  0.000  0.000     2.052     2.240
 123   1 H      0.053  0.947  0.000  0.000     2.283     2.363
 124   1 H      0.061  0.939  0.000  0.000     2.185     2.312
 125   1 H      0.038  0.962  0.000  0.000     2.480     2.463
 126   1 H      0.036  0.964  0.000  0.000     2.504     2.475
 127   1 H      0.036  0.964  0.000  0.000     2.504     2.475
 128   1 H      0.054  0.946  0.000  0.000     2.274     2.358
 129   1 H      0.037  0.963  0.000  0.000     2.486     2.466
 130   1 H      0.046  0.954  0.000  0.000     2.376     2.411
 131   1 H      0.040  0.960  0.000  0.000     2.452     2.449
 132   7 N     -0.187  1.245  3.943  0.000    25.063     7.435
 133   6 C      0.043  1.052  2.905  0.000    19.841     6.341
 134   6 C      0.292  1.037  2.671  0.000    22.049     7.690
 135   8 O     -0.492  1.743  4.748  0.000    23.604     6.514
 136   6 C     -0.109  1.064  3.045  0.000    22.571     6.763
 137   6 C      0.290  1.035  2.676  0.000    22.085     7.695
 138   8 O     -0.489  1.760  4.730  0.000    23.552     6.507
 139   7 N     -0.293  1.274  4.020  0.000    27.562     7.797
 140   1 H      0.222  0.778  0.000  0.000     1.002     1.568
 141   1 H      0.063  0.937  0.000  0.000     2.163     2.300
 142   1 H      0.079  0.921  0.000  0.000     1.988     2.205
 143   1 H      0.082  0.918  0.000  0.000     1.958     2.188
 144   1 H      0.240  0.760  0.000  0.000     0.924     1.506
 145   1 H      0.241  0.759  0.000  0.000     0.921     1.503
 146   7 N     -0.202  1.260  3.942  0.000    25.386     7.483
 147   6 C      0.021  1.058  2.921  0.000    20.216     6.400
 148   6 C      0.293  1.033  2.673  0.000    22.025     7.686
 149   8 O     -0.517  1.745  4.772  0.000    24.168     6.591
 150   6 C      0.083  1.033  2.884  0.000    19.392     6.306
 151   8 O     -0.468  1.705  4.763  0.000    22.210     6.362
 152   1 H      0.236  0.764  0.000  0.000     0.941     1.519
 153   1 H      0.042  0.958  0.000  0.000     2.424     2.435
 154   1 H      0.057  0.943  0.000  0.000     2.235     2.338
 155   1 H      0.020  0.980  0.000  0.000     2.728     2.583
 156   1 H      0.343  0.657  0.000  0.000     0.604     1.221
 157   7 N     -0.169  1.243  3.926  0.000    24.647     7.373
 158   6 C      0.020  1.061  2.919  0.000    20.240     6.406
 159   6 C      0.273  1.048  2.678  0.000    22.379     7.746
 160   8 O     -0.457  1.734  4.723  0.000    22.859     6.410
 161   6 C     -0.070  1.046  3.023  0.000    21.804     6.643
 162   6 C     -0.013  1.065  2.947  0.000    20.805     6.495
 163  16 S     -0.194  1.911  4.233  0.051   149.296    20.565
 164   6 C     -0.066  1.055  3.011  0.000    21.841     6.667
 165   1 H      0.218  0.782  0.000  0.000     1.017     1.580
 166   1 H      0.071  0.929  0.000  0.000     2.078     2.254
 167   1 H      0.057  0.943  0.000  0.000     2.239     2.340
 168   1 H      0.079  0.921  0.000  0.000     1.988     2.205
 169   1 H      0.049  0.951  0.000  0.000     2.331     2.388
 170   1 H      0.054  0.946  0.000  0.000     2.267     2.354
 171   1 H      0.070  0.930  0.000  0.000     2.085     2.258
 172   1 H      0.048  0.952  0.000  0.000     2.340     2.392
 173   1 H      0.065  0.935  0.000  0.000     2.137     2.286
 174   7 N     -0.212  1.264  3.948  0.000    25.623     7.518
 175   6 C      0.026  1.061  2.913  0.000    20.150     6.393
 176   6 C      0.274  1.046  2.680  0.000    22.372     7.745
 177   8 O     -0.476  1.742  4.734  0.000    23.266     6.467
 178   6 C     -0.111  1.038  3.073  0.000    22.688     6.792
 179   1 H      0.214  0.786  0.000  0.000     1.036     1.594
 180   1 H      0.083  0.917  0.000  0.000     1.949     2.183
 181   1 H      0.076  0.924  0.000  0.000     2.016     2.220
 182   1 H      0.055  0.945  0.000  0.000     2.256     2.349
 183   1 H      0.045  0.955  0.000  0.000     2.382     2.414
 184   7 N     -0.182  1.248  3.933  0.000    24.936     7.417
 185   6 C      0.023  1.063  2.914  0.000    20.198     6.400
 186   6 C      0.276  1.042  2.682  0.000    22.336     7.739
 187   8 O     -0.516  1.754  4.762  0.000    24.140     6.587
 188   6 C     -0.116  1.042  3.074  0.000    22.772     6.804
 189   1 H      0.190  0.810  0.000  0.000     1.160     1.687
 190   1 H      0.081  0.919  0.000  0.000     1.967     2.193
 191   1 H      0.062  0.938  0.000  0.000     2.179     2.308
 192   1 H      0.066  0.934  0.000  0.000     2.127     2.280
 193   1 H      0.049  0.951  0.000  0.000     2.333     2.389
 194   7 N     -0.173  1.251  3.922  0.000    24.739     7.387
 195   6 C      0.016  1.074  2.910  0.000    20.319     6.421
 196   6 C      0.377  1.022  2.601  0.000    20.622     7.431
 197   8 O     -0.634  1.767  4.867  0.000    26.977     6.964
 198   6 C     -0.112  1.041  3.071  0.000    22.704     6.794
 199   8 O     -0.623  1.764  4.859  0.000    26.693     6.927
 200   1 H      0.194  0.806  0.000  0.000     1.135     1.669
 201   1 H      0.026  0.974  0.000  0.000     2.639     2.540
 202   1 H      0.058  0.942  0.000  0.000     2.225     2.333
 203   1 H      0.052  0.948  0.000  0.000     2.292     2.367
 204   1 H      0.049  0.951  0.000  0.000     2.330     2.387
 205   7 N     -0.396  1.319  4.078  0.000    30.273     8.172
 206   6 C      0.038  1.058  2.904  0.000    19.947     6.361
 207   6 C      0.199  1.092  2.709  0.000    23.757     7.982
 208   8 O     -0.375  1.758  4.617  0.000    21.179     6.170
 209   6 C     -0.075  1.055  3.020  0.000    21.926     6.666
 210   6 C     -0.084  1.056  3.028  0.000    22.095     6.691
 211   6 C     -0.028  1.058  2.970  0.000    21.153     6.563
 212   7 N     -0.133  1.213  3.920  0.000    23.880     7.258
 213   6 C      0.230  1.024  2.746  0.000    23.179     7.882
 214   7 N     -0.226  1.219  4.007  0.000    25.939     7.564
 215   7 N     -0.252  1.241  4.011  0.000    26.563     7.655
 216   1 H      0.173  0.827  0.000  0.000     1.257     1.757
 217   1 H      0.048  0.952  0.000  0.000     2.351     2.398
 218   1 H      0.076  0.924  0.000  0.000     2.026     2.226
 219   1 H      0.060  0.940  0.000  0.000     2.197     2.318
 220   1 H      0.067  0.933  0.000  0.000     2.124     2.279
 221   1 H      0.072  0.928  0.000  0.000     2.062     2.246
 222   1 H      0.099  0.901  0.000  0.000     1.798     2.097
 223   1 H      0.082  0.918  0.000  0.000     1.959     2.189
 224   1 H      0.243  0.757  0.000  0.000     0.912     1.496
 225   1 H      0.247  0.753  0.000  0.000     0.896     1.482
 226   1 H      0.229  0.771  0.000  0.000     0.970     1.542
 227   1 H      0.236  0.764  0.000  0.000     0.939     1.518
 228   1 H      0.222  0.778  0.000  0.000     1.001     1.567
 229   7 N     -0.384  1.300  4.084  0.000    29.927     8.125
 230   6 C      0.044  1.048  2.907  0.000    19.844     6.345
 231   6 C      0.192  1.092  2.716  0.000    23.903     8.007
 232   8 O     -0.372  1.741  4.630  0.000    21.123     6.162
 233   6 C     -0.065  1.056  3.009  0.000    21.725     6.634
 234   6 C     -0.012  1.058  2.954  0.000    20.755     6.480
 235   6 C     -0.113  1.040  3.072  0.000    22.714     6.797
 236   6 C     -0.112  1.041  3.071  0.000    22.687     6.791
 237   1 H      0.171  0.829  0.000  0.000     1.267     1.763
 238   1 H      0.046  0.954  0.000  0.000     2.368     2.407
 239   1 H      0.059  0.941  0.000  0.000     2.211     2.325
 240   1 H      0.035  0.965  0.000  0.000     2.520     2.482
 241   1 H      0.036  0.964  0.000  0.000     2.507     2.476
 242   1 H      0.035  0.965  0.000  0.000     2.514     2.480
 243   1 H      0.041  0.959  0.000  0.000     2.431     2.438
 244   1 H      0.051  0.949  0.000  0.000     2.302     2.373
 245   1 H      0.029  0.971  0.000  0.000     2.604     2.523
 246   1 H      0.047  0.953  0.000  0.000     2.352     2.398
 247   1 H      0.031  0.969  0.000  0.000     2.578     2.511
 248   7 N     -0.388  1.310  4.078  0.000    30.045     8.141
 249   6 C      0.041  1.056  2.904  0.000    19.905     6.355
 250   6 C      0.266  1.049  2.685  0.000    22.517     7.772
 251   8 O     -0.508  1.750  4.758  0.000    23.968     6.564
 252   6 C     -0.073  1.058  3.015  0.000    21.882     6.659
 253   6 C     -0.001  1.085  2.916  0.000    28.051     8.687
 254   6 C     -0.041  1.085  2.956  0.000    29.025     8.835
 255   6 C     -0.041  1.081  2.961  0.000    29.031     8.836
 256   6 C     -0.060  1.074  2.986  0.000    29.494     8.906
 257   6 C     -0.077  1.081  2.996  0.000    29.915     8.969
 258   6 C      0.142  1.045  2.813  0.000    24.907     8.179
 259   8 O     -0.433  1.728  4.705  0.000    21.500     6.259
 260   1 H      0.160  0.840  0.000  0.000     1.338     1.812
 261   1 H      0.047  0.953  0.000  0.000     2.363     2.404
 262   1 H      0.049  0.951  0.000  0.000     2.338     2.391
 263   1 H      0.045  0.955  0.000  0.000     2.390     2.417
 264   1 H      0.035  0.965  0.000  0.000     2.517     2.481
 265   1 H      0.045  0.955  0.000  0.000     2.387     2.416
 266   1 H      0.036  0.964  0.000  0.000     2.500     2.473
 267   1 H      0.048  0.952  0.000  0.000     2.348     2.396
 268   1 H      0.347  0.653  0.000  0.000     0.595     1.212
 269   7 N     -0.146  1.247  3.899  0.000    24.155     7.299
 270   6 C      0.019  1.064  2.917  0.000    20.249     6.405
 271   6 C      0.212  1.081  2.706  0.000    23.505     7.940
 272   8 O     -0.372  1.756  4.616  0.000    21.130     6.163
 273   6 C     -0.088  1.058  3.029  0.000    22.172     6.703
 274   6 C     -0.079  1.054  3.025  0.000    22.014     6.680
 275   6 C     -0.028  1.059  2.970  0.000    21.167     6.566
 276   7 N     -0.142  1.211  3.931  0.000    24.077     7.288
 277   6 C      0.232  1.021  2.747  0.000    23.132     7.874
 278   7 N     -0.247  1.228  4.020  0.000    26.448     7.638
 279   7 N     -0.263  1.239  4.023  0.000    26.807     7.690
 280   1 H      0.235  0.765  0.000  0.000     0.945     1.523
 281   1 H      0.088  0.912  0.000  0.000     1.903     2.157
 282   1 H      0.089  0.911  0.000  0.000     1.887     2.148
 283   1 H      0.073  0.927  0.000  0.000     2.057     2.243
 284   1 H      0.068  0.932  0.000  0.000     2.103     2.268
 285   1 H      0.065  0.935  0.000  0.000     2.142     2.289
 286   1 H      0.086  0.914  0.000  0.000     1.923     2.168
 287   1 H      0.090  0.910  0.000  0.000     1.875     2.141
 288   1 H      0.229  0.771  0.000  0.000     0.969     1.542
 289   1 H      0.250  0.750  0.000  0.000     0.884     1.473
 290   1 H      0.251  0.749  0.000  0.000     0.879     1.469
 291   1 H      0.247  0.753  0.000  0.000     0.895     1.482
 292   1 H      0.250  0.750  0.000  0.000     0.882     1.471
 293   7 N     -0.395  1.304  4.091  0.000    30.226     8.165
 294   6 C      0.045  1.048  2.907  0.000    19.840     6.344
 295   6 C      0.203  1.094  2.703  0.000    23.681     7.971
 296   8 O     -0.411  1.759  4.652  0.000    21.911     6.276
 297   6 C     -0.073  1.058  3.014  0.000    21.875     6.656
 298   6 C     -0.009  1.053  2.957  0.000    20.709     6.473
 299   6 C     -0.117  1.042  3.074  0.000    22.776     6.803
 300   6 C     -0.110  1.038  3.072  0.000    22.656     6.786
 301   1 H      0.189  0.811  0.000  0.000     1.162     1.688
 302   1 H      0.050  0.950  0.000  0.000     2.319     2.381
 303   1 H      0.062  0.938  0.000  0.000     2.178     2.308
 304   1 H      0.044  0.956  0.000  0.000     2.399     2.422
 305   1 H      0.033  0.967  0.000  0.000     2.549     2.497
 306   1 H      0.039  0.961  0.000  0.000     2.457     2.451
 307   1 H      0.053  0.947  0.000  0.000     2.282     2.362
 308   1 H      0.037  0.963  0.000  0.000     2.488     2.467
 309   1 H      0.039  0.961  0.000  0.000     2.466     2.456
 310   1 H      0.038  0.962  0.000  0.000     2.473     2.459
 311   1 H      0.035  0.965  0.000  0.000     2.510     2.477
 312   7 N     -0.284  1.267  4.017  0.000    27.328     7.764
 313   6 C      0.031  1.063  2.906  0.000    20.045     6.374
 314   6 C      0.194  1.093  2.713  0.000    23.857     7.999
 315   8 O     -0.369  1.751  4.618  0.000    21.078     6.155
 316   6 C     -0.054  1.053  3.002  0.000    21.531     6.603
 317   6 C     -0.065  1.053  3.012  0.000    21.726     6.633
 318   6 C      0.005  1.049  2.946  0.000    20.550     6.465
 319   1 H      0.044  0.956  0.000  0.000     2.396     2.421
 320   1 H      0.028  0.972  0.000  0.000     2.614     2.528
 321   1 H      0.052  0.948  0.000  0.000     2.296     2.370
 322   1 H      0.040  0.960  0.000  0.000     2.445     2.445
 323   1 H      0.046  0.954  0.000  0.000     2.365     2.405
 324   1 H      0.041  0.959  0.000  0.000     2.433     2.439
 325   1 H      0.038  0.962  0.000  0.000     2.480     2.463
 326   7 N     -0.393  1.306  4.086  0.000    30.173     8.158
 327   6 C      0.045  1.057  2.898  0.000    19.850     6.348
 328   6 C      0.196  1.098  2.706  0.000    23.817     7.992
 329   8 O     -0.368  1.753  4.615  0.000    21.055     6.152
 330   6 C     -0.075  1.062  3.013  0.000    21.924     6.666
 331   6 C     -0.015  1.060  2.955  0.000    20.815     6.490
 332   6 C     -0.110  1.042  3.068  0.000    22.655     6.786
 333   6 C     -0.104  1.037  3.067  0.000    22.539     6.769
 334   1 H      0.188  0.812  0.000  0.000     1.167     1.692
 335   1 H      0.028  0.972  0.000  0.000     2.615     2.529
 336   1 H      0.051  0.949  0.000  0.000     2.311     2.377
 337   1 H      0.041  0.959  0.000  0.000     2.434     2.440
 338   1 H      0.063  0.937  0.000  0.000     2.161     2.299
 339   1 H      0.031  0.969  0.000  0.000     2.566     2.505
 340   1 H      0.044  0.956  0.000  0.000     2.396     2.421
 341   1 H      0.026  0.974  0.000  0.000     2.640     2.541
 342   1 H      0.031  0.969  0.000  0.000     2.570     2.507
 343   1 H      0.025  0.975  0.000  0.000     2.665     2.553
 344   1 H      0.046  0.954  0.000  0.000     2.371     2.408
 345   7 N     -0.386  1.306  4.079  0.000    29.976     8.131
 346   6 C      0.022  1.064  2.914  0.000    20.214     6.403
 347   6 C      0.268  1.047  2.685  0.000    22.470     7.762
 348   8 O     -0.503  1.758  4.744  0.000    23.846     6.547
 349   6 C     -0.055  1.048  3.008  0.000    21.554     6.607
 350   6 C     -0.010  1.065  2.945  0.000    20.753     6.487
 351  16 S     -0.245  1.917  4.277  0.051   151.542    20.719
 352   6 C     -0.050  1.049  3.001  0.000    21.551     6.622
 353   1 H      0.165  0.835  0.000  0.000     1.306     1.790
 354   1 H      0.054  0.946  0.000  0.000     2.266     2.354
 355   1 H      0.046  0.954  0.000  0.000     2.368     2.406
 356   1 H      0.041  0.959  0.000  0.000     2.441     2.443
 357   1 H      0.053  0.947  0.000  0.000     2.279     2.361
 358   1 H      0.056  0.944  0.000  0.000     2.251     2.346
 359   1 H      0.068  0.932  0.000  0.000     2.105     2.269
 360   1 H      0.056  0.944  0.000  0.000     2.246     2.344
 361   1 H      0.049  0.951  0.000  0.000     2.338     2.391
 362   7 N     -0.180  1.250  3.930  0.000    24.897     7.411
 363   6 C      0.027  1.059  2.914  0.000    20.133     6.391
 364   6 C      0.198  1.092  2.710  0.000    23.779     7.986
 365   8 O     -0.359  1.757  4.602  0.000    20.884     6.127
 366   6 C     -0.130  1.044  3.086  0.000    23.052     6.845
 367   1 H      0.228  0.772  0.000  0.000     0.975     1.547
 368   1 H      0.089  0.911  0.000  0.000     1.894     2.152
 369   1 H      0.078  0.922  0.000  0.000     1.998     2.210
 370   1 H      0.078  0.922  0.000  0.000     2.004     2.214
 371   1 H      0.072  0.928  0.000  0.000     2.062     2.245
 372   1 H      0.178  0.822  0.000  0.000     1.226     1.734
 373   1 H      0.072  0.928  0.000  0.000     2.060     2.244
 374   1 H      0.172  0.828  0.000  0.000     1.261     1.759
 375   1 H      0.079  0.921  0.000  0.000     1.990     2.206
 376   1 H      0.183  0.817  0.000  0.000     1.196     1.713
 377   1 H      0.068  0.932  0.000  0.000     2.110     2.271
 378   1 H      0.169  0.831  0.000  0.000     1.278     1.771
 379   1 H      0.067  0.933  0.000  0.000     2.116     2.275
 380   1 H      0.177  0.823  0.000  0.000     1.233     1.739
 381   1 H      0.072  0.928  0.000  0.000     2.061     2.245
 382   1 H      0.173  0.827  0.000  0.000     1.253     1.754
 383   1 H      0.077  0.923  0.000  0.000     2.012     2.218
 384   1 H      0.187  0.813  0.000  0.000     1.174     1.697
 385   1 H      0.083  0.917  0.000  0.000     1.946     2.182
 386   1 H      0.186  0.814  0.000  0.000     1.178     1.700
 387   1 H      0.058  0.942  0.000  0.000     2.221     2.330
 388   1 H      0.178  0.822  0.000  0.000     1.224     1.733

 Mol. C6AA /au·bohr⁶  :    1364519.741425
 Mol. C8AA /au·bohr⁸  :   30495807.554533
 Mol. α(0) /au        :       1748.312469

 
molecular dipole:
                 x           y           z       tot (Debye)
 q only:      -93.768    -146.052      44.517
   full:      -90.062    -145.336      46.444     450.340
molecular quadrupole (traceless):
                xx          xy          yy          xz          yz          zz
 q only:     2955.260  -20377.737  -15164.025    6420.527   10178.414   12208.765
  q+dip:     3573.214  -19582.237  -15197.741    6392.677   10496.103   11624.527
   full:     3575.891  -19577.579  -15196.122    6391.295   10494.894   11620.231
speedup  1.91
cpu  time for grad   22.47 s
wall time for grad   11.77 s

SCC energy    :    -587.0992563
rep           :       7.1387978
ES            :       1.8144504
AES           :      -0.0292903
AXC           :       0.2150047
disp          :      -0.4713931
XB            :       0.0000000
fix           :       0.0000000
Gborn         :       0.0000000
Gsasa         :       0.0000000
Ghb           :       0.0000000
Gshift        :       0.0000000
Gsolv         :      -0.4913041     -308.30
Etot ala COSMO:    -587.0992563
grad norm     :       0.6613566
total E       :    -579.9263888
atomizationE  :     106.2052112    66644.78
(atE without considering molecular charge,
 total energy contains solvation terms)
H-L gap (eV)  :          1.4086

------------------------------------------------------------------------
 * finished run on 2019/05/11 at 04:47:04.293     
------------------------------------------------------------------------
 total:
 * wall-time:     0 d,  0 h,  0 min, 12.792 sec
 *  cpu-time:     0 d,  0 h,  0 min, 24.219 sec
 * ratio c/w:     1.893 speedup
 SCF:
 * wall-time:     0 d,  0 h,  0 min, 12.424 sec
 *  cpu-time:     0 d,  0 h,  0 min, 23.776 sec
 * ratio c/w:     1.914 speedup

