      -----------------------------------------------------------      
     |                   =====================                   |     
     |                           x T B                           |     
     |                   =====================                   |     
     |                         S. Grimme                         |     
     |          Mulliken Center for Theoretical Chemistry        |     
     |                    University of Bonn                     |     
     |                 Version 6.0.1 (SAW181210)                 |     
      -----------------------------------------------------------      

   This program is distributed in the hope that it will be useful,
   but WITHOUT ANY WARRANTY; without even the implied warranty of
   MERCHANTABILITY or FITNESS FOR A PARTICULAR PURPOSE.
   
   FOR NON-COMMERCIAL, ACADEMIA USE ONLY.
   
   Cite this work as:
   S. Grimme, C. Bannwarth, P. Shushkov, J. Comput. Theory Chem., 2017,
   13, 1989-2009.
   C. Bannwarth, S. Ehlert and S. Grimme., ChemRxiv, 2018, preprint.
   http://doi.org/10.26434/chemrxiv.7246238.v1
   
   for sTDA-xTB:
   S. Grimme and C. Bannwarth, J. Chem. Phys., 2016, 145, 054103.
   
   in the mass-spec context:
   V. Asgeirsson, C. Bauer and S. Grimme, Chem. Sci., 2017, 8, 4879.
   
   if GBSA is used:
   P. Shushkov, F. März and S. Grimme, unpublished.
   
   for ANC optimizer:
   S. Grimme, unpublished.
   Rational Function algorithm used in ANCopt:
   F. Eckert, P. Pulay, H.-J. Werner, J. Comput. Chem., 1997, 18, 1473.
   
   with help from (in alphabetical order)
   C. Bannwarth, F. Bohle, G. Brandenburg, E. Caldeweyher, M. Checinski,
   S. Dohm, S. Ehlert, S. Ehrlich, F. März, H. Neugebauer, J. Pisarek,
   P. Pracht, P. Shushkov, and S. Spicher.
   
 * started run on 2019/05/08 at 09:27:40.356     
========================================================================
 # omp threads = 2
========================================================================
number of atoms            : 379
number of electrons        : 986
charge                     : 1
spin                       : .0
first test random number   : .8611

########################################################################
# WARNING! Please study the warnings concerning your input carefully
#  - Process number higher than OMP_NUM_THREADS, I hope you know what you are doing.
########################################################################

           ------------------------------------------------- 
          |                 G F N 2 - x T B                 |
          | Geometry, Frequencies, Noncovalent interactions |
          |            JCTC 2018 parametrisation            |
           ------------------------------------------------- 
 
      method parameters     
 k(s)        :  1.8500
 k(p)        :  2.2300
 k(d)        :  2.2300
 k(f)        :  2.0000
 kEN (H0ij)  : -2.0000
 D4 a1       :  0.5200
 D4 a2       :  5.0000
 D4 s6       :  1.0000
 D4 s8       :  2.7000
 D4 s9       :  5.0000
 alphaj      :  2.0000

 Solvent             : h2o
 Using internal parameter file: .param_gbsa2_h2o
 Gsolv ref. state (COSMO-RS): gsolv [1 M gas/solution]
 temperature (mdtemp)       :    298.150000000000     
 dielectric constant        :    80.2000000000000     
 rho                        :    1.00000000000000     
 mass                       :    18.0000000000000     
 surface tension            :    15.5689454083859     
 probe radius               :   0.975313790000000     
 vdW radii scaling          :    1.00000000000000     
 Gshift (Eh)                :   1.857443126794793E-003
 c1                         :    1.55243817000000     
 soset                      :   0.130326360000000     
 HB correction              :  T

            Z     q(EN)     CN     RAES       Cart. coordinates
     1  N   5.0   -0.19    3.17    1.95     4.82222   179.64165    -3.12248
     2  C   4.0    0.03    4.09    3.78     3.32040   177.37976    -2.51065
     3  C   4.0    0.09    3.14    3.03     4.86572   175.48336    -0.85234
     4  O   6.0   -0.29    1.11    1.80     4.40695   175.10050     1.38822
     5  C   4.0   -0.07    4.06    3.73     2.31262   176.23544    -4.98933
     6  H   1.0    0.10    1.02    1.43     5.92428   179.53543    -4.68178
     7  H   1.0    0.06    1.05    1.44     1.74989   178.03320    -1.32689
     8  H   1.0    0.04    1.00    1.43     1.31826   174.48347    -4.59795
     9  H   1.0    0.05    1.00    1.43     0.99148   177.54976    -5.85729
    10  H   1.0    0.06    1.00    1.43     3.81960   175.87346    -6.33731
    11  N   5.0   -0.20    3.16    1.95     3.96293   170.87838     5.60108
    12  C   4.0    0.03    4.17    3.94     3.60903   168.13784     5.39691
    13  C   4.0    0.09    3.20    3.04     5.78531   166.85621     6.82668
    14  O   6.0   -0.29    1.12    1.80     5.52249   164.72152     7.66541
    15  C   4.0   -0.05    4.24    4.09     3.20451   166.98342     2.73232
    16  C   4.0   -0.02    4.15    3.89     2.10815   164.24418     2.69290
    17  C   4.0   -0.08    4.10    3.81    -0.74997   164.08790     3.04177
    18  C   4.0   -0.07    4.13    3.86     2.66813   163.02280     0.15235
    19  H   1.0    0.11    1.03    1.43     4.50512   171.89088     4.07380
    20  H   1.0    0.04    1.06    1.44     1.91532   167.67277     6.50186
    21  H   1.0    0.04    1.02    1.43     1.91183   168.21618     1.70256
    22  H   1.0    0.05    1.03    1.43     5.01240   166.94312     1.73583
    23  H   1.0    0.06    1.05    1.44     3.04055   163.15619     4.18720
    24  H   1.0    0.04    1.00    1.43    -1.34634   162.13039     3.22703
    25  H   1.0    0.03    1.00    1.43    -1.36226   165.11882     4.70626
    26  H   1.0    0.03    1.00    1.43    -1.69313   164.88676     1.39883
    27  H   1.0    0.05    1.00    1.43     2.01056   161.07822     0.14481
    28  H   1.0    0.04    1.00    1.43     1.71443   164.03192    -1.36038
    29  H   1.0    0.05    1.00    1.43     4.68456   163.00445    -0.25823
    30  N   5.0   -0.20    3.22    1.96    -2.09506   169.84419    16.33994
    31  C   4.0    0.03    4.19    3.99    -3.57267   167.95652    15.05364
    32  C   4.0    0.08    3.17    3.03    -5.62091   166.87428    16.85912
    33  O   6.0   -0.31    1.31    1.80    -7.82431   167.07326    16.10623
    34  C   4.0   -0.05    4.27    4.13    -1.72986   166.19687    13.61105
    35  C   4.0   -0.02    4.12    3.85    -2.72448   164.71551    11.27985
    36  C   4.0   -0.08    4.08    3.76    -4.51199   166.18316     9.52131
    37  C   4.0   -0.07    4.10    3.81    -0.44999   163.73625     9.77801
    38  H   1.0    0.09    1.03    1.43    -0.30466   169.37340    16.81662
    39  H   1.0    0.04    1.07    1.44    -4.69870   168.96499    13.64126
    40  H   1.0    0.04    1.04    1.43    -0.21549   167.42882    12.93932
    41  H   1.0    0.05    1.02    1.43    -0.90502   164.84571    14.93100
    42  H   1.0    0.05    1.05    1.44    -3.78523   163.07397    11.97095
    43  H   1.0    0.04    1.00    1.43    -4.83897   165.07294     7.82615
    44  H   1.0    0.04    1.00    1.43    -6.31990   166.47410    10.43677
    45  H   1.0    0.04    1.00    1.43    -3.70185   167.99334     8.98980
    46  H   1.0    0.04    1.00    1.43    -1.07096   162.65196     8.15547
    47  H   1.0    0.05    1.00    1.43     0.74299   165.27695     9.14849
    48  H   1.0    0.05    1.00    1.43     0.71269   162.49085    10.93127
    49  N   5.0   -0.18    3.33    1.99    -9.75932   171.40053    16.18187
    50  C   4.0    0.04    4.37    4.33   -10.83898   171.50746    13.69523
    51  C   4.0    0.10    3.29    3.05   -12.97146   169.63853    13.89346
    52  O   6.0   -0.31    1.28    1.80   -15.08625   170.36579    14.44480
    53  C   4.0   -0.05    4.30    4.20    -8.94120   171.00935    11.59873
    54  C   4.0   -0.04    4.24    4.08    -9.80555   172.38873     9.22293
    55  C   4.0    0.15    3.36    3.07   -10.72643   174.97181    10.11087
    56  O   6.0   -0.28    1.20    1.80   -12.95559   175.57807    10.10339
    57  N   5.0   -0.18    3.21    1.96    -8.89824   176.49161    11.00386
    58  H   1.0    0.13    1.18    1.46    -8.62075   169.88591    16.48008
    59  H   1.0    0.07    1.12    1.45   -11.73185   173.35604    13.55004
    60  H   1.0    0.04    1.03    1.43    -7.11861   171.73993    12.22072
    61  H   1.0    0.04    1.03    1.43    -8.77784   169.00915    11.18021
    62  H   1.0    0.04    1.02    1.43    -8.28214   172.59914     7.85344
    63  H   1.0    0.05    1.03    1.43   -11.38657   171.42155     8.32424
    64  H   1.0    0.08    1.03    1.43    -7.11887   175.86097    11.23856
    65  H   1.0    0.11    1.03    1.43    -9.39437   178.11218    11.87040
    66  N   5.0   -0.20    3.21    1.96   -19.70366   168.44883    14.77790
    67  C   4.0    0.04    4.25    4.09   -21.10984   169.48224    12.69128
    68  C   4.0    0.15    3.34    3.06   -22.46055   167.63943    10.77541
    69  O   6.0   -0.28    1.27    1.80   -24.44311   168.50212     9.89920
    70  C   4.0   -0.02    4.29    4.18   -19.41562   171.46386    11.34616
    71  C   4.0   -0.02    4.23    4.06   -17.27190   170.31572     9.80167
    72  C   4.0    0.25    3.15    3.03   -18.32073   169.85412     7.12790
    73  O   6.0   -0.29    1.19    1.80   -18.84036   171.79237     5.86983
    74  O   6.0   -0.31    1.19    1.80   -18.60667   167.61962     6.44709
    75  H   1.0    0.12    1.12    1.45   -17.81565   168.66713    14.48242
    76  H   1.0    0.06    1.06    1.44   -22.74649   170.51204    13.46377
    77  H   1.0    0.07    1.03    1.43   -20.57467   172.60829    10.07230
    78  H   1.0    0.07    1.03    1.43   -18.66138   172.71500    12.80189
    79  H   1.0    0.07    1.03    1.43   -15.72057   171.66483     9.67523
    80  H   1.0    0.05    1.03    1.43   -16.61171   168.52366    10.56601
    81  N   5.0   -0.12    3.32    1.99   -21.75011   165.24210    10.18879
    82  C   4.0    0.05    4.30    4.20   -23.37212   163.82444     8.43812
    83  C   4.0    0.09    3.25    3.04   -23.71945   161.02841     9.00991
    84  O   6.0   -0.29    1.14    1.80   -22.02135   159.54828     9.52170
    85  C   4.0    0.05    4.16    3.92   -22.75160   163.83907     5.59048
    86  O   6.0   -0.25    2.10    1.84   -24.93793   163.04046     4.30619
    87  H   1.0    0.09    1.05    1.44   -20.00894   164.60764    10.63857
    88  H   1.0    0.07    1.09    1.44   -25.21718   164.75785     8.62114
    89  H   1.0    0.07    1.02    1.43   -22.10274   165.70840     5.00456
    90  H   1.0    0.06    1.02    1.43   -21.27636   162.46241     5.16750
    91  H   1.0    0.13    1.02    1.43   -26.11432   164.43388     4.19161
    92  N   5.0   -0.20    3.29    1.98   -22.17340   154.86898     0.18275
    93  C   4.0    0.03    4.33    4.26   -20.45656   156.38401    -1.31186
    94  C   4.0    0.15    3.39    3.07   -17.71383   156.32447    -0.28982
    95  O   6.0   -0.32    1.30    1.80   -15.87966   156.60839    -1.66968
    96  C   4.0    0.05    4.19    3.97   -21.53127   159.17061    -1.28402
    97  O   6.0   -0.26    2.19    1.86   -22.90211   159.39713     1.00426
    98  C   4.0   -0.07    4.01    3.65   -23.08489   159.79103    -3.68519
    99  H   1.0    0.11    1.08    1.44   -23.14416   155.97476     1.42798
   100  H   1.0    0.05    1.05    1.44   -20.40169   155.67807    -3.25598
   101  H   1.0    0.04    1.04    1.43   -19.88657   160.44541    -1.22106
   102  H   1.0    0.13    1.03    1.43   -23.65743   161.05569     1.21458
   103  H   1.0    0.04    1.00    1.43   -23.82814   161.69850    -3.54720
   104  H   1.0    0.04    1.00    1.43   -21.87476   159.64887    -5.33299
   105  H   1.0    0.05    1.00    1.43   -24.64113   158.46976    -3.89141
   106  N   5.0   -0.14    3.53    2.10   -17.54068   156.08181     2.21210
   107  C   4.0    0.03    4.40    4.37   -15.14497   155.79978     3.46997
   108  C   4.0    0.09    3.26    3.05   -13.97510   153.32252     2.69420
   109  O   6.0   -0.29    1.14    1.80   -11.93148   153.32054     1.61242
   110  C   4.0   -0.05    4.35    4.29   -15.43046   155.95450     6.32697
   111  C   4.0   -0.01    4.20    4.01   -16.96167   158.26171     7.19814
   112  C   4.0   -0.06    4.11    3.82   -16.45105   158.88557     9.96847
   113  C   4.0   -0.07    4.16    3.93   -16.32126   160.54747     5.56152
   114  H   1.0    0.09    1.09    1.44   -19.11058   155.56527     3.16762
   115  H   1.0    0.05    1.06    1.44   -13.87318   157.27515     2.76464
   116  H   1.0    0.05    1.03    1.43   -16.29136   154.21743     7.03235
   117  H   1.0    0.05    1.03    1.43   -13.52655   156.05277     7.12667
   118  H   1.0    0.07    1.06    1.44   -18.97358   157.84438     7.00437
   119  H   1.0    0.06    1.01    1.43   -17.69903   160.39217    10.57163
   120  H   1.0    0.06    1.00    1.43   -16.83069   157.24162    11.14282
   121  H   1.0    0.04    1.00    1.43   -14.49182   159.44040    10.24277
   122  H   1.0    0.05    1.00    1.43   -17.13873   162.23130     6.40398
   123  H   1.0    0.04    1.00    1.43   -14.28199   160.79952     5.47718
   124  H   1.0    0.05    1.01    1.43   -17.05026   160.34357     3.65637
   125  N   5.0   -0.20    3.20    1.96   -13.20949   153.03198    -4.50787
   126  C   4.0    0.03    4.19    3.99   -11.16423   154.58856    -5.43430
   127  C   4.0    0.09    3.27    3.05    -8.53124   153.60420    -4.57584
   128  O   6.0   -0.30    1.15    1.80    -6.67865   153.59081    -5.98455
   129  C   4.0   -0.03    4.26    4.11   -11.55328   157.38386    -4.74407
   130  C   4.0   -0.03    4.02    3.66   -10.55036   158.10291    -2.11015
   131  S   6.0   -0.03    2.45    3.10    -7.03387   158.45129    -1.73054
   132  C   4.0   -0.06    3.88    3.43    -6.11250   161.00466    -3.95205
   133  H   1.0    0.12    1.06    1.44   -14.12448   153.68369    -2.95711
   134  H   1.0    0.04    1.06    1.44   -11.15035   154.38045    -7.49250
   135  H   1.0    0.05    1.03    1.43   -10.54465   158.52180    -6.14072
   136  H   1.0    0.06    1.04    1.43   -13.56170   157.82072    -4.83141
   137  H   1.0    0.04    1.06    1.44   -11.35113   159.90819    -1.54315
   138  H   1.0    0.07    1.08    1.44   -10.99431   156.68093    -0.70258
   139  H   1.0    0.04    1.05    1.44    -4.49716   161.87364    -3.05447
   140  H   1.0    0.07    1.04    1.43    -5.62421   160.14072    -5.74225
   141  H   1.0    0.05    1.04    1.43    -7.68713   162.28569    -4.14556
   142  N   5.0   -0.18    3.22    1.96    -5.41241   148.30718    -8.82069
   143  C   4.0    0.03    4.19    3.98    -4.46863   149.91651   -10.85240
   144  C   4.0    0.09    3.25    3.04    -1.80166   150.53776   -10.06011
   145  O   6.0   -0.27    1.11    1.80     0.14824   149.68680   -10.98710
   146  C   4.0   -0.05    4.21    4.02    -5.99461   152.38748   -11.28364
   147  C   4.0   -0.05    4.14    3.87    -8.81693   151.90400   -11.87909
   148  C   4.0   -0.04    4.15    3.89   -10.33383   154.27832   -12.57859
   149  C   4.0   -0.03    4.11    3.82   -13.21568   153.99560   -12.43900
   150  N   5.0   -0.11    3.98    2.81   -14.26910   152.36725   -14.45234
   151  H   1.0    0.10    1.03    1.43    -6.89993   149.09894    -7.92430
   152  H   1.0    0.05    1.04    1.43    -4.44613   148.81416   -12.61763
   153  H   1.0    0.07    1.05    1.44    -5.88490   153.64171    -9.67242
   154  H   1.0    0.04    1.03    1.43    -5.11344   153.30414   -12.91044
   155  H   1.0    0.04    1.02    1.43    -8.93772   150.54149   -13.42676
   156  H   1.0    0.05    1.03    1.43    -9.69881   151.03725   -10.22735
   157  H   1.0    0.05    1.03    1.43    -9.78117   155.80648   -11.31146
   158  H   1.0    0.06    1.04    1.43    -9.87461   154.86346   -14.50006
   159  H   1.0    0.04    1.02    1.43   -13.77611   153.19053   -10.62744
   160  H   1.0    0.07    1.03    1.43   -14.06404   155.85780   -12.67809
   161  H   1.0    0.07    1.03    1.43   -16.19971   152.46596   -14.34353
   162  H   1.0    0.06    0.96    1.43   -13.70637   152.77874   -16.40917
   163  H   1.0    0.06    1.03    1.43   -13.74630   150.53112   -14.13874
   164  N   5.0   -0.12    4.08    3.07   -21.15555   176.70675    -2.22080
   165  C   4.0    0.00    4.23    4.07   -18.59548   176.32319    -1.06966
   166  C   4.0    0.15    3.35    3.06   -16.62905   177.92341    -2.62793
   167  O   6.0   -0.30    1.22    1.80   -15.80131   177.09675    -4.61096
   168  C   4.0    0.04    4.10    3.81   -17.98741   173.44365    -1.03966
   169  O   6.0   -0.26    2.06    1.83   -16.10542   172.85613     0.72922
   170  H   1.0    0.06    1.02    1.43   -22.49970   175.66461    -1.25025
   171  H   1.0    0.06    1.02    1.43   -21.67989   178.58890    -2.11315
   172  H   1.0    0.06    1.02    1.43   -21.12088   176.19530    -4.10899
   173  H   1.0    0.05    1.04    1.43   -18.62672   176.97374     0.89241
   174  H   1.0    0.04    1.01    1.43   -19.71526   172.39259    -0.60163
   175  H   1.0    0.05    1.02    1.43   -17.22365   172.86827    -2.86357
   176  H   1.0    0.14    1.03    1.43   -16.83295   172.68939     2.40950
   177  N   5.0   -0.15    3.43    2.04   -16.19377   180.24037    -1.63707
   178  C   4.0    0.03    4.31    4.22   -14.45984   182.09597    -2.76367
   179  C   4.0    0.17    3.38    3.07   -11.93580   180.65460    -3.26521
   180  O   6.0   -0.28    1.20    1.80   -10.98337   180.51758    -5.36130
   181  C   4.0   -0.04    4.16    3.92   -14.50028   184.67273    -1.33469
   182  C   4.0   -0.03    4.12    3.83   -13.58763   184.81559     1.42333
   183  C   4.0    0.26    3.09    3.02   -10.85721   185.97392     1.58638
   184  O   6.0   -0.27    1.15    1.80    -9.07599   184.51034     2.09528
   185  O   6.0   -0.26    1.16    1.80   -10.72190   188.28385     1.14680
   186  H   1.0    0.08    1.06    1.44   -16.81502   180.67470     0.11735
   187  H   1.0    0.06    1.06    1.44   -15.15583   182.51943    -4.67439
   188  H   1.0    0.07    1.03    1.43   -13.33695   185.98602    -2.42795
   189  H   1.0    0.05    1.03    1.43   -16.44025   185.36193    -1.44585
   190  H   1.0    0.06    1.03    1.43   -14.80097   186.10204     2.48063
   191  H   1.0    0.05    1.02    1.43   -13.59006   182.97947     2.36970
   192  N   5.0   -0.13    3.48    2.07   -11.22725   179.24288    -1.27270
   193  C   4.0    0.04    4.26    4.11    -9.06899   177.56009    -1.25753
   194  C   4.0    0.15    3.32    3.06    -9.32691   175.05816    -2.85279
   195  O   6.0   -0.32    1.32    1.80    -7.81374   174.62495    -4.52025
   196  C   4.0   -0.07    4.11    3.83    -8.48786   177.10705     1.53475
   197  H   1.0    0.08    1.09    1.44   -11.81596   179.79656     0.45545
   198  H   1.0    0.06    1.05    1.44    -7.45703   178.51732    -2.15724
   199  H   1.0    0.04    1.00    1.43    -6.81585   175.92708     1.74241
   200  H   1.0    0.06    1.00    1.43    -8.09908   178.91064     2.44688
   201  H   1.0    0.05    1.00    1.43   -10.06050   176.18760     2.49084
   202  N   5.0   -0.14    3.40    2.02   -11.10375   173.30848    -2.28304
   203  C   4.0    0.03    4.37    4.32   -10.71880   170.65294    -2.94203
   204  C   4.0    0.14    3.48    3.11   -11.99430   169.83887    -5.37207
   205  O   6.0   -0.32    1.32    1.80   -11.41572   167.84417    -6.39470
   206  C   4.0   -0.04    4.34    4.26   -11.86184   168.81104    -0.92787
   207  C   4.0   -0.03    4.13    3.86   -10.13159   167.80471     1.19952
   208  C   4.0   -0.08    4.09    3.78   -11.62143   166.45208     3.28445
   209  C   4.0   -0.08    4.11    3.82    -8.19594   165.95241     0.11085
   210  H   1.0    0.09    1.07    1.44   -12.30694   173.62153    -0.82641
   211  H   1.0    0.05    1.06    1.44    -8.68928   170.33034    -3.16286
   212  H   1.0    0.06    1.04    1.43   -13.47946   169.75107    -0.06371
   213  H   1.0    0.05    1.05    1.44   -12.55990   167.14817    -1.93004
   214  H   1.0    0.04    1.05    1.44    -9.12825   169.40229     2.05311
   215  H   1.0    0.04    1.00    1.43   -10.34460   165.87327     4.78483
   216  H   1.0    0.05    0.99    1.43   -13.08476   167.63773     4.11068
   217  H   1.0    0.04    1.00    1.43   -12.52397   164.76285     2.53888
   218  H   1.0    0.03    1.00    1.43    -6.91067   165.30579     1.57872
   219  H   1.0    0.04    1.00    1.43    -9.12456   164.31019    -0.69211
   220  H   1.0    0.04    1.00    1.43    -7.08242   166.86217    -1.35489
   221  N   5.0   -0.15    3.53    2.10   -13.97422   171.19723    -6.20157
   222  C   4.0    0.03    4.40    4.38   -15.75213   170.05277    -8.00009
   223  C   4.0    0.16    3.33    3.06   -14.55004   169.69233   -10.68059
   224  O   6.0   -0.29    1.18    1.80   -15.44509   168.35507   -12.32541
   225  C   4.0   -0.04    4.20    4.01   -18.21014   171.62337    -8.14224
   226  C   4.0   -0.05    4.12    3.84   -20.62585   170.08509    -8.77657
   227  C   4.0   -0.05    4.13    3.86   -22.33046   169.58499    -6.46691
   228  C   4.0   -0.04    4.10    3.80   -24.49300   167.72167    -6.96479
   229  N   5.0   -0.12    4.01    2.88   -26.48265   168.81655    -8.63395
   230  H   1.0    0.10    1.06    1.44   -14.29582   172.96084    -5.52610
   231  H   1.0    0.05    1.05    1.44   -16.16285   168.15099    -7.28901
   232  H   1.0    0.04    1.03    1.43   -18.45918   172.59283    -6.34721
   233  H   1.0    0.05    1.03    1.43   -17.91598   173.07647    -9.57587
   234  H   1.0    0.05    1.03    1.43   -21.66064   171.18165   -10.17924
   235  H   1.0    0.05    1.03    1.43   -20.04923   168.32331    -9.67240
   236  H   1.0    0.04    1.03    1.43   -21.17338   168.81503    -4.94639
   237  H   1.0    0.04    1.03    1.43   -23.11295   171.37760    -5.82614
   238  H   1.0    0.04    1.02    1.43   -23.74209   166.02655    -7.86385
   239  H   1.0    0.04    1.02    1.43   -25.36529   167.20944    -5.17022
   240  H   1.0    0.06    1.02    1.43   -27.92078   167.53800    -8.92580
   241  H   1.0    0.06    1.02    1.43   -27.23342   170.43090    -7.83585
   242  H   1.0    0.06    1.02    1.43   -25.71504   169.28525   -10.36406
   243  N   5.0   -0.14    3.69    2.26   -12.45850   171.10000   -10.83384
   244  C   4.0    0.03    4.35    4.29   -10.62018   171.66465   -12.76439
   245  C   4.0    0.15    3.34    3.06    -8.58710   169.48362   -12.95676
   246  O   6.0   -0.28    1.18    1.80    -7.44634   168.83112   -14.85644
   247  C   4.0   -0.02    4.29    4.17    -9.62085   174.36811   -11.91290
   248  C   4.0   -0.04    4.21    4.03    -7.65081   174.24497    -9.76763
   249  C   4.0   -0.06    4.15    3.89   -11.76267   176.16104   -11.08021
   250  C   4.0   -0.05    4.04    3.68    -6.49511   176.77740    -8.98043
   251  H   1.0    0.08    1.20    1.46   -12.08807   172.11997    -9.26220
   252  H   1.0    0.06    1.04    1.43   -11.51634   171.81534   -14.62233
   253  H   1.0    0.05    1.05    1.44    -8.68093   175.18010   -13.56635
   254  H   1.0    0.07    1.05    1.44    -8.48071   173.36604    -8.10810
   255  H   1.0    0.05    1.03    1.43    -6.09838   173.05630   -10.44369
   256  H   1.0    0.05    1.00    1.43   -11.13635   178.09218   -11.39187
   257  H   1.0    0.05    1.00    1.43   -13.47273   175.86639   -12.17665
   258  H   1.0    0.06    1.00    1.43   -12.16968   176.01213    -9.07363
   259  H   1.0    0.06    1.00    1.43    -4.97572   176.42802    -7.64656
   260  H   1.0    0.05    1.00    1.43    -5.69527   177.73445   -10.61844
   261  H   1.0    0.07    1.00    1.43    -7.84788   178.02963    -8.07794
   262  N   5.0   -0.14    3.56    2.12    -8.28610   168.39621   -10.70293
   263  C   4.0    0.04    4.35    4.29    -6.73085   166.27244   -10.06754
   264  C   4.0    0.16    3.44    3.09    -8.29005   163.81574   -10.37953
   265  O   6.0   -0.32    1.29    1.80    -8.19707   162.06093    -8.88784
   266  C   4.0   -0.04    4.37    4.33    -5.82657   166.34636    -7.30236
   267  C   4.0   -0.03    4.14    3.88    -3.43496   167.83991    -6.61571
   268  C   4.0   -0.07    4.11    3.82    -3.96465   170.54359    -5.78831
   269  C   4.0   -0.08    4.12    3.84    -2.12119   166.47528    -4.40072
   270  H   1.0    0.11    1.16    1.45    -9.65911   168.78303    -9.42311
   271  H   1.0    0.06    1.05    1.44    -5.14882   166.21834   -11.39229
   272  H   1.0    0.06    1.04    1.43    -7.40911   166.94837    -6.13728
   273  H   1.0    0.05    1.08    1.44    -5.44823   164.37916    -6.84406
   274  H   1.0    0.04    1.05    1.44    -2.15550   167.85359    -8.23927
   275  H   1.0    0.04    1.00    1.43    -2.21785   171.62397    -5.74046
   276  H   1.0    0.05    1.02    1.43    -5.27081   171.47969    -7.03466
   277  H   1.0    0.05    1.00    1.43    -4.73986   170.55727    -3.88521
   278  H   1.0    0.04    1.00    1.43    -0.49526   167.56252    -3.76673
   279  H   1.0    0.03    1.00    1.43    -3.41012   166.24518    -2.82424
   280  H   1.0    0.04    1.00    1.43    -1.45864   164.61705    -4.97927
   281  N   5.0   -0.14    3.53    2.10    -9.80122   163.73900   -12.42404
   282  C   4.0    0.04    4.36    4.31   -11.43848   161.58067   -12.78525
   283  C   4.0    0.16    3.47    3.10   -10.79930   160.34272   -15.30983
   284  O   6.0   -0.31    1.31    1.80   -11.72397   158.32533   -15.91600
   285  C   4.0   -0.01    4.22    4.04   -14.30582   162.32498   -12.45271
   286  C   4.0    0.15    3.16    3.03   -16.16829   160.42970   -11.26641
   287  O   6.0   -0.28    1.19    1.80   -17.43649   158.95138   -12.50236
   288  N   5.0   -0.19    3.17    1.95   -16.44674   160.62967    -8.74401
   289  H   1.0    0.11    1.08    1.44   -10.08012   165.26626   -13.52751
   290  H   1.0    0.06    1.08    1.44   -10.92675   160.24906   -11.27701
   291  H   1.0    0.07    1.04    1.43   -14.30064   164.02227   -11.28690
   292  H   1.0    0.08    1.03    1.43   -15.03635   162.86050   -14.30333
   293  H   1.0    0.09    1.03    1.43   -17.54601   159.34533    -7.86197
   294  H   1.0    0.09    1.03    1.43   -15.23441   161.63851    -7.68058
   295  N   5.0   -0.13    3.60    2.16    -9.09466   161.44336   -16.88623
   296  C   4.0    0.04    4.56    4.61    -9.53667   160.81221   -19.52278
   297  C   4.0    0.14    3.55    3.14    -7.01729   160.18194   -20.58765
   298  O   6.0   -0.33    1.35    1.80    -6.27602   161.19772   -22.53744
   299  C   4.0   -0.02    4.34    4.27   -10.77637   162.80729   -21.18889
   300  C   4.0    0.16    3.23    3.04   -12.15238   164.86426   -19.73190
   301  O   6.0   -0.28    1.28    1.80   -12.73616   164.69361   -17.49751
   302  N   5.0   -0.18    3.18    1.95   -12.61499   166.97743   -21.09215
   303  H   1.0    0.10    1.07    1.44    -8.46133   163.20951   -16.51884
   304  H   1.0    0.07    1.09    1.44   -10.71407   159.09705   -19.49585
   305  H   1.0    0.06    1.06    1.44    -9.32726   163.74191   -22.32508
   306  H   1.0    0.05    1.03    1.43   -12.10159   161.88596   -22.46674
   307  H   1.0    0.11    1.03    1.43   -13.74780   168.29491   -20.31757
   308  H   1.0    0.09    1.03    1.43   -12.22033   167.10776   -22.94746
   309  N   5.0   -0.14    3.48    2.06    -5.66087   158.62839   -19.12675
   310  C   4.0    0.04    4.46    4.47    -3.92604   156.84109   -20.23568
   311  C   4.0    0.09    3.29    3.05    -2.19891   158.05202   -22.16772
   312  O   6.0   -0.27    1.15    1.80    -0.03410   158.44196   -21.42245
   313  C   4.0   -0.03    4.31    4.22    -5.16668   154.35926   -21.16497
   314  C   4.0   -0.04    4.25    4.10    -3.14897   152.33614   -20.87182
   315  C   4.0   -0.07    4.08    3.77    -6.18152   154.22247   -23.88531
   316  C   4.0   -0.07    4.05    3.71    -2.50112   151.82932   -18.13030
   317  H   1.0    0.08    1.10    1.44    -6.60905   157.94145   -17.60467
   318  H   1.0    0.05    1.10    1.44    -2.64772   156.29819   -18.70622
   319  H   1.0    0.04    1.05    1.44    -6.75020   153.92864   -19.89559
   320  H   1.0    0.05    1.03    1.43    -3.82240   150.59908   -21.75704
   321  H   1.0    0.06    1.03    1.43    -1.45000   152.91432   -21.89206
   322  H   1.0    0.05    1.00    1.43    -7.05254   152.37917   -24.13794
   323  H   1.0    0.05    0.99    1.43    -7.62347   155.64875   -24.25597
   324  H   1.0    0.05    1.00    1.43    -4.66723   154.32818   -25.26134
   325  H   1.0    0.06    1.00    1.43    -1.32842   150.14542   -18.01318
   326  H   1.0    0.05    1.00    1.43    -1.45346   153.35153   -17.23707
   327  H   1.0    0.04    1.00    1.43    -4.21577   151.47742   -17.05332
   328  N   5.0   -0.19    3.30    1.98    -1.19057   163.42483   -23.59737
   329  C   4.0    0.04    4.26    4.12    -0.60844   165.71029   -22.28070
   330  C   4.0    0.11    3.23    3.04     0.74414   165.11622   -19.79784
   331  O   6.0   -0.30    1.14    1.80     1.95242   166.59466   -18.49516
   332  C   4.0    0.06    4.25    4.10    -3.14791   167.05748   -21.74141
   333  O   6.0   -0.23    2.14    1.85    -4.30630   165.80363   -19.69920
   334  C   4.0   -0.07    4.06    3.73    -4.83723   167.30645   -24.10025
   335  H   1.0    0.11    1.07    1.44    -3.00092   162.80865   -23.42250
   336  H   1.0    0.05    1.05    1.44     0.58677   166.91239   -23.45784
   337  H   1.0    0.06    1.04    1.43    -2.69451   168.94741   -21.02393
   338  H   1.0    0.14    1.06    1.44    -5.17762   164.33765   -20.35093
   339  H   1.0    0.05    1.00    1.43    -6.34046   168.63820   -23.67968
   340  H   1.0    0.05    1.00    1.43    -3.73373   168.02863   -25.66995
   341  H   1.0    0.06    1.00    1.43    -5.68165   165.50816   -24.61599
   342  N   5.0   -0.20    3.20    1.96     7.35839   167.85395   -18.42646
   343  C   4.0    0.04    4.19    3.97     8.50489   169.17472   -16.31887
   344  C   4.0    0.09    3.18    3.03    10.63368   167.54847   -15.14668
   345  O   6.0   -0.26    1.11    1.80    12.42905   168.45181   -13.99456
   346  C   4.0   -0.04    4.19    3.97     6.47416   169.96428   -14.42771
   347  C   4.0   -0.03    4.13    3.87     7.28756   172.19247   -12.68496
   348  C   4.0    0.15    3.13    3.03     6.51380   175.02385   -13.12276
   349  O   6.0   -0.28    1.17    1.80     6.36787   176.53629   -11.32772
   350  N   5.0   -0.18    3.15    1.95     6.03734   175.67484   -15.53734
   351  H   1.0    0.12    1.05    1.44     5.52667   167.27748   -18.31864
   352  H   1.0    0.06    1.05    1.44     9.47961   170.85600   -17.06118
   353  H   1.0    0.06    1.03    1.43     4.76001   170.45996   -15.46574
   354  H   1.0    0.05    1.03    1.43     6.01541   168.36148   -13.22001
   355  H   1.0    0.05    1.03    1.43     6.62359   171.77550   -10.78018
   356  H   1.0    0.07    1.03    1.43     9.35247   172.23240   -12.60136
   357  H   1.0    0.09    1.03    1.43     6.40082   174.46288   -16.95417
   358  H   1.0    0.11    1.03    1.43     5.70779   177.50113   -15.96822
   359  H   1.0    0.10    1.07    1.44     3.78136   180.96229    -3.37760
   360  H   1.0    0.06    1.04    1.43     6.30158   174.51724    -1.61127
   361  H   1.0    0.10    1.07    1.44     2.50075   171.60582     6.07588
   362  H   1.0    0.07    1.05    1.44     7.42147   167.76921     7.07262
   363  H   1.0    0.09    1.08    1.44    -1.95574   171.22411    15.35557
   364  H   1.0    0.06    1.04    1.43    -5.11309   166.08628    18.49992
   365  H   1.0    0.10    1.08    1.44    -8.81942   172.79180    16.45302
   366  H   1.0    0.06    1.05    1.44   -12.65258   167.80365    13.57316
   367  H   1.0    0.11    1.07    1.44   -20.13840   169.25569    16.21057
   368  H   1.0    0.07    1.05    1.44   -25.44853   160.26639     8.98415
   369  H   1.0    0.10    1.07    1.44   -23.28344   154.08981    -0.84353
   370  H   1.0    0.06    1.05    1.44   -14.86825   151.69882     3.06430
   371  H   1.0    0.10    1.07    1.44   -14.39208   152.86844    -5.71919
   372  H   1.0    0.07    1.05    1.44    -8.29421   152.94890    -2.81929
   373  H   1.0    0.10    1.07    1.44    -5.90979   146.81348    -9.46413
   374  H   1.0    0.07    1.05    1.44    -1.49490   151.75456    -8.64718
   375  H   1.0    0.06    1.04    1.43    -2.85332   158.46766   -23.89110
   376  H   1.0    0.10    1.08    1.44    -0.91720   163.64310   -25.26175
   377  H   1.0    0.08    1.05    1.44     0.69052   163.36570   -19.08801
   378  H   1.0    0.10    1.07    1.44     7.39538   168.84704   -19.80666
   379  H   1.0    0.07    1.05    1.44    10.58473   165.66659   -15.31160

  Z AO/shell   Hii/eV     exponent
  1     Wed Apr 25 08:07:45 CEST 2018   EN: 2.200 GM2: 0.406  GM3: 0.0800  RAES: 1.40
     1s    -10.707211    1.230000
  6     Wed Apr 25 08:07:45 CEST 2018   EN: 2.550 GM2: 0.538  GM3: 0.1500  RAES: 3.00
     2s    -13.970922    2.096432
     2p    -10.063292    1.800000
  7     Wed Apr 25 08:07:45 CEST 2018   EN: 3.040 GM2: 0.461  GM3:-0.0640  RAES: 1.90
     2s    -16.686243    2.339881
     2p    -12.523956    2.014332
  8     Wed Apr 25 08:07:45 CEST 2018   EN: 3.440 GM2: 0.452  GM3:-0.0517  RAES: 1.80
     2s    -20.229985    2.439742
     2p    -15.503117    2.137023
 16     Tue Apr 24 11:44:34 CEST 2018   EN: 2.580 GM2: 0.340  GM3:-0.0502  RAES: 3.10
     3s    -20.029654    1.981333
     3p    -11.377694    2.025643
     3d     -0.420282    1.702555
 no old-style atom pair restraining (fixing) potential

molecular fragmentation (1/2 indicates fragments):
111111111122222222222222222222222222222222222222222222222222222222222222
222222222222222222222222222222222222222222222222222222222222222222222222
222222222222222222222222222222222222222222222222222222222222222222222222
222222222222222222222222222222222222222222222222222222222222222222222222
222222222222222222222222222222222222222222222222222222222222222222222211
2222222222222222222
# atoms in fragment 1/2:    12   367
 fragment masses (1/2) :       73.09     2390.96
CMA distance (Bohr)    :  17.670
constraining FC (au)   :  0.0500
           ------------------------------------------------- 
          |        Self-Consistent Charge Iterations        |
           ------------------------------------------------- 

 Ncao       : 895
 Nao        : 894
 Nshell     : 550
 Nel        : 986
 T(el)      :   500.0
 intcut     :    35.0
 scfconv/Eh :  0.100E-06
   qconv/e  :  0.100E-04
 intneglect :  0.100E-08
 broydamp   :      0.400
 iter      E             dE          RMSdq      gap      omega  full diag
   1   -563.5044091 -0.563504E+03  0.459E+00    3.03       0.0  T
   2   -564.8896776 -0.138527E+01  0.213E+00    1.52       1.0  T
   3   -564.9856666 -0.959891E-01  0.125E+00    1.78       1.0  T
   4   -565.0850010 -0.993344E-01  0.256E-01    1.14       1.0  T
   5   -565.0898926 -0.489161E-02  0.125E-01    1.26       1.0  T
   6   -565.0909199 -0.102727E-02  0.543E-02    1.15       1.0  T
   7   -565.0911275 -0.207564E-03  0.241E-02    1.16       1.0  T
   8   -565.0911627 -0.351804E-04  0.113E-02    1.14       1.0  T
   9   -565.0911727 -0.100405E-04  0.542E-03    1.14       1.0  T
  10   -565.0911746 -0.192136E-05  0.237E-03    1.13       2.2  T
  11   -565.0911751 -0.503596E-06  0.110E-03    1.13       4.7  T
  12   -565.0911752 -0.640563E-07  0.451E-04    1.13      11.4  T
  13   -565.0911752 -0.971704E-08  0.243E-04    1.13      21.1  T
  14   -565.0911752 -0.316084E-08  0.953E-05    1.13      53.9  T
  15   -565.0911752 -0.434738E-09  0.437E-05    1.13     117.5  T
speedup  1.90
cpu  time for SCC   14.67 s
wall time for SCC    7.70 s

   *** convergence criteria satisfied after 15 iterations ***

          eigenvalues
 #    :         481        482        483        484        485        486        487        488
 occ. :        2.000      2.000      2.000      2.000      2.000      2.000      2.000      2.000
 eps  :       -10.233    -10.196    -10.142     -9.970     -9.966     -9.877     -9.813     -9.790
 #    :         489        490        491        492        493        494        495        496
 occ. :        2.000      2.000      2.000      2.000      2.000      0.000      0.000      0.000
 eps  :        -9.781     -9.688     -9.599     -9.570     -9.275     -8.143     -8.012     -7.781
 #    :         497        498        499        500        501        502        503        504
 occ. :        0.000      0.000      0.000      0.000      0.000      0.000      0.000      0.000
 eps  :        -7.778     -7.776     -7.740     -7.719     -7.712     -7.519     -7.336     -7.282


   #   Z            q   n(s)   n(p)   n(d)      C6AA      α(0)
   1   7 N     -0.394  1.323  4.071  0.000    30.207     8.163
   2   6 C      0.037  1.064  2.899  0.000    19.980     6.369
   3   6 C      0.201  1.098  2.701  0.000    23.722     7.976
   4   8 O     -0.363  1.754  4.609  0.000    20.964     6.139
   5   6 C     -0.117  1.043  3.074  0.000    22.805     6.810
   6   1 H      0.166  0.834  0.000  0.000     1.295     1.782
   7   1 H      0.057  0.943  0.000  0.000     2.230     2.335
   8   1 H      0.043  0.957  0.000  0.000     2.409     2.427
   9   1 H      0.055  0.945  0.000  0.000     2.263     2.353
  10   1 H      0.057  0.943  0.000  0.000     2.229     2.335
  11   7 N     -0.398  1.321  4.076  0.000    30.309     8.176
  12   6 C      0.035  1.063  2.902  0.000    20.006     6.372
  13   6 C      0.199  1.093  2.709  0.000    23.764     7.983
  14   8 O     -0.379  1.754  4.625  0.000    21.273     6.184
  15   6 C     -0.069  1.064  3.005  0.000    21.825     6.652
  16   6 C     -0.012  1.059  2.953  0.000    20.761     6.481
  17   6 C     -0.112  1.040  3.072  0.000    22.698     6.792
  18   6 C     -0.113  1.041  3.071  0.000    22.701     6.791
  19   1 H      0.164  0.836  0.000  0.000     1.310     1.793
  20   1 H      0.064  0.936  0.000  0.000     2.154     2.295
  21   1 H      0.051  0.949  0.000  0.000     2.302     2.373
  22   1 H      0.035  0.965  0.000  0.000     2.517     2.481
  23   1 H      0.038  0.962  0.000  0.000     2.472     2.459
  24   1 H      0.040  0.960  0.000  0.000     2.443     2.444
  25   1 H      0.043  0.957  0.000  0.000     2.408     2.427
  26   1 H      0.042  0.958  0.000  0.000     2.418     2.432
  27   1 H      0.044  0.956  0.000  0.000     2.402     2.424
  28   1 H      0.044  0.956  0.000  0.000     2.402     2.424
  29   1 H      0.026  0.974  0.000  0.000     2.638     2.540
  30   7 N     -0.393  1.313  4.079  0.000    30.167     8.157
  31   6 C      0.031  1.062  2.907  0.000    20.072     6.383
  32   6 C      0.187  1.094  2.718  0.000    23.983     8.020
  33   8 O     -0.364  1.761  4.603  0.000    20.973     6.140
  34   6 C     -0.075  1.069  3.006  0.000    21.937     6.668
  35   6 C     -0.014  1.062  2.952  0.000    20.795     6.487
  36   6 C     -0.115  1.041  3.074  0.000    22.754     6.802
  37   6 C     -0.112  1.041  3.071  0.000    22.697     6.793
  38   1 H      0.165  0.835  0.000  0.000     1.304     1.789
  39   1 H      0.060  0.940  0.000  0.000     2.201     2.320
  40   1 H      0.053  0.947  0.000  0.000     2.287     2.365
  41   1 H      0.041  0.959  0.000  0.000     2.433     2.439
  42   1 H      0.027  0.973  0.000  0.000     2.625     2.534
  43   1 H      0.048  0.952  0.000  0.000     2.350     2.397
  44   1 H      0.037  0.963  0.000  0.000     2.485     2.465
  45   1 H      0.040  0.960  0.000  0.000     2.448     2.447
  46   1 H      0.050  0.950  0.000  0.000     2.319     2.381
  47   1 H      0.039  0.961  0.000  0.000     2.464     2.455
  48   1 H      0.033  0.967  0.000  0.000     2.545     2.495
  49   7 N     -0.407  1.333  4.075  0.000    30.578     8.213
  50   6 C      0.041  1.048  2.911  0.000    19.886     6.350
  51   6 C      0.212  1.083  2.706  0.000    23.523     7.945
  52   8 O     -0.359  1.749  4.609  0.000    20.873     6.125
  53   6 C     -0.076  1.058  3.019  0.000    21.948     6.668
  54   6 C     -0.099  1.057  3.042  0.000    22.377     6.733
  55   6 C      0.294  1.040  2.666  0.000    22.013     7.683
  56   8 O     -0.512  1.761  4.751  0.000    24.042     6.574
  57   7 N     -0.294  1.269  4.025  0.000    27.580     7.800
  58   1 H      0.207  0.793  0.000  0.000     1.070     1.620
  59   1 H      0.061  0.939  0.000  0.000     2.187     2.313
  60   1 H      0.056  0.944  0.000  0.000     2.243     2.342
  61   1 H      0.067  0.933  0.000  0.000     2.124     2.279
  62   1 H      0.075  0.925  0.000  0.000     2.032     2.229
  63   1 H      0.056  0.944  0.000  0.000     2.250     2.346
  64   1 H      0.229  0.771  0.000  0.000     0.968     1.541
  65   1 H      0.223  0.777  0.000  0.000     0.998     1.565
  66   7 N     -0.431  1.330  4.102  0.000    31.262     8.304
  67   6 C      0.043  1.065  2.892  0.000    19.881     6.353
  68   6 C      0.266  1.070  2.664  0.000    22.503     7.768
  69   8 O     -0.510  1.745  4.765  0.000    23.997     6.568
  70   6 C     -0.040  1.054  2.986  0.000    21.288     6.568
  71   6 C     -0.081  1.057  3.024  0.000    22.038     6.684
  72   6 C      0.362  1.028  2.609  0.000    20.854     7.474
  73   8 O     -0.649  1.758  4.891  0.000    27.345     7.011
  74   8 O     -0.621  1.762  4.859  0.000    26.642     6.920
  75   1 H      0.195  0.805  0.000  0.000     1.133     1.668
  76   1 H      0.025  0.975  0.000  0.000     2.666     2.554
  77   1 H      0.019  0.981  0.000  0.000     2.754     2.595
  78   1 H      0.029  0.971  0.000  0.000     2.595     2.519
  79   1 H      0.016  0.984  0.000  0.000     2.796     2.615
  80   1 H      0.004  0.996  0.000  0.000     2.989     2.704
  81   7 N     -0.159  1.243  3.916  0.000    24.440     7.342
  82   6 C      0.019  1.059  2.922  0.000    20.266     6.411
  83   6 C      0.199  1.085  2.717  0.000    23.767     7.985
  84   8 O     -0.353  1.749  4.603  0.000    20.757     6.108
  85   6 C      0.074  1.039  2.887  0.000    19.526     6.324
  86   8 O     -0.463  1.710  4.753  0.000    22.112     6.348
  87   1 H      0.191  0.809  0.000  0.000     1.151     1.681
  88   1 H      0.092  0.908  0.000  0.000     1.858     2.132
  89   1 H      0.065  0.935  0.000  0.000     2.137     2.286
  90   1 H      0.072  0.928  0.000  0.000     2.062     2.245
  91   1 H      0.351  0.649  0.000  0.000     0.586     1.202
  92   7 N     -0.411  1.328  4.083  0.000    30.681     8.227
  93   6 C      0.016  1.071  2.913  0.000    20.336     6.425
  94   6 C      0.256  1.052  2.692  0.000    22.691     7.800
  95   8 O     -0.478  1.740  4.739  0.000    23.307     6.473
  96   6 C      0.110  1.053  2.837  0.000    18.881     6.207
  97   8 O     -0.479  1.720  4.758  0.000    22.435     6.394
  98   6 C     -0.143  1.050  3.093  0.000    23.315     6.887
  99   1 H      0.192  0.808  0.000  0.000     1.148     1.678
 100   1 H      0.054  0.946  0.000  0.000     2.274     2.358
 101   1 H      0.010  0.990  0.000  0.000     2.898     2.662
 102   1 H      0.328  0.672  0.000  0.000     0.643     1.259
 103   1 H      0.072  0.928  0.000  0.000     2.065     2.247
 104   1 H      0.061  0.939  0.000  0.000     2.183     2.311
 105   1 H      0.060  0.940  0.000  0.000     2.198     2.318
 106   7 N     -0.161  1.244  3.917  0.000    24.486     7.349
 107   6 C      0.029  1.053  2.918  0.000    20.089     6.382
 108   6 C      0.200  1.082  2.718  0.000    23.748     7.981
 109   8 O     -0.355  1.756  4.599  0.000    20.799     6.115
 110   6 C     -0.077  1.059  3.018  0.000    21.967     6.671
 111   6 C     -0.009  1.056  2.953  0.000    20.706     6.472
 112   6 C     -0.112  1.041  3.071  0.000    22.695     6.792
 113   6 C     -0.115  1.039  3.076  0.000    22.756     6.801
 114   1 H      0.218  0.782  0.000  0.000     1.019     1.581
 115   1 H      0.089  0.911  0.000  0.000     1.885     2.147
 116   1 H      0.053  0.947  0.000  0.000     2.289     2.366
 117   1 H      0.056  0.944  0.000  0.000     2.249     2.345
 118   1 H      0.052  0.948  0.000  0.000     2.294     2.369
 119   1 H      0.042  0.958  0.000  0.000     2.421     2.433
 120   1 H      0.039  0.961  0.000  0.000     2.463     2.454
 121   1 H      0.034  0.966  0.000  0.000     2.526     2.486
 122   1 H      0.040  0.960  0.000  0.000     2.450     2.448
 123   1 H      0.038  0.962  0.000  0.000     2.481     2.463
 124   1 H      0.045  0.955  0.000  0.000     2.389     2.417
 125   7 N     -0.397  1.317  4.080  0.000    30.289     8.174
 126   6 C      0.035  1.059  2.906  0.000    20.011     6.373
 127   6 C      0.202  1.093  2.705  0.000    23.701     7.972
 128   8 O     -0.381  1.755  4.626  0.000    21.306     6.189
 129   6 C     -0.074  1.061  3.013  0.000    21.914     6.664
 130   6 C     -0.014  1.076  2.938  0.000    20.836     6.502
 131  16 S     -0.262  1.937  4.272  0.053   152.325    20.773
 132   6 C     -0.061  1.063  2.999  0.000    21.760     6.655
 133   1 H      0.162  0.838  0.000  0.000     1.323     1.802
 134   1 H      0.069  0.931  0.000  0.000     2.100     2.266
 135   1 H      0.056  0.944  0.000  0.000     2.242     2.342
 136   1 H      0.087  0.913  0.000  0.000     1.909     2.161
 137   1 H      0.045  0.955  0.000  0.000     2.385     2.415
 138   1 H      0.077  0.923  0.000  0.000     2.015     2.220
 139   1 H      0.058  0.942  0.000  0.000     2.225     2.332
 140   1 H      0.063  0.937  0.000  0.000     2.165     2.301
 141   1 H      0.077  0.923  0.000  0.000     2.007     2.215
 142   7 N     -0.387  1.331  4.056  0.000    30.007     8.136
 143   6 C      0.038  1.058  2.904  0.000    19.949     6.363
 144   6 C      0.208  1.089  2.704  0.000    23.597     7.956
 145   8 O     -0.406  1.765  4.641  0.000    21.807     6.261
 146   6 C     -0.092  1.062  3.030  0.000    22.253     6.717
 147   6 C     -0.076  1.054  3.022  0.000    21.949     6.671
 148   6 C     -0.089  1.054  3.035  0.000    22.202     6.709
 149   6 C     -0.046  1.057  2.989  0.000    21.491     6.618
 150   7 N     -0.143  1.236  3.907  0.000    24.077     7.288
 151   1 H      0.174  0.826  0.000  0.000     1.250     1.751
 152   1 H      0.049  0.951  0.000  0.000     2.333     2.389
 153   1 H      0.080  0.920  0.000  0.000     1.975     2.197
 154   1 H      0.041  0.959  0.000  0.000     2.431     2.438
 155   1 H      0.058  0.942  0.000  0.000     2.219     2.330
 156   1 H      0.052  0.948  0.000  0.000     2.297     2.370
 157   1 H      0.061  0.939  0.000  0.000     2.182     2.310
 158   1 H      0.082  0.918  0.000  0.000     1.961     2.190
 159   1 H      0.105  0.895  0.000  0.000     1.742     2.064
 160   1 H      0.121  0.879  0.000  0.000     1.606     1.982
 161   1 H      0.302  0.698  0.000  0.000     0.707     1.317
 162   1 H      0.306  0.694  0.000  0.000     0.698     1.309
 163   1 H      0.291  0.709  0.000  0.000     0.742     1.350
 164   7 N     -0.151  1.234  3.916  0.000    24.253     7.314
 165   6 C     -0.045  1.094  2.951  0.000    21.419     6.595
 166   6 C      0.263  1.039  2.698  0.000    22.567     7.778
 167   8 O     -0.425  1.741  4.685  0.000    22.193     6.316
 168   6 C      0.052  1.041  2.906  0.000    19.926     6.397
 169   8 O     -0.460  1.707  4.753  0.000    22.052     6.339
 170   1 H      0.323  0.677  0.000  0.000     0.650     1.263
 171   1 H      0.311  0.689  0.000  0.000     0.682     1.294
 172   1 H      0.312  0.688  0.000  0.000     0.678     1.290
 173   1 H      0.120  0.880  0.000  0.000     1.611     1.985
 174   1 H      0.095  0.905  0.000  0.000     1.835     2.118
 175   1 H      0.101  0.899  0.000  0.000     1.777     2.085
 176   1 H      0.320  0.680  0.000  0.000     0.664     1.280
 177   7 N     -0.175  1.253  3.922  0.000    24.798     7.396
 178   6 C      0.002  1.082  2.917  0.000    20.573     6.461
 179   6 C      0.279  1.045  2.675  0.000    22.270     7.727
 180   8 O     -0.468  1.749  4.719  0.000    23.082     6.441
 181   6 C     -0.063  1.057  3.006  0.000    21.708     6.634
 182   6 C     -0.100  1.070  3.030  0.000    22.416     6.742
 183   6 C      0.368  1.027  2.606  0.000    20.765     7.457
 184   8 O     -0.652  1.776  4.876  0.000    27.436     7.023
 185   8 O     -0.655  1.781  4.873  0.000    27.502     7.031
 186   1 H      0.222  0.778  0.000  0.000     1.001     1.567
 187   1 H      0.096  0.904  0.000  0.000     1.823     2.112
 188   1 H      0.039  0.961  0.000  0.000     2.468     2.457
 189   1 H      0.076  0.924  0.000  0.000     2.026     2.226
 190   1 H      0.032  0.968  0.000  0.000     2.554     2.499
 191   1 H      0.022  0.978  0.000  0.000     2.710     2.574
 192   7 N     -0.183  1.251  3.932  0.000    24.956     7.419
 193   6 C      0.027  1.064  2.909  0.000    20.147     6.394
 194   6 C      0.269  1.051  2.680  0.000    22.463     7.760
 195   8 O     -0.440  1.742  4.697  0.000    22.490     6.358
 196   6 C     -0.126  1.043  3.083  0.000    22.966     6.832
 197   1 H      0.202  0.798  0.000  0.000     1.098     1.642
 198   1 H      0.057  0.943  0.000  0.000     2.235     2.338
 199   1 H      0.064  0.936  0.000  0.000     2.158     2.297
 200   1 H      0.059  0.941  0.000  0.000     2.207     2.323
 201   1 H      0.063  0.937  0.000  0.000     2.168     2.303
 202   7 N     -0.192  1.255  3.937  0.000    25.163     7.450
 203   6 C      0.019  1.064  2.917  0.000    20.269     6.412
 204   6 C      0.268  1.047  2.685  0.000    22.472     7.764
 205   8 O     -0.482  1.743  4.739  0.000    23.388     6.484
 206   6 C     -0.087  1.068  3.019  0.000    22.153     6.700
 207   6 C     -0.010  1.059  2.951  0.000    20.717     6.474
 208   6 C     -0.108  1.039  3.069  0.000    22.622     6.782
 209   6 C     -0.112  1.041  3.071  0.000    22.693     6.792
 210   1 H      0.214  0.786  0.000  0.000     1.040     1.597
 211   1 H      0.077  0.923  0.000  0.000     2.006     2.215
 212   1 H      0.081  0.919  0.000  0.000     1.968     2.194
 213   1 H      0.072  0.928  0.000  0.000     2.064     2.246
 214   1 H      0.026  0.974  0.000  0.000     2.643     2.542
 215   1 H      0.039  0.961  0.000  0.000     2.457     2.451
 216   1 H      0.027  0.973  0.000  0.000     2.634     2.538
 217   1 H      0.047  0.953  0.000  0.000     2.351     2.398
 218   1 H      0.040  0.960  0.000  0.000     2.451     2.448
 219   1 H      0.050  0.950  0.000  0.000     2.326     2.385
 220   1 H      0.034  0.966  0.000  0.000     2.526     2.485
 221   7 N     -0.194  1.251  3.943  0.000    25.214     7.458
 222   6 C     -0.002  1.081  2.921  0.000    20.619     6.466
 223   6 C      0.271  1.041  2.688  0.000    22.414     7.751
 224   8 O     -0.456  1.743  4.713  0.000    22.830     6.406
 225   6 C     -0.089  1.060  3.029  0.000    22.201     6.709
 226   6 C     -0.092  1.057  3.035  0.000    22.253     6.717
 227   6 C     -0.108  1.059  3.048  0.000    22.555     6.762
 228   6 C     -0.056  1.060  2.996  0.000    21.680     6.647
 229   7 N     -0.146  1.228  3.918  0.000    24.158     7.300
 230   1 H      0.214  0.786  0.000  0.000     1.038     1.596
 231   1 H      0.098  0.902  0.000  0.000     1.803     2.100
 232   1 H      0.076  0.924  0.000  0.000     2.016     2.220
 233   1 H      0.064  0.936  0.000  0.000     2.156     2.296
 234   1 H      0.078  0.922  0.000  0.000     2.004     2.214
 235   1 H      0.074  0.926  0.000  0.000     2.044     2.236
 236   1 H      0.090  0.910  0.000  0.000     1.880     2.144
 237   1 H      0.089  0.911  0.000  0.000     1.884     2.147
 238   1 H      0.121  0.879  0.000  0.000     1.603     1.980
 239   1 H      0.122  0.878  0.000  0.000     1.594     1.975
 240   1 H      0.300  0.700  0.000  0.000     0.714     1.324
 241   1 H      0.301  0.699  0.000  0.000     0.710     1.320
 242   1 H      0.293  0.707  0.000  0.000     0.734     1.342
 243   7 N     -0.194  1.240  3.954  0.000    25.216     7.458
 244   6 C      0.003  1.084  2.913  0.000    20.555     6.460
 245   6 C      0.266  1.047  2.687  0.000    22.508     7.768
 246   8 O     -0.491  1.756  4.735  0.000    23.577     6.510
 247   6 C     -0.030  1.078  2.952  0.000    21.075     6.530
 248   6 C     -0.060  1.053  3.007  0.000    21.655     6.625
 249   6 C     -0.123  1.042  3.081  0.000    22.912     6.826
 250   6 C     -0.102  1.036  3.066  0.000    22.511     6.767
 251   1 H      0.206  0.794  0.000  0.000     1.074     1.623
 252   1 H      0.071  0.929  0.000  0.000     2.071     2.251
 253   1 H      0.045  0.955  0.000  0.000     2.388     2.417
 254   1 H      0.051  0.949  0.000  0.000     2.310     2.377
 255   1 H      0.024  0.976  0.000  0.000     2.675     2.558
 256   1 H      0.056  0.944  0.000  0.000     2.244     2.343
 257   1 H      0.060  0.940  0.000  0.000     2.196     2.317
 258   1 H      0.051  0.949  0.000  0.000     2.301     2.372
 259   1 H      0.041  0.959  0.000  0.000     2.440     2.443
 260   1 H      0.024  0.976  0.000  0.000     2.669     2.555
 261   1 H      0.049  0.951  0.000  0.000     2.335     2.389
 262   7 N     -0.191  1.254  3.938  0.000    25.148     7.448
 263   6 C      0.022  1.060  2.918  0.000    20.223     6.405
 264   6 C      0.267  1.051  2.682  0.000    22.498     7.768
 265   8 O     -0.451  1.737  4.714  0.000    22.722     6.391
 266   6 C     -0.094  1.058  3.036  0.000    22.290     6.720
 267   6 C     -0.013  1.060  2.953  0.000    20.769     6.482
 268   6 C     -0.113  1.038  3.074  0.000    22.703     6.793
 269   6 C     -0.111  1.045  3.067  0.000    22.683     6.790
 270   1 H      0.218  0.782  0.000  0.000     1.019     1.581
 271   1 H      0.065  0.935  0.000  0.000     2.141     2.288
 272   1 H      0.071  0.929  0.000  0.000     2.072     2.251
 273   1 H      0.083  0.917  0.000  0.000     1.949     2.183
 274   1 H      0.025  0.975  0.000  0.000     2.653     2.547
 275   1 H      0.023  0.977  0.000  0.000     2.694     2.567
 276   1 H      0.056  0.944  0.000  0.000     2.243     2.342
 277   1 H      0.032  0.968  0.000  0.000     2.553     2.499
 278   1 H      0.034  0.966  0.000  0.000     2.529     2.487
 279   1 H      0.043  0.957  0.000  0.000     2.408     2.427
 280   1 H      0.036  0.964  0.000  0.000     2.504     2.475
 281   7 N     -0.179  1.239  3.940  0.000    24.872     7.407
 282   6 C      0.021  1.065  2.915  0.000    20.238     6.407
 283   6 C      0.277  1.050  2.673  0.000    22.316     7.737
 284   8 O     -0.424  1.715  4.709  0.000    22.167     6.313
 285   6 C     -0.107  1.067  3.040  0.000    22.543     6.761
 286   6 C      0.287  1.040  2.673  0.000    22.129     7.702
 287   8 O     -0.460  1.738  4.723  0.000    22.923     6.419
 288   7 N     -0.267  1.261  4.005  0.000    26.907     7.704
 289   1 H      0.192  0.808  0.000  0.000     1.148     1.679
 290   1 H      0.103  0.897  0.000  0.000     1.761     2.075
 291   1 H      0.076  0.924  0.000  0.000     2.026     2.226
 292   1 H      0.100  0.900  0.000  0.000     1.787     2.090
 293   1 H      0.223  0.777  0.000  0.000     0.998     1.565
 294   1 H      0.211  0.789  0.000  0.000     1.051     1.606
 295   7 N     -0.191  1.268  3.923  0.000    25.147     7.448
 296   6 C      0.014  1.054  2.931  0.000    20.313     6.413
 297   6 C      0.268  1.038  2.694  0.000    22.483     7.766
 298   8 O     -0.481  1.744  4.737  0.000    23.365     6.481
 299   6 C     -0.115  1.057  3.058  0.000    22.677     6.778
 300   6 C      0.287  1.039  2.674  0.000    22.137     7.704
 301   8 O     -0.486  1.748  4.738  0.000    23.475     6.496
 302   7 N     -0.293  1.272  4.022  0.000    27.563     7.797
 303   1 H      0.188  0.812  0.000  0.000     1.169     1.694
 304   1 H      0.121  0.879  0.000  0.000     1.609     1.984
 305   1 H      0.088  0.912  0.000  0.000     1.902     2.157
 306   1 H      0.100  0.900  0.000  0.000     1.787     2.090
 307   1 H      0.228  0.772  0.000  0.000     0.972     1.545
 308   1 H      0.223  0.777  0.000  0.000     0.994     1.562
 309   7 N     -0.176  1.278  3.898  0.000    24.808     7.397
 310   6 C      0.011  1.063  2.926  0.000    20.391     6.428
 311   6 C      0.212  1.079  2.710  0.000    23.520     7.942
 312   8 O     -0.359  1.766  4.593  0.000    20.873     6.125
 313   6 C     -0.036  1.073  2.962  0.000    21.174     6.545
 314   6 C     -0.067  1.050  3.016  0.000    21.763     6.640
 315   6 C     -0.123  1.041  3.082  0.000    22.918     6.826
 316   6 C     -0.116  1.038  3.078  0.000    22.780     6.806
 317   1 H      0.220  0.780  0.000  0.000     1.010     1.575
 318   1 H      0.095  0.905  0.000  0.000     1.834     2.118
 319   1 H      0.069  0.931  0.000  0.000     2.098     2.265
 320   1 H      0.059  0.941  0.000  0.000     2.216     2.328
 321   1 H      0.028  0.972  0.000  0.000     2.615     2.529
 322   1 H      0.064  0.936  0.000  0.000     2.153     2.295
 323   1 H      0.049  0.951  0.000  0.000     2.331     2.388
 324   1 H      0.040  0.960  0.000  0.000     2.454     2.450
 325   1 H      0.041  0.959  0.000  0.000     2.431     2.438
 326   1 H      0.032  0.968  0.000  0.000     2.553     2.499
 327   1 H      0.056  0.944  0.000  0.000     2.245     2.343
 328   7 N     -0.397  1.315  4.082  0.000    30.286     8.173
 329   6 C      0.029  1.056  2.914  0.000    20.098     6.386
 330   6 C      0.208  1.093  2.699  0.000    23.595     7.955
 331   8 O     -0.389  1.749  4.640  0.000    21.471     6.212
 332   6 C      0.119  1.049  2.832  0.000    18.722     6.177
 333   8 O     -0.483  1.730  4.753  0.000    22.532     6.408
 334   6 C     -0.135  1.045  3.090  0.000    23.165     6.864
 335   1 H      0.179  0.821  0.000  0.000     1.219     1.730
 336   1 H      0.054  0.946  0.000  0.000     2.271     2.357
 337   1 H      0.033  0.967  0.000  0.000     2.546     2.495
 338   1 H      0.314  0.686  0.000  0.000     0.682     1.297
 339   1 H      0.062  0.938  0.000  0.000     2.181     2.310
 340   1 H      0.057  0.943  0.000  0.000     2.234     2.337
 341   1 H      0.069  0.931  0.000  0.000     2.092     2.262
 342   7 N     -0.398  1.312  4.086  0.000    30.322     8.178
 343   6 C      0.040  1.058  2.902  0.000    19.927     6.359
 344   6 C      0.199  1.097  2.704  0.000    23.753     7.981
 345   8 O     -0.385  1.762  4.624  0.000    21.394     6.201
 346   6 C     -0.069  1.060  3.009  0.000    21.815     6.650
 347   6 C     -0.105  1.066  3.039  0.000    22.508     6.756
 348   6 C      0.282  1.052  2.666  0.000    22.226     7.719
 349   8 O     -0.516  1.769  4.747  0.000    24.136     6.587
 350   7 N     -0.279  1.265  4.014  0.000    27.221     7.749
 351   1 H      0.178  0.822  0.000  0.000     1.224     1.733
 352   1 H      0.057  0.943  0.000  0.000     2.232     2.336
 353   1 H      0.073  0.927  0.000  0.000     2.058     2.244
 354   1 H      0.060  0.940  0.000  0.000     2.202     2.321
 355   1 H      0.065  0.935  0.000  0.000     2.146     2.291
 356   1 H      0.074  0.926  0.000  0.000     2.045     2.236
 357   1 H      0.228  0.772  0.000  0.000     0.975     1.547
 358   1 H      0.231  0.769  0.000  0.000     0.962     1.537
 359   1 H      0.185  0.815  0.000  0.000     1.186     1.706
 360   1 H      0.077  0.923  0.000  0.000     2.012     2.218
 361   1 H      0.183  0.817  0.000  0.000     1.199     1.715
 362   1 H      0.067  0.933  0.000  0.000     2.119     2.276
 363   1 H      0.186  0.814  0.000  0.000     1.180     1.702
 364   1 H      0.080  0.920  0.000  0.000     1.979     2.200
 365   1 H      0.191  0.809  0.000  0.000     1.154     1.683
 366   1 H      0.070  0.930  0.000  0.000     2.088     2.260
 367   1 H      0.176  0.824  0.000  0.000     1.237     1.742
 368   1 H      0.088  0.912  0.000  0.000     1.896     2.153
 369   1 H      0.185  0.815  0.000  0.000     1.183     1.704
 370   1 H      0.075  0.925  0.000  0.000     2.031     2.228
 371   1 H      0.189  0.811  0.000  0.000     1.163     1.689
 372   1 H      0.056  0.944  0.000  0.000     2.240     2.340
 373   1 H      0.193  0.807  0.000  0.000     1.141     1.673
 374   1 H      0.064  0.936  0.000  0.000     2.156     2.296
 375   1 H      0.090  0.910  0.000  0.000     1.880     2.144
 376   1 H      0.184  0.816  0.000  0.000     1.192     1.710
 377   1 H      0.077  0.923  0.000  0.000     2.012     2.218
 378   1 H      0.184  0.816  0.000  0.000     1.193     1.711
 379   1 H      0.079  0.921  0.000  0.000     1.986     2.204

 Mol. C6AA /au·bohr⁶  :    1217610.449973
 Mol. C8AA /au·bohr⁸  :   26726719.948660
 Mol. α(0) /au        :       1642.899576

 
molecular dipole:
                 x           y           z       tot (Debye)
 q only:      -40.978     148.312     -29.396
   full:      -41.393     151.847     -29.031     406.798
molecular quadrupole (traceless):
                xx          xy          yy          xz          yz          zz
 q only:    -9975.396   -9994.876   20922.656     959.280   -7197.020  -10947.260
  q+dip:   -10578.328  -10147.215   22093.482     949.467   -7126.731  -11515.154
   full:   -10578.944  -10146.829   22092.280     950.780   -7126.137  -11513.336
speedup  1.92
cpu  time for grad   16.87 s
wall time for grad    8.80 s

SCC energy    :    -565.1119806
rep           :       6.7149701
ES            :       1.8901519
AES           :      -0.0589265
AXC           :       0.2076201
disp          :      -0.4317324
XB            :       0.0000000
fix           :       0.0000000
Gborn         :       0.0000000
Gsasa         :       0.0000000
Ghb           :       0.0000000
Gshift        :       0.0000000
Gsolv         :      -0.5747466     -360.66
Etot ala COSMO:    -565.1119806
grad norm     :       0.7260168
total E       :    -558.3648949
atomizationE  :     100.4383567    63026.02
(atE without considering molecular charge,
 total energy contains solvation terms)
H-L gap (eV)  :          1.1315

------------------------------------------------------------------------
 * finished run on 2019/05/08 at 09:27:49.734     
------------------------------------------------------------------------
 total:
 * wall-time:     0 d,  0 h,  0 min,  9.376 sec
 *  cpu-time:     0 d,  0 h,  0 min, 17.940 sec
 * ratio c/w:     1.913 speedup
 SCF:
 * wall-time:     0 d,  0 h,  0 min,  9.196 sec
 *  cpu-time:     0 d,  0 h,  0 min, 17.655 sec
 * ratio c/w:     1.920 speedup

