      -----------------------------------------------------------      
     |                   =====================                   |     
     |                           x T B                           |     
     |                   =====================                   |     
     |                         S. Grimme                         |     
     |          Mulliken Center for Theoretical Chemistry        |     
     |                    University of Bonn                     |     
     |                 Version 6.0.1 (SAW181210)                 |     
      -----------------------------------------------------------      

   This program is distributed in the hope that it will be useful,
   but WITHOUT ANY WARRANTY; without even the implied warranty of
   MERCHANTABILITY or FITNESS FOR A PARTICULAR PURPOSE.
   
   FOR NON-COMMERCIAL, ACADEMIA USE ONLY.
   
   Cite this work as:
   S. Grimme, C. Bannwarth, P. Shushkov, J. Comput. Theory Chem., 2017,
   13, 1989-2009.
   C. Bannwarth, S. Ehlert and S. Grimme., ChemRxiv, 2018, preprint.
   http://doi.org/10.26434/chemrxiv.7246238.v1
   
   for sTDA-xTB:
   S. Grimme and C. Bannwarth, J. Chem. Phys., 2016, 145, 054103.
   
   in the mass-spec context:
   V. Asgeirsson, C. Bauer and S. Grimme, Chem. Sci., 2017, 8, 4879.
   
   if GBSA is used:
   P. Shushkov, F. März and S. Grimme, unpublished.
   
   for ANC optimizer:
   S. Grimme, unpublished.
   Rational Function algorithm used in ANCopt:
   F. Eckert, P. Pulay, H.-J. Werner, J. Comput. Chem., 1997, 18, 1473.
   
   with help from (in alphabetical order)
   C. Bannwarth, F. Bohle, G. Brandenburg, E. Caldeweyher, M. Checinski,
   S. Dohm, S. Ehlert, S. Ehrlich, F. März, H. Neugebauer, J. Pisarek,
   P. Pracht, P. Shushkov, and S. Spicher.
   
 * started run on 2019/05/07 at 20:37:17.933     
========================================================================
 # omp threads = 2
========================================================================
number of atoms            : 520
number of electrons        : 1402
charge                     : 1
spin                       : .0
first test random number   : .8905

########################################################################
# WARNING! Please study the warnings concerning your input carefully
#  - Process number higher than OMP_NUM_THREADS, I hope you know what you are doing.
########################################################################

           ------------------------------------------------- 
          |                 G F N 2 - x T B                 |
          | Geometry, Frequencies, Noncovalent interactions |
          |            JCTC 2018 parametrisation            |
           ------------------------------------------------- 
 
      method parameters     
 k(s)        :  1.8500
 k(p)        :  2.2300
 k(d)        :  2.2300
 k(f)        :  2.0000
 kEN (H0ij)  : -2.0000
 D4 a1       :  0.5200
 D4 a2       :  5.0000
 D4 s6       :  1.0000
 D4 s8       :  2.7000
 D4 s9       :  5.0000
 alphaj      :  2.0000

 Solvent             : h2o
 Using internal parameter file: .param_gbsa2_h2o
 Gsolv ref. state (COSMO-RS): gsolv [1 M gas/solution]
 temperature (mdtemp)       :    298.150000000000     
 dielectric constant        :    80.2000000000000     
 rho                        :    1.00000000000000     
 mass                       :    18.0000000000000     
 surface tension            :    15.5689454083859     
 probe radius               :   0.975313790000000     
 vdW radii scaling          :    1.00000000000000     
 Gshift (Eh)                :   1.857443126794793E-003
 c1                         :    1.55243817000000     
 soset                      :   0.130326360000000     
 HB correction              :  T

            Z     q(EN)     CN     RAES       Cart. coordinates
     1  N   5.0   -0.18    3.24    1.96    84.30268    87.75438   154.96727
     2  C   4.0    0.03    4.23    4.05    85.34259    87.40710   157.47554
     3  C   4.0    0.09    3.20    3.04    88.22553    87.74792   157.43947
     4  O   6.0   -0.26    1.13    1.80    89.49449    86.95263   155.67721
     5  C   4.0   -0.03    4.33    4.26    84.76077    84.70602   158.38005
     6  C   4.0   -0.02    3.56    3.14    81.96597    84.23707   158.58986
     7  C   4.0   -0.05    3.46    3.10    80.60225    83.10026   156.65845
     8  C   4.0   -0.05    3.47    3.10    80.67858    84.93720   160.76969
     9  C   4.0   -0.05    3.43    3.09    78.02989    82.66423   156.88282
    10  C   4.0   -0.04    3.44    3.09    78.12241    84.48775   161.02438
    11  C   4.0    0.06    3.44    3.09    76.76407    83.35064   159.07516
    12  O   6.0   -0.25    2.11    1.84    74.24321    82.94573   159.41416
    13  H   1.0    0.09    1.03    1.43    84.21906    86.17556   153.89674
    14  H   1.0    0.04    1.05    1.44    84.49730    88.79199   158.75478
    15  H   1.0    0.05    1.03    1.43    85.61854    83.36783   157.06202
    16  H   1.0    0.04    1.03    1.43    85.63764    84.46146   160.22989
    17  H   1.0    0.05    1.03    1.43    81.56578    82.47489   154.97494
    18  H   1.0    0.05    1.03    1.43    81.69970    85.84817   162.28481
    19  H   1.0    0.05    1.03    1.43    76.98921    81.77560   155.36852
    20  H   1.0    0.05    1.03    1.43    77.15270    85.00363   162.74055
    21  H   1.0    0.13    1.03    1.43    73.51324    82.10233   157.96612
    22  N   5.0   -0.20    3.26    1.97    84.37089    83.69027   171.82087
    23  C   4.0    0.03    4.33    4.26    82.92693    81.75309   173.09548
    24  C   4.0    0.14    3.39    3.08    80.38278    81.44626   171.73205
    25  O   6.0   -0.32    1.28    1.80    79.20057    83.29162   170.95437
    26  C   4.0   -0.05    4.36    4.31    82.53441    82.50213   175.85881
    27  C   4.0   -0.02    4.19    3.99    84.96761    83.18897   177.27745
    28  C   4.0   -0.08    4.11    3.83    84.31466    83.63907   180.04998
    29  C   4.0   -0.07    4.13    3.85    86.91496    81.08825   177.04596
    30  H   1.0    0.09    1.03    1.43    83.89217    85.49881   172.18465
    31  H   1.0    0.05    1.06    1.44    83.99308    79.99311   172.95703
    32  H   1.0    0.04    1.03    1.43    81.25821    84.12343   175.91515
    33  H   1.0    0.04    1.03    1.43    81.61865    80.92223   176.81847
    34  H   1.0    0.04    1.05    1.44    85.76822    84.91609   176.47039
    35  H   1.0    0.04    1.00    1.43    85.92879    84.38785   181.07251
    36  H   1.0    0.04    1.00    1.43    82.76753    84.97899   180.22757
    37  H   1.0    0.04    1.00    1.43    83.73727    81.86973   180.91619
    38  H   1.0    0.04    1.00    1.43    88.42715    81.35236   178.40943
    39  H   1.0    0.05    1.00    1.43    86.02387    79.27042   177.39815
    40  H   1.0    0.04    1.00    1.43    87.76577    81.10382   175.17805
    41  N   5.0   -0.14    3.51    2.08    79.58366    79.07875   171.48748
    42  C   4.0    0.04    4.49    4.52    77.33166    78.30141   170.15257
    43  C   4.0    0.15    3.46    3.10    76.14570    76.06286   171.52000
    44  O   6.0   -0.31    1.30    1.80    77.29944    74.83676   173.10582
    45  C   4.0   -0.01    4.28    4.16    77.94556    77.41786   167.42128
    46  C   4.0   -0.07    4.10    3.81    78.30408    79.67505   165.67422
    47  C   4.0   -0.07    4.14    3.87    80.28266    75.72995   167.40208
    48  H   1.0    0.12    1.12    1.45    80.58634    77.63015   172.27271
    49  H   1.0    0.06    1.06    1.44    75.97330    79.85032   170.04970
    50  H   1.0    0.06    1.06    1.44    76.32414    76.32675   166.74226
    51  H   1.0    0.04    1.00    1.43    78.91012    79.05063   163.81481
    52  H   1.0    0.05    1.00    1.43    76.53705    80.70125   165.46416
    53  H   1.0    0.05    1.00    1.43    79.73119    80.95444   166.41651
    54  H   1.0    0.04    1.00    1.43    80.53971    74.89839   165.54170
    55  H   1.0    0.05    1.00    1.43    81.95829    76.82946   167.85570
    56  H   1.0    0.06    1.00    1.43    80.09792    74.21749   168.78100
    57  N   5.0   -0.14    3.52    2.09    73.80349    75.49280   170.76850
    58  C   4.0    0.04    4.45    4.46    72.85192    72.93972   170.92117
    59  C   4.0    0.14    3.44    3.09    73.17035    71.78280   168.28886
    60  O   6.0   -0.32    1.28    1.80    72.98391    73.10691   166.38971
    61  C   4.0   -0.03    4.32    4.24    70.05763    72.80085   171.68789
    62  C   4.0   -0.01    3.57    3.15    69.70190    73.66730   174.35932
    63  C   4.0   -0.04    3.46    3.10    69.78954    71.95587   176.34577
    64  C   4.0   -0.03    3.47    3.10    69.36497    76.21446   174.88476
    65  C   4.0   -0.04    3.37    3.07    69.55579    72.77688   178.81891
    66  C   4.0   -0.03    3.38    3.07    69.13067    77.03681   177.35564
    67  C   4.0   -0.04    3.37    3.07    69.23440    75.32135   179.33180
    68  H   1.0    0.11    1.11    1.45    72.93930    76.66557   169.51557
    69  H   1.0    0.07    1.07    1.44    74.01445    71.90646   172.28344
    70  H   1.0    0.05    1.03    1.43    68.95030    73.97690   170.40210
    71  H   1.0    0.04    1.03    1.43    69.45679    70.83785   171.48821
    72  H   1.0    0.06    1.03    1.43    70.01597    69.96441   175.94776
    73  H   1.0    0.07    1.03    1.43    69.23444    77.56064   173.35205
    74  H   1.0    0.05    1.03    1.43    69.59820    71.42161   180.34268
    75  H   1.0    0.07    1.03    1.43    68.85215    79.02716   177.71931
    76  H   1.0    0.05    1.03    1.43    69.01632    75.97591   181.24972
    77  N   5.0   -0.14    3.47    2.06    73.60460    69.31089   168.25245
    78  C   4.0    0.04    4.34    4.28    74.15036    67.97323   165.92246
    79  C   4.0    0.15    3.42    3.08    72.60820    65.53471   165.89141
    80  O   6.0   -0.31    1.28    1.80    72.74066    63.99109   167.62185
    81  C   4.0   -0.06    4.10    3.81    76.97572    67.39595   165.78198
    82  H   1.0    0.11    1.11    1.44    74.05201    68.42370   169.91112
    83  H   1.0    0.07    1.07    1.44    73.56634    69.18648   164.35469
    84  H   1.0    0.05    1.00    1.43    77.37688    66.20209   164.16427
    85  H   1.0    0.04    1.00    1.43    78.02974    69.15106   165.60781
    86  H   1.0    0.06    1.00    1.43    77.56995    66.43880   167.50038
    87  N   5.0   -0.13    3.47    2.06    71.06239    65.24473   163.91894
    88  C   4.0    0.03    4.32    4.23    69.49625    63.01994   163.63302
    89  C   4.0    0.09    3.23    3.04    70.84834    61.12362   161.92055
    90  O   6.0   -0.27    1.13    1.80    72.05433    61.79459   160.07126
    91  C   4.0   -0.04    4.25    4.11    66.94764    63.75774   162.46632
    92  C   4.0   -0.05    4.17    3.95    65.09457    61.55676   162.18899
    93  C   4.0   -0.05    4.17    3.94    63.99987    60.65121   164.70868
    94  C   4.0   -0.04    4.12    3.84    61.91709    58.68651   164.34207
    95  N   5.0   -0.12    4.01    2.89    63.02889    56.19114   163.72711
    96  H   1.0    0.10    1.08    1.44    71.12170    66.50474   162.48220
    97  H   1.0    0.05    1.06    1.44    69.26182    62.22260   165.52873
    98  H   1.0    0.04    1.03    1.43    66.11815    65.24227   163.63544
    99  H   1.0    0.06    1.03    1.43    67.33551    64.55931   160.59952
   100  H   1.0    0.04    1.03    1.43    63.55104    62.22361   160.99357
   101  H   1.0    0.05    1.03    1.43    66.05447    60.03558   161.18312
   102  H   1.0    0.04    1.03    1.43    65.47266    59.85011   165.90367
   103  H   1.0    0.05    1.04    1.43    63.21085    62.27026   165.70179
   104  H   1.0    0.04    1.02    1.43    60.83888    58.50052   166.08500
   105  H   1.0    0.04    1.02    1.43    60.65133    59.27432   162.82656
   106  H   1.0    0.06    1.00    1.43    61.67930    54.75108   163.45702
   107  H   1.0    0.06    1.03    1.43    64.13725    56.32787   162.14707
   108  H   1.0    0.06    1.02    1.43    64.23727    55.68156   165.20873
   109  N   5.0   -0.19    3.26    1.97    65.26844    62.58802   170.92813
   110  C   4.0    0.03    4.34    4.27    66.70611    64.92109   170.87910
   111  C   4.0    0.15    3.41    3.08    68.43291    64.93740   173.20299
   112  O   6.0   -0.29    1.23    1.80    67.54639    64.97860   175.33342
   113  C   4.0   -0.03    4.32    4.23    64.86710    67.15540   171.02133
   114  C   4.0    0.05    3.79    3.33    63.25022    67.27900   168.72201
   115  N   5.0   -0.19    2.57    1.90    61.38468    65.55898   168.25813
   116  C   4.0   -0.02    3.61    3.17    63.37876    68.95775   166.75536
   117  C   4.0    0.06    3.64    3.19    60.39541    66.19766   166.08618
   118  N   5.0   -0.12    3.45    2.05    61.54837    68.24363   165.09103
   119  H   1.0    0.10    1.05    1.44    63.36429    62.79356   170.89277
   120  H   1.0    0.04    1.05    1.44    67.86353    65.02089   169.16255
   121  H   1.0    0.06    1.03    1.43    63.72204    66.92736   172.72122
   122  H   1.0    0.04    1.03    1.43    65.93200    68.90978   171.20267
   123  H   1.0    0.05    1.02    1.43    64.57444    70.55821   166.45083
   124  H   1.0    0.04    1.02    1.43    58.86374    65.22113   165.19819
   125  H   1.0    0.07    1.05    1.44    61.13611    69.12997   163.45633
   126  N   5.0   -0.14    3.47    2.06    70.91721    64.91290   172.70039
   127  C   4.0    0.03    4.44    4.44    72.76760    64.38662   174.64954
   128  C   4.0    0.14    3.50    3.11    74.47995    66.68085   174.98816
   129  O   6.0   -0.31    1.33    1.80    75.17265    67.89905   173.12640
   130  C   4.0   -0.03    4.29    4.18    74.31177    62.05807   173.80773
   131  C   4.0   -0.02    3.68    3.23    75.69638    60.86192   175.94529
   132  C   4.0   -0.00    3.63    3.18    77.82231    61.73258   177.12727
   133  C   4.0    0.01    3.89    3.46    74.95806    58.62538   177.25800
   134  N   5.0   -0.12    3.49    2.07    78.43454    60.20454   179.11173
   135  C   4.0    0.04    3.89    3.45    76.71999    58.28605   179.24851
   136  C   4.0   -0.04    3.40    3.08    73.02045    56.86528   176.92149
   137  C   4.0   -0.04    3.40    3.08    76.51766    56.27214   180.92625
   138  C   4.0   -0.03    3.37    3.07    72.84533    54.86781   178.58162
   139  C   4.0   -0.03    3.37    3.07    74.56832    54.58165   180.57114
   140  H   1.0    0.11    1.10    1.44    71.54243    64.63219   170.90544
   141  H   1.0    0.06    1.07    1.44    71.73548    63.99611   176.39408
   142  H   1.0    0.05    1.04    1.43    72.97529    60.71208   173.00026
   143  H   1.0    0.06    1.03    1.43    75.60726    62.65829   172.31759
   144  H   1.0    0.08    1.03    1.43    78.95178    63.36810   176.72340
   145  H   1.0    0.08    1.05    1.44    79.98244    60.43042   180.19767
   146  H   1.0    0.06    1.03    1.43    71.70772    57.11239   175.38308
   147  H   1.0    0.06    1.02    1.43    77.86508    56.03723   182.44352
   148  H   1.0    0.06    1.03    1.43    71.35582    53.49303   178.37870
   149  H   1.0    0.06    1.03    1.43    74.43355    52.98447   181.83142
   150  N   5.0   -0.10    3.66    2.22    75.16997    67.36576   177.31716
   151  C   4.0    0.04    4.58    4.64    76.78220    69.58132   177.69876
   152  C   4.0    0.15    3.43    3.09    79.42760    69.10662   176.62224
   153  O   6.0   -0.30    1.25    1.80    80.56871    67.12122   177.00867
   154  C   4.0   -0.04    4.33    4.26    76.83753    69.92775   180.57780
   155  C   4.0   -0.04    4.27    4.14    76.38474    67.25580   181.56518
   156  C   4.0   -0.01    4.36    4.31    74.45485    66.20199   179.70028
   157  H   1.0    0.05    1.05    1.44    75.97086    71.21957   176.72971
   158  H   1.0    0.04    1.02    1.43    78.60999    70.72935   181.24997
   159  H   1.0    0.04    1.02    1.43    75.30991    71.18423   181.15216
   160  H   1.0    0.05    1.02    1.43    78.13662    66.17269   181.45639
   161  H   1.0    0.03    1.02    1.43    75.72333    67.21711   183.51057
   162  H   1.0    0.04    1.03    1.43    74.53272    64.14956   179.59777
   163  H   1.0    0.04    1.02    1.43    72.54104    66.79962   180.22140
   164  N   5.0   -0.13    3.48    2.06    80.41764    70.99349   175.28039
   165  C   4.0    0.04    4.25    4.10    82.67706    70.61831   173.78016
   166  C   4.0    0.07    3.21    3.04    83.74960    73.18862   173.02896
   167  O   6.0   -0.31    1.21    1.80    82.64175    75.17001   173.48494
   168  C   4.0   -0.06    4.11    3.82    82.03360    69.04545   171.43799
   169  H   1.0    0.12    1.11    1.44    79.39254    72.54918   174.81971
   170  H   1.0    0.05    1.05    1.44    84.09709    69.61601   174.90665
   171  H   1.0    0.04    1.00    1.43    83.73677    68.49415   170.44531
   172  H   1.0    0.06    1.00    1.43    81.01829    67.35373   172.01220
   173  H   1.0    0.05    1.00    1.43    80.81714    70.11671   170.17487
   174  N   5.0   -0.21    3.23    1.96    71.50110    74.05898   149.69152
   175  C   4.0    0.03    4.31    4.21    69.10648    72.77558   150.03152
   176  C   4.0    0.15    3.42    3.08    68.68931    71.93895   152.77530
   177  O   6.0   -0.29    1.22    1.80    66.58879    72.04587   153.73764
   178  C   4.0   -0.04    4.29    4.18    69.08901    70.43749   148.31489
   179  C   4.0   -0.04    4.19    3.99    66.59399    68.98552   148.40889
   180  C   4.0   -0.04    4.17    3.95    66.75264    66.59837   146.78385
   181  C   4.0   -0.03    4.13    3.85    64.43447    64.93800   147.19367
   182  N   5.0   -0.12    4.01    2.89    64.66859    62.53089   145.74970
   183  H   1.0    0.09    1.03    1.43    72.41360    73.72207   148.04801
   184  H   1.0    0.05    1.05    1.44    67.53191    74.04623   149.56317
   185  H   1.0    0.04    1.03    1.43    69.45671    71.04867   146.37884
   186  H   1.0    0.06    1.03    1.43    70.60669    69.17934   148.93682
   187  H   1.0    0.07    1.03    1.43    66.22430    68.45213   150.36746
   188  H   1.0    0.05    1.02    1.43    65.05301    70.20535   147.78930
   189  H   1.0    0.04    1.02    1.43    66.93215    67.13819   144.80404
   190  H   1.0    0.06    1.03    1.43    68.44284    65.57611   147.37770
   191  H   1.0    0.05    1.02    1.43    64.28448    64.50801   149.20405
   192  H   1.0    0.04    1.02    1.43    62.73076    65.92954   146.59576
   193  H   1.0    0.06    1.02    1.43    63.11773    61.39508   146.05675
   194  H   1.0    0.06    1.02    1.43    64.81741    62.90574   143.84304
   195  H   1.0    0.07    1.02    1.43    66.27062    61.58663   146.33420
   196  N   5.0   -0.14    3.55    2.11    70.69693    70.93026   153.93710
   197  C   4.0    0.04    4.45    4.45    70.48384    69.54115   156.27184
   198  C   4.0    0.14    3.39    3.08    71.41078    70.97725   158.59138
   199  O   6.0   -0.32    1.26    1.80    71.54836    69.90218   160.65121
   200  C   4.0   -0.02    4.29    4.17    71.95099    67.07360   155.99379
   201  C   4.0    0.26    3.14    3.03    70.86788    65.63073   153.65002
   202  O   6.0   -0.29    1.17    1.80    68.65413    64.86444   153.82295
   203  O   6.0   -0.29    1.16    1.80    72.30126    65.42063   151.79699
   204  H   1.0    0.08    1.07    1.44    72.43064    70.91941   153.11825
   205  H   1.0    0.07    1.06    1.44    68.46889    69.11674   156.55244
   206  H   1.0    0.05    1.02    1.43    73.94750    67.49629   155.69430
   207  H   1.0    0.07    1.02    1.43    71.73726    65.89674   157.67028
   208  N   5.0   -0.14    3.49    2.07    72.14787    73.34805   158.18886
   209  C   4.0    0.03    4.43    4.43    73.19755    74.97130   160.11014
   210  C   4.0    0.15    3.42    3.09    71.33374    77.07268   160.80122
   211  O   6.0   -0.29    1.22    1.80    70.29040    78.36723   159.20121
   212  C   4.0   -0.04    4.37    4.33    75.59863    76.27883   159.13856
   213  C   4.0   -0.03    4.17    3.94    78.02355    74.75875   159.52484
   214  C   4.0   -0.07    4.12    3.84    77.84434    72.10962   158.41042
   215  C   4.0   -0.08    4.11    3.82    80.23763    76.17600   158.33788
   216  H   1.0    0.09    1.08    1.44    71.75617    74.19341   156.51152
   217  H   1.0    0.06    1.06    1.44    73.58555    73.81579   161.77887
   218  H   1.0    0.05    1.03    1.43    75.30665    76.68042   157.13565
   219  H   1.0    0.05    1.04    1.43    75.79241    78.08358   160.12262
   220  H   1.0    0.04    1.05    1.44    78.34249    74.59511   161.56523
   221  H   1.0    0.04    1.00    1.43    79.67757    71.19354   158.55634
   222  H   1.0    0.05    1.00    1.43    76.47535    70.96153   159.42212
   223  H   1.0    0.05    1.00    1.43    77.29265    72.18123   156.43183
   224  H   1.0    0.04    1.00    1.43    82.01750    75.27496   158.82559
   225  H   1.0    0.04    1.00    1.43    80.04888    76.18229   156.29291
   226  H   1.0    0.04    1.00    1.43    80.28945    78.12698   158.98406
   227  N   5.0   -0.14    3.51    2.09    71.12451    77.45826   163.29777
   228  C   4.0    0.04    4.43    4.44    69.44987    79.31533   164.40984
   229  C   4.0    0.14    3.52    3.13    70.98811    80.82294   166.32939
   230  O   6.0   -0.32    1.36    1.80    71.96425    79.72472   168.14191
   231  C   4.0   -0.03    4.33    4.25    67.22901    77.98666   165.75118
   232  C   4.0   -0.01    3.58    3.16    65.83151    76.37827   163.87598
   233  C   4.0   -0.03    3.46    3.10    63.75737    77.33162   162.58044
   234  C   4.0   -0.03    3.49    3.11    66.69325    73.96955   163.28284
   235  C   4.0   -0.03    3.37    3.07    62.57405    75.91740   160.72600
   236  C   4.0   -0.03    3.38    3.07    65.51238    72.55563   161.42591
   237  C   4.0   -0.03    3.37    3.07    63.45505    73.52567   160.13589
   238  H   1.0    0.10    1.09    1.44    71.89545    76.19141   164.51446
   239  H   1.0    0.06    1.07    1.44    68.73810    80.49523   162.87654
   240  H   1.0    0.05    1.03    1.43    67.99907    76.84212   167.28791
   241  H   1.0    0.05    1.03    1.43    66.00438    79.42510   166.58108
   242  H   1.0    0.05    1.03    1.43    63.08958    79.21257   163.02106
   243  H   1.0    0.07    1.03    1.43    68.31473    73.19936   164.26089
   244  H   1.0    0.06    1.03    1.43    60.98195    76.70395   159.72259
   245  H   1.0    0.06    1.03    1.43    66.24306    70.70418   160.96978
   246  H   1.0    0.06    1.03    1.43    62.57961    72.44357   158.64652
   247  N   5.0   -0.09    3.66    2.22    71.34841    83.28353   165.97356
   248  C   4.0    0.03    4.59    4.65    72.88853    84.72908   167.76680
   249  C   4.0    0.16    3.48    3.11    72.06442    84.19136   170.47756
   250  O   6.0   -0.30    1.31    1.80    69.84119    84.35979   171.13836
   251  C   4.0   -0.04    4.33    4.26    72.45294    87.48005   167.00384
   252  C   4.0   -0.04    4.26    4.12    71.87634    87.29883   164.18107
   253  C   4.0   -0.01    4.35    4.30    70.32316    84.87639   163.98551
   254  H   1.0    0.05    1.05    1.44    74.87823    84.18632   167.55433
   255  H   1.0    0.05    1.03    1.43    70.80024    88.20099   168.00532
   256  H   1.0    0.04    1.02    1.43    74.07897    88.66095   167.42720
   257  H   1.0    0.04    1.02    1.43    70.83401    88.93015   163.49681
   258  H   1.0    0.05    1.02    1.43    73.61365    87.10568   163.09610
   259  H   1.0    0.05    1.02    1.43    68.31992    85.24718   164.35580
   260  H   1.0    0.06    1.02    1.43    70.55151    83.98117   162.14494
   261  N   5.0   -0.15    3.45    2.05    73.92040    83.62620   172.09710
   262  C   4.0    0.04    4.44    4.44    73.29123    82.60529   174.56913
   263  C   4.0    0.16    3.54    3.13    71.65508    84.43460   176.07922
   264  O   6.0   -0.30    1.26    1.80    69.73675    83.75999   177.15559
   265  C   4.0   -0.04    4.33    4.26    75.68164    82.00239   176.09575
   266  C   4.0   -0.01    3.60    3.16    75.19608    81.95725   178.90143
   267  C   4.0   -0.04    3.47    3.10    74.14624    79.85864   180.07806
   268  C   4.0   -0.04    3.48    3.11    75.82772    84.02347   180.38522
   269  C   4.0   -0.04    3.43    3.09    73.70704    79.82881   182.65122
   270  C   4.0   -0.04    3.44    3.09    75.40897    84.01714   182.95987
   271  C   4.0    0.07    3.45    3.09    74.32773    81.92243   184.11932
   272  O   6.0   -0.24    2.11    1.84    73.85620    81.87151   186.63850
   273  H   1.0    0.10    1.09    1.44    75.77150    83.53619   171.51745
   274  H   1.0    0.06    1.05    1.44    72.14915    80.89098   174.31620
   275  H   1.0    0.05    1.03    1.43    76.42316    80.17895   175.47895
   276  H   1.0    0.05    1.04    1.43    77.08635    83.45327   175.67976
   277  H   1.0    0.05    1.03    1.43    73.68014    78.22081   178.95496
   278  H   1.0    0.05    1.03    1.43    76.67645    85.68455   179.55247
   279  H   1.0    0.05    1.03    1.43    72.89487    78.19461   183.55635
   280  H   1.0    0.07    1.03    1.43    75.88142    85.68423   184.04301
   281  H   1.0    0.13    1.04    1.43    74.47426    83.41186   187.40495
   282  N   5.0   -0.14    3.50    2.08    72.51194    86.83179   176.17604
   283  C   4.0    0.04    4.47    4.49    71.36550    88.57259   177.96110
   284  C   4.0    0.16    3.48    3.11    68.68950    89.21747   177.09791
   285  O   6.0   -0.29    1.26    1.80    66.86487    89.19452   178.50880
   286  C   4.0   -0.04    4.28    4.16    72.89587    90.99515   178.28017
   287  C   4.0   -0.03    4.19    3.97    72.04348    92.36499   180.66599
   288  C   4.0    0.25    3.11    3.03    72.91309    90.83719   183.04879
   289  O   6.0   -0.29    1.18    1.80    75.20685    90.32213   183.16940
   290  O   6.0   -0.29    1.16    1.80    71.26172    90.26769   184.62686
   291  H   1.0    0.08    1.06    1.44    74.23188    87.25016   175.46846
   292  H   1.0    0.06    1.06    1.44    71.21381    87.62055   179.80072
   293  H   1.0    0.06    1.03    1.43    74.89143    90.51476   178.52485
   294  H   1.0    0.04    1.02    1.43    72.68385    92.19777   176.61492
   295  H   1.0    0.05    1.02    1.43    72.93472    94.22317   180.76668
   296  H   1.0    0.06    1.02    1.43    69.99440    92.58951   180.70937
   297  N   5.0   -0.14    3.51    2.08    68.52685    89.87293   174.65473
   298  C   4.0    0.04    4.41    4.40    66.13304    90.51013   173.47523
   299  C   4.0    0.17    3.49    3.11    64.11850    88.50292   174.04141
   300  O   6.0   -0.27    1.23    1.80    61.97001    89.08565   174.64833
   301  C   4.0   -0.04    4.27    4.14    66.51675    90.86063   170.63526
   302  C   4.0   -0.02    4.18    3.96    64.06944    91.50658   169.26911
   303  C   4.0    0.26    3.12    3.03    62.42913    89.10667   168.71529
   304  O   6.0   -0.26    1.16    1.80    60.10512    89.43633   168.57307
   305  O   6.0   -0.30    1.20    1.80    63.58239    87.07723   168.37404
   306  H   1.0    0.08    1.08    1.44    70.05445    89.67938   173.53074
   307  H   1.0    0.06    1.05    1.44    65.42155    92.27002   174.31550
   308  H   1.0    0.04    1.02    1.43    67.92173    92.34420   170.33921
   309  H   1.0    0.06    1.04    1.43    67.20531    89.07631   169.84476
   310  H   1.0    0.06    1.02    1.43    62.90951    92.82722   170.34387
   311  H   1.0    0.05    1.02    1.43    64.48345    92.34654   167.42941
   312  N   5.0   -0.13    3.52    2.09    64.91213    86.09509   173.93347
   313  C   4.0    0.04    4.39    4.36    63.16193    84.02294   174.20426
   314  C   4.0    0.16    3.42    3.08    63.41839    82.65946   176.74600
   315  O   6.0   -0.31    1.30    1.80    62.45028    80.57295   177.07016
   316  C   4.0    0.04    4.15    3.90    63.39786    82.16014   171.98637
   317  O   6.0   -0.25    2.04    1.83    65.71129    80.85982   171.93232
   318  H   1.0    0.11    1.08    1.44    66.63029    85.69673   173.20039
   319  H   1.0    0.07    1.07    1.44    61.25891    84.85613   174.14144
   320  H   1.0    0.05    1.02    1.43    61.94128    80.71171   172.18577
   321  H   1.0    0.07    1.02    1.43    63.09407    83.23713   170.23962
   322  H   1.0    0.15    1.05    1.44    67.06484    82.05313   171.61518
   323  N   5.0   -0.13    3.48    2.07    64.52899    83.96023   178.59803
   324  C   4.0    0.04    4.42    4.42    65.34487    82.76935   180.93552
   325  C   4.0    0.16    3.51    3.12    63.28031    81.05819   181.97771
   326  O   6.0   -0.31    1.29    1.80    63.68146    78.84200   182.48559
   327  C   4.0   -0.04    4.27    4.14    66.11233    84.72900   182.91943
   328  C   4.0   -0.04    4.19    3.98    67.30910    83.44050   185.21389
   329  C   4.0   -0.04    4.16    3.93    68.26316    85.29944   187.21134
   330  C   4.0   -0.03    4.13    3.85    66.10046    86.48680   188.70923
   331  N   5.0   -0.11    4.02    2.91    67.12051    88.38229   190.51690
   332  H   1.0    0.12    1.11    1.44    65.35806    85.63491   178.18854
   333  H   1.0    0.06    1.06    1.44    66.98432    81.56372   180.52442
   334  H   1.0    0.07    1.03    1.43    67.46792    86.02278   182.05857
   335  H   1.0    0.05    1.03    1.43    64.46133    85.83758   183.45642
   336  H   1.0    0.05    1.03    1.43    65.94948    82.14273   186.06426
   337  H   1.0    0.05    1.03    1.43    68.90722    82.32153   184.54836
   338  H   1.0    0.05    1.03    1.43    69.50130    84.26122   188.48911
   339  H   1.0    0.07    1.03    1.43    69.36287    86.77603   186.27641
   340  H   1.0    0.05    1.02    1.43    64.80668    87.44210   187.42332
   341  H   1.0    0.05    1.02    1.43    65.07191    85.03779   189.75541
   342  H   1.0    0.07    1.02    1.43    65.68671    89.28780   191.46597
   343  H   1.0    0.06    1.02    1.43    68.30247    87.51824   191.80163
   344  H   1.0    0.07    1.02    1.43    68.16049    89.69046   189.51112
   345  N   5.0   -0.15    3.49    2.07    61.05372    82.16565   182.49553
   346  C   4.0    0.03    4.43    4.44    59.12544    80.77200   183.84879
   347  C   4.0    0.15    3.43    3.09    57.37143    79.23539   182.13910
   348  O   6.0   -0.30    1.26    1.80    55.92348    77.67093   183.02111
   349  C   4.0   -0.03    4.25    4.11    57.58418    82.47354   185.62095
   350  C   4.0   -0.03    4.21    4.03    56.34558    80.85458   187.64838
   351  C   4.0    0.25    3.10    3.02    54.55245    82.27166   189.46329
   352  O   6.0   -0.27    1.17    1.80    54.29399    84.58453   189.29556
   353  O   6.0   -0.30    1.36    1.80    53.45435    80.85675   191.05200
   354  H   1.0    0.08    1.06    1.44    60.72116    83.97409   181.99453
   355  H   1.0    0.06    1.07    1.44    60.14344    79.37427   185.00059
   356  H   1.0    0.05    1.03    1.43    58.82729    83.86253   186.49985
   357  H   1.0    0.06    1.02    1.43    56.13711    83.50552   184.57425
   358  H   1.0    0.07    1.05    1.44    55.22945    79.38812   186.73147
   359  H   1.0    0.05    1.03    1.43    57.79830    79.95127   188.80395
   360  N   5.0   -0.14    3.49    2.07    57.49110    79.72742   179.64967
   361  C   4.0    0.04    4.44    4.45    56.10874    78.11856   177.91953
   362  C   4.0    0.16    3.45    3.09    57.13029    75.40456   177.93465
   363  O   6.0   -0.29    1.23    1.80    55.73236    73.61527   177.54457
   364  C   4.0   -0.05    4.26    4.12    56.19064    79.12761   175.20485
   365  C   4.0   -0.04    4.20    4.01    54.24242    77.75131   173.56594
   366  C   4.0   -0.05    4.16    3.93    54.75267    78.12770   170.74600
   367  C   4.0   -0.04    4.12    3.83    52.68217    76.99895   169.09005
   368  N   5.0   -0.12    4.02    2.92    52.47659    74.21696   169.49228
   369  H   1.0    0.10    1.09    1.44    58.96210    80.71698   178.93532
   370  H   1.0    0.06    1.06    1.44    54.15157    78.02579   178.59312
   371  H   1.0    0.05    1.02    1.43    55.82345    81.15669   175.22716
   372  H   1.0    0.05    1.03    1.43    58.09639    78.84876   174.45554
   373  H   1.0    0.06    1.04    1.43    54.34663    75.75400   174.06015
   374  H   1.0    0.05    1.03    1.43    52.37039    78.46485   174.04988
   375  H   1.0    0.05    1.03    1.43    54.87952    80.14454   170.34326
   376  H   1.0    0.04    1.03    1.43    56.58023    77.29757   170.27103
   377  H   1.0    0.05    1.02    1.43    50.87042    77.87356   169.53394
   378  H   1.0    0.04    1.02    1.43    53.13158    77.35632   167.11151
   379  H   1.0    0.06    1.02    1.43    51.22925    73.42647   168.22018
   380  H   1.0    0.06    1.02    1.43    54.23580    73.39523   169.28687
   381  H   1.0    0.06    1.02    1.43    51.85411    73.85267   171.30269
   382  N   5.0   -0.14    3.49    2.07    59.63587    75.18311   178.30474
   383  C   4.0    0.04    4.43    4.43    60.88535    72.76073   178.15175
   384  C   4.0    0.15    3.41    3.08    62.17626    71.89697   180.58697
   385  O   6.0   -0.29    1.25    1.80    62.75774    69.67102   180.87095
   386  C   4.0   -0.03    4.33    4.26    62.87828    72.73810   176.03569
   387  C   4.0   -0.01    3.56    3.14    61.68960    72.96056   173.46879
   388  C   4.0   -0.03    3.48    3.11    59.98957    71.14131   172.63054
   389  C   4.0   -0.04    3.46    3.10    62.29294    74.96719   171.88838
   390  C   4.0   -0.04    3.38    3.07    58.90553    71.32367   170.26160
   391  C   4.0   -0.04    3.37    3.07    61.23016    75.13735   169.50167
   392  C   4.0   -0.04    3.38    3.07    59.52923    73.32240   168.68566
   393  H   1.0    0.10    1.07    1.44    60.73138    76.74997   178.29246
   394  H   1.0    0.07    1.07    1.44    59.40573    71.37234   177.73343
   395  H   1.0    0.05    1.03    1.43    64.20482    74.29132   176.34666
   396  H   1.0    0.06    1.03    1.43    63.92933    70.96400   176.17582
   397  H   1.0    0.06    1.03    1.43    59.53303    69.56454   173.83957
   398  H   1.0    0.06    1.03    1.43    63.62524    76.38619   172.51152
   399  H   1.0    0.05    1.03    1.43    57.61898    69.86678   169.64477
   400  H   1.0    0.05    1.03    1.43    61.74434    76.69568   168.28596
   401  H   1.0    0.05    1.03    1.43    58.73883    73.47391   166.81150
   402  N   5.0   -0.13    3.39    2.02    62.62874    73.66671   182.33189
   403  C   4.0    0.02    4.26    4.13    64.24206    73.17946   184.48744
   404  C   4.0    0.15    3.31    3.05    62.80150    72.18671   186.78587
   405  O   6.0   -0.31    1.21    1.80    62.88673    73.26280   188.82650
   406  H   1.0    0.11    1.10    1.44    62.34558    75.51725   181.94408
   407  H   1.0    0.05    1.03    1.43    65.64645    71.75512   183.95291
   408  H   1.0    0.06    1.03    1.43    65.17589    74.94356   184.99350
   409  N   5.0   -0.13    3.50    2.08    61.46001    70.09277   186.33015
   410  C   4.0    0.03    4.44    4.44    60.07174    68.77110   188.28593
   411  C   4.0    0.15    3.55    3.14    61.43298    66.30088   188.86170
   412  O   6.0   -0.27    1.30    1.80    62.17462    64.94396   187.13179
   413  C   4.0   -0.04    4.27    4.14    57.39876    68.10520   187.37784
   414  C   4.0   -0.04    4.18    3.96    55.80659    70.46083   186.89184
   415  C   4.0   -0.05    4.16    3.92    54.92815    71.74771   189.34360
   416  C   4.0   -0.03    4.13    3.85    55.17412    74.61351   189.12091
   417  N   5.0   -0.11    4.00    2.86    53.94656    75.92603   191.26294
   418  H   1.0    0.11    1.08    1.44    61.70062    69.17413   184.66233
   419  H   1.0    0.05    1.07    1.44    60.03960    70.01562   189.92771
   420  H   1.0    0.06    1.03    1.43    57.59078    67.00917   185.64332
   421  H   1.0    0.05    1.03    1.43    56.50136    66.90290   188.79081
   422  H   1.0    0.06    1.04    1.43    56.92776    71.79002   185.78432
   423  H   1.0    0.05    1.03    1.43    54.17295    69.94140   185.75569
   424  H   1.0    0.05    1.03    1.43    52.96635    71.24448   189.71496
   425  H   1.0    0.04    1.03    1.43    56.06425    71.08957   190.93121
   426  H   1.0    0.05    1.02    1.43    57.16761    75.13389   189.07591
   427  H   1.0    0.06    1.02    1.43    54.30407    75.25273   187.36583
   428  H   1.0    0.11    1.12    1.45    53.87012    78.02238   191.05985
   429  H   1.0    0.07    1.03    1.43    52.10671    75.34372   191.42389
   430  H   1.0    0.06    1.02    1.43    54.86098    75.53644   192.92124
   431  N   5.0   -0.09    3.68    2.25    61.73436    65.64549   191.27987
   432  C   4.0    0.03    4.51    4.55    62.95469    63.24211   191.86357
   433  C   4.0    0.10    3.27    3.05    61.72629    61.14890   190.30232
   434  O   6.0   -0.26    1.15    1.80    59.48261    61.11851   189.82789
   435  C   4.0   -0.04    4.33    4.25    62.56332    62.93809   194.70846
   436  C   4.0   -0.04    4.28    4.16    62.57041    65.67285   195.62490
   437  C   4.0   -0.02    4.35    4.29    61.13092    67.07017   193.54756
   438  H   1.0    0.04    1.04    1.43    64.97394    63.37715   191.40365
   439  H   1.0    0.06    1.03    1.43    60.72810    62.07280   195.06804
   440  H   1.0    0.04    1.02    1.43    64.04382    61.80936   195.57573
   441  H   1.0    0.04    1.02    1.43    61.68632    65.90010   197.46198
   442  H   1.0    0.04    1.03    1.43    64.49913    66.38761   195.74047
   443  H   1.0    0.04    1.02    1.43    59.09501    67.00556   193.90034
   444  H   1.0    0.04    1.02    1.43    61.74340    69.03245   193.40110
   445  N   5.0   -0.21    3.19    1.95    77.17129    67.20657   188.50698
   446  C   4.0    0.03    4.21    4.02    75.94262    69.54691   189.22938
   447  C   4.0    0.08    3.24    3.04    77.55158    70.93754   191.17138
   448  O   6.0   -0.29    1.11    1.80    77.89106    73.22161   191.09710
   449  C   4.0   -0.05    4.37    4.32    73.35517    69.14837   190.44392
   450  C   4.0   -0.02    4.17    3.93    71.28176    68.03345   188.75962
   451  C   4.0   -0.07    4.11    3.83    68.95624    67.60369   190.41784
   452  C   4.0   -0.08    4.10    3.80    70.62185    69.75127   186.54267
   453  H   1.0    0.08    1.02    1.43    76.26219    65.54226   188.79649
   454  H   1.0    0.04    1.05    1.44    75.82379    70.78996   187.57441
   455  H   1.0    0.04    1.03    1.43    73.62299    67.91749   192.08423
   456  H   1.0    0.05    1.03    1.43    72.73875    70.99048   191.14428
   457  H   1.0    0.04    1.05    1.44    71.94464    66.21530   188.02734
   458  H   1.0    0.05    1.00    1.43    67.40327    66.84107   189.31554
   459  H   1.0    0.04    1.00    1.43    69.39902    66.30557   191.95079
   460  H   1.0    0.05    1.00    1.43    68.33969    69.37629   191.25736
   461  H   1.0    0.05    1.00    1.43    69.17547    68.85850   185.38998
   462  H   1.0    0.04    1.00    1.43    69.92408    71.55817   187.23018
   463  H   1.0    0.04    1.00    1.43    72.27224    70.08970   185.36928
   464  N   5.0   -0.20    3.21    1.96    83.97303    76.42348   190.65738
   465  C   4.0    0.03    4.28    4.15    83.91388    79.05551   189.88250
   466  C   4.0    0.08    3.21    3.04    82.86268    80.69258   192.06652
   467  O   6.0   -0.28    1.14    1.80    80.66519    81.43596   192.03015
   468  C   4.0   -0.01    4.35    4.28    82.25615    79.46182   187.51042
   469  C   4.0   -0.05    4.18    3.96    82.75883    77.57246   185.36286
   470  C   4.0   -0.07    4.12    3.85    82.59900    82.17730   186.58224
   471  C   4.0   -0.07    4.02    3.66    81.14661    75.19880   185.52986
   472  H   1.0    0.10    1.03    1.43    82.68831    75.87431   191.94931
   473  H   1.0    0.04    1.05    1.44    85.87114    79.61618   189.48961
   474  H   1.0    0.07    1.06    1.44    80.29726    79.21713   188.13544
   475  H   1.0    0.04    1.03    1.43    82.30420    78.50791   183.58099
   476  H   1.0    0.04    1.03    1.43    84.75145    77.05518   185.31167
   477  H   1.0    0.04    1.00    1.43    81.23931    82.56945   185.09447
   478  H   1.0    0.06    1.01    1.43    82.28304    83.49557   188.12401
   479  H   1.0    0.04    1.00    1.43    84.48990    82.47263   185.85033
   480  H   1.0    0.04    1.00    1.43    81.59248    73.91949   183.98246
   481  H   1.0    0.05    1.01    1.43    81.45537    74.16437   187.27593
   482  H   1.0    0.05    1.00    1.43    79.14921    75.68370   185.44513
   483  N   5.0   -0.21    3.18    1.95    71.74521    69.48470   204.17270
   484  C   4.0    0.04    4.26    4.11    70.36682    70.74580   202.19308
   485  C   4.0    0.09    3.26    3.05    68.08172    72.15590   203.24572
   486  O   6.0   -0.27    1.15    1.80    67.35869    74.07529   202.16314
   487  C   4.0   -0.04    4.27    4.15    69.48667    68.97757   200.06817
   488  C   4.0   -0.01    3.73    3.26    68.15673    70.50373   198.09138
   489  C   4.0   -0.01    3.61    3.17    69.24092    71.92897   196.23157
   490  C   4.0    0.02    3.91    3.48    65.50550    71.02269   197.98642
   491  N   5.0   -0.12    3.48    2.06    67.43800    73.21305   194.88881
   492  C   4.0    0.04    3.91    3.47    65.14191    72.74876   195.97533
   493  C   4.0   -0.04    3.42    3.08    63.43691    70.27397   199.43406
   494  C   4.0   -0.04    3.40    3.08    62.76431    73.66517   195.34969
   495  C   4.0   -0.04    3.38    3.07    61.08909    71.22244   198.83732
   496  C   4.0   -0.04    3.38    3.07    60.75317    72.88072   196.80893
   497  H   1.0    0.09    1.02    1.43    72.32015    67.68401   203.87198
   498  H   1.0    0.06    1.05    1.44    71.57543    72.22691   201.36216
   499  H   1.0    0.04    1.03    1.43    71.14112    68.01419   199.29592
   500  H   1.0    0.04    1.03    1.43    68.21569    67.57000   200.88537
   501  H   1.0    0.05    1.02    1.43    71.20669    72.09330   195.74952
   502  H   1.0    0.08    1.05    1.44    67.78935    74.76972   193.83959
   503  H   1.0    0.05    1.02    1.43    63.68773    68.99211   201.00815
   504  H   1.0    0.07    1.03    1.43    62.56140    74.95557   193.78504
   505  H   1.0    0.06    1.03    1.43    59.48279    70.67095   199.97371
   506  H   1.0    0.05    1.03    1.43    58.88113    73.57905   196.42109
   507  H   1.0    0.10    1.07    1.44    82.71110    88.34143   155.08883
   508  H   1.0    0.06    1.04    1.43    89.09065    88.63002   158.86934
   509  H   1.0    0.09    1.08    1.44    86.01014    83.55324   172.25291
   510  H   1.0    0.06    1.05    1.44    70.75924    59.27500   162.30229
   511  H   1.0    0.09    1.07    1.44    65.67423    61.64255   169.57388
   512  H   1.0    0.05    1.05    1.44    85.41018    73.29431   172.13322
   513  H   1.0    0.10    1.07    1.44    71.25784    75.74103   149.75555
   514  H   1.0    0.06    1.05    1.44    62.77877    59.73176   189.62772
   515  H   1.0    0.09    1.07    1.44    77.49349    67.22644   186.83714
   516  H   1.0    0.06    1.05    1.44    78.37746    69.97880   192.57488
   517  H   1.0    0.09    1.11    1.44    83.71381    75.42715   189.30361
   518  H   1.0    0.06    1.04    1.43    83.97578    81.15290   193.52261
   519  H   1.0    0.10    1.07    1.44    73.17107    70.34806   204.51051
   520  H   1.0    0.06    1.04    1.43    67.20324    71.51205   204.79000

  Z AO/shell   Hii/eV     exponent
  1     Wed Apr 25 08:07:45 CEST 2018   EN: 2.200 GM2: 0.406  GM3: 0.0800  RAES: 1.40
     1s    -10.707211    1.230000
  6     Wed Apr 25 08:07:45 CEST 2018   EN: 2.550 GM2: 0.538  GM3: 0.1500  RAES: 3.00
     2s    -13.970922    2.096432
     2p    -10.063292    1.800000
  7     Wed Apr 25 08:07:45 CEST 2018   EN: 3.040 GM2: 0.461  GM3:-0.0640  RAES: 1.90
     2s    -16.686243    2.339881
     2p    -12.523956    2.014332
  8     Wed Apr 25 08:07:45 CEST 2018   EN: 3.440 GM2: 0.452  GM3:-0.0517  RAES: 1.80
     2s    -20.229985    2.439742
     2p    -15.503117    2.137023
 no old-style atom pair restraining (fixing) potential

molecular fragmentation (1/2 indicates fragments):
111111111111111111111222222222222222222222222222222222222222222222222222
222222222222222222222222222222222222222222222222222222222222222222222222
222222222222222222222222222222222222222222222222222222222222222222222222
222222222222222222222222222222222222222222222222222222222222222222222222
222222222222222222222222222222222222222222222222222222222222222222222222
222222222222222222222222222222222222222222222222222222222222222222222222
222222222222222222222222222222222222222222222222222222222222222222222222
2211222222222222
# atoms in fragment 1/2:    23   497
 fragment masses (1/2) :      165.19     3400.08
CMA distance (Bohr)    :  24.286
constraining FC (au)   :  0.0500
           ------------------------------------------------- 
          |        Self-Consistent Charge Iterations        |
           ------------------------------------------------- 

 Ncao       : 1285
 Nao        : 1285
 Nshell     : 775
 Nel        : 1402
 T(el)      :   500.0
 intcut     :    35.0
 scfconv/Eh :  0.100E-06
   qconv/e  :  0.100E-04
 intneglect :  0.100E-08
 broydamp   :      0.400
 iter      E             dE          RMSdq      gap      omega  full diag
   1   -796.5543850 -0.796554E+03  0.443E+00    3.00       0.0  T
   2   -798.1873237 -0.163294E+01  0.216E+00    1.50       1.0  T
   3   -798.2766322 -0.893085E-01  0.119E+00    1.86       1.0  T
   4   -798.3958454 -0.119213E+00  0.257E-01    1.22       1.0  T
   5   -798.4044962 -0.865077E-02  0.136E-01    1.36       1.0  T
   6   -798.4066723 -0.217614E-02  0.674E-02    1.35       1.0  T
   7   -798.4074178 -0.745442E-03  0.290E-02    1.31       1.0  T
   8   -798.4075185 -0.100782E-03  0.152E-02    1.29       1.0  T
   9   -798.4075486 -0.300588E-04  0.762E-03    1.28       1.0  T
  10   -798.4075577 -0.908376E-05  0.401E-03    1.27       1.1  T
  11   -798.4075602 -0.247943E-05  0.198E-03    1.27       2.2  T
  12   -798.4075608 -0.673579E-06  0.996E-04    1.27       4.4  T
  13   -798.4075610 -0.148949E-06  0.480E-04    1.27       9.1  T
  14   -798.4075610 -0.276706E-07  0.256E-04    1.27      17.1  T
  15   -798.4075610 -0.128048E-07  0.948E-05    1.27      46.3  T
  16   -798.4075610 -0.123634E-08  0.493E-05    1.27      89.0  T
speedup  1.96
cpu  time for SCC   38.55 s
wall time for SCC   19.64 s

   *** convergence criteria satisfied after 16 iterations ***

          eigenvalues
 #    :         689        690        691        692        693        694        695        696
 occ. :        2.000      2.000      2.000      2.000      2.000      2.000      2.000      2.000
 eps  :       -10.142    -10.137    -10.039    -10.019    -10.008    -10.004     -9.981     -9.944
 #    :         697        698        699        700        701        702        703        704
 occ. :        2.000      2.000      2.000      2.000      2.000      0.000      0.000      0.000
 eps  :        -9.934     -9.792     -9.718     -9.607     -9.537     -8.265     -8.110     -7.846
 #    :         705        706        707        708        709        710        711        712
 occ. :        0.000      0.000      0.000      0.000      0.000      0.000      0.000      0.000
 eps  :        -7.788     -7.644     -7.453     -7.444     -7.039     -6.852     -6.798     -6.719


   #   Z            q   n(s)   n(p)   n(d)      C6AA      α(0)
   1   7 N     -0.381  1.316  4.065  0.000    29.855     8.115
   2   6 C      0.042  1.057  2.901  0.000    19.888     6.353
   3   6 C      0.198  1.089  2.713  0.000    23.784     7.987
   4   8 O     -0.364  1.757  4.607  0.000    20.977     6.141
   5   6 C     -0.070  1.056  3.014  0.000    21.826     6.650
   6   6 C      0.003  1.076  2.920  0.000    27.945     8.671
   7   6 C     -0.040  1.081  2.958  0.000    28.988     8.829
   8   6 C     -0.042  1.084  2.958  0.000    29.051     8.839
   9   6 C     -0.073  1.078  2.996  0.000    29.831     8.956
  10   6 C     -0.059  1.073  2.986  0.000    29.478     8.903
  11   6 C      0.141  1.045  2.814  0.000    24.917     8.181
  12   8 O     -0.429  1.714  4.715  0.000    21.426     6.249
  13   1 H      0.167  0.833  0.000  0.000     1.291     1.780
  14   1 H      0.051  0.949  0.000  0.000     2.312     2.378
  15   1 H      0.057  0.943  0.000  0.000     2.232     2.336
  16   1 H      0.049  0.951  0.000  0.000     2.329     2.386
  17   1 H      0.049  0.951  0.000  0.000     2.334     2.389
  18   1 H      0.046  0.954  0.000  0.000     2.372     2.408
  19   1 H      0.044  0.956  0.000  0.000     2.391     2.418
  20   1 H      0.039  0.961  0.000  0.000     2.465     2.455
  21   1 H      0.329  0.671  0.000  0.000     0.641     1.257
  22   7 N     -0.386  1.312  4.074  0.000    29.974     8.131
  23   6 C      0.029  1.059  2.911  0.000    20.098     6.385
  24   6 C      0.270  1.050  2.680  0.000    22.447     7.758
  25   8 O     -0.504  1.742  4.762  0.000    23.864     6.550
  26   6 C     -0.065  1.058  3.007  0.000    21.734     6.636
  27   6 C     -0.007  1.055  2.952  0.000    20.670     6.467
  28   6 C     -0.111  1.041  3.070  0.000    22.678     6.789
  29   6 C     -0.116  1.039  3.077  0.000    22.780     6.805
  30   1 H      0.156  0.844  0.000  0.000     1.363     1.829
  31   1 H      0.053  0.947  0.000  0.000     2.280     2.361
  32   1 H      0.021  0.979  0.000  0.000     2.723     2.581
  33   1 H      0.033  0.967  0.000  0.000     2.548     2.496
  34   1 H      0.029  0.971  0.000  0.000     2.599     2.521
  35   1 H      0.043  0.957  0.000  0.000     2.405     2.425
  36   1 H      0.026  0.974  0.000  0.000     2.647     2.544
  37   1 H      0.045  0.955  0.000  0.000     2.388     2.416
  38   1 H      0.048  0.952  0.000  0.000     2.339     2.392
  39   1 H      0.045  0.955  0.000  0.000     2.388     2.417
  40   1 H      0.037  0.963  0.000  0.000     2.490     2.468
  41   7 N     -0.178  1.248  3.930  0.000    24.853     7.404
  42   6 C      0.017  1.060  2.923  0.000    20.302     6.416
  43   6 C      0.269  1.044  2.686  0.000    22.453     7.760
  44   8 O     -0.481  1.729  4.752  0.000    23.358     6.480
  45   6 C     -0.013  1.062  2.950  0.000    20.763     6.481
  46   6 C     -0.107  1.037  3.071  0.000    22.609     6.780
  47   6 C     -0.114  1.037  3.076  0.000    22.730     6.798
  48   1 H      0.236  0.764  0.000  0.000     0.940     1.519
  49   1 H      0.066  0.934  0.000  0.000     2.125     2.280
  50   1 H      0.038  0.962  0.000  0.000     2.479     2.462
  51   1 H      0.053  0.947  0.000  0.000     2.278     2.360
  52   1 H      0.027  0.973  0.000  0.000     2.635     2.539
  53   1 H      0.050  0.950  0.000  0.000     2.318     2.381
  54   1 H      0.055  0.945  0.000  0.000     2.257     2.349
  55   1 H      0.055  0.945  0.000  0.000     2.260     2.351
  56   1 H      0.031  0.969  0.000  0.000     2.569     2.506
  57   7 N     -0.191  1.256  3.936  0.000    25.151     7.448
  58   6 C      0.030  1.059  2.911  0.000    20.069     6.378
  59   6 C      0.268  1.045  2.687  0.000    22.472     7.763
  60   8 O     -0.502  1.738  4.765  0.000    23.838     6.546
  61   6 C     -0.058  1.049  3.009  0.000    21.610     6.617
  62   6 C      0.013  1.078  2.909  0.000    27.721     8.636
  63   6 C     -0.037  1.077  2.959  0.000    28.914     8.818
  64   6 C     -0.034  1.077  2.956  0.000    28.836     8.806
  65   6 C     -0.032  1.079  2.953  0.000    28.789     8.799
  66   6 C     -0.026  1.079  2.947  0.000    28.657     8.779
  67   6 C     -0.034  1.079  2.955  0.000    28.849     8.808
  68   1 H      0.221  0.779  0.000  0.000     1.003     1.569
  69   1 H      0.078  0.922  0.000  0.000     2.000     2.211
  70   1 H      0.043  0.957  0.000  0.000     2.410     2.428
  71   1 H      0.047  0.953  0.000  0.000     2.352     2.399
  72   1 H      0.032  0.968  0.000  0.000     2.555     2.500
  73   1 H      0.020  0.980  0.000  0.000     2.730     2.584
  74   1 H      0.048  0.952  0.000  0.000     2.347     2.396
  75   1 H      0.022  0.978  0.000  0.000     2.701     2.570
  76   1 H      0.046  0.954  0.000  0.000     2.372     2.408
  77   7 N     -0.184  1.260  3.924  0.000    24.995     7.425
  78   6 C      0.022  1.058  2.920  0.000    20.214     6.402
  79   6 C      0.265  1.046  2.689  0.000    22.536     7.774
  80   8 O     -0.480  1.735  4.745  0.000    23.346     6.478
  81   6 C     -0.118  1.040  3.078  0.000    22.817     6.811
  82   1 H      0.235  0.765  0.000  0.000     0.945     1.523
  83   1 H      0.080  0.920  0.000  0.000     1.977     2.199
  84   1 H      0.062  0.938  0.000  0.000     2.176     2.307
  85   1 H      0.053  0.947  0.000  0.000     2.282     2.362
  86   1 H      0.065  0.935  0.000  0.000     2.138     2.286
  87   7 N     -0.164  1.245  3.919  0.000    24.543     7.358
  88   6 C      0.023  1.059  2.918  0.000    20.194     6.399
  89   6 C      0.201  1.084  2.715  0.000    23.720     7.976
  90   8 O     -0.373  1.771  4.602  0.000    21.144     6.165
  91   6 C     -0.068  1.053  3.015  0.000    21.798     6.646
  92   6 C     -0.086  1.053  3.033  0.000    22.133     6.698
  93   6 C     -0.101  1.054  3.048  0.000    22.433     6.743
  94   6 C     -0.057  1.059  2.998  0.000    21.691     6.648
  95   7 N     -0.145  1.233  3.912  0.000    24.124     7.295
  96   1 H      0.213  0.787  0.000  0.000     1.042     1.599
  97   1 H      0.097  0.903  0.000  0.000     1.817     2.108
  98   1 H      0.062  0.938  0.000  0.000     2.171     2.304
  99   1 H      0.051  0.949  0.000  0.000     2.311     2.378
 100   1 H      0.084  0.916  0.000  0.000     1.936     2.176
 101   1 H      0.059  0.941  0.000  0.000     2.210     2.325
 102   1 H      0.067  0.933  0.000  0.000     2.118     2.276
 103   1 H      0.092  0.908  0.000  0.000     1.863     2.134
 104   1 H      0.132  0.868  0.000  0.000     1.520     1.928
 105   1 H      0.129  0.871  0.000  0.000     1.546     1.945
 106   1 H      0.310  0.690  0.000  0.000     0.684     1.296
 107   1 H      0.287  0.713  0.000  0.000     0.754     1.361
 108   1 H      0.296  0.704  0.000  0.000     0.727     1.336
 109   7 N     -0.394  1.320  4.074  0.000    30.210     8.163
 110   6 C      0.040  1.057  2.903  0.000    19.908     6.355
 111   6 C      0.271  1.048  2.682  0.000    22.428     7.755
 112   8 O     -0.488  1.751  4.736  0.000    23.514     6.501
 113   6 C     -0.061  1.046  3.015  0.000    21.658     6.624
 114   6 C      0.050  1.064  2.886  0.000    26.374     8.372
 115   7 N     -0.279  1.470  3.809  0.000    28.084     7.857
 116   6 C     -0.029  1.063  2.966  0.000    28.695     8.786
 117   6 C      0.073  1.064  2.863  0.000    26.118     8.360
 118   7 N     -0.085  1.236  3.849  0.000    22.883     7.105
 119   1 H      0.198  0.802  0.000  0.000     1.117     1.656
 120   1 H      0.005  0.995  0.000  0.000     2.967     2.694
 121   1 H      0.064  0.936  0.000  0.000     2.151     2.294
 122   1 H      0.003  0.997  0.000  0.000     3.003     2.710
 123   1 H      0.013  0.987  0.000  0.000     2.842     2.636
 124   1 H      0.083  0.917  0.000  0.000     1.946     2.182
 125   1 H      0.197  0.803  0.000  0.000     1.123     1.660
 126   7 N     -0.205  1.264  3.940  0.000    25.450     7.492
 127   6 C      0.030  1.058  2.912  0.000    20.070     6.379
 128   6 C      0.258  1.050  2.692  0.000    22.650     7.794
 129   8 O     -0.512  1.742  4.770  0.000    24.050     6.575
 130   6 C     -0.065  1.052  3.013  0.000    21.739     6.637
 131   6 C     -0.042  1.063  2.979  0.000    28.980     8.828
 132   6 C     -0.014  1.073  2.941  0.000    28.327     8.730
 133   6 C     -0.022  1.074  2.948  0.000    28.391     8.727
 134   7 N     -0.111  1.226  3.885  0.000    23.415     7.187
 135   6 C      0.042  1.061  2.897  0.000    26.956     8.510
 136   6 C     -0.042  1.078  2.964  0.000    29.036     8.836
 137   6 C     -0.057  1.072  2.985  0.000    29.427     8.895
 138   6 C     -0.045  1.077  2.969  0.000    29.126     8.850
 139   6 C     -0.042  1.078  2.964  0.000    29.045     8.838
 140   1 H      0.217  0.783  0.000  0.000     1.025     1.586
 141   1 H      0.065  0.935  0.000  0.000     2.137     2.286
 142   1 H      0.066  0.934  0.000  0.000     2.129     2.282
 143   1 H      0.046  0.954  0.000  0.000     2.373     2.409
 144   1 H      0.051  0.949  0.000  0.000     2.303     2.373
 145   1 H      0.192  0.808  0.000  0.000     1.146     1.677
 146   1 H      0.033  0.967  0.000  0.000     2.547     2.496
 147   1 H      0.029  0.971  0.000  0.000     2.602     2.522
 148   1 H      0.031  0.969  0.000  0.000     2.573     2.508
 149   1 H      0.028  0.972  0.000  0.000     2.616     2.529
 150   7 N     -0.074  1.233  3.840  0.000    22.666     7.071
 151   6 C      0.023  1.065  2.912  0.000    20.176     6.392
 152   6 C      0.277  1.041  2.682  0.000    22.312     7.735
 153   8 O     -0.480  1.739  4.741  0.000    23.346     6.478
 154   6 C     -0.064  1.051  3.013  0.000    21.702     6.628
 155   6 C     -0.066  1.050  3.016  0.000    21.739     6.634
 156   6 C     -0.010  1.051  2.959  0.000    20.784     6.497
 157   1 H      0.049  0.951  0.000  0.000     2.333     2.389
 158   1 H      0.056  0.944  0.000  0.000     2.247     2.344
 159   1 H      0.057  0.943  0.000  0.000     2.231     2.336
 160   1 H      0.070  0.930  0.000  0.000     2.086     2.259
 161   1 H      0.065  0.935  0.000  0.000     2.141     2.288
 162   1 H      0.075  0.925  0.000  0.000     2.036     2.231
 163   1 H      0.064  0.936  0.000  0.000     2.158     2.297
 164   7 N     -0.178  1.247  3.931  0.000    24.855     7.404
 165   6 C      0.031  1.055  2.914  0.000    20.059     6.378
 166   6 C      0.193  1.089  2.719  0.000    23.879     8.003
 167   8 O     -0.360  1.746  4.613  0.000    20.890     6.128
 168   6 C     -0.118  1.039  3.079  0.000    22.813     6.810
 169   1 H      0.228  0.772  0.000  0.000     0.973     1.546
 170   1 H      0.107  0.893  0.000  0.000     1.725     2.054
 171   1 H      0.080  0.920  0.000  0.000     1.978     2.199
 172   1 H      0.074  0.926  0.000  0.000     2.046     2.237
 173   1 H      0.050  0.950  0.000  0.000     2.321     2.383
 174   7 N     -0.408  1.321  4.087  0.000    30.597     8.215
 175   6 C      0.034  1.059  2.908  0.000    20.023     6.374
 176   6 C      0.274  1.047  2.679  0.000    22.367     7.745
 177   8 O     -0.496  1.747  4.749  0.000    23.688     6.525
 178   6 C     -0.068  1.059  3.009  0.000    21.790     6.645
 179   6 C     -0.063  1.048  3.015  0.000    21.704     6.633
 180   6 C     -0.085  1.053  3.032  0.000    22.125     6.696
 181   6 C     -0.045  1.058  2.987  0.000    21.477     6.615
 182   7 N     -0.148  1.231  3.917  0.000    24.195     7.306
 183   1 H      0.171  0.829  0.000  0.000     1.264     1.761
 184   1 H      0.027  0.973  0.000  0.000     2.635     2.539
 185   1 H      0.053  0.947  0.000  0.000     2.280     2.362
 186   1 H      0.046  0.954  0.000  0.000     2.365     2.405
 187   1 H      0.037  0.963  0.000  0.000     2.495     2.470
 188   1 H      0.051  0.949  0.000  0.000     2.310     2.377
 189   1 H      0.076  0.924  0.000  0.000     2.024     2.225
 190   1 H      0.066  0.934  0.000  0.000     2.133     2.284
 191   1 H      0.112  0.888  0.000  0.000     1.679     2.027
 192   1 H      0.121  0.879  0.000  0.000     1.603     1.980
 193   1 H      0.311  0.689  0.000  0.000     0.682     1.294
 194   1 H      0.302  0.698  0.000  0.000     0.708     1.318
 195   1 H      0.294  0.706  0.000  0.000     0.730     1.339
 196   7 N     -0.185  1.243  3.942  0.000    25.002     7.426
 197   6 C      0.041  1.053  2.906  0.000    19.885     6.349
 198   6 C      0.267  1.047  2.686  0.000    22.486     7.765
 199   8 O     -0.496  1.735  4.761  0.000    23.686     6.525
 200   6 C     -0.093  1.069  3.025  0.000    22.279     6.719
 201   6 C      0.374  1.021  2.605  0.000    20.658     7.438
 202   8 O     -0.616  1.756  4.860  0.000    26.520     6.904
 203   8 O     -0.636  1.770  4.866  0.000    27.014     6.968
 204   1 H      0.201  0.799  0.000  0.000     1.103     1.645
 205   1 H      0.076  0.924  0.000  0.000     2.023     2.224
 206   1 H      0.014  0.986  0.000  0.000     2.826     2.629
 207   1 H      0.045  0.955  0.000  0.000     2.377     2.411
 208   7 N     -0.159  1.236  3.923  0.000    24.441     7.342
 209   6 C      0.020  1.060  2.920  0.000    20.237     6.406
 210   6 C      0.275  1.044  2.682  0.000    22.354     7.742
 211   8 O     -0.488  1.743  4.745  0.000    23.520     6.502
 212   6 C     -0.069  1.059  3.010  0.000    21.811     6.647
 213   6 C     -0.009  1.056  2.953  0.000    20.704     6.472
 214   6 C     -0.112  1.038  3.074  0.000    22.702     6.793
 215   6 C     -0.119  1.042  3.077  0.000    22.822     6.811
 216   1 H      0.197  0.803  0.000  0.000     1.124     1.661
 217   1 H      0.080  0.920  0.000  0.000     1.981     2.201
 218   1 H      0.057  0.943  0.000  0.000     2.234     2.338
 219   1 H      0.044  0.956  0.000  0.000     2.395     2.420
 220   1 H      0.030  0.970  0.000  0.000     2.589     2.516
 221   1 H      0.051  0.949  0.000  0.000     2.303     2.373
 222   1 H      0.031  0.969  0.000  0.000     2.578     2.511
 223   1 H      0.038  0.962  0.000  0.000     2.481     2.463
 224   1 H      0.051  0.949  0.000  0.000     2.309     2.376
 225   1 H      0.049  0.951  0.000  0.000     2.327     2.386
 226   1 H      0.037  0.963  0.000  0.000     2.494     2.470
 227   7 N     -0.184  1.252  3.932  0.000    24.992     7.425
 228   6 C      0.036  1.057  2.907  0.000    19.975     6.364
 229   6 C      0.259  1.047  2.693  0.000    22.631     7.791
 230   8 O     -0.508  1.741  4.767  0.000    23.954     6.562
 231   6 C     -0.055  1.049  3.006  0.000    21.555     6.609
 232   6 C      0.011  1.080  2.909  0.000    27.761     8.643
 233   6 C     -0.037  1.080  2.957  0.000    28.910     8.818
 234   6 C     -0.037  1.079  2.959  0.000    28.927     8.820
 235   6 C     -0.032  1.081  2.951  0.000    28.791     8.799
 236   6 C     -0.030  1.077  2.953  0.000    28.759     8.794
 237   6 C     -0.034  1.080  2.955  0.000    28.858     8.809
 238   1 H      0.220  0.780  0.000  0.000     1.010     1.574
 239   1 H      0.063  0.937  0.000  0.000     2.160     2.298
 240   1 H      0.044  0.956  0.000  0.000     2.391     2.418
 241   1 H      0.041  0.959  0.000  0.000     2.436     2.441
 242   1 H      0.028  0.972  0.000  0.000     2.617     2.530
 243   1 H      0.023  0.977  0.000  0.000     2.685     2.562
 244   1 H      0.053  0.947  0.000  0.000     2.280     2.361
 245   1 H      0.034  0.966  0.000  0.000     2.535     2.490
 246   1 H      0.057  0.943  0.000  0.000     2.235     2.338
 247   7 N     -0.073  1.236  3.838  0.000    22.665     7.071
 248   6 C      0.027  1.064  2.908  0.000    20.098     6.379
 249   6 C      0.287  1.041  2.672  0.000    22.139     7.705
 250   8 O     -0.516  1.747  4.768  0.000    24.141     6.588
 251   6 C     -0.067  1.052  3.015  0.000    21.750     6.636
 252   6 C     -0.070  1.051  3.019  0.000    21.822     6.647
 253   6 C     -0.008  1.051  2.957  0.000    20.759     6.494
 254   1 H      0.063  0.937  0.000  0.000     2.166     2.302
 255   1 H      0.046  0.954  0.000  0.000     2.374     2.410
 256   1 H      0.071  0.929  0.000  0.000     2.070     2.250
 257   1 H      0.072  0.928  0.000  0.000     2.061     2.245
 258   1 H      0.077  0.923  0.000  0.000     2.008     2.216
 259   1 H      0.058  0.942  0.000  0.000     2.228     2.334
 260   1 H      0.084  0.916  0.000  0.000     1.934     2.175
 261   7 N     -0.206  1.270  3.936  0.000    25.488     7.498
 262   6 C      0.038  1.056  2.906  0.000    19.937     6.357
 263   6 C      0.291  1.039  2.670  0.000    22.071     7.694
 264   8 O     -0.474  1.743  4.732  0.000    23.222     6.461
 265   6 C     -0.070  1.053  3.016  0.000    21.823     6.649
 266   6 C     -0.008  1.075  2.934  0.000    28.223     8.714
 267   6 C     -0.040  1.081  2.959  0.000    28.991     8.830
 268   6 C     -0.038  1.079  2.958  0.000    28.936     8.822
 269   6 C     -0.061  1.073  2.987  0.000    29.506     8.908
 270   6 C     -0.068  1.079  2.989  0.000    29.692     8.936
 271   6 C      0.146  1.044  2.810  0.000    24.821     8.165
 272   8 O     -0.405  1.702  4.703  0.000    20.943     6.178
 273   1 H      0.235  0.765  0.000  0.000     0.942     1.521
 274   1 H      0.062  0.938  0.000  0.000     2.176     2.307
 275   1 H      0.055  0.945  0.000  0.000     2.254     2.348
 276   1 H      0.052  0.948  0.000  0.000     2.296     2.369
 277   1 H      0.041  0.959  0.000  0.000     2.433     2.439
 278   1 H      0.017  0.983  0.000  0.000     2.773     2.604
 279   1 H      0.066  0.934  0.000  0.000     2.128     2.281
 280   1 H      0.044  0.956  0.000  0.000     2.392     2.419
 281   1 H      0.342  0.658  0.000  0.000     0.606     1.223
 282   7 N     -0.208  1.259  3.950  0.000    25.530     7.504
 283   6 C      0.043  1.055  2.903  0.000    19.855     6.343
 284   6 C      0.284  1.040  2.675  0.000    22.181     7.712
 285   8 O     -0.479  1.742  4.737  0.000    23.332     6.476
 286   6 C     -0.058  1.053  3.005  0.000    21.614     6.618
 287   6 C     -0.096  1.065  3.031  0.000    22.324     6.727
 288   6 C      0.366  1.026  2.608  0.000    20.799     7.463
 289   8 O     -0.633  1.771  4.863  0.000    26.955     6.961
 290   8 O     -0.621  1.753  4.869  0.000    26.648     6.921
 291   1 H      0.204  0.796  0.000  0.000     1.084     1.631
 292   1 H      0.059  0.941  0.000  0.000     2.211     2.326
 293   1 H      0.058  0.942  0.000  0.000     2.217     2.328
 294   1 H      0.037  0.963  0.000  0.000     2.496     2.470
 295   1 H      0.027  0.973  0.000  0.000     2.624     2.533
 296   1 H      0.016  0.984  0.000  0.000     2.802     2.618
 297   7 N     -0.190  1.249  3.941  0.000    25.125     7.445
 298   6 C      0.031  1.062  2.907  0.000    20.051     6.376
 299   6 C      0.295  1.039  2.666  0.000    21.987     7.679
 300   8 O     -0.494  1.747  4.746  0.000    23.650     6.520
 301   6 C     -0.058  1.053  3.005  0.000    21.611     6.618
 302   6 C     -0.096  1.065  3.031  0.000    22.331     6.729
 303   6 C      0.369  1.026  2.605  0.000    20.745     7.454
 304   8 O     -0.643  1.773  4.870  0.000    27.205     6.993
 305   8 O     -0.636  1.763  4.874  0.000    27.033     6.971
 306   1 H      0.199  0.801  0.000  0.000     1.113     1.652
 307   1 H      0.063  0.937  0.000  0.000     2.167     2.302
 308   1 H      0.052  0.948  0.000  0.000     2.294     2.369
 309   1 H      0.052  0.948  0.000  0.000     2.301     2.372
 310   1 H      0.019  0.981  0.000  0.000     2.744     2.590
 311   1 H      0.035  0.965  0.000  0.000     2.512     2.478
 312   7 N     -0.186  1.243  3.943  0.000    25.038     7.432
 313   6 C      0.025  1.058  2.917  0.000    20.152     6.392
 314   6 C      0.274  1.045  2.681  0.000    22.362     7.744
 315   8 O     -0.481  1.725  4.756  0.000    23.368     6.481
 316   6 C      0.084  1.032  2.884  0.000    19.402     6.310
 317   8 O     -0.452  1.699  4.753  0.000    21.877     6.314
 318   1 H      0.203  0.797  0.000  0.000     1.091     1.636
 319   1 H      0.071  0.929  0.000  0.000     2.071     2.250
 320   1 H      0.074  0.926  0.000  0.000     2.039     2.233
 321   1 H      0.043  0.957  0.000  0.000     2.415     2.430
 322   1 H      0.302  0.698  0.000  0.000     0.716     1.329
 323   7 N     -0.178  1.254  3.924  0.000    24.847     7.403
 324   6 C      0.031  1.058  2.911  0.000    20.056     6.377
 325   6 C      0.281  1.041  2.677  0.000    22.238     7.723
 326   8 O     -0.467  1.727  4.740  0.000    23.061     6.439
 327   6 C     -0.074  1.055  3.019  0.000    21.917     6.665
 328   6 C     -0.067  1.048  3.019  0.000    21.774     6.643
 329   6 C     -0.093  1.053  3.039  0.000    22.268     6.718
 330   6 C     -0.048  1.059  2.989  0.000    21.524     6.622
 331   7 N     -0.147  1.229  3.917  0.000    24.163     7.301
 332   1 H      0.201  0.799  0.000  0.000     1.101     1.643
 333   1 H      0.068  0.932  0.000  0.000     2.106     2.269
 334   1 H      0.052  0.948  0.000  0.000     2.298     2.371
 335   1 H      0.054  0.946  0.000  0.000     2.267     2.354
 336   1 H      0.060  0.940  0.000  0.000     2.202     2.320
 337   1 H      0.052  0.948  0.000  0.000     2.300     2.372
 338   1 H      0.085  0.915  0.000  0.000     1.929     2.172
 339   1 H      0.077  0.923  0.000  0.000     2.007     2.215
 340   1 H      0.103  0.897  0.000  0.000     1.756     2.072
 341   1 H      0.125  0.875  0.000  0.000     1.572     1.961
 342   1 H      0.308  0.692  0.000  0.000     0.691     1.302
 343   1 H      0.304  0.696  0.000  0.000     0.701     1.312
 344   1 H      0.288  0.712  0.000  0.000     0.749     1.356
 345   7 N     -0.183  1.240  3.943  0.000    24.957     7.420
 346   6 C      0.012  1.065  2.922  0.000    20.374     6.426
 347   6 C      0.269  1.044  2.688  0.000    22.461     7.761
 348   8 O     -0.464  1.736  4.727  0.000    22.992     6.429
 349   6 C     -0.056  1.049  3.007  0.000    21.572     6.612
 350   6 C     -0.116  1.069  3.047  0.000    22.712     6.785
 351   6 C      0.369  1.023  2.608  0.000    20.740     7.453
 352   8 O     -0.605  1.775  4.830  0.000    26.241     6.868
 353   8 O     -0.596  1.754  4.842  0.000    26.007     6.838
 354   1 H      0.195  0.805  0.000  0.000     1.131     1.666
 355   1 H      0.094  0.906  0.000  0.000     1.837     2.120
 356   1 H      0.057  0.943  0.000  0.000     2.235     2.338
 357   1 H      0.040  0.960  0.000  0.000     2.455     2.450
 358   1 H      0.071  0.929  0.000  0.000     2.075     2.253
 359   1 H      0.054  0.946  0.000  0.000     2.269     2.356
 360   7 N     -0.193  1.255  3.938  0.000    25.184     7.453
 361   6 C      0.013  1.064  2.922  0.000    20.349     6.422
 362   6 C      0.276  1.043  2.681  0.000    22.325     7.737
 363   8 O     -0.454  1.729  4.725  0.000    22.789     6.400
 364   6 C     -0.072  1.054  3.018  0.000    21.866     6.657
 365   6 C     -0.090  1.054  3.036  0.000    22.214     6.710
 366   6 C     -0.091  1.050  3.040  0.000    22.229     6.712
 367   6 C     -0.054  1.061  2.994  0.000    21.646     6.641
 368   7 N     -0.140  1.226  3.914  0.000    24.024     7.280
 369   1 H      0.189  0.811  0.000  0.000     1.161     1.688
 370   1 H      0.095  0.905  0.000  0.000     1.827     2.114
 371   1 H      0.049  0.951  0.000  0.000     2.332     2.388
 372   1 H      0.039  0.961  0.000  0.000     2.466     2.456
 373   1 H      0.075  0.925  0.000  0.000     2.026     2.226
 374   1 H      0.074  0.926  0.000  0.000     2.041     2.234
 375   1 H      0.071  0.929  0.000  0.000     2.079     2.255
 376   1 H      0.066  0.934  0.000  0.000     2.133     2.284
 377   1 H      0.125  0.875  0.000  0.000     1.571     1.960
 378   1 H      0.125  0.875  0.000  0.000     1.577     1.964
 379   1 H      0.316  0.684  0.000  0.000     0.669     1.281
 380   1 H      0.281  0.719  0.000  0.000     0.774     1.378
 381   1 H      0.295  0.705  0.000  0.000     0.727     1.336
 382   7 N     -0.186  1.243  3.943  0.000    25.028     7.430
 383   6 C      0.019  1.061  2.920  0.000    20.266     6.410
 384   6 C      0.268  1.043  2.689  0.000    22.481     7.764
 385   8 O     -0.486  1.746  4.740  0.000    23.469     6.495
 386   6 C     -0.063  1.050  3.013  0.000    21.696     6.630
 387   6 C      0.012  1.083  2.905  0.000    27.741     8.639
 388   6 C     -0.037  1.082  2.955  0.000    28.917     8.819
 389   6 C     -0.038  1.081  2.957  0.000    28.943     8.823
 390   6 C     -0.044  1.080  2.964  0.000    29.085     8.844
 391   6 C     -0.034  1.079  2.955  0.000    28.840     8.806
 392   6 C     -0.049  1.079  2.970  0.000    29.217     8.864
 393   1 H      0.192  0.808  0.000  0.000     1.150     1.680
 394   1 H      0.105  0.895  0.000  0.000     1.741     2.064
 395   1 H      0.029  0.971  0.000  0.000     2.602     2.523
 396   1 H      0.060  0.940  0.000  0.000     2.198     2.318
 397   1 H      0.053  0.947  0.000  0.000     2.280     2.361
 398   1 H      0.014  0.986  0.000  0.000     2.832     2.632
 399   1 H      0.077  0.923  0.000  0.000     2.009     2.217
 400   1 H      0.020  0.980  0.000  0.000     2.728     2.583
 401   1 H      0.063  0.937  0.000  0.000     2.162     2.300
 402   7 N     -0.176  1.247  3.929  0.000    24.811     7.398
 403   6 C     -0.029  1.051  2.978  0.000    21.161     6.561
 404   6 C      0.272  1.038  2.690  0.000    22.408     7.751
 405   8 O     -0.472  1.735  4.736  0.000    23.170     6.454
 406   1 H      0.213  0.787  0.000  0.000     1.040     1.597
 407   1 H      0.074  0.926  0.000  0.000     2.038     2.232
 408   1 H      0.088  0.912  0.000  0.000     1.902     2.157
 409   7 N     -0.165  1.243  3.922  0.000    24.575     7.363
 410   6 C      0.016  1.061  2.924  0.000    20.316     6.418
 411   6 C      0.263  1.043  2.694  0.000    22.563     7.779
 412   8 O     -0.507  1.758  4.750  0.000    23.946     6.561
 413   6 C     -0.070  1.055  3.015  0.000    21.833     6.651
 414   6 C     -0.073  1.050  3.023  0.000    21.893     6.661
 415   6 C     -0.090  1.056  3.034  0.000    22.222     6.712
 416   6 C     -0.029  1.053  2.976  0.000    21.187     6.570
 417   7 N     -0.186  1.256  3.929  0.000    25.009     7.428
 418   1 H      0.210  0.790  0.000  0.000     1.054     1.609
 419   1 H      0.084  0.916  0.000  0.000     1.940     2.178
 420   1 H      0.056  0.944  0.000  0.000     2.244     2.342
 421   1 H      0.065  0.935  0.000  0.000     2.140     2.288
 422   1 H      0.046  0.954  0.000  0.000     2.369     2.407
 423   1 H      0.067  0.933  0.000  0.000     2.123     2.278
 424   1 H      0.077  0.923  0.000  0.000     2.007     2.216
 425   1 H      0.070  0.930  0.000  0.000     2.091     2.261
 426   1 H      0.087  0.913  0.000  0.000     1.911     2.162
 427   1 H      0.096  0.904  0.000  0.000     1.824     2.112
 428   1 H      0.296  0.704  0.000  0.000     0.726     1.335
 429   1 H      0.271  0.729  0.000  0.000     0.805     1.406
 430   1 H      0.263  0.737  0.000  0.000     0.835     1.431
 431   7 N     -0.074  1.229  3.845  0.000    22.682     7.073
 432   6 C      0.024  1.065  2.911  0.000    20.140     6.385
 433   6 C      0.215  1.076  2.709  0.000    23.458     7.932
 434   8 O     -0.367  1.749  4.619  0.000    21.041     6.150
 435   6 C     -0.069  1.055  3.014  0.000    21.791     6.642
 436   6 C     -0.071  1.052  3.019  0.000    21.827     6.647
 437   6 C     -0.016  1.055  2.962  0.000    20.906     6.517
 438   1 H      0.070  0.930  0.000  0.000     2.090     2.261
 439   1 H      0.069  0.931  0.000  0.000     2.098     2.265
 440   1 H      0.075  0.925  0.000  0.000     2.030     2.228
 441   1 H      0.076  0.924  0.000  0.000     2.023     2.224
 442   1 H      0.063  0.937  0.000  0.000     2.159     2.298
 443   1 H      0.073  0.927  0.000  0.000     2.052     2.240
 444   1 H      0.071  0.929  0.000  0.000     2.078     2.254
 445   7 N     -0.389  1.311  4.078  0.000    30.058     8.142
 446   6 C      0.040  1.053  2.907  0.000    19.918     6.358
 447   6 C      0.198  1.092  2.709  0.000    23.772     7.985
 448   8 O     -0.387  1.758  4.629  0.000    21.428     6.206
 449   6 C     -0.070  1.059  3.011  0.000    21.832     6.650
 450   6 C     -0.009  1.056  2.952  0.000    20.697     6.471
 451   6 C     -0.112  1.040  3.072  0.000    22.694     6.791
 452   6 C     -0.111  1.038  3.073  0.000    22.675     6.790
 453   1 H      0.172  0.828  0.000  0.000     1.258     1.757
 454   1 H      0.049  0.951  0.000  0.000     2.335     2.390
 455   1 H      0.054  0.946  0.000  0.000     2.274     2.358
 456   1 H      0.043  0.957  0.000  0.000     2.403     2.424
 457   1 H      0.039  0.961  0.000  0.000     2.465     2.455
 458   1 H      0.035  0.965  0.000  0.000     2.514     2.479
 459   1 H      0.044  0.956  0.000  0.000     2.390     2.418
 460   1 H      0.044  0.956  0.000  0.000     2.403     2.424
 461   1 H      0.034  0.966  0.000  0.000     2.523     2.484
 462   1 H      0.040  0.960  0.000  0.000     2.448     2.447
 463   1 H      0.037  0.963  0.000  0.000     2.491     2.468
 464   7 N     -0.381  1.315  4.066  0.000    29.855     8.115
 465   6 C      0.032  1.065  2.903  0.000    20.050     6.379
 466   6 C      0.200  1.094  2.706  0.000    23.738     7.979
 467   8 O     -0.367  1.759  4.608  0.000    21.035     6.149
 468   6 C     -0.026  1.065  2.961  0.000    21.001     6.518
 469   6 C     -0.062  1.050  3.012  0.000    21.688     6.630
 470   6 C     -0.111  1.040  3.071  0.000    22.676     6.790
 471   6 C     -0.107  1.037  3.069  0.000    22.597     6.779
 472   1 H      0.153  0.847  0.000  0.000     1.383     1.842
 473   1 H      0.055  0.945  0.000  0.000     2.254     2.348
 474   1 H      0.050  0.950  0.000  0.000     2.324     2.384
 475   1 H      0.035  0.965  0.000  0.000     2.511     2.478
 476   1 H      0.041  0.959  0.000  0.000     2.440     2.443
 477   1 H      0.036  0.964  0.000  0.000     2.504     2.475
 478   1 H      0.030  0.970  0.000  0.000     2.587     2.515
 479   1 H      0.041  0.959  0.000  0.000     2.438     2.442
 480   1 H      0.035  0.965  0.000  0.000     2.521     2.483
 481   1 H      0.039  0.961  0.000  0.000     2.458     2.452
 482   1 H      0.038  0.962  0.000  0.000     2.471     2.458
 483   7 N     -0.396  1.313  4.083  0.000    30.270     8.171
 484   6 C      0.046  1.055  2.899  0.000    19.812     6.340
 485   6 C      0.201  1.089  2.710  0.000    23.723     7.977
 486   8 O     -0.384  1.761  4.623  0.000    21.365     6.197
 487   6 C     -0.065  1.053  3.012  0.000    21.739     6.637
 488   6 C     -0.034  1.067  2.967  0.000    28.795     8.800
 489   6 C     -0.004  1.065  2.939  0.000    28.085     8.692
 490   6 C     -0.018  1.075  2.943  0.000    28.295     8.713
 491   7 N     -0.119  1.237  3.882  0.000    23.585     7.213
 492   6 C      0.047  1.062  2.891  0.000    26.830     8.489
 493   6 C     -0.042  1.078  2.964  0.000    29.037     8.836
 494   6 C     -0.057  1.074  2.983  0.000    29.428     8.895
 495   6 C     -0.048  1.078  2.971  0.000    29.197     8.861
 496   6 C     -0.046  1.077  2.969  0.000    29.133     8.852
 497   1 H      0.171  0.829  0.000  0.000     1.266     1.762
 498   1 H      0.039  0.961  0.000  0.000     2.469     2.457
 499   1 H      0.057  0.943  0.000  0.000     2.237     2.339
 500   1 H      0.057  0.943  0.000  0.000     2.229     2.335
 501   1 H      0.032  0.968  0.000  0.000     2.557     2.501
 502   1 H      0.189  0.811  0.000  0.000     1.165     1.691
 503   1 H      0.021  0.979  0.000  0.000     2.712     2.575
 504   1 H      0.043  0.957  0.000  0.000     2.405     2.425
 505   1 H      0.031  0.969  0.000  0.000     2.571     2.508
 506   1 H      0.036  0.964  0.000  0.000     2.500     2.472
 507   1 H      0.181  0.819  0.000  0.000     1.206     1.720
 508   1 H      0.068  0.932  0.000  0.000     2.112     2.273
 509   1 H      0.183  0.817  0.000  0.000     1.197     1.713
 510   1 H      0.100  0.900  0.000  0.000     1.788     2.091
 511   1 H      0.186  0.814  0.000  0.000     1.178     1.700
 512   1 H      0.092  0.908  0.000  0.000     1.855     2.130
 513   1 H      0.178  0.822  0.000  0.000     1.223     1.732
 514   1 H      0.069  0.931  0.000  0.000     2.101     2.266
 515   1 H      0.176  0.824  0.000  0.000     1.237     1.742
 516   1 H      0.072  0.928  0.000  0.000     2.065     2.247
 517   1 H      0.196  0.804  0.000  0.000     1.124     1.661
 518   1 H      0.072  0.928  0.000  0.000     2.063     2.246
 519   1 H      0.180  0.820  0.000  0.000     1.213     1.725
 520   1 H      0.071  0.929  0.000  0.000     2.079     2.254

 Mol. C6AA /au·bohr⁶  :    2590673.505544
 Mol. C8AA /au·bohr⁸  :   58552454.800846
 Mol. α(0) /au        :       2434.928679

 
molecular dipole:
                 x           y           z       tot (Debye)
 q only:       51.583      34.553     159.618
   full:       54.838      38.670     157.105     434.228
molecular quadrupole (traceless):
                xx          xy          yy          xz          yz          zz
 q only:   -10273.076    2041.634  -14580.691   12353.393    7900.384   24853.767
  q+dip:    -9738.311    2811.933  -13700.226   12980.297    8703.335   23438.538
   full:    -9737.088    2809.484  -13699.798   12977.665    8709.407   23436.886
speedup  1.97
cpu  time for grad   50.19 s
wall time for grad   25.46 s

SCC energy    :    -798.4301756
rep           :      10.2290884
ES            :       2.3523860
AES           :      -0.1314212
AXC           :       0.2881940
disp          :      -0.7191788
XB            :       0.0000000
fix           :       0.0000000
Gborn         :       0.0000000
Gsasa         :       0.0000000
Ghb           :       0.0000000
Gshift        :       0.0000000
Gsolv         :      -0.6760082     -424.20
Etot ala COSMO:    -798.4301756
grad norm     :       0.5876986
total E       :    -788.1284726
atomizationE  :     149.8084588    94006.23
(atE without considering molecular charge,
 total energy contains solvation terms)
H-L gap (eV)  :          1.2715

------------------------------------------------------------------------
 * finished run on 2019/05/07 at 20:37:45.706     
------------------------------------------------------------------------
 total:
 * wall-time:     0 d,  0 h,  0 min, 27.771 sec
 *  cpu-time:     0 d,  0 h,  0 min, 53.863 sec
 * ratio c/w:     1.940 speedup
 SCF:
 * wall-time:     0 d,  0 h,  0 min, 26.878 sec
 *  cpu-time:     0 d,  0 h,  0 min, 52.804 sec
 * ratio c/w:     1.965 speedup

