      -----------------------------------------------------------      
     |                   =====================                   |     
     |                           x T B                           |     
     |                   =====================                   |     
     |                         S. Grimme                         |     
     |          Mulliken Center for Theoretical Chemistry        |     
     |                    University of Bonn                     |     
     |                 Version 6.0.1 (SAW181210)                 |     
      -----------------------------------------------------------      

   This program is distributed in the hope that it will be useful,
   but WITHOUT ANY WARRANTY; without even the implied warranty of
   MERCHANTABILITY or FITNESS FOR A PARTICULAR PURPOSE.
   
   FOR NON-COMMERCIAL, ACADEMIA USE ONLY.
   
   Cite this work as:
   S. Grimme, C. Bannwarth, P. Shushkov, J. Comput. Theory Chem., 2017,
   13, 1989-2009.
   C. Bannwarth, S. Ehlert and S. Grimme., ChemRxiv, 2018, preprint.
   http://doi.org/10.26434/chemrxiv.7246238.v1
   
   for sTDA-xTB:
   S. Grimme and C. Bannwarth, J. Chem. Phys., 2016, 145, 054103.
   
   in the mass-spec context:
   V. Asgeirsson, C. Bauer and S. Grimme, Chem. Sci., 2017, 8, 4879.
   
   if GBSA is used:
   P. Shushkov, F. März and S. Grimme, unpublished.
   
   for ANC optimizer:
   S. Grimme, unpublished.
   Rational Function algorithm used in ANCopt:
   F. Eckert, P. Pulay, H.-J. Werner, J. Comput. Chem., 1997, 18, 1473.
   
   with help from (in alphabetical order)
   C. Bannwarth, F. Bohle, G. Brandenburg, E. Caldeweyher, M. Checinski,
   S. Dohm, S. Ehlert, S. Ehrlich, F. März, H. Neugebauer, J. Pisarek,
   P. Pracht, P. Shushkov, and S. Spicher.
   
 * started run on 2019/05/06 at 00:14:18.431     
========================================================================
 # omp threads = 2
========================================================================
number of atoms            : 890
number of electrons        : 2344
charge                     : 4
spin                       : .0
first test random number   : .1136

########################################################################
# WARNING! Please study the warnings concerning your input carefully
#  - Process number higher than OMP_NUM_THREADS, I hope you know what you are doing.
########################################################################

           ------------------------------------------------- 
          |                 G F N 2 - x T B                 |
          | Geometry, Frequencies, Noncovalent interactions |
          |            JCTC 2018 parametrisation            |
           ------------------------------------------------- 
 
      method parameters     
 k(s)        :  1.8500
 k(p)        :  2.2300
 k(d)        :  2.2300
 k(f)        :  2.0000
 kEN (H0ij)  : -2.0000
 D4 a1       :  0.5200
 D4 a2       :  5.0000
 D4 s6       :  1.0000
 D4 s8       :  2.7000
 D4 s9       :  5.0000
 alphaj      :  2.0000

 Solvent             : h2o
 Using internal parameter file: .param_gbsa2_h2o
 Gsolv ref. state (COSMO-RS): gsolv [1 M gas/solution]
 temperature (mdtemp)       :    298.150000000000     
 dielectric constant        :    80.2000000000000     
 rho                        :    1.00000000000000     
 mass                       :    18.0000000000000     
 surface tension            :    15.5689454083859     
 probe radius               :   0.975313790000000     
 vdW radii scaling          :    1.00000000000000     
 Gshift (Eh)                :   1.857443126794793E-003
 c1                         :    1.55243817000000     
 soset                      :   0.130326360000000     
 HB correction              :  T

            Z     q(EN)     CN     RAES       Cart. coordinates
     1  N   5.0   -0.16    3.23    1.96    58.69489    51.71235   149.11827
     2  C   4.0    0.04    4.28    4.16    57.02815    50.89032   147.07359
     3  C   4.0    0.15    3.47    3.10    56.70123    53.19201   145.29536
     4  O   6.0   -0.24    1.26    1.80    57.68577    55.23291   145.85850
     5  C   4.0    0.03    4.17    3.95    54.41655    50.19301   148.09593
     6  O   6.0   -0.27    2.26    1.87    52.93689    49.04973   146.19676
     7  H   1.0    0.10    1.03    1.43    57.83884    53.10697   150.13684
     8  H   1.0    0.06    1.05    1.44    57.82183    49.25382   146.10794
     9  H   1.0    0.05    1.02    1.43    54.63765    48.87209   149.66063
    10  H   1.0    0.05    1.02    1.43    53.47169    51.90321   148.74600
    11  H   1.0    0.12    1.01    1.43    51.27015    48.60753   146.87328
    12  N   5.0   -0.10    3.63    2.19    55.39165    52.88209   143.11084
    13  C   4.0    0.04    4.56    4.62    54.90788    55.00992   141.39307
    14  C   4.0    0.17    3.45    3.09    54.00837    57.44956   142.57037
    15  O   6.0   -0.24    1.23    1.80    55.24047    59.39220   142.29447
    16  C   4.0   -0.04    4.40    4.39    52.67044    54.07829   139.77169
    17  C   4.0   -0.04    4.28    4.16    52.16400    51.39110   140.54648
    18  C   4.0   -0.00    4.40    4.38    54.44300    50.51048   141.99590
    19  H   1.0    0.08    1.05    1.44    56.67666    55.29905   140.37829
    20  H   1.0    0.05    1.05    1.44    51.02260    55.25937   140.13452
    21  H   1.0    0.06    1.02    1.43    53.18067    54.17277   137.77803
    22  H   1.0    0.05    1.03    1.43    50.48214    51.32496   141.73512
    23  H   1.0    0.06    1.03    1.43    51.88621    50.23270   138.86651
    24  H   1.0    0.08    1.17    1.46    53.91388    49.16311   143.46044
    25  H   1.0    0.06    1.02    1.43    55.84140    49.67145   140.73923
    26  N   5.0   -0.14    3.45    2.04    51.86920    57.29460   143.89129
    27  C   4.0    0.04    4.24    4.09    50.53505    59.48101   144.97977
    28  C   4.0    0.10    3.19    3.03    50.04750    61.63341   143.12784
    29  O   6.0   -0.24    1.13    1.80    50.82796    63.80660   143.56059
    30  C   4.0    0.05    4.12    3.84    51.68211    60.42777   147.50634
    31  O   6.0   -0.20    2.03    1.83    54.36364    60.38241   147.53657
    32  H   1.0    0.07    1.06    1.44    50.97536    55.62786   144.25790
    33  H   1.0    0.04    1.07    1.44    48.66800    58.73268   145.42953
    34  H   1.0    0.07    1.02    1.43    51.06228    62.36663   147.81436
    35  H   1.0    0.05    1.01    1.43    50.99425    59.21834   149.02568
    36  H   1.0    0.17    1.02    1.43    55.02882    61.28003   146.05881
    37  N   5.0   -0.18    3.23    1.96    39.24016    74.92385   143.73822
    38  C   4.0    0.04    4.27    4.15    37.21626    75.62305   142.04314
    39  C   4.0    0.10    3.30    3.05    36.19581    78.18552   142.76124
    40  O   6.0   -0.26    1.22    1.80    34.43270    79.16251   141.55559
    41  C   4.0   -0.03    4.41    4.40    35.10733    73.73522   142.32660
    42  C   4.0    0.00    3.64    3.19    32.69982    74.54780   141.10206
    43  C   4.0   -0.02    3.52    3.12    30.88190    76.01612   142.40786
    44  C   4.0   -0.03    3.46    3.10    32.22550    73.84104   138.64919
    45  C   4.0   -0.03    3.35    3.07    28.65391    76.75500   141.22867
    46  C   4.0   -0.02    3.38    3.07    29.98428    74.54402   137.49457
    47  C   4.0   -0.03    3.37    3.07    28.21361    76.01990   138.75880
    48  H   1.0    0.12    1.07    1.44    38.51261    73.97710   145.25190
    49  H   1.0    0.06    1.05    1.44    37.85310    75.62683   140.08538
    50  H   1.0    0.05    1.04    1.43    35.68558    71.95698   141.46299
    51  H   1.0    0.05    1.04    1.43    34.73127    73.45365   144.33160
    52  H   1.0    0.06    1.03    1.43    31.23150    76.56792   144.34105
    53  H   1.0    0.06    1.03    1.43    33.60122    72.73744   137.62118
    54  H   1.0    0.05    1.04    1.43    27.28386    77.88883   142.22833
    55  H   1.0    0.07    1.03    1.43    29.60445    73.93742   135.58406
    56  H   1.0    0.06    1.03    1.43    26.49774    76.59059   137.81393
    57  N   5.0   -0.18    3.17    1.95    17.17194    84.32524   131.67043
    58  C   4.0    0.04    4.23    4.07    16.35936    81.74954   132.37341
    59  C   4.0    0.09    3.22    3.04    14.73041    81.67018   134.72423
    60  O   6.0   -0.26    1.11    1.80    12.81045    80.34926   134.80738
    61  C   4.0   -0.04    4.31    4.22    18.67427    80.09981   132.80049
    62  C   4.0   -0.03    4.21    4.02    18.16405    77.32948   132.39987
    63  C   4.0    0.25    3.13    3.03    20.35424    76.01990   131.08462
    64  O   6.0   -0.25    1.17    1.80    20.15771    75.60227   128.76026
    65  O   6.0   -0.28    1.17    1.80    22.27420    75.41518   132.34129
    66  H   1.0    0.10    1.03    1.43    19.08056    84.44051   131.42288
    67  H   1.0    0.07    1.06    1.44    15.23119    81.02956   130.80872
    68  H   1.0    0.07    1.04    1.43    20.15204    80.67051   131.48335
    69  H   1.0    0.05    1.04    1.43    19.32434    80.35115   134.73935
    70  H   1.0    0.05    1.03    1.43    17.87303    76.42241   134.22534
    71  H   1.0    0.07    1.04    1.43    16.48408    77.11027   131.22824
    72  N   5.0   -0.14    3.50    2.07    10.28389    72.99066   149.08615
    73  C   4.0    0.03    4.52    4.56    12.41928    71.99856   147.69342
    74  C   4.0    0.15    3.48    3.10    14.57168    71.78880   149.57370
    75  O   6.0   -0.30    1.29    1.80    15.16316    73.62561   150.87572
    76  C   4.0   -0.04    4.39    4.37    12.84258    74.03946   145.71488
    77  C   4.0   -0.03    4.33    4.26    12.27566    76.42241   147.13406
    78  C   4.0    0.01    4.25    4.11    10.12515    75.75911   148.90285
    79  H   1.0    0.05    1.05    1.44    12.09614    70.22789   146.69187
    80  H   1.0    0.04    1.03    1.43    14.79277    74.00356   145.05158
    81  H   1.0    0.04    1.03    1.43    11.55378    73.78246   144.12940
    82  H   1.0    0.06    1.03    1.43    13.93862    77.01767   148.19231
    83  H   1.0    0.05    1.03    1.43    11.71252    77.90206   145.81692
    84  H   1.0    0.06    1.02    1.43    10.39727    76.63406   150.74722
    85  H   1.0    0.05    1.02    1.43     8.31479    76.33926   148.10727
    86  N   5.0   -0.14    3.54    2.10    15.76220    69.60806   149.72866
    87  C   4.0    0.04    4.64    4.71    18.02610    69.42475   151.21965
    88  C   4.0    0.14    3.53    3.13    20.28243    68.92020   149.59071
    89  O   6.0   -0.30    1.29    1.80    20.10101    67.52936   147.71799
    90  C   4.0   -0.02    4.36    4.31    17.80689    67.28936   153.08670
    91  C   4.0   -0.07    4.19    3.98    20.35046    66.78292   154.32258
    92  C   4.0   -0.07    4.16    3.91    15.83779    67.98667   155.01989
    93  H   1.0    0.12    1.15    1.45    15.20851    67.97911   148.85938
    94  H   1.0    0.06    1.09    1.44    18.29066    71.24078   152.15506
    95  H   1.0    0.04    1.06    1.44    17.23619    65.55081   152.13995
    96  H   1.0    0.04    1.00    1.43    20.14826    65.23334   155.66429
    97  H   1.0    0.05    1.02    1.43    21.71484    66.27647   152.86560
    98  H   1.0    0.05    1.00    1.43    20.97029    68.48556   155.30335
    99  H   1.0    0.04    1.00    1.43    15.66394    66.45221   156.38238
   100  H   1.0    0.05    1.00    1.43    16.41983    69.71388   155.97798
   101  H   1.0    0.05    1.01    1.43    14.03688    68.28525   154.06558
   102  N   5.0   -0.14    3.53    2.10    22.38002    70.08427   150.33337
   103  C   4.0    0.03    4.55    4.60    24.82911    69.49845   149.29024
   104  C   4.0    0.14    3.58    3.15    26.20483    67.96399   151.24233
   105  O   6.0   -0.32    1.33    1.80    26.46750    68.79547   153.40795
   106  C   4.0   -0.02    4.34    4.27    26.40703    71.88140   148.91040
   107  C   4.0   -0.07    4.16    3.93    29.19816    71.20676   148.66285
   108  C   4.0   -0.07    4.10    3.81    25.47917    73.37239   146.63329
   109  H   1.0    0.08    1.06    1.44    22.42349    71.46377   151.67885
   110  H   1.0    0.07    1.07    1.44    24.56644    68.49312   147.51201
   111  H   1.0    0.05    1.06    1.44    26.19727    73.09460   150.56203
   112  H   1.0    0.05    1.00    1.43    30.28475    72.93586   148.39451
   113  H   1.0    0.06    1.02    1.43    29.81232    70.25056   150.38061
   114  H   1.0    0.04    1.00    1.43    29.44571    69.96143   147.03958
   115  H   1.0    0.04    1.00    1.43    26.64325    75.05802   146.41597
   116  H   1.0    0.04    1.00    1.43    25.63035    72.19131   144.95143
   117  H   1.0    0.05    1.00    1.43    23.51386    73.91096   146.93942
   118  N   5.0   -0.15    3.46    2.06    27.13835    65.75868   150.51100
   119  C   4.0    0.04    4.56    4.62    28.46872    64.20533   152.35160
   120  C   4.0    0.14    3.52    3.12    31.16347    63.76691   151.50122
   121  O   6.0   -0.31    1.32    1.80    31.60189    62.07183   149.97810
   122  C   4.0   -0.01    4.35    4.29    27.21772    61.62207   152.61238
   123  C   4.0   -0.07    4.20    4.00    28.98840    59.88731   154.01833
   124  C   4.0   -0.08    4.11    3.82    24.64959    61.82805   153.88227
   125  H   1.0    0.10    1.07    1.44    27.00796    65.02925   148.73088
   126  H   1.0    0.06    1.08    1.44    28.50085    65.26547   154.11660
   127  H   1.0    0.05    1.06    1.44    26.85490    60.81705   150.75100
   128  H   1.0    0.03    1.00    1.43    28.10400    58.03726   154.20920
   129  H   1.0    0.06    1.04    1.43    30.74584    59.71912   152.95631
   130  H   1.0    0.04    1.00    1.43    29.36634    60.68099   155.88160
   131  H   1.0    0.03    1.00    1.43    23.82189    59.94778   154.03156
   132  H   1.0    0.04    1.00    1.43    24.89336    62.63875   155.76066
   133  H   1.0    0.04    1.00    1.43    23.43449    63.04126   152.74466
   134  N   5.0   -0.13    3.44    2.04    32.97761    65.24846   152.42530
   135  C   4.0    0.04    4.38    4.35    35.62889    64.76469   151.69586
   136  C   4.0    0.16    3.43    3.09    36.94792    63.15464   153.70275
   137  O   6.0   -0.31    1.31    1.80    36.55108    63.57038   155.97042
   138  C   4.0   -0.03    4.25    4.10    37.18036    67.18921   151.25366
   139  C   4.0   -0.03    4.17    3.94    35.78952    69.71010   150.97210
   140  C   4.0    0.24    3.11    3.03    37.32587    71.61305   149.41496
   141  O   6.0   -0.30    1.22    1.80    38.14034    70.85905   147.32304
   142  O   6.0   -0.26    1.15    1.80    37.74161    73.81836   150.24833
   143  H   1.0    0.11    1.09    1.44    32.69982    66.73000   153.62527
   144  H   1.0    0.06    1.07    1.44    35.58354    63.74424   149.90629
   145  H   1.0    0.07    1.04    1.43    38.45781    67.40652   152.85426
   146  H   1.0    0.07    1.04    1.43    38.26128    66.92464   149.52079
   147  H   1.0    0.05    1.03    1.43    33.99239    69.39263   150.01589
   148  H   1.0    0.06    1.03    1.43    35.46071    70.51701   152.83915
   149  N   5.0   -0.14    3.47    2.06    38.51639    61.34995   152.88828
   150  C   4.0    0.03    4.49    4.52    40.25305    60.06305   154.62872
   151  C   4.0    0.17    3.61    3.17    41.82152    62.03970   155.87404
   152  O   6.0   -0.28    1.31    1.80    42.23726    64.05982   154.81769
   153  C   4.0   -0.04    4.32    4.24    42.04829    58.32261   153.24166
   154  C   4.0   -0.04    4.26    4.11    43.58842    56.68233   155.00666
   155  C   4.0   -0.00    4.19    3.98    43.90211    53.95168   154.08258
   156  N   5.0   -0.13    3.37    2.01    45.59342    53.61341   151.91507
   157  C   4.0    0.10    3.34    3.06    47.88566    54.63765   151.66374
   158  N   5.0   -0.17    3.29    1.98    48.83997    56.15321   153.44575
   159  N   5.0   -0.18    3.23    1.96    49.22169    54.17466   149.57937
   160  H   1.0    0.07    1.05    1.44    38.63167    60.74146   151.06280
   161  H   1.0    0.05    1.09    1.44    39.17024    58.93866   155.97231
   162  H   1.0    0.04    1.04    1.43    40.95981    57.08295   152.00767
   163  H   1.0    0.06    1.04    1.43    43.35409    59.45834   152.12483
   164  H   1.0    0.06    1.09    1.44    45.46870    57.49869   155.20130
   165  H   1.0    0.05    1.04    1.43    42.65489    56.61997   156.84158
   166  H   1.0    0.05    1.03    1.43    44.65989    52.82540   155.63216
   167  H   1.0    0.05    1.03    1.43    42.05018    53.23547   153.53078
   168  H   1.0    0.08    1.06    1.44    44.96414    52.49848   150.47321
   169  H   1.0    0.09    1.08    1.44    47.81385    56.54438   155.02934
   170  H   1.0    0.10    1.02    1.43    50.59552    56.91855   153.22087
   171  H   1.0    0.08    1.03    1.43    48.49037    53.04839   148.19609
   172  H   1.0    0.09    1.02    1.43    50.97536    54.94756   149.36772
   173  N   5.0   -0.14    3.57    2.13    42.71726    61.50113   158.13227
   174  C   4.0    0.04    4.42    4.41    44.55785    63.18488   159.22831
   175  C   4.0    0.10    3.35    3.06    46.77639    63.08094   157.47086
   176  O   6.0   -0.29    1.16    1.80    47.46236    61.02492   156.55624
   177  C   4.0   -0.04    4.38    4.34    45.28917    62.27025   161.80967
   178  C   4.0   -0.02    3.55    3.14    47.19024    63.83116   163.25909
   179  C   4.0   -0.04    3.46    3.10    46.91245    66.42765   163.56712
   180  C   4.0   -0.03    3.49    3.11    49.18957    62.63119   164.47608
   181  C   4.0   -0.02    3.42    3.08    48.65477    67.77880   164.96930
   182  C   4.0   -0.03    3.47    3.10    50.91489    63.94455   165.88770
   183  C   4.0    0.08    3.48    3.10    50.64843    66.49757   166.12959
   184  O   6.0   -0.20    2.12    1.84    52.41344    67.69754   167.56956
   185  H   1.0    0.10    1.09    1.44    42.22593    59.97612   159.20563
   186  H   1.0    0.04    1.07    1.44    43.86054    65.11051   159.45130
   187  H   1.0    0.04    1.04    1.43    43.58275    62.18899   162.96052
   188  H   1.0    0.05    1.04    1.44    46.09420    60.38430   161.60936
   189  H   1.0    0.05    1.03    1.43    45.33075    67.39141   162.70918
   190  H   1.0    0.06    1.03    1.43    49.38610    60.60729   164.30222
   191  H   1.0    0.08    1.03    1.43    48.47525    69.80270   165.16394
   192  H   1.0    0.07    1.03    1.43    52.46446    62.97323   166.79666
   193  H   1.0    0.13    1.03    1.43    53.64554    66.47300   168.21207
   194  N   5.0   -0.20    3.19    1.95    52.74981    46.87465   161.38638
   195  C   4.0    0.03    4.26    4.12    51.70290    44.28762   161.33913
   196  C   4.0    0.15    3.41    3.08    49.23303    44.18179   159.82924
   197  O   6.0   -0.29    1.27    1.80    48.39777    42.17679   159.04312
   198  C   4.0   -0.03    4.24    4.08    51.43267    43.14622   164.04333
   199  C   4.0    0.00    3.49    3.11    50.29128    40.47793   164.13782
   200  C   4.0   -0.02    3.42    3.09    51.67645    38.33876   163.38760
   201  C   4.0   -0.03    3.44    3.09    47.83841    40.10376   165.04677
   202  C   4.0   -0.02    3.35    3.06    50.60875    35.92180   163.48775
   203  C   4.0   -0.03    3.35    3.06    46.77828    37.69625   165.17339
   204  C   4.0   -0.02    3.35    3.06    48.15967    35.60622   164.38915
   205  H   1.0    0.09    1.02    1.43    52.41155    47.87432   162.99831
   206  H   1.0    0.06    1.06    1.44    53.04461    43.02339   160.41884
   207  H   1.0    0.05    1.03    1.43    53.30350    43.04796   164.90127
   208  H   1.0    0.05    1.03    1.43    50.21191    44.38021   165.15260
   209  H   1.0    0.07    1.03    1.43    53.59263    38.56364   162.72430
   210  H   1.0    0.05    1.03    1.43    46.74426    41.71192   165.66283
   211  H   1.0    0.07    1.03    1.43    51.68400    34.30231   162.86603
   212  H   1.0    0.06    1.03    1.43    44.87910    37.45437   165.88203
   213  H   1.0    0.06    1.03    1.43    47.33386    33.74106   164.47986
   214  N   5.0   -0.13    3.48    2.07    48.05951    46.32663   159.35492
   215  C   4.0    0.04    4.51    4.55    45.61420    46.20758   158.15494
   216  C   4.0    0.14    3.46    3.10    45.73326    46.67623   155.31658
   217  O   6.0   -0.29    1.20    1.80    47.12221    48.35809   154.41518
   218  C   4.0   -0.05    4.38    4.34    43.78684    48.05006   159.43429
   219  C   4.0   -0.03    4.19    3.97    42.29585    47.26583   161.78511
   220  C   4.0   -0.08    4.11    3.82    41.89711    49.44657   163.61625
   221  C   4.0   -0.08    4.15    3.90    39.76739    46.30962   160.88560
   222  H   1.0    0.09    1.06    1.44    48.72280    48.09164   159.75932
   223  H   1.0    0.05    1.13    1.45    44.85831    44.30274   158.36281
   224  H   1.0    0.04    1.04    1.44    44.88666    49.70168   159.98798
   225  H   1.0    0.04    1.05    1.44    42.38088    48.57918   158.02455
   226  H   1.0    0.04    1.06    1.44    43.34086    45.82396   162.82068
   227  H   1.0    0.04    1.00    1.43    40.82942    48.77005   165.24142
   228  H   1.0    0.04    1.00    1.43    43.73204    50.15333   164.22663
   229  H   1.0    0.04    1.00    1.43    40.85021    50.94134   162.66005
   230  H   1.0    0.04    1.00    1.43    38.65056    45.73326   162.51643
   231  H   1.0    0.04    1.00    1.43    38.80174    47.81952   159.87082
   232  H   1.0    0.04    1.00    1.43    40.06597    44.70147   159.63460
   233  N   5.0   -0.09    3.63    2.19    44.25360    45.18902   153.89550
   234  C   4.0    0.03    4.52    4.57    43.52417    45.48381   151.18563
   235  C   4.0    0.15    3.63    3.19    41.60988    47.45669   150.45998
   236  O   6.0   -0.30    1.33    1.80    39.69936    47.63999   151.69586
   237  C   4.0   -0.03    4.52    4.56    41.74972    43.25016   150.70942
   238  C   4.0   -0.04    4.31    4.22    41.25461    42.11254   153.26811
   239  C   4.0   -0.01    4.44    4.44    43.46559    42.74182   154.92540
   240  H   1.0    0.05    1.04    1.44    45.36854    45.68412   150.29179
   241  H   1.0    0.06    1.08    1.44    39.99983    43.92101   149.85338
   242  H   1.0    0.05    1.02    1.43    42.66434    41.88767   149.46598
   243  H   1.0    0.05    1.03    1.43    39.52551    42.91568   154.04668
   244  H   1.0    0.04    1.03    1.43    41.05997    40.07164   153.07914
   245  H   1.0    0.04    1.05    1.44    42.89678    42.91001   156.89828
   246  H   1.0    0.06    1.02    1.43    44.96036    41.33776   154.74021
   247  N   5.0   -0.09    3.69    2.26    42.06341    48.91934   148.45687
   248  C   4.0    0.03    4.58    4.64    40.41368    51.12276   148.03546
   249  C   4.0    0.15    3.51    3.12    38.38600    50.53505   146.06637
   250  O   6.0   -0.27    1.26    1.80    38.66001    48.69257   144.65852
   251  C   4.0   -0.04    4.41    4.40    42.04640    52.90099   146.40085
   252  C   4.0   -0.04    4.29    4.18    44.29329    51.31740   145.59205
   253  C   4.0   -0.00    4.34    4.28    43.80007    48.59808   146.33093
   254  H   1.0    0.06    1.06    1.44    39.80330    51.80495   149.88172
   255  H   1.0    0.06    1.05    1.44    40.96737    53.53783   144.76624
   256  H   1.0    0.04    1.02    1.43    42.65111    54.52048   147.51957
   257  H   1.0    0.05    1.03    1.43    44.52005    51.46669   143.55114
   258  H   1.0    0.03    1.04    1.43    45.98270    52.01471   146.54258
   259  H   1.0    0.07    1.02    1.43    42.91568    47.55306   144.79269
   260  H   1.0    0.04    1.02    1.43    45.53484    47.65511   146.91674
   261  N   5.0   -0.13    3.47    2.06    36.38100    52.03927   145.95865
   262  C   4.0    0.04    4.45    4.46    33.91113    51.29283   145.03836
   263  C   4.0    0.16    3.43    3.09    33.80153    51.48558   142.20755
   264  O   6.0   -0.26    1.23    1.80    35.03741    53.07673   141.02269
   265  C   4.0   -0.04    4.45    4.46    31.87590    52.67233   146.46321
   266  C   4.0   -0.02    4.22    4.04    31.28252    51.82951   149.10883
   267  C   4.0   -0.07    4.14    3.88    31.05009    54.21246   150.68864
   268  C   4.0   -0.08    4.13    3.86    28.85612    50.29695   149.04269
   269  H   1.0    0.08    1.06    1.44    36.41502    53.88176   146.52557
   270  H   1.0    0.06    1.08    1.44    33.50862    49.30673   145.40496
   271  H   1.0    0.05    1.06    1.44    32.43337    54.65087   146.58604
   272  H   1.0    0.05    1.05    1.44    30.12979    52.49659   145.38418
   273  H   1.0    0.05    1.06    1.44    32.72816    50.62387   149.94408
   274  H   1.0    0.04    1.00    1.43    30.61734    53.68900   152.63316
   275  H   1.0    0.04    1.00    1.43    32.83399    55.24047   150.61872
   276  H   1.0    0.04    1.00    1.43    29.53642    55.38031   149.92141
   277  H   1.0    0.04    1.00    1.43    28.40447    49.67523   150.95320
   278  H   1.0    0.04    1.00    1.43    27.33678    51.47802   148.31136
   279  H   1.0    0.05    1.00    1.43    29.12824    48.66422   147.81814
   280  N   5.0   -0.14    3.53    2.10    32.12534    49.94735   141.14552
   281  C   4.0    0.04    4.41    4.41    31.38457    50.15522   138.51502
   282  C   4.0    0.15    3.45    3.10    30.26585    52.76493   137.98968
   283  O   6.0   -0.28    1.24    1.80    30.84789    53.90632   136.04704
   284  C   4.0   -0.03    4.30    4.20    29.47217    48.09730   137.83472
   285  C   4.0    0.25    3.19    3.03    29.94082    45.64822   139.24446
   286  O   6.0   -0.28    1.21    1.80    29.03375    45.40445   141.41008
   287  O   6.0   -0.24    1.17    1.80    31.21638    43.96825   138.18810
   288  H   1.0    0.10    1.11    1.45    31.23339    48.51493   142.07716
   289  H   1.0    0.08    1.06    1.44    33.04753    49.88310   137.33016
   290  H   1.0    0.04    1.04    1.43    27.57866    48.75493   138.31093
   291  H   1.0    0.06    1.03    1.43    29.59500    47.70613   135.81649
   292  N   5.0   -0.14    3.47    2.06    28.67470    53.73247   139.69043
   293  C   4.0    0.04    4.43    4.43    27.64291    56.24391   139.25579
   294  C   4.0    0.15    3.50    3.12    26.97017    57.84640   141.54614
   295  O   6.0   -0.31    1.30    1.80    26.39191    56.86752   143.53602
   296  C   4.0   -0.04    4.40    4.39    24.90092    56.09463   138.28448
   297  C   4.0   -0.05    4.25    4.11    24.16582    53.80428   136.69900
   298  C   4.0   -0.04    4.18    3.95    24.73273    54.09341   133.87763
   299  C   4.0   -0.03    4.13    3.86    23.83511    51.77660   132.43388
   300  N   5.0   -0.11    4.06    3.04    24.22440    49.46925   134.02503
   301  H   1.0    0.08    1.05    1.44    28.09834    52.85752   141.30804
   302  H   1.0    0.07    1.08    1.44    29.16036    57.04705   138.11818
   303  H   1.0    0.05    1.07    1.44    23.65181    56.10785   139.92098
   304  H   1.0    0.04    1.04    1.43    24.55321    57.75758   137.12040
   305  H   1.0    0.04    1.05    1.44    25.21083    52.16400   137.38119
   306  H   1.0    0.04    1.03    1.43    22.14192    53.48302   136.89931
   307  H   1.0    0.04    1.03    1.43    23.75197    55.74692   133.14064
   308  H   1.0    0.06    1.03    1.43    26.76419    54.29561   133.59796
   309  H   1.0    0.05    1.02    1.43    21.83011    51.95613   132.00114
   310  H   1.0    0.06    1.02    1.43    24.91604    51.57629   130.69345
   311  H   1.0    0.07    1.01    1.43    24.04676    47.85353   132.92143
   312  H   1.0    0.06    1.02    1.43    26.01964    49.49948   134.82628
   313  H   1.0    0.05    1.02    1.43    22.88458    49.41066   135.46311
   314  N   5.0   -0.14    3.52    2.09    26.94938    60.32950   141.17576
   315  C   4.0    0.04    4.47    4.50    27.46906    62.36285   142.93698
   316  C   4.0    0.13    3.48    3.11    25.15603    63.92754   143.50201
   317  O   6.0   -0.32    1.30    1.80    24.84990    64.90642   145.59394
   318  C   4.0    0.05    4.26    4.12    29.49295    64.09950   141.82393
   319  O   6.0   -0.23    2.11    1.84    31.58866    62.56316   141.09261
   320  C   4.0   -0.07    4.09    3.78    30.36034    66.06104   143.75712
   321  H   1.0    0.07    1.08    1.44    26.52419    61.07783   139.45233
   322  H   1.0    0.06    1.06    1.44    28.18337    61.58995   144.70765
   323  H   1.0    0.04    1.04    1.43    28.74273    65.12752   140.20444
   324  H   1.0    0.12    1.01    1.43    32.92470    63.61951   140.36506
   325  H   1.0    0.04    1.00    1.43    31.80031    67.27802   142.92753
   326  H   1.0    0.05    1.00    1.43    28.76352    67.22133   144.34861
   327  H   1.0    0.06    1.00    1.43    31.15024    65.11996   145.41063
   328  N   5.0   -0.14    3.57    2.13    23.53654    64.18832   141.62929
   329  C   4.0    0.04    4.46    4.48    21.35579    65.77758   141.95054
   330  C   4.0    0.15    3.43    3.09    19.08434    64.05415   142.27369
   331  O   6.0   -0.32    1.30    1.80    18.11491    62.99401   140.45010
   332  C   4.0   -0.04    4.26    4.12    21.10824    67.63518   139.72445
   333  C   4.0   -0.05    4.26    4.12    22.20239    66.55237   137.29993
   334  C   4.0   -0.05    4.18    3.96    21.80744    68.20399   134.99446
   335  C   4.0   -0.04    4.14    3.89    21.74130    66.61284   132.57561
   336  N   5.0   -0.11    4.00    2.86    20.49597    68.02069   130.47613
   337  H   1.0    0.07    1.08    1.44    23.69149    63.33605   139.90775
   338  H   1.0    0.07    1.08    1.44    21.51642    66.90953   143.66453
   339  H   1.0    0.05    1.05    1.44    19.11647    68.04903   139.40508
   340  H   1.0    0.04    1.03    1.43    22.12491    69.36995   140.17420
   341  H   1.0    0.04    1.04    1.43    24.23196    66.30103   137.54559
   342  H   1.0    0.05    1.04    1.43    21.30666    64.73445   136.92576
   343  H   1.0    0.04    1.07    1.44    20.01409    69.20365   135.16643
   344  H   1.0    0.05    1.03    1.43    23.35512    69.55325   134.84328
   345  H   1.0    0.05    1.02    1.43    23.66693    66.15553   132.00303
   346  H   1.0    0.03    1.06    1.44    20.67927    64.88185   132.92143
   347  H   1.0    0.07    1.01    1.43    20.46573    66.91520   128.85096
   348  H   1.0    0.06    1.02    1.43    18.64971    68.47422   130.97313
   349  H   1.0    0.08    1.01    1.43    21.48051    69.67986   130.10196
   350  N   5.0   -0.13    3.64    2.20    18.26987    63.71211   144.61506
   351  C   4.0    0.04    4.53    4.58    15.94551    62.30049   145.10639
   352  C   4.0    0.15    3.48    3.11    13.81579    64.10328   145.52780
   353  O   6.0   -0.32    1.38    1.80    14.18617    66.14986   146.56903
   354  C   4.0   -0.03    4.44    4.45    16.21574    60.73201   147.45532
   355  C   4.0   -0.02    3.65    3.20    18.55522    59.27692   147.46854
   356  C   4.0   -0.03    3.61    3.17    20.85880    60.52414   147.22855
   357  C   4.0   -0.05    3.48    3.10    18.49286    56.69178   147.58760
   358  C   4.0   -0.02    3.38    3.07    23.11135    59.20889   147.14162
   359  C   4.0   -0.05    3.38    3.07    20.73407    55.34629   147.52335
   360  C   4.0   -0.03    3.41    3.08    23.05466    56.59918   147.30603
   361  H   1.0    0.10    1.13    1.45    19.15804    64.37540   146.19109
   362  H   1.0    0.06    1.08    1.44    15.53544    61.07972   143.49823
   363  H   1.0    0.05    1.04    1.43    16.22141    61.97356   149.09938
   364  H   1.0    0.05    1.04    1.44    14.63782    59.41298   147.57248
   365  H   1.0    0.07    1.09    1.44    20.88525    62.56127   147.10761
   366  H   1.0    0.05    1.03    1.43    16.70896    55.71101   147.73122
   367  H   1.0    0.07    1.03    1.43    24.88580    60.19911   146.94887
   368  H   1.0    0.05    1.03    1.43    20.69250    53.30917   147.64240
   369  H   1.0    0.06    1.03    1.43    24.79509    55.53338   147.26634
   370  N   5.0   -0.13    3.57    2.13    11.57646    63.34361   144.71710
   371  C   4.0    0.03    4.51    4.55     9.29178    64.64941   145.46543
   372  C   4.0    0.14    3.50    3.11     8.45274    63.35495   147.83137
   373  O   6.0   -0.32    1.35    1.80     9.15761    61.20444   148.23388
   374  C   4.0   -0.05    4.40    4.38     7.28111    64.34517   143.46044
   375  C   4.0   -0.02    4.24    4.07     7.78756    66.16497   141.28725
   376  C   4.0   -0.07    4.08    3.77     6.62916    65.30704   138.76825
   377  C   4.0   -0.07    4.11    3.81     6.99010    68.81815   142.07338
   378  H   1.0    0.11    1.11    1.45    11.28922    61.83939   143.54736
   379  H   1.0    0.04    1.07    1.44     9.57902    66.67142   145.73944
   380  H   1.0    0.05    1.03    1.43     7.31135    62.41765   142.73478
   381  H   1.0    0.05    1.03    1.43     5.43107    64.76658   144.26357
   382  H   1.0    0.04    1.12    1.45     9.80957    66.19521   140.89041
   383  H   1.0    0.05    1.00    1.43     7.07135    66.70166   137.31694
   384  H   1.0    0.05    1.00    1.43     7.42662    63.47967   138.25235
   385  H   1.0    0.05    1.00    1.43     4.58825    65.14641   138.98934
   386  H   1.0    0.05    1.00    1.43     7.35292    70.11639   140.51624
   387  H   1.0    0.05    1.00    1.43     4.98132    68.80870   142.52502
   388  H   1.0    0.04    1.00    1.43     8.08047    69.38318   143.72689
   389  N   5.0   -0.14    3.50    2.08     7.02033    64.64563   149.43575
   390  C   4.0    0.04    4.39    4.35     6.10759    63.52503   151.79980
   391  C   4.0    0.07    3.19    3.03     3.41096    64.49446   152.13995
   392  O   6.0   -0.26    1.15    1.80     2.74388    66.51268   151.09304
   393  C   4.0   -0.02    4.24    4.08     8.11826    63.46456   153.93330
   394  C   4.0   -0.08    4.15    3.89     8.84770    60.77170   154.57391
   395  C   4.0   -0.07    4.15    3.90    10.45396    64.99712   153.26433
   396  H   1.0    0.09    1.07    1.44     6.45530    66.46733   149.16174
   397  H   1.0    0.04    1.11    1.45     5.78256    61.49168   151.83570
   398  H   1.0    0.04    1.06    1.44     7.27167    64.33194   155.59814
   399  H   1.0    0.04    1.00    1.43    10.25932    60.79815   156.07436
   400  H   1.0    0.03    1.00    1.43     7.17151    59.75502   155.20508
   401  H   1.0    0.04    1.03    1.43     9.62437    59.87030   152.89395
   402  H   1.0    0.04    1.00    1.43    11.79567    64.88941   154.82336
   403  H   1.0    0.06    1.01    1.43    11.29867    64.22045   151.55413
   404  H   1.0    0.05    1.00    1.43     9.90216    66.95677   152.94686
   405  N   5.0   -0.18    3.24    1.96     1.65540    62.07561   165.12425
   406  C   4.0    0.04    4.26    4.11     3.03490    59.72857   165.09402
   407  C   4.0    0.09    3.23    3.04     4.98699    59.82872   167.21996
   408  O   6.0   -0.27    1.13    1.80     6.50255    61.58617   167.32578
   409  C   4.0   -0.04    4.39    4.36     4.30669    59.41109   162.51076
   410  C   4.0   -0.02    4.20    4.00     4.65062    56.67288   161.69818
   411  C   4.0   -0.06    4.13    3.87     2.06169    55.40488   161.70385
   412  C   4.0   -0.08    4.10    3.79     5.96020    56.52359   159.14516
   413  H   1.0    0.11    1.04    1.43     2.66829    63.52881   165.88392
   414  H   1.0    0.05    1.07    1.44     1.79902    58.11852   165.43984
   415  H   1.0    0.04    1.04    1.43     3.14828    60.34651   161.08780
   416  H   1.0    0.05    1.04    1.43     6.17184    60.28226   162.58446
   417  H   1.0    0.05    1.06    1.44     5.87327    55.65243   163.00398
   418  H   1.0    0.05    1.00    1.43     2.27523    53.43956   161.12559
   419  H   1.0    0.06    1.01    1.43     1.27557    55.49558   163.60491
   420  H   1.0    0.05    1.00    1.43     0.82770    56.39509   160.38482
   421  H   1.0    0.05    1.00    1.43     6.17751    54.54505   158.61793
   422  H   1.0    0.04    1.00    1.43     4.81124    57.50247   157.74298
   423  H   1.0    0.04    1.00    1.43     7.80835    57.42121   159.28689
   424  N   5.0   -0.20    3.23    1.96    11.02088    50.68056   168.87536
   425  C   4.0    0.03    4.30    4.20    10.23287    49.49003   166.50753
   426  C   4.0    0.14    3.47    3.10    12.03377    50.39899   164.45907
   427  O   6.0   -0.32    1.35    1.80    13.30367    48.83241   163.23831
   428  C   4.0   -0.04    4.28    4.15     7.51166    50.19490   165.80455
   429  C   4.0   -0.03    4.20    4.00     5.48587    49.34641   167.68672
   430  C   4.0    0.16    3.20    3.04     3.11049    50.99425   167.62625
   431  O   6.0   -0.30    1.22    1.80     3.27112    53.28838   167.36169
   432  N   5.0   -0.17    3.17    1.95     0.90140    49.82829   167.87758
   433  H   1.0    0.09    1.03    1.43     9.64327    51.68023   169.77865
   434  H   1.0    0.05    1.05    1.44    10.26688    47.43968   166.70973
   435  H   1.0    0.06    1.04    1.43     7.39072    52.24525   165.65527
   436  H   1.0    0.05    1.03    1.43     7.06569    49.32941   163.99042
   437  H   1.0    0.05    1.03    1.43     4.92652    47.41511   167.24075
   438  H   1.0    0.05    1.03    1.43     6.26633    49.43145   169.59157
   439  H   1.0    0.10    1.02    1.43     0.84093    47.91400   168.09868
   440  H   1.0    0.11    1.02    1.43    -0.73510    50.84686   167.84924
   441  N   5.0   -0.15    3.48    2.07    12.24542    52.90477   164.17372
   442  C   4.0    0.03    4.53    4.58    13.86681    53.87987   162.21030
   443  C   4.0    0.16    3.62    3.18    16.40471    52.64588   162.27833
   444  O   6.0   -0.31    1.30    1.80    17.32501    51.69156   160.32435
   445  C   4.0   -0.04    4.40    4.38    14.34680    56.66721   162.36147
   446  C   4.0   -0.01    3.56    3.14    15.64504    57.66688   160.03144
   447  C   4.0   -0.04    3.48    3.11    14.89671    56.89776   157.61826
   448  C   4.0   -0.04    3.46    3.10    17.60847    59.36574   160.21097
   449  C   4.0   -0.05    3.37    3.07    16.08913    57.83128   155.46397
   450  C   4.0   -0.05    3.38    3.07    18.78388    60.35218   158.03778
   451  C   4.0   -0.05    3.37    3.07    18.05633    59.55471   155.66618
   452  H   1.0    0.08    1.05    1.44    11.34402    54.23325   165.24142
   453  H   1.0    0.04    1.07    1.44    12.83691    53.49625   160.46797
   454  H   1.0    0.04    1.03    1.43    12.54967    57.65176   162.56745
   455  H   1.0    0.04    1.04    1.43    15.55244    57.05650   163.98475
   456  H   1.0    0.04    1.03    1.43    13.36981    55.55794   157.41984
   457  H   1.0    0.05    1.03    1.43    18.25853    59.95156   162.05345
   458  H   1.0    0.04    1.03    1.43    15.47686    57.20767   153.61960
   459  H   1.0    0.04    1.03    1.43    20.26542    61.74302   158.22864
   460  H   1.0    0.04    1.03    1.43    18.99930    60.25769   153.99755
   461  N   5.0   -0.14    3.51    2.08    17.55555    52.70824   164.51198
   462  C   4.0    0.03    4.40    4.38    19.95362    51.42511   164.85402
   463  C   4.0    0.16    3.53    3.13    19.74197    48.77572   163.70885
   464  O   6.0   -0.32    1.38    1.80    21.23863    48.11620   162.03644
   465  C   4.0   -0.05    4.31    4.22    20.78699    51.32307   167.61680
   466  C   4.0   -0.03    4.15    3.90    23.61213    50.97914   168.27632
   467  C   4.0   -0.07    4.08    3.77    23.98629    50.95646   171.15248
   468  C   4.0   -0.07    4.08    3.76    24.92926    48.66044   167.13114
   469  H   1.0    0.08    1.06    1.44    16.88659    53.61153   166.07857
   470  H   1.0    0.04    1.06    1.44    21.43516    52.50037   163.91105
   471  H   1.0    0.04    1.04    1.43    20.20495    53.09374   168.49363
   472  H   1.0    0.05    1.04    1.43    19.79677    49.74326   168.49363
   473  H   1.0    0.04    1.06    1.44    24.53998    52.59863   167.40704
   474  H   1.0    0.06    1.00    1.43    25.98940    50.71269   171.56633
   475  H   1.0    0.05    1.00    1.43    23.32111    52.74414   171.92916
   476  H   1.0    0.05    1.00    1.43    22.90726    49.39744   171.95750
   477  H   1.0    0.05    1.00    1.43    26.89836    48.63966   167.73774
   478  H   1.0    0.05    1.00    1.43    23.97495    46.95591   167.78499
   479  H   1.0    0.05    1.00    1.43    24.82911    48.77761   165.07701
   480  N   5.0   -0.13    3.48    2.06    17.87303    47.28472   164.48931
   481  C   4.0    0.05    4.43    4.42    17.72185    44.72036   163.48019
   482  C   4.0    0.18    3.51    3.12    17.80122    44.68824   160.58324
   483  O   6.0   -0.31    1.38    1.80    19.44717    43.41834   159.44941
   484  C   4.0    0.03    4.17    3.93    15.39749    43.33142   164.40049
   485  O   6.0   -0.23    2.07    1.83    15.26521    40.99194   163.09847
   486  H   1.0    0.09    1.06    1.44    16.50298    47.77038   165.75353
   487  H   1.0    0.06    1.06    1.44    19.36780    43.71503   164.20396
   488  H   1.0    0.05    1.01    1.43    15.54678    42.99127   166.42627
   489  H   1.0    0.06    1.02    1.43    13.71374    44.44824   163.99609
   490  H   1.0    0.13    1.01    1.43    13.77610    40.04140   163.65405
   491  N   5.0   -0.13    3.51    2.08    16.07023    46.11309   159.40027
   492  C   4.0    0.04    4.51    4.55    15.97763    46.21892   156.63371
   493  C   4.0    0.16    3.53    3.13    18.44184    47.18268   155.55090
   494  O   6.0   -0.31    1.29    1.80    18.92938    46.84442   153.32480
   495  C   4.0   -0.02    4.38    4.34    13.88760    47.89510   155.51311
   496  C   4.0   -0.04    4.26    4.12    11.99031    48.74548   157.49921
   497  C   4.0   -0.07    4.12    3.84    12.60447    46.52883   153.32858
   498  C   4.0   -0.07    4.03    3.67    10.07413    50.60875   156.46553
   499  H   1.0    0.11    1.11    1.45    14.73986    47.18835   160.28656
   500  H   1.0    0.05    1.07    1.44    15.56378    44.27250   156.10270
   501  H   1.0    0.05    1.08    1.44    14.77010    49.61287   154.79501
   502  H   1.0    0.05    1.03    1.43    10.96797    47.09953   158.20030
   503  H   1.0    0.06    1.05    1.44    12.99942    49.65822   159.04501
   504  H   1.0    0.04    1.00    1.43    11.12860    47.74015   152.55569
   505  H   1.0    0.06    1.00    1.43    14.00854    46.11687   151.87727
   506  H   1.0    0.05    1.00    1.43    11.78055    44.77517   154.02589
   507  H   1.0    0.05    1.00    1.43     8.77589    51.14165   157.97353
   508  H   1.0    0.04    1.00    1.43    11.06624    52.27549   155.77200
   509  H   1.0    0.05    1.00    1.43     9.03478    49.71869   154.92540
   510  N   5.0   -0.13    3.57    2.13    20.01220    48.39588   157.05890
   511  C   4.0    0.04    4.68    4.74    22.54443    48.67745   156.15561
   512  C   4.0    0.15    3.61    3.17    24.28109    46.44379   156.56002
   513  O   6.0   -0.32    1.31    1.80    25.38469    45.57263   154.74210
   514  C   4.0   -0.02    4.48    4.51    23.86157    50.91111   157.30457
   515  C   4.0   -0.05    4.28    4.17    23.06788    53.23169   155.86082
   516  C   4.0   -0.08    4.27    4.15    26.66403    50.62009   157.09103
   517  C   4.0   -0.08    4.05    3.71    22.07578    55.24047   157.59936
   518  H   1.0    0.13    1.11    1.45    19.60213    49.14421   158.78611
   519  H   1.0    0.06    1.11    1.45    22.21940    48.90800   154.13550
   520  H   1.0    0.05    1.07    1.44    23.35512    51.05851   159.29634
   521  H   1.0    0.03    1.04    1.43    24.69116    53.99325   154.84792
   522  H   1.0    0.04    1.05    1.44    21.57878    52.73091   154.53045
   523  H   1.0    0.03    1.00    1.43    27.57488    52.26226   157.93574
   524  H   1.0    0.04    1.04    1.43    27.23851    48.90989   158.08502
   525  H   1.0    0.04    1.01    1.43    27.17426    50.48025   155.10115
   526  H   1.0    0.04    1.02    1.43    21.52398    56.88075   156.48254
   527  H   1.0    0.06    1.00    1.43    20.44306    54.50159   158.61604
   528  H   1.0    0.03    1.00    1.43    23.55543    55.76392   158.93351
   529  N   5.0   -0.14    3.51    2.08    24.48518    45.47437   158.86926
   530  C   4.0    0.03    4.41    4.40    25.90625    43.13866   159.32279
   531  C   4.0    0.16    3.48    3.11    25.11635    41.04674   157.48976
   532  O   6.0   -0.30    1.24    1.80    26.61679    39.42346   156.78489
   533  C   4.0   -0.04    4.30    4.20    25.57555    42.17679   162.02510
   534  C   4.0   -0.04    4.21    4.02    26.93615    39.65023   162.51643
   535  C   4.0   -0.01    4.22    4.05    27.09678    38.90946   165.28488
   536  N   5.0   -0.14    3.45    2.05    27.62401    41.12044   166.84201
   537  C   4.0    0.10    3.33    3.06    28.19093    41.03351   169.27976
   538  N   5.0   -0.17    3.26    1.97    28.33455    38.77907   170.39092
   539  N   5.0   -0.18    3.20    1.96    28.61612    43.18402   170.56855
   540  H   1.0    0.11    1.10    1.44    23.70283    46.24348   160.45474
   541  H   1.0    0.04    1.06    1.44    27.89991    43.58464   159.06012
   542  H   1.0    0.03    1.05    1.44    26.34278    43.57519   163.32901
   543  H   1.0    0.06    1.03    1.43    23.56866    41.89711   162.39360
   544  H   1.0    0.06    1.03    1.43    25.92137    38.15357   161.52999
   545  H   1.0    0.05    1.03    1.43    28.86178    39.78818   161.79834
   546  H   1.0    0.05    1.03    1.43    25.30343    38.09310   165.88581
   547  H   1.0    0.06    1.03    1.43    28.61612    37.54319   165.54755
   548  H   1.0    0.07    1.10    1.44    27.55220    42.85143   165.99731
   549  H   1.0    0.09    1.04    1.43    28.01141    37.17847   169.36669
   550  H   1.0    0.10    1.02    1.43    28.76730    38.65434   172.26553
   551  H   1.0    0.08    1.02    1.43    28.50274    44.88477   169.66904
   552  H   1.0    0.10    1.02    1.43    29.05265    43.11221   172.44505
   553  N   5.0   -0.13    3.54    2.11    22.73340    41.10910   156.72820
   554  C   4.0    0.05    4.39    4.37    21.73185    39.41212   154.82903
   555  C   4.0    0.18    3.46    3.10    23.05844    39.32898   152.24010
   556  O   6.0   -0.25    1.24    1.80    22.96584    37.35988   151.01745
   557  C   4.0    0.04    4.18    3.96    18.97285    40.03951   154.36415
   558  O   6.0   -0.22    2.11    1.84    18.56845    40.32486   151.72043
   559  H   1.0    0.13    1.19    1.46    21.41815    42.34309   157.40661
   560  H   1.0    0.07    1.06    1.44    22.01153    37.53941   155.63972
   561  H   1.0    0.06    1.01    1.43    17.79177    38.50884   155.07658
   562  H   1.0    0.06    1.03    1.43    18.49853    41.79885   155.32413
   563  H   1.0    0.12    1.01    1.43    16.79210    40.72926   151.39161
   564  N   5.0   -0.14    3.51    2.08    24.15448    41.42279   151.33681
   565  C   4.0    0.04    4.43    4.43    25.35634    41.46626   148.81403
   566  C   4.0    0.16    3.36    3.07    28.21928    41.11666   148.83482
   567  O   6.0   -0.26    1.20    1.80    29.44949    41.29618   146.84304
   568  C   4.0   -0.03    4.35    4.29    24.68549    43.88511   147.42130
   569  C   4.0   -0.03    4.24    4.09    22.01153    44.70903   147.92019
   570  C   4.0   -0.01    4.25    4.10    21.77720    47.38866   147.00556
   571  N   5.0   -0.14    3.37    2.01    20.43361    47.67590   144.58860
   572  C   4.0    0.09    3.33    3.06    21.52587    47.78361   142.31337
   573  N   5.0   -0.17    3.27    1.97    24.00141    47.56251   142.07527
   574  N   5.0   -0.18    3.23    1.96    20.13881    48.10675   140.23845
   575  H   1.0    0.11    1.08    1.44    24.24329    43.09898   152.28546
   576  H   1.0    0.08    1.07    1.44    24.58156    39.87133   147.76712
   577  H   1.0    0.05    1.04    1.43    25.94783    45.39122   148.03924
   578  H   1.0    0.07    1.03    1.43    24.89525    43.57708   145.39551
   579  H   1.0    0.06    1.03    1.43    20.68872    43.51472   146.88840
   580  H   1.0    0.07    1.04    1.44    21.60335    44.63533   149.93842
   581  H   1.0    0.05    1.03    1.43    20.74730    48.47714   148.41908
   582  H   1.0    0.04    1.05    1.44    23.66882    48.16533   146.75801
   583  H   1.0    0.08    1.06    1.44    18.51176    47.80251   144.65474
   584  H   1.0    0.09    1.04    1.43    25.10123    47.30740   143.63807
   585  H   1.0    0.09    1.03    1.43    24.81399    47.64755   140.32916
   586  H   1.0    0.09    1.02    1.43    18.22263    48.27494   140.37640
   587  H   1.0    0.08    1.03    1.43    20.99108    48.18612   138.51124
   588  N   5.0   -0.11    3.64    2.19    29.17737    40.59131   151.10060
   589  C   4.0    0.03    4.39    4.36    31.78141    40.22849   151.79791
   590  C   4.0    0.15    3.48    3.11    31.97227    37.34287   151.93208
   591  O   6.0   -0.26    1.35    1.80    30.12223    36.09943   151.37839
   592  C   4.0   -0.04    4.39    4.36    32.07054    41.44736   154.37738
   593  C   4.0   -0.04    4.06    3.73    31.64913    44.31029   154.44919
   594  S   6.0   -0.03    2.52    3.10    34.56876    46.00916   154.97265
   595  C   4.0   -0.07    3.90    3.46    33.55208    48.29951   157.24599
   596  H   1.0    0.11    1.10    1.44    28.04920    40.38722   152.65017
   597  H   1.0    0.05    1.04    1.44    33.20248    41.03540   150.54502
   598  H   1.0    0.06    1.04    1.43    30.70049    40.59320   155.65673
   599  H   1.0    0.04    1.06    1.44    33.98294    41.09020   155.05390
   600  H   1.0    0.05    1.07    1.44    30.85734    44.92634   152.65017
   601  H   1.0    0.05    1.07    1.44    30.35278    44.76761   155.98176
   602  H   1.0    0.04    1.07    1.44    35.15079    49.49192   157.75810
   603  H   1.0    0.04    1.04    1.43    32.05542    49.44846   156.41829
   604  H   1.0    0.04    1.04    1.43    32.84533    47.32063   158.91461
   605  N   5.0   -0.15    3.40    2.02    34.10199    36.21849   152.61805
   606  C   4.0    0.04    4.49    4.52    34.48183    33.58043   151.80358
   607  C   4.0    0.07    3.39    3.07    35.12245    31.58488   153.73110
   608  O   6.0   -0.33    1.66    1.81    37.31642    31.36378   154.44919
   609  C   4.0   -0.01    4.37    4.32    36.63423    33.32721   149.90818
   610  C   4.0   -0.05    4.33    4.25    39.09654    33.69003   151.32358
   611  C   4.0   -0.05    4.16    3.91    36.57754    30.68348   148.73655
   612  H   1.0    0.07    1.04    1.44    35.51173    37.01217   153.66496
   613  H   1.0    0.07    1.11    1.45    32.55620    33.18170   151.18941
   614  H   1.0    0.05    1.05    1.44    36.45848    34.72371   148.40396
   615  H   1.0    0.05    1.00    1.43    40.66312    33.51618   149.99889
   616  H   1.0    0.04    1.00    1.43    39.10788    35.56275   152.18152
   617  H   1.0    0.10    1.27    1.48    39.24772    32.24628   152.78623
   618  H   1.0    0.06    1.00    1.43    38.12144    30.51529   147.38351
   619  H   1.0    0.07    1.01    1.43    36.79863    29.28319   150.23132
   620  H   1.0    0.06    1.00    1.43    34.77285    30.41325   147.78035
   621  N   5.0   -0.20    3.17    1.95    32.31998    31.09544   159.61948
   622  C   4.0    0.03    4.17    3.94    33.22894    32.73194   161.67550
   623  C   4.0    0.07    3.17    3.03    32.19715    33.57854   164.30411
   624  O   6.0   -0.29    1.15    1.80    32.80753    35.64023   165.21874
   625  C   4.0   -0.03    4.27    4.15    34.55742    35.03174   160.46986
   626  C   4.0   -0.04    4.17    3.93    37.11800    35.75739   161.55645
   627  C   4.0   -0.01    4.21    4.01    39.36866    34.33443   160.45096
   628  N   5.0   -0.14    3.39    2.02    39.95070    32.00629   161.82290
   629  C   4.0    0.10    3.34    3.06    39.72771    29.69137   160.86481
   630  N   5.0   -0.17    3.31    1.99    38.97371    29.36634   158.49887
   631  N   5.0   -0.17    3.23    1.96    40.27006    27.68637   162.27077
   632  H   1.0    0.10    1.02    1.43    30.80253    31.82298   158.67840
   633  H   1.0    0.06    1.13    1.45    34.03963    31.07843   162.59958
   634  H   1.0    0.04    1.04    1.43    34.84466    34.62734   158.47053
   635  H   1.0    0.05    1.03    1.43    33.32532    36.66824   160.68907
   636  H   1.0    0.04    1.03    1.43    37.42980    37.76428   161.20874
   637  H   1.0    0.06    1.04    1.43    37.09532    35.38890   163.58224
   638  H   1.0    0.05    1.05    1.44    38.95103    33.83176   158.49698
   639  H   1.0    0.04    1.03    1.43    41.03162    35.54763   160.52655
   640  H   1.0    0.08    1.06    1.44    40.57053    32.16880   163.64082
   641  H   1.0    0.11    1.11    1.45    38.55986    30.89513   157.40094
   642  H   1.0    0.10    1.03    1.43    38.80741    27.58811   157.77700
   643  H   1.0    0.10    1.02    1.43    40.85965    27.91692   164.09057
   644  H   1.0    0.10    1.03    1.43    40.09621    25.91570   161.52999
   645  N   5.0   -0.18    3.34    1.99    34.39868    46.45135   171.39625
   646  C   4.0    0.04    4.27    4.14    35.71582    48.68123   170.65737
   647  C   4.0    0.09    3.33    3.06    33.91680    50.74481   171.31878
   648  O   6.0   -0.30    1.19    1.80    31.62267    50.40844   171.12980
   649  C   4.0   -0.04    4.34    4.28    36.32998    48.65099   167.84168
   650  C   4.0   -0.01    3.56    3.14    34.04341    48.66422   166.14282
   651  C   4.0   -0.04    3.45    3.10    32.52029    46.51182   165.88203
   652  C   4.0   -0.04    3.45    3.10    33.41602    50.82040   164.77087
   653  C   4.0   -0.05    3.36    3.07    30.41325    46.54395   164.30600
   654  C   4.0   -0.05    3.36    3.07    31.30520    50.85253   163.19862
   655  C   4.0   -0.05    3.36    3.07    29.81043    48.72469   162.95485
   656  H   1.0    0.11    1.06    1.44    32.47683    46.55340   171.28665
   657  H   1.0    0.05    1.06    1.44    37.52240    48.93823   171.61357
   658  H   1.0    0.05    1.04    1.43    37.44870    50.32151   167.39381
   659  H   1.0    0.04    1.03    1.43    37.40901    46.94646   167.42216
   660  H   1.0    0.05    1.03    1.43    32.98517    44.81296   166.91382
   661  H   1.0    0.05    1.03    1.43    34.58010    52.48903   164.92772
   662  H   1.0    0.04    1.04    1.43    29.24540    44.87910   164.13026
   663  H   1.0    0.04    1.03    1.43    30.83466    52.54761   162.16494
   664  H   1.0    0.04    1.03    1.43    28.18337    48.75115   161.72275
   665  N   5.0   -0.20    3.20    1.96    30.49451    57.67066   170.85201
   666  C   4.0    0.03    4.40    4.39    29.64224    59.26370   168.76576
   667  C   4.0    0.14    3.42    3.09    29.26997    61.93010   169.77298
   668  O   6.0   -0.28    1.21    1.80    27.45961    62.44032   171.21106
   669  C   4.0   -0.04    4.41    4.40    27.19883    58.26592   167.64893
   670  C   4.0   -0.02    4.26    4.11    26.40703    59.87408   165.41527
   671  C   4.0   -0.07    4.22    4.04    28.61990    59.90242   163.60113
   672  C   4.0   -0.08    4.11    3.81    24.05999    58.83473   164.11703
   673  H   1.0    0.10    1.02    1.43    29.36634    57.71790   172.41482
   674  H   1.0    0.04    1.08    1.44    31.08221    59.30149   167.29366
   675  H   1.0    0.04    1.03    1.43    27.47473    56.32895   167.00642
   676  H   1.0    0.06    1.03    1.43    25.71161    58.33206   169.07189
   677  H   1.0    0.06    1.06    1.44    25.91759    61.77703   166.03132
   678  H   1.0    0.04    1.00    1.43    28.12668    61.04382   161.95896
   679  H   1.0    0.06    1.04    1.43    30.25640    60.71123   164.55356
   680  H   1.0    0.03    1.01    1.43    29.03186    57.97112   163.01532
   681  H   1.0    0.04    1.01    1.43    23.57433    60.05549   162.52966
   682  H   1.0    0.03    1.00    1.43    24.45494    56.92988   163.44240
   683  H   1.0    0.04    1.00    1.43    22.50853    58.79315   165.47007
   684  N   5.0   -0.13    3.43    2.03    31.03497    63.58361   169.05110
   685  C   4.0    0.04    4.32    4.24    31.18426    66.20466   170.00353
   686  C   4.0    0.09    3.24    3.04    30.20160    68.15297   168.18939
   687  O   6.0   -0.29    1.19    1.80    30.87812    68.16430   165.91227
   688  C   4.0   -0.04    4.46    4.48    33.89412    66.95110   170.51753
   689  C   4.0   -0.02    4.24    4.09    35.17536    65.29948   172.44694
   690  C   4.0   -0.07    4.13    3.85    37.99672    65.32405   171.95939
   691  C   4.0   -0.06    4.14    3.88    34.54797    66.38418   175.02831
   692  H   1.0    0.09    1.07    1.44    32.42392    63.16598   167.78121
   693  H   1.0    0.06    1.06    1.44    30.00507    66.21789   171.69294
   694  H   1.0    0.06    1.04    1.43    34.96371    66.82071   168.76198
   695  H   1.0    0.05    1.05    1.44    33.92814    68.88807   171.21862
   696  H   1.0    0.05    1.06    1.44    34.54797    63.33983   172.35812
   697  H   1.0    0.05    1.00    1.43    38.92835    64.12785   173.35401
   698  H   1.0    0.04    1.00    1.43    38.35577    64.60217   170.06400
   699  H   1.0    0.05    1.00    1.43    38.68836    67.25724   172.11813
   700  H   1.0    0.06    1.00    1.43    35.44937    65.23145   176.47773
   701  H   1.0    0.06    1.00    1.43    35.25095    68.31737   175.13224
   702  H   1.0    0.06    1.00    1.43    32.50518    66.36529   175.28531
   703  N   5.0   -0.17    3.20    1.96    18.05255    82.53000   149.06536
   704  C   4.0    0.04    4.27    4.13    19.30544    80.17918   149.71543
   705  C   4.0    0.09    3.22    3.04    20.09724    80.05446   152.47632
   706  O   6.0   -0.25    1.14    1.80    21.75264    81.47364   153.26433
   707  C   4.0   -0.02    4.37    4.32    21.69783    79.86360   148.11672
   708  C   4.0   -0.02    3.54    3.14    21.24997    78.72220   145.56559
   709  C   4.0   -0.04    3.49    3.11    19.21095    77.10460   145.15363
   710  C   4.0   -0.04    3.46    3.10    22.88836    79.24755   143.57382
   711  C   4.0   -0.04    3.36    3.07    18.80466    76.05013   142.78958
   712  C   4.0   -0.04    3.37    3.07    22.50475    78.19497   141.21544
   713  C   4.0   -0.04    3.37    3.07    20.46573    76.58681   140.81860
   714  H   1.0    0.10    1.03    1.43    19.05222    83.65439   147.85972
   715  H   1.0    0.04    1.07    1.44    17.92783    78.69008   149.35827
   716  H   1.0    0.06    1.04    1.43    22.54821    81.71742   147.82948
   717  H   1.0    0.05    1.04    1.43    23.00741    78.63717   149.12772
   718  H   1.0    0.05    1.04    1.43    17.93728    76.66996   146.68809
   719  H   1.0    0.06    1.03    1.43    24.47762    80.49288   143.87617
   720  H   1.0    0.05    1.03    1.43    17.20784    74.81803   142.47778
   721  H   1.0    0.06    1.03    1.43    23.78598    78.62016   139.68476
   722  H   1.0    0.05    1.03    1.43    20.16905    75.75155   138.97989
   723  N   5.0   -0.18    3.31    1.98    28.30432    70.66252   157.85826
   724  C   4.0    0.04    4.43    4.42    28.97895    68.97122   159.91806
   725  C   4.0    0.16    3.56    3.14    31.37701    67.77502   159.21319
   726  O   6.0   -0.30    1.34    1.80    31.96471    67.45566   156.97576
   727  C   4.0   -0.04    4.48    4.51    27.08733    66.88307   160.25443
   728  C   4.0   -0.04    4.13    3.86    24.47384    67.88463   160.66261
   729  S   6.0   -0.05    2.57    3.10    22.55199    65.40908   161.93818
   730  C   4.0   -0.06    3.89    3.45    19.56055    67.02669   161.80212
   731  H   1.0    0.13    1.07    1.44    28.50085    69.91986   156.08947
   732  H   1.0    0.06    1.06    1.44    29.09800    70.03513   161.67739
   733  H   1.0    0.05    1.04    1.43    27.07032    65.70577   158.56501
   734  H   1.0    0.05    1.06    1.44    27.60890    65.75301   161.89660
   735  H   1.0    0.05    1.07    1.44    24.52108    69.45499   161.99487
   736  H   1.0    0.04    1.07    1.44    23.67071    68.50635   158.87115
   737  H   1.0    0.05    1.04    1.43    18.09035    65.77947   162.52777
   738  H   1.0    0.05    1.04    1.43    19.66638    68.73122   162.95296
   739  H   1.0    0.04    1.04    1.43    19.15615    67.52558   159.84436
   740  N   5.0   -0.11    3.71    2.29    32.77919    67.09094   161.13504
   741  C   4.0    0.04    4.65    4.71    35.04875    65.70955   160.68907
   742  C   4.0    0.15    3.66    3.20    34.54041    63.36818   162.06101
   743  O   6.0   -0.32    1.41    1.80    32.94359    63.30960   163.71830
   744  C   4.0    0.06    4.31    4.22    37.26918    67.03614   161.90416
   745  O   6.0   -0.22    2.14    1.85    36.93091    69.68364   161.53188
   746  C   4.0   -0.07    4.14    3.89    39.72204    66.25379   160.69474
   747  H   1.0    0.13    1.13    1.45    32.38612    67.46700   162.98508
   748  H   1.0    0.09    1.11    1.45    35.52118    65.43365   158.70296
   749  H   1.0    0.05    1.05    1.44    37.37500    66.55993   163.90538
   750  H   1.0    0.13    1.02    1.43    37.97782    70.26379   160.11837
   751  H   1.0    0.05    1.00    1.43    41.29618    67.23078   161.59614
   752  H   1.0    0.05    1.01    1.43    39.99227    64.22234   160.89883
   753  H   1.0    0.07    1.00    1.43    39.70125    66.72811   158.68974
   754  N   5.0   -0.14    3.66    2.22    35.85944    61.39531   161.40527
   755  C   4.0    0.04    4.61    4.67    35.70826    59.29582   163.04555
   756  C   4.0    0.14    3.53    3.13    38.34443    58.35096   163.23831
   757  O   6.0   -0.32    1.32    1.80    39.65212    58.25836   161.30701
   758  C   4.0   -0.04    4.41    4.40    34.03207    57.32484   161.89471
   759  C   4.0   -0.01    3.65    3.20    35.04686    56.30627   159.46263
   760  C   4.0   -0.04    3.51    3.12    34.76718    57.66499   157.24977
   761  C   4.0   -0.04    3.49    3.11    36.30919    53.97435   159.38516
   762  C   4.0   -0.05    3.51    3.12    35.67236    56.73713   155.00666
   763  C   4.0   -0.04    3.46    3.10    37.24083    53.03705   157.15717
   764  C   4.0    0.06    3.49    3.11    36.91013    54.43734   154.98587
   765  O   6.0   -0.25    2.15    1.85    37.81153    53.56428   152.73521
   766  H   1.0    0.10    1.08    1.44    36.97438    61.22712   159.84247
   767  H   1.0    0.04    1.08    1.44    34.96749    59.74558   164.91449
   768  H   1.0    0.03    1.04    1.43    33.84310    55.75447   163.21374
   769  H   1.0    0.04    1.05    1.44    32.18581    58.15443   161.51677
   770  H   1.0    0.06    1.03    1.43    33.82609    59.47534   157.28756
   771  H   1.0    0.05    1.03    1.43    36.54919    52.90288   161.10481
   772  H   1.0    0.05    1.03    1.43    35.42102    57.78971   153.27756
   773  H   1.0    0.05    1.03    1.43    38.21215    51.24181   157.10426
   774  H   1.0    0.11    1.03    1.43    37.43547    54.77749   151.38784
   775  N   5.0   -0.14    3.43    2.03    39.07764    57.64420   165.54944
   776  C   4.0    0.03    4.23    4.06    41.65145    56.84485   166.21085
   777  C   4.0    0.07    3.20    3.04    41.75538    54.57529   167.99664
   778  O   6.0   -0.29    1.13    1.80    39.97148    54.12175   169.40637
   779  C   4.0   -0.06    4.12    3.83    43.03095    59.02559   167.43161
   780  H   1.0    0.09    1.06    1.44    37.88712    57.60263   167.06500
   781  H   1.0    0.05    1.06    1.44    42.55474    56.20612   164.47419
   782  H   1.0    0.05    1.00    1.43    44.93957    58.42277   167.91916
   783  H   1.0    0.04    1.00    1.43    43.10843    60.59784   166.10313
   784  H   1.0    0.05    1.00    1.43    42.01617    59.59251   169.13236
   785  N   5.0   -0.12    4.05    3.01    17.41005    62.61559   131.37879
   786  C   4.0   -0.00    4.30    4.19    16.11747    63.27511   133.83165
   787  C   4.0    0.15    3.37    3.07    14.58679    61.23231   135.28107
   788  O   6.0   -0.29    1.26    1.80    12.27755    61.01122   134.97494
   789  C   4.0   -0.02    4.33    4.25    14.44695    65.62215   133.50473
   790  C   4.0   -0.01    3.55    3.14    14.50176    67.32290   135.77429
   791  C   4.0   -0.03    3.47    3.10    13.19785    66.68228   137.95314
   792  C   4.0   -0.04    3.50    3.12    15.98519    69.52065   135.76673
   793  C   4.0   -0.03    3.41    3.08    13.33580    68.22619   140.05830
   794  C   4.0   -0.04    3.37    3.07    16.14015    71.07212   137.87378
   795  C   4.0   -0.04    3.37    3.07    14.79844    70.41827   140.01861
   796  H   1.0    0.06    1.02    1.43    16.69951    63.74943   129.93882
   797  H   1.0    0.05    1.04    1.43    19.34323    62.91606   131.55642
   798  H   1.0    0.07    1.01    1.43    17.07745    60.72587   130.94982
   799  H   1.0    0.04    1.07    1.44    17.72374    63.59636   135.08076
   800  H   1.0    0.04    1.04    1.43    15.11403    66.70118   131.88145
   801  H   1.0    0.07    1.04    1.43    12.49865    65.02310   133.20048
   802  H   1.0    0.07    1.03    1.43    12.07535    64.97964   138.00795
   803  H   1.0    0.05    1.04    1.43    17.02832    70.01576   134.08487
   804  H   1.0    0.05    1.04    1.43    12.30212    67.72919   141.74582
   805  H   1.0    0.05    1.03    1.43    17.28721    72.75964   137.83976
   806  H   1.0    0.05    1.03    1.43    14.88348    71.61069   141.67212
   807  N   5.0   -0.13    3.47    2.06    15.85669    59.86415   136.96482
   808  C   4.0    0.03    4.55    4.60    14.74175    57.65695   138.23849
   809  C   4.0    0.17    3.63    3.19    12.17361    58.18986   139.28918
   810  O   6.0   -0.31    1.37    1.80    11.88827    59.73943   140.98048
   811  C   4.0   -0.01    4.39    4.36    16.20629    56.86138   140.58742
   812  C   4.0   -0.07    4.15    3.90    15.68284    54.11750   141.12221
   813  C   4.0   -0.07    4.18    3.97    19.01820    57.32058   140.27562
   814  H   1.0    0.08    1.10    1.44    17.67272    60.22698   137.49961
   815  H   1.0    0.04    1.06    1.44    14.70963    56.23777   136.74750
   816  H   1.0    0.06    1.09    1.44    15.59024    57.99899   142.18991
   817  H   1.0    0.04    1.00    1.43    16.73163    53.55058   142.80218
   818  H   1.0    0.08    1.03    1.43    13.66272    53.86994   141.43780
   819  H   1.0    0.04    1.00    1.43    16.28566    52.99311   139.50461
   820  H   1.0    0.05    1.00    1.43    19.98952    56.72721   141.99338
   821  H   1.0    0.04    1.00    1.43    19.70228    56.22832   138.66935
   822  H   1.0    0.06    1.03    1.43    19.33757    59.32936   139.94680
   823  N   5.0   -0.12    3.57    2.13    10.27633    56.88216   138.34432
   824  C   4.0    0.04    4.59    4.66     7.87260    56.97665   139.62555
   825  C   4.0    0.16    3.59    3.16     8.32235    55.61416   142.02739
   826  O   6.0   -0.30    1.36    1.80    10.04389    54.08159   142.12755
   827  C   4.0   -0.04    4.44    4.44     5.87138    55.49322   138.22337
   828  C   4.0   -0.03    4.06    3.73     4.49377    56.99933   136.22404
   829  S   6.0   -0.03    2.64    3.10     3.12561    59.81313   137.55441
   830  C   4.0   -0.05    3.87    3.43     0.33637    58.66040   139.10588
   831  H   1.0    0.08    1.06    1.44    10.34436    55.78612   136.76073
   832  H   1.0    0.05    1.11    1.44     7.19986    58.91362   139.81263
   833  H   1.0    0.06    1.04    1.43     6.76900    53.89073   137.29174
   834  H   1.0    0.06    1.05    1.44     4.47298    54.82614   139.58020
   835  H   1.0    0.06    1.07    1.44     5.81847    57.55113   134.74628
   836  H   1.0    0.06    1.07    1.44     2.98199    55.85415   135.42091
   837  H   1.0    0.06    1.04    1.43    -0.64440    60.24399   139.98460
   838  H   1.0    0.06    1.04    1.43    -0.88628    57.76467   137.71126
   839  H   1.0    0.05    1.04    1.43     0.88628    57.29035   140.54207
   840  N   5.0   -0.13    3.49    2.07     6.76333    56.09982   143.92657
   841  C   4.0    0.04    4.73    4.78     7.16395    54.88850   146.35298
   842  C   4.0    0.16    3.89    3.45     5.28178    52.80414   146.83108
   843  O   6.0   -0.29    1.33    1.80     3.80402    52.26556   145.23615
   844  C   4.0   -0.02    4.56    4.61     6.42318    56.56091   148.52049
   845  C   4.0   -0.05    4.26    4.13     8.29590    56.04502   150.68801
   846  C   4.0   -0.06    4.48    4.50     3.67741    55.99399   149.15544
   847  C   4.0   -0.08    4.18    3.95    10.38215    54.23655   149.94345
   848  H   1.0    0.08    1.05    1.44     5.24966    57.29035   143.84153
   849  H   1.0    0.06    1.13    1.45     9.13682    54.30458   146.25093
   850  H   1.0    0.07    1.09    1.44     6.53278    58.57347   148.09530
   851  H   1.0    0.05    1.06    1.44     9.16706    57.82325   151.25870
   852  H   1.0    0.04    1.03    1.43     7.27356    55.22110   152.27538
   853  H   1.0    0.05    1.00    1.43     3.09348    57.18830   150.72958
   854  H   1.0    0.06    1.01    1.43     2.51145    56.38895   147.50382
   855  H   1.0    0.07    1.28    1.49     3.50544    54.00978   149.67889
   856  H   1.0    0.04    1.00    1.43    11.63315    53.95687   151.55539
   857  H   1.0    0.04    1.04    1.43     9.54501    52.43942   149.38410
   858  H   1.0    0.05    1.01    1.43    11.43662    55.04157   148.36742
   859  N   5.0   -0.15    3.79    2.41     5.35170    51.62306   149.03828
   860  C   4.0    0.02    4.21    4.02     3.48843    49.67853   149.58063
   861  C   4.0    0.08    3.17    3.03     2.67396    50.14907   152.28294
   862  O   6.0   -0.30    1.16    1.80     4.08181    51.27157   153.77960
   863  H   1.0    0.08    1.11    1.44     6.63105    51.95943   150.44045
   864  H   1.0    0.07    1.03    1.43     1.87083    49.82782   148.31451
   865  H   1.0    0.06    1.02    1.43     4.30858    47.79636   149.40110
   866  H   1.0    0.10    1.07    1.44    59.03154    50.39542   150.14049
   867  H   1.0    0.07    1.04    1.43    49.08565    61.30884   141.53393
   868  H   1.0    0.12    1.07    1.44    40.34466    73.92166   142.92076
   869  H   1.0    0.08    1.05    1.44    36.93852    79.12205   144.22492
   870  H   1.0    0.12    1.07    1.44    16.42064    84.77988   130.21393
   871  H   1.0    0.07    1.05    1.44    15.20505    82.69730   136.23777
   872  H   1.0    0.09    1.09    1.44     8.99757    71.87999   149.02024
   873  H   1.0    0.07    1.04    1.44    47.70843    64.66491   157.03108
   874  H   1.0    0.11    1.07    1.44    54.43993    46.80647   161.20920
   875  H   1.0    0.06    1.04    1.43     2.18275    63.52031   153.19523
   876  H   1.0    0.10    1.09    1.44     1.23889    62.50986   163.53350
   877  H   1.0    0.07    1.04    1.43     5.03215    58.46401   168.52632
   878  H   1.0    0.10    1.07    1.44    11.54947    49.48508   169.96347
   879  H   1.0    0.06    1.04    1.44    33.76630    30.45817   154.41114
   880  H   1.0    0.10    1.08    1.44    33.56468    30.86706   158.48320
   881  H   1.0    0.06    1.04    1.43    31.02862    32.44938   165.26879
   882  H   1.0    0.09    1.09    1.44    34.86964    45.15693   170.39864
   883  H   1.0    0.06    1.05    1.44    34.57150    52.41262   171.91948
   884  H   1.0    0.10    1.07    1.44    30.55664    56.04996   170.34011
   885  H   1.0    0.06    1.04    1.43    28.98703    69.47205   168.78595
   886  H   1.0    0.10    1.07    1.44    16.56583    82.19150   148.31194
   887  H   1.0    0.06    1.04    1.43    19.26914    78.81881   153.64186
   888  H   1.0    0.10    1.08    1.44    26.67407    71.12218   158.01187
   889  H   1.0    0.05    1.04    1.43    43.27918    53.45783   168.01675
   890  H   1.0    0.06    1.04    1.43     0.98270    49.55160   152.87769

  Z AO/shell   Hii/eV     exponent
  1     Wed Apr 25 08:07:45 CEST 2018   EN: 2.200 GM2: 0.406  GM3: 0.0800  RAES: 1.40
     1s    -10.707211    1.230000
  6     Wed Apr 25 08:07:45 CEST 2018   EN: 2.550 GM2: 0.538  GM3: 0.1500  RAES: 3.00
     2s    -13.970922    2.096432
     2p    -10.063292    1.800000
  7     Wed Apr 25 08:07:45 CEST 2018   EN: 3.040 GM2: 0.461  GM3:-0.0640  RAES: 1.90
     2s    -16.686243    2.339881
     2p    -12.523956    2.014332
  8     Wed Apr 25 08:07:45 CEST 2018   EN: 3.440 GM2: 0.452  GM3:-0.0517  RAES: 1.80
     2s    -20.229985    2.439742
     2p    -15.503117    2.137023
 16     Tue Apr 24 11:44:34 CEST 2018   EN: 2.580 GM2: 0.340  GM3:-0.0502  RAES: 3.10
     3s    -20.029654    1.981333
     3p    -11.377694    2.025643
     3d     -0.420282    1.702555
 no old-style atom pair restraining (fixing) potential

molecular fragmentation (1/2 indicates fragments):
111111111111111111111111111111111111222222222222222222222222222222222222
222222222222222222222222222222222222222222222222222222222222222222222222
222222222222222222222222222222222222222222222222222222222222222222222222
222222222222222222222222222222222222222222222222222222222222222222222222
222222222222222222222222222222222222222222222222222222222222222222222222
222222222222222222222222222222222222222222222222222222222222222222222222
222222222222222222222222222222222222222222222222222222222222222222222222
222222222222222222222222222222222222222222222222222222222222222222222222
222222222222222222222222222222222222222222222222222222222222222222222222
222222222222222222222222222222222222222222222222222222222222222222222222
222222222222222222222222222222222222222222222222222222222222222222222222
222222222222222222222222222222222222222222222222222222222222222222222222
21122222222222222222222222
# atoms in fragment 1/2:    38   852
 fragment masses (1/2) :      273.29     5683.16
CMA distance (Bohr)    :  29.194
constraining FC (au)   :  0.0500
           ------------------------------------------------- 
          |        Self-Consistent Charge Iterations        |
           ------------------------------------------------- 

 Ncao       : 2165
 Nao        : 2162
 Nshell     : 1312
 Nel        : 2344
 T(el)      :   500.0
 intcut     :    35.0
 scfconv/Eh :  0.100E-06
   qconv/e  :  0.100E-04
 intneglect :  0.100E-08
 broydamp   :      0.400
 iter      E             dE          RMSdq      gap      omega  full diag
   1  -1329.0338272 -0.132903E+04  0.447E+00    2.44       0.0  T
   2  -1331.9308127 -0.289699E+01  0.214E+00    0.94       1.0  T
   3  -1332.0997696 -0.168957E+00  0.118E+00    1.17       1.0  T
   4  -1332.3166085 -0.216839E+00  0.267E-01    0.61       1.0  T
   5  -1332.3307902 -0.141816E-01  0.139E-01    0.78       1.0  T
   6  -1332.3344561 -0.366590E-02  0.631E-02    0.68       1.0  T
   7  -1332.3353198 -0.863771E-03  0.314E-02    0.64       1.0  T
   8  -1332.3354697 -0.149888E-03  0.166E-02    0.62       1.0  T
   9  -1332.3355333 -0.635471E-04  0.788E-03    0.59       1.0  T
  10  -1332.3355451 -0.118085E-04  0.384E-03    0.58       1.0  T
  11  -1332.3355482 -0.306665E-05  0.177E-03    0.58       1.9  T
  12  -1332.3355487 -0.588062E-06  0.853E-04    0.58       3.9  T
  13  -1332.3355489 -0.154366E-06  0.412E-04    0.58       8.1  T
  14  -1332.3355489 -0.201728E-07  0.182E-04    0.58      18.5  T
  15  -1332.3355489 -0.717660E-08  0.784E-05    0.58      42.8  T
  16  -1332.3355489 -0.102705E-08  0.391E-05    0.58      85.7  T
speedup  1.85
cpu  time for SCC    1 m  7.6 s
wall time for SCC    0 m 36.6 s

   *** convergence criteria satisfied after 16 iterations ***

          eigenvalues
 #    :        1160       1161       1162       1163       1164       1165       1166       1167
 occ. :        2.000      2.000      2.000      2.000      2.000      2.000      2.000      2.000
 eps  :       -10.008    -10.000     -9.990     -9.968     -9.921     -9.858     -9.819     -9.808
 #    :        1168       1169       1170       1171       1172       1173       1174       1175
 occ. :        2.000      2.000      2.000      2.000      1.997      0.002      0.000      0.000
 eps  :        -9.770     -9.767     -9.751     -9.361     -8.985     -8.409     -8.316     -8.276
 #    :        1176       1177       1178       1179       1180       1181       1182       1183
 occ. :        0.000      0.000      0.000      0.000      0.000      0.000      0.000      0.000
 eps  :        -8.171     -8.120     -8.108     -8.041     -7.985     -7.940     -7.872     -7.739


   #   Z            q   n(s)   n(p)   n(d)      C6AA      α(0)
   1   7 N     -0.394  1.349  4.046  0.000    30.217     8.164
   2   6 C      0.024  1.060  2.917  0.000    20.197     6.402
   3   6 C      0.254  1.055  2.692  0.000    22.738     7.809
   4   8 O     -0.503  1.774  4.729  0.000    23.851     6.548
   5   6 C      0.059  1.045  2.896  0.000    19.786     6.370
   6   8 O     -0.463  1.725  4.739  0.000    22.117     6.349
   7   1 H      0.167  0.833  0.000  0.000     1.290     1.779
   8   1 H      0.060  0.940  0.000  0.000     2.200     2.320
   9   1 H      0.051  0.949  0.000  0.000     2.303     2.373
  10   1 H      0.040  0.960  0.000  0.000     2.449     2.447
  11   1 H      0.346  0.654  0.000  0.000     0.598     1.215
  12   7 N     -0.099  1.245  3.854  0.000    23.175     7.150
  13   6 C      0.018  1.065  2.917  0.000    20.265     6.407
  14   6 C      0.296  1.033  2.671  0.000    21.982     7.678
  15   8 O     -0.500  1.765  4.735  0.000    23.783     6.538
  16   6 C     -0.082  1.059  3.023  0.000    22.041     6.679
  17   6 C     -0.077  1.050  3.028  0.000    21.949     6.666
  18   6 C     -0.058  1.067  2.992  0.000    21.670     6.636
  19   1 H      0.053  0.947  0.000  0.000     2.286     2.364
  20   1 H      0.060  0.940  0.000  0.000     2.197     2.318
  21   1 H      0.058  0.942  0.000  0.000     2.222     2.331
  22   1 H      0.072  0.928  0.000  0.000     2.059     2.244
  23   1 H      0.070  0.930  0.000  0.000     2.090     2.261
  24   1 H      0.160  0.840  0.000  0.000     1.326     1.801
  25   1 H      0.046  0.954  0.000  0.000     2.375     2.410
  26   7 N     -0.168  1.237  3.931  0.000    24.630     7.371
  27   6 C      0.000  1.069  2.931  0.000    20.596     6.464
  28   6 C      0.198  1.085  2.717  0.000    23.782     7.986
  29   8 O     -0.373  1.778  4.594  0.000    21.144     6.165
  30   6 C      0.065  1.039  2.896  0.000    19.714     6.363
  31   8 O     -0.464  1.716  4.749  0.000    22.140     6.352
  32   1 H      0.233  0.767  0.000  0.000     0.954     1.530
  33   1 H      0.122  0.878  0.000  0.000     1.598     1.977
  34   1 H      0.057  0.943  0.000  0.000     2.230     2.335
  35   1 H      0.082  0.918  0.000  0.000     1.959     2.189
  36   1 H      0.313  0.687  0.000  0.000     0.684     1.299
  37   7 N     -0.412  1.340  4.073  0.000    30.721     8.232
  38   6 C      0.052  1.046  2.902  0.000    19.711     6.323
  39   6 C      0.196  1.088  2.716  0.000    23.827     7.995
  40   8 O     -0.393  1.762  4.630  0.000    21.534     6.222
  41   6 C     -0.052  1.047  3.005  0.000    21.485     6.595
  42   6 C      0.013  1.084  2.903  0.000    27.716     8.635
  43   6 C     -0.023  1.083  2.940  0.000    28.580     8.767
  44   6 C     -0.043  1.078  2.965  0.000    29.076     8.843
  45   6 C     -0.033  1.081  2.953  0.000    28.828     8.804
  46   6 C     -0.036  1.082  2.953  0.000    28.885     8.814
  47   6 C     -0.034  1.081  2.953  0.000    28.845     8.807
  48   1 H      0.171  0.829  0.000  0.000     1.265     1.762
  49   1 H      0.068  0.932  0.000  0.000     2.109     2.271
  50   1 H      0.057  0.943  0.000  0.000     2.229     2.335
  51   1 H      0.028  0.972  0.000  0.000     2.622     2.532
  52   1 H     -0.005  1.005  0.000  0.000     3.153     2.777
  53   1 H      0.047  0.953  0.000  0.000     2.358     2.401
  54   1 H      0.033  0.967  0.000  0.000     2.545     2.495
  55   1 H      0.057  0.943  0.000  0.000     2.236     2.339
  56   1 H      0.043  0.957  0.000  0.000     2.412     2.429
  57   7 N     -0.402  1.335  4.067  0.000    30.439     8.194
  58   6 C      0.040  1.057  2.903  0.000    19.920     6.357
  59   6 C      0.202  1.089  2.709  0.000    23.703     7.973
  60   8 O     -0.380  1.757  4.623  0.000    21.280     6.185
  61   6 C     -0.041  1.048  2.993  0.000    21.292     6.568
[...]
 604   1 H      0.060  0.940  0.000  0.000     2.194     2.316
 605   7 N     -0.176  1.240  3.937  0.000    24.818     7.399
 606   6 C      0.009  1.056  2.935  0.000    20.413     6.431
 607   6 C      0.182  1.079  2.739  0.000    24.098     8.041
 608   8 O     -0.340  1.723  4.617  0.000    20.490     6.071
 609   6 C     -0.015  1.059  2.956  0.000    20.803     6.485
 610   6 C     -0.174  1.059  3.115  0.000    23.926     6.971
 611   6 C     -0.119  1.043  3.076  0.000    22.838     6.813
 612   1 H      0.218  0.782  0.000  0.000     1.020     1.582
 613   1 H      0.086  0.914  0.000  0.000     1.923     2.169
 614   1 H      0.043  0.957  0.000  0.000     2.406     2.426
 615   1 H      0.043  0.957  0.000  0.000     2.412     2.429
 616   1 H      0.051  0.949  0.000  0.000     2.307     2.375
 617   1 H      0.172  0.828  0.000  0.000     1.247     1.745
 618   1 H      0.051  0.949  0.000  0.000     2.312     2.378
 619   1 H      0.049  0.951  0.000  0.000     2.326     2.385
 620   1 H      0.032  0.968  0.000  0.000     2.560     2.502
 621   7 N     -0.385  1.333  4.052  0.000    29.960     8.129
 622   6 C     -0.001  1.055  2.946  0.000    20.632     6.472
 623   6 C      0.177  1.091  2.732  0.000    24.184     8.053
 624   8 O     -0.372  1.752  4.620  0.000    21.123     6.162
 625   6 C     -0.080  1.059  3.020  0.000    22.014     6.679
 626   6 C     -0.092  1.054  3.037  0.000    22.248     6.715
 627   6 C     -0.036  1.060  2.975  0.000    21.297     6.585
 628   7 N     -0.144  1.212  3.932  0.000    24.119     7.294
 629   6 C      0.228  1.017  2.755  0.000    23.211     7.888
 630   7 N     -0.259  1.240  4.018  0.000    26.715     7.676
 631   7 N     -0.265  1.239  4.025  0.000    26.858     7.697
 632   1 H      0.148  0.852  0.000  0.000     1.417     1.865
 633   1 H      0.136  0.864  0.000  0.000     1.487     1.907
 634   1 H      0.044  0.956  0.000  0.000     2.400     2.423
 635   1 H      0.073  0.927  0.000  0.000     2.050     2.239
 636   1 H      0.083  0.917  0.000  0.000     1.949     2.183
 637   1 H      0.080  0.920  0.000  0.000     1.980     2.201
 638   1 H      0.086  0.914  0.000  0.000     1.922     2.168
 639   1 H      0.093  0.907  0.000  0.000     1.848     2.126
 640   1 H      0.223  0.777  0.000  0.000     0.997     1.564
 641   1 H      0.257  0.743  0.000  0.000     0.858     1.451
 642   1 H      0.238  0.762  0.000  0.000     0.932     1.512
 643   1 H      0.243  0.757  0.000  0.000     0.909     1.494
 644   1 H      0.246  0.754  0.000  0.000     0.899     1.485
 645   7 N     -0.389  1.317  4.072  0.000    30.057     8.142
 646   6 C      0.043  1.042  2.916  0.000    19.870     6.349
 647   6 C      0.202  1.082  2.716  0.000    23.697     7.974
 648   8 O     -0.377  1.749  4.627  0.000    21.222     6.176
 649   6 C     -0.076  1.056  3.020  0.000    21.933     6.666
 650   6 C      0.010  1.085  2.905  0.000    27.787     8.646
 651   6 C     -0.049  1.084  2.965  0.000    29.218     8.864
 652   6 C     -0.041  1.084  2.957  0.000    29.024     8.835
 653   6 C     -0.052  1.086  2.966  0.000    29.291     8.875
 654   6 C     -0.033  1.082  2.951  0.000    28.826     8.804
 655   6 C     -0.040  1.082  2.958  0.000    29.000     8.831
 656   1 H      0.172  0.828  0.000  0.000     1.264     1.761
 657   1 H      0.059  0.941  0.000  0.000     2.215     2.328
 658   1 H      0.052  0.948  0.000  0.000     2.293     2.368
 659   1 H      0.074  0.926  0.000  0.000     2.041     2.234
 660   1 H      0.065  0.935  0.000  0.000     2.139     2.287
 661   1 H      0.026  0.974  0.000  0.000     2.647     2.544
 662   1 H      0.054  0.946  0.000  0.000     2.270     2.356
 663   1 H      0.033  0.967  0.000  0.000     2.547     2.496
 664   1 H      0.041  0.959  0.000  0.000     2.437     2.441
 665   7 N     -0.385  1.322  4.063  0.000    29.950     8.128
 666   6 C      0.027  1.059  2.913  0.000    20.121     6.388
 667   6 C      0.274  1.050  2.676  0.000    22.359     7.743
 668   8 O     -0.520  1.769  4.751  0.000    24.244     6.601
 669   6 C     -0.071  1.055  3.016  0.000    21.837     6.650
 670   6 C     -0.010  1.049  2.961  0.000    20.714     6.473
 671   6 C     -0.129  1.047  3.082  0.000    23.027     6.840
 672   6 C     -0.116  1.045  3.071  0.000    22.782     6.805
 673   1 H      0.154  0.846  0.000  0.000     1.375     1.837
 674   1 H      0.054  0.946  0.000  0.000     2.271     2.357
 675   1 H      0.056  0.944  0.000  0.000     2.243     2.342
 676   1 H      0.040  0.960  0.000  0.000     2.451     2.448
 677   1 H      0.003  0.997  0.000  0.000     2.999     2.708
 678   1 H      0.021  0.979  0.000  0.000     2.721     2.580
 679   1 H      0.062  0.938  0.000  0.000     2.174     2.306
 680   1 H      0.056  0.944  0.000  0.000     2.252     2.347
 681   1 H      0.047  0.953  0.000  0.000     2.364     2.404
 682   1 H      0.051  0.949  0.000  0.000     2.309     2.376
 683   1 H      0.034  0.966  0.000  0.000     2.531     2.488
 684   7 N     -0.166  1.250  3.916  0.000    24.583     7.364
 685   6 C      0.032  1.050  2.917  0.000    20.041     6.375
 686   6 C      0.196  1.091  2.713  0.000    23.819     7.994
 687   8 O     -0.376  1.761  4.615  0.000    21.199     6.173
 688   6 C     -0.067  1.056  3.012  0.000    21.762     6.636
 689   6 C     -0.016  1.051  2.965  0.000    20.830     6.491
 690   6 C     -0.122  1.046  3.076  0.000    22.884     6.819
 691   6 C     -0.120  1.045  3.075  0.000    22.848     6.813
 692   1 H      0.219  0.781  0.000  0.000     1.013     1.577
 693   1 H      0.081  0.919  0.000  0.000     1.966     2.193
 694   1 H      0.060  0.940  0.000  0.000     2.198     2.319
 695   1 H      0.057  0.943  0.000  0.000     2.229     2.335
 696   1 H      0.052  0.948  0.000  0.000     2.289     2.366
 697   1 H      0.058  0.942  0.000  0.000     2.217     2.329
 698   1 H      0.046  0.954  0.000  0.000     2.370     2.408
 699   1 H      0.041  0.959  0.000  0.000     2.431     2.438
 700   1 H      0.050  0.950  0.000  0.000     2.315     2.380
 701   1 H      0.039  0.961  0.000  0.000     2.458     2.452
 702   1 H      0.038  0.962  0.000  0.000     2.479     2.462
 703   7 N     -0.387  1.322  4.065  0.000    30.020     8.137
 704   6 C      0.044  1.049  2.906  0.000    19.848     6.346
 705   6 C      0.201  1.089  2.710  0.000    23.725     7.977
 706   8 O     -0.369  1.761  4.608  0.000    21.078     6.155
 707   6 C     -0.062  1.052  3.010  0.000    21.683     6.627
 708   6 C      0.008  1.084  2.907  0.000    27.828     8.653
 709   6 C     -0.046  1.080  2.966  0.000    29.132     8.851
 710   6 C     -0.038  1.079  2.959  0.000    28.934     8.821
 711   6 C     -0.034  1.083  2.952  0.000    28.852     8.808
 712   6 C     -0.030  1.083  2.947  0.000    28.752     8.793
 713   6 C     -0.033  1.081  2.952  0.000    28.832     8.805
 714   1 H      0.166  0.834  0.000  0.000     1.296     1.783
 715   1 H      0.047  0.953  0.000  0.000     2.357     2.401
 716   1 H      0.058  0.942  0.000  0.000     2.220     2.330
 717   1 H      0.042  0.958  0.000  0.000     2.428     2.437
 718   1 H      0.032  0.968  0.000  0.000     2.557     2.500
 719   1 H      0.022  0.978  0.000  0.000     2.701     2.570
 720   1 H      0.045  0.955  0.000  0.000     2.387     2.416
 721   1 H      0.041  0.959  0.000  0.000     2.429     2.437
 722   1 H      0.043  0.957  0.000  0.000     2.409     2.427
 723   7 N     -0.419  1.334  4.085  0.000    30.901     8.256
 724   6 C      0.044  1.043  2.913  0.000    19.829     6.339
 725   6 C      0.281  1.030  2.689  0.000    22.248     7.727
 726   8 O     -0.526  1.740  4.786  0.000    24.373     6.619
 727   6 C     -0.041  1.040  3.001  0.000    21.249     6.552
 728   6 C      0.007  1.054  2.939  0.000    20.460     6.440
 729  16 S     -0.193  1.901  4.243  0.050   149.261    20.563
 730   6 C     -0.062  1.054  3.008  0.000    21.758     6.654
 731   1 H      0.181  0.819  0.000  0.000     1.207     1.721
 732   1 H      0.025  0.975  0.000  0.000     2.658     2.550
 733   1 H      0.033  0.967  0.000  0.000     2.540     2.493
 734   1 H      0.042  0.958  0.000  0.000     2.419     2.432
 735   1 H      0.015  0.985  0.000  0.000     2.809     2.621
 736   1 H      0.030  0.970  0.000  0.000     2.586     2.515
 737   1 H      0.081  0.919  0.000  0.000     1.966     2.193
 738   1 H      0.040  0.960  0.000  0.000     2.444     2.445
 739   1 H      0.058  0.942  0.000  0.000     2.228     2.334
 740   7 N     -0.171  1.244  3.927  0.000    24.699     7.381
 741   6 C     -0.001  1.049  2.952  0.000    20.578     6.454
 742   6 C      0.271  1.027  2.701  0.000    22.428     7.763
 743   8 O     -0.488  1.729  4.759  0.000    23.519     6.502
 744   6 C      0.118  1.041  2.842  0.000    18.725     6.173
 745   8 O     -0.493  1.734  4.759  0.000    22.740     6.437
 746   6 C     -0.129  1.047  3.082  0.000    23.033     6.843
 747   1 H      0.241  0.759  0.000  0.000     0.920     1.503
 748   1 H      0.114  0.886  0.000  0.000     1.663     2.017
 749   1 H      0.039  0.961  0.000  0.000     2.468     2.456
 750   1 H      0.321  0.679  0.000  0.000     0.661     1.277
 751   1 H      0.061  0.939  0.000  0.000     2.190     2.314
 752   1 H      0.066  0.934  0.000  0.000     2.130     2.282
 753   1 H      0.041  0.959  0.000  0.000     2.429     2.437
 754   7 N     -0.163  1.228  3.934  0.000    24.512     7.353
 755   6 C      0.026  1.042  2.932  0.000    20.104     6.377
 756   6 C      0.260  1.040  2.700  0.000    22.618     7.790
 757   8 O     -0.478  1.735  4.743  0.000    23.298     6.471
 758   6 C     -0.087  1.049  3.038  0.000    22.133     6.694
 759   6 C     -0.002  1.076  2.926  0.000    28.073     8.691
 760   6 C     -0.038  1.078  2.960  0.000    28.936     8.822
 761   6 C     -0.042  1.084  2.958  0.000    29.040     8.838
 762   6 C     -0.074  1.075  2.999  0.000    29.859     8.961
 763   6 C     -0.056  1.070  2.986  0.000    29.403     8.892
 764   6 C      0.143  1.042  2.815  0.000    24.885     8.177
 765   8 O     -0.400  1.704  4.696  0.000    20.858     6.165
 766   1 H      0.220  0.780  0.000  0.000     1.008     1.573
 767   1 H      0.066  0.934  0.000  0.000     2.126     2.280
 768   1 H      0.073  0.927  0.000  0.000     2.049     2.239
 769   1 H      0.075  0.925  0.000  0.000     2.028     2.227
 770   1 H      0.022  0.978  0.000  0.000     2.697     2.568
 771   1 H      0.065  0.935  0.000  0.000     2.136     2.286
 772   1 H      0.030  0.970  0.000  0.000     2.584     2.514
 773   1 H      0.083  0.917  0.000  0.000     1.944     2.180
 774   1 H      0.312  0.688  0.000  0.000     0.686     1.301
 775   7 N     -0.158  1.239  3.920  0.000    24.422     7.340
 776   6 C      0.016  1.057  2.927  0.000    20.319     6.420
 777   6 C      0.192  1.089  2.719  0.000    23.888     8.004
 778   8 O     -0.352  1.754  4.598  0.000    20.744     6.106
 779   6 C     -0.135  1.046  3.089  0.000    23.144     6.858
 780   1 H      0.219  0.781  0.000  0.000     1.016     1.579
 781   1 H      0.110  0.890  0.000  0.000     1.692     2.034
 782   1 H      0.081  0.919  0.000  0.000     1.965     2.192
 783   1 H      0.073  0.927  0.000  0.000     2.050     2.239
 784   1 H      0.070  0.930  0.000  0.000     2.089     2.260
 785   7 N     -0.163  1.246  3.917  0.000    24.525     7.355
 786   6 C     -0.044  1.084  2.960  0.000    21.385     6.588
 787   6 C      0.266  1.032  2.703  0.000    22.514     7.769
 788   8 O     -0.470  1.767  4.704  0.000    23.141     6.450
 789   6 C     -0.098  1.058  3.040  0.000    22.362     6.731
 790   6 C      0.008  1.075  2.916  0.000    27.832     8.654
 791   6 C     -0.036  1.083  2.953  0.000    28.889     8.814
 792   6 C     -0.054  1.084  2.969  0.000    29.330     8.881
 793   6 C     -0.033  1.085  2.948  0.000    28.832     8.805
 794   6 C     -0.030  1.080  2.950  0.000    28.755     8.793
 795   6 C     -0.032  1.081  2.951  0.000    28.800     8.800
 796   1 H      0.300  0.700  0.000  0.000     0.713     1.323
 797   1 H      0.294  0.706  0.000  0.000     0.731     1.340
 798   1 H      0.324  0.676  0.000  0.000     0.647     1.260
 799   1 H      0.119  0.881  0.000  0.000     1.622     1.992
 800   1 H      0.087  0.913  0.000  0.000     1.907     2.159
 801   1 H      0.118  0.882  0.000  0.000     1.634     1.999
 802   1 H      0.066  0.934  0.000  0.000     2.132     2.284
 803   1 H      0.061  0.939  0.000  0.000     2.190     2.314
 804   1 H      0.036  0.964  0.000  0.000     2.497     2.471
 805   1 H      0.021  0.979  0.000  0.000     2.721     2.579
 806   1 H      0.009  0.991  0.000  0.000     2.901     2.663
 807   7 N     -0.157  1.247  3.910  0.000    24.396     7.336
 808   6 C     -0.006  1.070  2.936  0.000    20.684     6.474
 809   6 C      0.299  1.027  2.674  0.000    21.927     7.671
 810   8 O     -0.498  1.735  4.764  0.000    23.741     6.533
 811   6 C     -0.029  1.056  2.972  0.000    21.034     6.520
 812   6 C     -0.155  1.048  3.106  0.000    23.539     6.916
 813   6 C     -0.160  1.052  3.107  0.000    23.647     6.933
 814   1 H      0.247  0.753  0.000  0.000     0.893     1.481
 815   1 H      0.091  0.909  0.000  0.000     1.866     2.136
 816   1 H      0.052  0.948  0.000  0.000     2.295     2.369
 817   1 H      0.064  0.936  0.000  0.000     2.149     2.293
 818   1 H      0.072  0.928  0.000  0.000     2.067     2.248
 819   1 H      0.068  0.932  0.000  0.000     2.108     2.271
 820   1 H      0.062  0.938  0.000  0.000     2.177     2.307
 821   1 H      0.084  0.916  0.000  0.000     1.939     2.178
 822   1 H      0.065  0.935  0.000  0.000     2.143     2.289
 823   7 N     -0.155  1.236  3.919  0.000    24.361     7.330
 824   6 C      0.020  1.046  2.933  0.000    20.216     6.399
 825   6 C      0.280  1.031  2.689  0.000    22.265     7.730
 826   8 O     -0.469  1.725  4.744  0.000    23.116     6.446
 827   6 C     -0.073  1.052  3.020  0.000    21.840     6.645
 828   6 C     -0.018  1.062  2.956  0.000    20.904     6.510
 829  16 S     -0.217  1.910  4.251  0.056   150.329    20.636
 830   6 C     -0.053  1.050  3.003  0.000    21.590     6.628
 831   1 H      0.219  0.781  0.000  0.000     1.014     1.577
 832   1 H      0.074  0.926  0.000  0.000     2.038     2.232
 833   1 H      0.074  0.926  0.000  0.000     2.043     2.235
 834   1 H      0.050  0.950  0.000  0.000     2.314     2.379
 835   1 H      0.082  0.918  0.000  0.000     1.961     2.190
 836   1 H      0.054  0.946  0.000  0.000     2.266     2.354
 837   1 H      0.053  0.947  0.000  0.000     2.279     2.361
 838   1 H      0.046  0.954  0.000  0.000     2.376     2.411
 839   1 H      0.049  0.951  0.000  0.000     2.334     2.389
 840   7 N     -0.165  1.237  3.928  0.000    24.577     7.363
 841   6 C     -0.005  1.061  2.944  0.000    20.641     6.465
 842   6 C      0.308  1.029  2.663  0.000    21.790     7.655
 843   8 O     -0.485  1.731  4.755  0.000    23.461     6.494
 844   6 C     -0.044  1.064  2.980  0.000    21.296     6.558
 845   6 C     -0.101  1.060  3.041  0.000    22.416     6.740
 846   6 C     -0.152  1.051  3.101  0.000    23.405     6.881
 847   6 C     -0.135  1.049  3.086  0.000    23.162     6.863
 848   1 H      0.181  0.819  0.000  0.000     1.209     1.723
 849   1 H      0.121  0.879  0.000  0.000     1.608     1.983
 850   1 H      0.071  0.929  0.000  0.000     2.076     2.253
 851   1 H      0.084  0.916  0.000  0.000     1.933     2.174
 852   1 H      0.051  0.949  0.000  0.000     2.306     2.375
 853   1 H      0.025  0.975  0.000  0.000     2.661     2.551
 854   1 H      0.018  0.982  0.000  0.000     2.769     2.602
 855   1 H      0.084  0.916  0.000  0.000     1.936     2.175
 856   1 H      0.064  0.936  0.000  0.000     2.152     2.294
 857   1 H      0.046  0.954  0.000  0.000     2.367     2.406
 858   1 H      0.059  0.941  0.000  0.000     2.214     2.327
 859   7 N     -0.198  1.233  3.965  0.000    25.296     7.470
 860   6 C     -0.030  1.049  2.982  0.000    21.178     6.563
 861   6 C      0.190  1.085  2.725  0.000    23.931     8.012
 862   8 O     -0.353  1.754  4.599  0.000    20.758     6.109
 863   1 H      0.232  0.768  0.000  0.000     0.957     1.533
 864   1 H      0.105  0.895  0.000  0.000     1.742     2.064
 865   1 H      0.119  0.881  0.000  0.000     1.625     1.993
 866   1 H      0.188  0.812  0.000  0.000     1.170     1.694
 867   1 H      0.092  0.908  0.000  0.000     1.861     2.133
 868   1 H      0.185  0.815  0.000  0.000     1.183     1.703
 869   1 H      0.057  0.943  0.000  0.000     2.235     2.338
 870   1 H      0.187  0.813  0.000  0.000     1.175     1.698
 871   1 H      0.071  0.929  0.000  0.000     2.071     2.250
 872   1 H      0.160  0.840  0.000  0.000     1.334     1.809
 873   1 H      0.062  0.938  0.000  0.000     2.177     2.307
 874   1 H      0.175  0.825  0.000  0.000     1.244     1.747
 875   1 H      0.084  0.916  0.000  0.000     1.938     2.177
 876   1 H      0.189  0.811  0.000  0.000     1.163     1.689
 877   1 H      0.065  0.935  0.000  0.000     2.144     2.290
 878   1 H      0.187  0.813  0.000  0.000     1.177     1.699
 879   1 H      0.081  0.919  0.000  0.000     1.966     2.192
 880   1 H      0.189  0.811  0.000  0.000     1.165     1.690
 881   1 H      0.067  0.933  0.000  0.000     2.120     2.277
 882   1 H      0.194  0.806  0.000  0.000     1.134     1.668
 883   1 H      0.053  0.947  0.000  0.000     2.277     2.360
 884   1 H      0.192  0.808  0.000  0.000     1.148     1.678
 885   1 H      0.076  0.924  0.000  0.000     2.018     2.221
 886   1 H      0.186  0.814  0.000  0.000     1.179     1.701
 887   1 H      0.068  0.932  0.000  0.000     2.106     2.269
 888   1 H      0.166  0.834  0.000  0.000     1.298     1.784
 889   1 H      0.098  0.902  0.000  0.000     1.803     2.100
 890   1 H      0.076  0.924  0.000  0.000     2.016     2.220

 Mol. C6AA /au·bohr⁶  :    7283487.330715
 Mol. C8AA /au·bohr⁸  :  164661556.635333
 Mol. α(0) /au        :       4069.606935

 
molecular dipole:
                 x           y           z       tot (Debye)
 q only:      100.123     151.276     613.190
   full:       97.286     155.894     615.024    1631.555
molecular quadrupole (traceless):
                xx          xy          yy          xz          yz          zz
 q only:   -46728.586    4886.131  -44705.740   23877.766   34228.436   91434.325
  q+dip:   -47354.747    4863.157  -44404.762   23250.575   35429.165   91759.510
   full:   -47350.266    4857.882  -44405.004   23252.820   35426.316   91755.269
speedup  1.77
cpu  time for grad    1 m 18.8 s
wall time for grad    0 m 44.5 s

SCC energy    :   -1332.3748756
rep           :      16.9587983
ES            :       4.0665907
AES           :      -0.1511796
AXC           :       0.5149069
disp          :      -1.2201632
XB            :       0.0000000
fix           :       0.0000000
Gborn         :       0.0000000
Gsasa         :       0.0000000
Ghb           :       0.0000000
Gshift        :       0.0000000
Gsolv         :      -1.3887260     -871.44
Etot ala COSMO:   -1332.3748756
grad norm     :       0.9137753
total E       :   -1315.2709796
atomizationE  :     247.0926432   155052.97
(atE without considering molecular charge,
 total energy contains solvation terms)
H-L gap (eV)  :          0.5763

------------------------------------------------------------------------
 * finished run on 2019/05/06 at 00:15:06.043     
------------------------------------------------------------------------
 total:
 * wall-time:     0 d,  0 h,  0 min, 47.610 sec
 *  cpu-time:     0 d,  0 h,  1 min, 23.350 sec
 * ratio c/w:     1.751 speedup
 SCF:
 * wall-time:     0 d,  0 h,  0 min, 45.911 sec
 *  cpu-time:     0 d,  0 h,  1 min, 21.435 sec
 * ratio c/w:     1.774 speedup

