      -----------------------------------------------------------      
     |                   =====================                   |     
     |                           x T B                           |     
     |                   =====================                   |     
     |                         S. Grimme                         |     
     |          Mulliken Center for Theoretical Chemistry        |     
     |                    University of Bonn                     |     
     |                 Version 6.0.1 (SAW181210)                 |     
      -----------------------------------------------------------      

   This program is distributed in the hope that it will be useful,
   but WITHOUT ANY WARRANTY; without even the implied warranty of
   MERCHANTABILITY or FITNESS FOR A PARTICULAR PURPOSE.
   
   FOR NON-COMMERCIAL, ACADEMIA USE ONLY.
   
   Cite this work as:
   S. Grimme, C. Bannwarth, P. Shushkov, J. Comput. Theory Chem., 2017,
   13, 1989-2009.
   C. Bannwarth, S. Ehlert and S. Grimme., ChemRxiv, 2018, preprint.
   http://doi.org/10.26434/chemrxiv.7246238.v1
   
   for sTDA-xTB:
   S. Grimme and C. Bannwarth, J. Chem. Phys., 2016, 145, 054103.
   
   in the mass-spec context:
   V. Asgeirsson, C. Bauer and S. Grimme, Chem. Sci., 2017, 8, 4879.
   
   if GBSA is used:
   P. Shushkov, F. März and S. Grimme, unpublished.
   
   for ANC optimizer:
   S. Grimme, unpublished.
   Rational Function algorithm used in ANCopt:
   F. Eckert, P. Pulay, H.-J. Werner, J. Comput. Chem., 1997, 18, 1473.
   
   with help from (in alphabetical order)
   C. Bannwarth, F. Bohle, G. Brandenburg, E. Caldeweyher, M. Checinski,
   S. Dohm, S. Ehlert, S. Ehrlich, F. März, H. Neugebauer, J. Pisarek,
   P. Pracht, P. Shushkov, and S. Spicher.
   
 * started run on 2019/05/05 at 17:07:05.005     
========================================================================
 # omp threads = 2
========================================================================
number of atoms            : 229
number of electrons        : 628
charge                     : 1
spin                       : .0
first test random number   : .3098

########################################################################
# WARNING! Please study the warnings concerning your input carefully
#  - Process number higher than OMP_NUM_THREADS, I hope you know what you are doing.
########################################################################

           ------------------------------------------------- 
          |                 G F N 2 - x T B                 |
          | Geometry, Frequencies, Noncovalent interactions |
          |            JCTC 2018 parametrisation            |
           ------------------------------------------------- 
 
      method parameters     
 k(s)        :  1.8500
 k(p)        :  2.2300
 k(d)        :  2.2300
 k(f)        :  2.0000
 kEN (H0ij)  : -2.0000
 D4 a1       :  0.5200
 D4 a2       :  5.0000
 D4 s6       :  1.0000
 D4 s8       :  2.7000
 D4 s9       :  5.0000
 alphaj      :  2.0000

 Solvent             : h2o
 Using internal parameter file: .param_gbsa2_h2o
 Gsolv ref. state (COSMO-RS): gsolv [1 M gas/solution]
 temperature (mdtemp)       :    298.150000000000     
 dielectric constant        :    80.2000000000000     
 rho                        :    1.00000000000000     
 mass                       :    18.0000000000000     
 surface tension            :    15.5689454083859     
 probe radius               :   0.975313790000000     
 vdW radii scaling          :    1.00000000000000     
 Gshift (Eh)                :   1.857443126794793E-003
 c1                         :    1.55243817000000     
 soset                      :   0.130326360000000     
 HB correction              :  T

            Z     q(EN)     CN     RAES       Cart. coordinates
     1  N   5.0   -0.21    3.21    1.96    19.69189    69.86393     7.17839
     2  C   4.0    0.04    4.30    4.19    18.85586    72.49572     7.08219
     3  C   4.0    0.14    3.48    3.11    18.47771    73.55128     9.69143
     4  O   6.0   -0.31    1.34    1.80    18.78701    75.83449    10.00113
     5  C   4.0    0.04    4.19    3.97    16.31013    72.81559     5.73047
     6  O   6.0   -0.24    2.05    1.83    16.61197    72.69022     3.12156
     7  H   1.0    0.09    1.02    1.43    18.82383    68.55848     6.07082
     8  H   1.0    0.06    1.05    1.44    20.25702    73.66058     6.09556
     9  H   1.0    0.05    1.01    1.43    14.98974    71.38204     6.42844
    10  H   1.0    0.06    1.02    1.43    15.62081    74.71871     6.12964
    11  H   1.0    0.12    1.03    1.43    16.78011    70.93356     2.64746
    12  N   5.0   -0.15    3.44    2.04    17.68446    72.03831    11.54593
    13  C   4.0    0.04    4.35    4.30    17.26527    73.13918    14.05044
    14  C   4.0    0.09    3.26    3.05    19.68795    74.27380    15.12789
    15  O   6.0   -0.31    1.20    1.80    19.68824    76.30117    16.25822
    16  C   4.0   -0.05    4.27    4.15    16.30912    71.18489    15.91004
    17  C   4.0   -0.04    4.22    4.03    13.69910    70.14552    15.27878
    18  C   4.0   -0.00    4.25    4.10    11.58184    72.06719    15.32341
    19  N   5.0   -0.13    3.44    2.04     9.35452    70.87356    14.34109
    20  C   4.0    0.10    3.36    3.07     7.59634    69.81234    15.78249
    21  N   5.0   -0.17    3.25    1.97     7.84934    69.81004    18.29973
    22  N   5.0   -0.17    3.23    1.96     5.63794    68.72657    14.64044
    23  H   1.0    0.08    1.06    1.44    17.36997    70.16968    11.29416
    24  H   1.0    0.06    1.06    1.44    15.92431    74.70049    13.84556
    25  H   1.0    0.05    1.03    1.43    17.66593    69.63379    15.96926
    26  H   1.0    0.06    1.03    1.43    16.22859    72.07038    17.77074
    27  H   1.0    0.05    1.03    1.43    13.74563    69.26928    13.41375
    28  H   1.0    0.05    1.03    1.43    13.26262    68.68309    16.66137
    29  H   1.0    0.05    1.03    1.43    11.29685    72.82642    17.21384
    30  H   1.0    0.05    1.03    1.43    12.00892    73.66133    14.08180
    31  H   1.0    0.08    1.06    1.44     9.21346    70.79298    12.42841
    32  H   1.0    0.09    1.03    1.43     9.22293    70.80022    19.19791
    33  H   1.0    0.10    1.04    1.43     6.28121    69.40309    19.30373
    34  H   1.0    0.10    1.03    1.43     5.36494    68.95194    12.75208
    35  H   1.0    0.10    1.03    1.43     4.14087    68.28239    15.74921
    36  N   5.0   -0.20    3.23    1.96    24.90546    75.59629    11.63636
    37  C   4.0    0.03    4.26    4.12    25.95514    77.45376     9.82216
    38  C   4.0    0.15    3.41    3.08    24.59827    79.99594    10.17622
    39  O   6.0   -0.30    1.28    1.80    25.71124    82.04068    10.27943
    40  C   4.0   -0.03    4.28    4.17    25.49661    76.32445     7.18746
    41  C   4.0   -0.03    4.13    3.87    27.02342    77.48995     5.07714
    42  C   4.0    0.26    3.08    3.02    26.67937    75.92085     2.53251
    43  O   6.0   -0.29    1.23    1.80    24.65038    74.74216     2.22510
    44  O   6.0   -0.27    1.16    1.80    28.44843    76.00991     1.00276
    45  H   1.0    0.09    1.03    1.43    24.19733    73.97712    10.89884
    46  H   1.0    0.05    1.04    1.43    27.97212    77.73541    10.19200
    47  H   1.0    0.06    1.04    1.43    25.95608    74.31271     7.28287
    48  H   1.0    0.06    1.03    1.43    23.48909    76.48696     6.73568
    49  H   1.0    0.06    1.02    1.43    26.40802    79.41887     4.68001
    50  H   1.0    0.06    1.02    1.43    29.03915    77.50889     5.48979
    51  N   5.0   -0.13    3.56    2.12    22.07086    79.91319    10.46615
    52  C   4.0    0.05    4.50    4.54    20.71630    82.30234    10.66125
    53  C   4.0    0.16    3.45    3.10    21.29011    83.71407    13.05673
    54  O   6.0   -0.31    1.25    1.80    21.04484    86.02995    13.25445
    55  C   4.0   -0.02    4.36    4.31    17.92784    81.64929    10.60959
    56  C   4.0    0.17    3.23    3.04    17.11007    81.06785     7.87295
    57  O   6.0   -0.30    1.28    1.80    18.51662    81.35815     6.05999
    58  N   5.0   -0.17    3.19    1.95    14.79022    80.14353     7.67667
    59  H   1.0    0.12    1.11    1.45    21.08545    78.29547    10.18106
    60  H   1.0    0.07    1.06    1.44    21.18889    83.50428     9.03606
    61  H   1.0    0.07    1.03    1.43    17.55620    79.98874    11.76349
    62  H   1.0    0.05    1.03    1.43    16.78305    83.22000    11.29883
    63  H   1.0    0.11    1.03    1.43    14.10698    79.67580     5.96352
    64  H   1.0    0.10    1.05    1.44    13.76065    79.69932     9.23032
    65  N   5.0   -0.13    3.52    2.09    22.02819    82.20255    14.98524
    66  C   4.0    0.04    4.40    4.37    22.52925    83.27707    17.51142
    67  C   4.0    0.16    3.40    3.08    24.92155    84.93353    17.47222
    68  O   6.0   -0.28    1.21    1.80    25.24108    86.59871    19.06471
    69  C   4.0   -0.04    4.23    4.06    22.79739    81.16448    19.45623
    70  C   4.0   -0.04    4.16    3.91    22.85477    82.17728    22.23088
    71  C   4.0   -0.00    4.17    3.94    20.19684    82.75704    23.22740
    72  N   5.0   -0.13    3.39    2.02    20.36506    83.94376    25.69847
    73  C   4.0    0.10    3.34    3.06    19.72555    83.04036    27.96240
    74  N   5.0   -0.17    3.25    1.97    18.47103    80.89246    28.24074
    75  N   5.0   -0.17    3.24    1.97    20.38026    84.31653    30.04319
    76  H   1.0    0.10    1.08    1.44    22.02627    80.30833    14.80098
    77  H   1.0    0.07    1.06    1.44    20.93937    84.51043    17.98637
    78  H   1.0    0.06    1.03    1.43    21.21560    79.86226    19.23404
    79  H   1.0    0.05    1.03    1.43    24.54583    80.14365    19.06712
    80  H   1.0    0.05    1.02    1.43    23.74188    80.75965    23.42482
    81  H   1.0    0.07    1.03    1.43    23.99807    83.88801    22.27656
    82  H   1.0    0.05    1.03    1.43    19.23861    84.06330    21.94680
    83  H   1.0    0.05    1.02    1.43    19.07331    81.03470    23.33583
    84  H   1.0    0.09    1.07    1.44    21.29254    85.62933    25.68822
    85  H   1.0    0.09    1.03    1.43    17.42277    80.21384    26.80053
    86  H   1.0    0.10    1.04    1.43    17.95749    80.44089    30.03692
    87  H   1.0    0.10    1.03    1.43    21.27924    85.98363    29.90489
    88  H   1.0    0.10    1.03    1.43    19.67118    83.72045    31.73237
    89  N   5.0   -0.14    3.36    2.01    26.60130    84.27400    15.71253
    90  C   4.0    0.03    4.14    3.87    29.06286    85.50942    15.46232
    91  C   4.0    0.09    3.10    3.02    31.34477    83.96782    16.25623
    92  O   6.0   -0.25    1.11    1.80    33.47033    84.90397    16.32692
    93  H   1.0    0.10    1.09    1.44    26.12430    82.99630    14.37863
    94  H   1.0    0.07    1.02    1.43    29.36230    86.11188    13.50958
    95  H   1.0    0.08    1.04    1.43    29.00279    87.20703    16.64249
    96  O   6.0   -0.33    2.06    1.83    15.38955    78.96541    16.75935
    97  H   1.0    0.16    1.03    1.43    17.01630    78.12132    16.58467
    98  H   1.0    0.16    1.02    1.43    15.75288    80.76700    16.97028
    99  O   6.0   -0.29    1.95    1.82    19.99519    77.13210     2.40997
   100  H   1.0    0.16    1.01    1.43    21.67478    76.39731     2.27356
   101  H   1.0    0.15    0.98    1.43    20.07201    78.43633     3.68580
   102  O   6.0   -0.29    1.93    1.82    23.02598    82.97953     3.69758
   103  H   1.0    0.15    1.00    1.43    23.09850    81.96641     2.18063
   104  H   1.0    0.16    1.00    1.43    21.35141    82.71730     4.38390
   105  O   6.0   -0.30    1.99    1.83    20.82044    88.39797     8.43693
   106  H   1.0    0.14    0.97    1.43    19.36627    89.39993     8.03196
   107  H   1.0    0.15    1.00    1.43    20.64212    87.82564    10.17568
   108  O   6.0   -0.31    1.96    1.82    12.28459    78.84339    12.75444
   109  H   1.0    0.15    1.03    1.43    13.39818    78.81009    14.24678
   110  H   1.0    0.13    0.97    1.43    11.52775    80.49068    12.75841
   111  O   6.0   -0.28    1.92    1.82     6.65658    78.02523    12.31217
   112  H   1.0    0.14    0.99    1.43     8.41251    77.94727    12.80278
   113  H   1.0    0.15    0.97    1.43     5.71115    78.56907    13.76190
   114  O   6.0   -0.30    1.97    1.82    12.43664    86.75256     4.18756
   115  H   1.0    0.16    0.99    1.43    12.68861    88.37748     3.38280
   116  H   1.0    0.15    0.97    1.43    12.65460    85.53187     2.86297
   117  O   6.0   -0.27    1.93    1.82     7.72075    84.89631     5.30592
   118  H   1.0    0.15    1.01    1.43     9.33183    85.77176     5.27717
   119  H   1.0    0.15    1.00    1.43     6.87267    85.33821     6.86292
   120  O   6.0   -0.28    1.92    1.82    25.93928    91.84468     3.46836
   121  H   1.0    0.15    0.97    1.43    24.30001    92.59076     3.22574
   122  H   1.0    0.15    0.98    1.43    25.85585    90.08772     3.00586
   123  O   6.0   -0.29    1.94    1.82    13.05660    91.25200     0.90799
   124  H   1.0    0.14    0.97    1.43    14.05736    92.75784     1.11794
   125  H   1.0    0.14    0.97    1.43    11.70322    91.78896    -0.19491
   126  O   6.0   -0.28    1.93    1.82    18.70013    81.47712    -0.90799
   127  H   1.0    0.16    1.00    1.43    20.50461    81.59088    -1.11794
   128  H   1.0    0.15    0.99    1.43    18.48846    80.03658     0.19491
   129  O   6.0   -0.30    1.99    1.82    25.74062    87.51187     8.99464
   130  H   1.0    0.16    1.02    1.43    24.10671    87.87918     8.26187
   131  H   1.0    0.16    0.99    1.43    25.76373    85.72477     9.33940
   132  O   6.0   -0.29    1.95    1.82     4.14584    85.52220     9.22882
   133  H   1.0    0.14    0.96    1.43     2.91100    86.82342     8.83152
   134  H   1.0    0.15    0.97    1.43     3.39472    83.93944     8.75444
   135  O   6.0   -0.28    1.92    1.82    13.22204    76.87154    21.12149
   136  H   1.0    0.15    0.98    1.43    11.85171    78.02956    21.41436
   137  H   1.0    0.15    1.01    1.43    13.99151    77.43087    19.54629
   138  O   6.0   -0.27    1.93    1.82    28.50212    86.92133     4.14225
   139  H   1.0    0.14    0.97    1.43    27.39744    85.48057     4.10853
   140  H   1.0    0.15    0.98    1.43    28.34204    87.58542     5.84951
   141  N   5.0   -0.19    3.10    1.94    29.73507    83.45230    -2.11878
   142  C   4.0    0.02    4.05    3.72    28.01083    82.16713    -0.44317
   143  C   4.0    0.10    3.12    3.03    26.06424    80.52831    -1.84972
   144  O   6.0   -0.30    1.18    1.80    23.93389    80.28216    -0.92597
   145  H   1.0    0.10    1.02    1.43    31.56726    82.91556    -2.09773
   146  H   1.0    0.06    1.03    1.43    29.05726    80.91544     0.81836
   147  H   1.0    0.07    1.03    1.43    26.93030    83.55280     0.63673
   148  N   5.0   -0.15    3.39    2.02    18.49927    71.95938    -3.87643
   149  C   4.0    0.04    4.31    4.22    16.59268    72.16750    -5.90181
   150  C   4.0    0.09    3.18    3.03    17.20110    70.65337    -8.25984
   151  O   6.0   -0.25    1.11    1.80    15.48351    69.62224    -9.46143
   152  C   4.0   -0.03    4.31    4.21    16.61877    75.04645    -6.47324
   153  C   4.0   -0.03    4.24    4.08    17.58997    76.31760    -4.09112
   154  C   4.0    0.00    4.26    4.12    19.26717    74.41078    -2.74283
   155  H   1.0    0.06    1.04    1.44    14.76437    71.54219    -5.16633
   156  H   1.0    0.06    1.03    1.43    17.91521    75.39884    -8.03676
   157  H   1.0    0.06    1.02    1.43    14.75309    75.72670    -6.99342
   158  H   1.0    0.06    1.02    1.43    18.59762    78.05535    -4.51620
   159  H   1.0    0.06    1.03    1.43    16.00814    76.80400    -2.86514
   160  H   1.0    0.07    1.02    1.43    21.26896    74.73734    -3.09828
   161  H   1.0    0.07    1.03    1.43    18.93738    74.40100    -0.71460
   162  N   5.0   -0.20    3.19    1.95    24.34872   101.74824     4.84625
   163  C   4.0    0.04    4.22    4.04    24.06683    98.98963     4.68360
   164  C   4.0    0.09    3.18    3.03    21.75353    98.09349     3.21735
   165  O   6.0   -0.28    1.13    1.80    21.21366    95.82261     3.14368
   166  C   4.0   -0.03    4.27    4.15    24.07493    97.94475     7.39881
   167  C   4.0   -0.04    4.20    4.00    26.82172    97.98396     8.36912
   168  C   4.0   -0.00    4.19    3.98    26.97412    97.22801    11.16927
   169  N   5.0   -0.13    3.40    2.02    26.37173    94.54164    11.35363
   170  C   4.0    0.11    3.33    3.06    25.10538    93.48675    13.27283
   171  N   5.0   -0.17    3.26    1.97    24.35827    94.82663    15.28122
   172  N   5.0   -0.16    3.25    1.97    24.51857    91.04850    13.12364
   173  H   1.0    0.09    1.03    1.43    23.75900   102.57964     6.46399
   174  H   1.0    0.06    1.06    1.44    25.69470    98.25423     3.63234
   175  H   1.0    0.05    1.03    1.43    22.87340    99.12156     8.57904
   176  H   1.0    0.07    1.03    1.43    23.34738    96.02329     7.37428
   177  H   1.0    0.06    1.03    1.43    27.96460    96.70449     7.23491
   178  H   1.0    0.05    1.03    1.43    27.55782    99.89468     8.16716
   179  H   1.0    0.05    1.02    1.43    28.87593    97.59393    11.89510
   180  H   1.0    0.05    1.03    1.43    25.62338    98.34307    12.24587
   181  H   1.0    0.09    1.06    1.44    27.16966    93.38434    10.03479
   182  H   1.0    0.09    1.02    1.43    24.95843    96.60734    15.65084
   183  H   1.0    0.13    1.08    1.44    23.27703    93.91000    16.56211
   184  H   1.0    0.11    1.05    1.44    25.06237    89.96212    11.63448
   185  H   1.0    0.13    1.05    1.44    23.47317    90.27224    14.51868
   186  N   5.0   -0.20    3.23    1.96    12.54963    85.26393    22.90008
   187  C   4.0    0.04    4.34    4.26    12.97659    84.16149    20.43095
   188  C   4.0    0.14    3.42    3.09    15.19623    85.28185    18.98911
   189  O   6.0   -0.32    1.30    1.80    16.29716    83.98722    17.36909
   190  C   4.0   -0.03    4.31    4.22    10.61162    84.52783    18.80570
   191  C   4.0    0.25    3.12    3.03     8.40490    82.87488    19.64399
   192  O   6.0   -0.28    1.19    1.80     8.80318    81.00509    21.03266
   193  O   6.0   -0.26    1.18    1.80     6.31848    83.47629    18.74675
   194  H   1.0    0.09    1.03    1.43    11.35250    86.75556    22.98797
   195  H   1.0    0.06    1.06    1.44    13.31434    82.13411    20.69780
   196  H   1.0    0.05    1.03    1.43    10.00498    86.49786    18.86329
   197  H   1.0    0.06    1.03    1.43    11.02164    84.05075    16.83809
   198  N   5.0   -0.14    3.43    2.04    15.80603    87.67467    19.51636
   199  C   4.0    0.04    4.34    4.26    17.48491    89.07052    17.84073
   200  C   4.0    0.09    3.18    3.03    19.76929    90.33956    19.12296
   201  O   6.0   -0.29    1.21    1.80    21.38223    91.29874    17.75800
   202  C   4.0   -0.03    4.33    4.25    15.95572    91.18888    16.48784
   203  C   4.0   -0.01    3.56    3.14    14.03351    90.12599    14.70539
   204  C   4.0   -0.03    3.46    3.10    14.64969    88.27618    12.91800
   205  C   4.0   -0.03    3.50    3.11    11.55231    90.92514    14.83938
   206  C   4.0   -0.03    3.39    3.08    12.74822    87.29737    11.41193
   207  C   4.0   -0.03    3.37    3.07     9.68207    90.00330    13.28351
   208  C   4.0   -0.02    3.38    3.07    10.28677    88.15610    11.54580
   209  H   1.0    0.08    1.07    1.44    14.55591    88.71298    20.53803
   210  H   1.0    0.08    1.07    1.44    18.24307    87.75423    16.44065
   211  H   1.0    0.05    1.03    1.43    15.00944    92.32383    17.92195
   212  H   1.0    0.06    1.03    1.43    17.29995    92.35822    15.44610
   213  H   1.0    0.07    1.03    1.43    16.56302    87.60069    12.72260
   214  H   1.0    0.06    1.03    1.43    11.07442    92.32681    16.24487
   215  H   1.0    0.06    1.03    1.43    13.21506    85.87266    10.01838
   216  H   1.0    0.07    1.03    1.43     7.76801    90.68997    13.42870
   217  H   1.0    0.07    1.03    1.43     8.86465    87.36235    10.32221
   218  H   1.0    0.10    1.07    1.44    21.33000    69.77189     6.73040
   219  H   1.0    0.06    1.05    1.44    21.33088    73.36310    14.92186
   220  H   1.0    0.10    1.07    1.44    26.12185    75.11404    12.72280
   221  H   1.0    0.07    1.05    1.44    31.13774    82.15169    16.73570
   222  H   1.0    0.11    1.07    1.44    11.89437    84.08912    23.94075
   223  H   1.0    0.06    1.04    1.43    19.90221    90.36305    21.00786
   224  H   1.0    0.11    1.08    1.44    29.22887    83.23740    -3.72817
   225  H   1.0    0.07    1.04    1.43    26.53476    79.68907    -3.47618
   226  H   1.0    0.10    1.16    1.46    17.77447    71.31724    -2.47826
   227  H   1.0    0.07    1.04    1.43    18.99151    70.48965    -8.84180
   228  H   1.0    0.10    1.07    1.44    25.99097   102.16138     4.68851
   229  H   1.0    0.07    1.04    1.43    20.66644    99.34521     2.31044

  Z AO/shell   Hii/eV     exponent
  1     Wed Apr 25 08:07:45 CEST 2018   EN: 2.200 GM2: 0.406  GM3: 0.0800  RAES: 1.40
     1s    -10.707211    1.230000
  6     Wed Apr 25 08:07:45 CEST 2018   EN: 2.550 GM2: 0.538  GM3: 0.1500  RAES: 3.00
     2s    -13.970922    2.096432
     2p    -10.063292    1.800000
  7     Wed Apr 25 08:07:45 CEST 2018   EN: 3.040 GM2: 0.461  GM3:-0.0640  RAES: 1.90
     2s    -16.686243    2.339881
     2p    -12.523956    2.014332
  8     Wed Apr 25 08:07:45 CEST 2018   EN: 3.440 GM2: 0.452  GM3:-0.0517  RAES: 1.80
     2s    -20.229985    2.439742
     2p    -15.503117    2.137023
 no old-style atom pair restraining (fixing) potential

molecular fragmentation (1/2 indicates fragments):
111111111111111111111111111111111112222222222222222222222222222222222222
222222222222222222222222222222222222222222222222222222222222222222222222
222222222222222222222222222222222222222222222222222222222222222222222222
2112222222222
# atoms in fragment 1/2:    37   192
 fragment masses (1/2) :      246.29     1309.38
CMA distance (Bohr)    :  13.182
constraining FC (au)   :  0.0500
           ------------------------------------------------- 
          |        Self-Consistent Charge Iterations        |
           ------------------------------------------------- 

 Ncao       : 544
 Nao        : 544
 Nshell     : 334
 Nel        : 628
 T(el)      :   500.0
 intcut     :    35.0
 scfconv/Eh :  0.100E-06
   qconv/e  :  0.100E-04
 intneglect :  0.100E-08
 broydamp   :      0.400
 iter      E             dE          RMSdq      gap      omega  full diag
   1   -368.7488995 -0.368749E+03  0.521E+00    3.40       0.0  T
   2   -369.6479405 -0.899041E+00  0.247E+00    1.83       1.0  T
   3   -369.7152689 -0.673283E-01  0.129E+00    1.86       1.0  T
   4   -369.7920913 -0.768224E-01  0.328E-01    1.34       1.0  T
   5   -369.7945662 -0.247490E-02  0.137E-01    1.54       1.0  T
   6   -369.7957489 -0.118272E-02  0.523E-02    1.49       1.0  T
   7   -369.7958475 -0.986202E-04  0.280E-02    1.48       1.0  T
   8   -369.7958684 -0.208547E-04  0.114E-02    1.48       1.0  T
   9   -369.7958790 -0.106238E-04  0.484E-03    1.48       1.4  T
  10   -369.7958801 -0.112416E-05  0.208E-03    1.48       3.2  T
  11   -369.7958803 -0.172035E-06  0.895E-04    1.48       7.4  T
  12   -369.7958803 -0.373605E-07  0.366E-04    1.48      18.0  T
  13   -369.7958804 -0.657212E-08  0.186E-04    1.48      35.5  T
  14   -369.7958804 -0.135020E-08  0.679E-05    1.48      97.3  T
  15   -369.7958804 -0.281375E-09  0.301E-05    1.48     219.9  T
speedup  1.87
cpu  time for SCC    4.08 s
wall time for SCC    2.18 s

   *** convergence criteria satisfied after 15 iterations ***

          eigenvalues
 #    :         302        303        304        305        306        307        308        309
 occ. :        2.000      2.000      2.000      2.000      2.000      2.000      2.000      2.000
 eps  :       -10.771    -10.741    -10.731    -10.512    -10.465    -10.398    -10.332    -10.229
 #    :         310        311        312        313        314        315        316        317
 occ. :        2.000      2.000      2.000      2.000      2.000      0.000      0.000      0.000
 eps  :       -10.220     -9.885     -9.842     -9.779     -9.696     -8.213     -8.075     -7.923
 #    :         318        319        320        321        322        323        324        325
 occ. :        0.000      0.000      0.000      0.000      0.000      0.000      0.000      0.000
 eps  :        -7.833     -7.721     -7.600     -6.398     -6.391     -6.326     -6.238     -6.161


   #   Z            q   n(s)   n(p)   n(d)      C6AA      α(0)
   1   7 N     -0.390  1.303  4.087  0.000    30.099     8.148
   2   6 C      0.022  1.057  2.921  0.000    20.220     6.405
   3   6 C      0.258  1.049  2.693  0.000    22.657     7.796
   4   8 O     -0.498  1.737  4.761  0.000    23.747     6.534
   5   6 C      0.078  1.036  2.885  0.000    19.458     6.314
   6   8 O     -0.467  1.727  4.740  0.000    22.187     6.359
   7   1 H      0.166  0.834  0.000  0.000     1.297     1.784
   8   1 H      0.042  0.958  0.000  0.000     2.417     2.431
   9   1 H      0.048  0.952  0.000  0.000     2.339     2.392
  10   1 H      0.057  0.943  0.000  0.000     2.231     2.336
  11   1 H      0.319  0.681  0.000  0.000     0.666     1.282
  12   7 N     -0.157  1.239  3.918  0.000    24.405     7.337
  13   6 C      0.012  1.061  2.927  0.000    20.375     6.427
  14   6 C      0.202  1.091  2.706  0.000    23.694     7.972
  15   8 O     -0.348  1.739  4.609  0.000    20.679     6.097
  16   6 C     -0.088  1.053  3.035  0.000    22.160     6.701
  17   6 C     -0.094  1.054  3.040  0.000    22.286     6.720
  18   6 C     -0.035  1.047  2.988  0.000    21.268     6.579
  19   7 N     -0.135  1.208  3.926  0.000    23.921     7.264
  20   6 C      0.231  1.019  2.750  0.000    23.160     7.880
  21   7 N     -0.250  1.239  4.010  0.000    26.500     7.646
  22   7 N     -0.261  1.249  4.012  0.000    26.762     7.683
  23   1 H      0.233  0.767  0.000  0.000     0.951     1.528
  24   1 H      0.115  0.885  0.000  0.000     1.657     2.013
  25   1 H      0.084  0.916  0.000  0.000     1.942     2.179
  26   1 H      0.094  0.906  0.000  0.000     1.842     2.122
  27   1 H      0.072  0.928  0.000  0.000     2.060     2.245
  28   1 H      0.092  0.908  0.000  0.000     1.861     2.134
  29   1 H      0.093  0.907  0.000  0.000     1.848     2.126
  30   1 H      0.091  0.909  0.000  0.000     1.866     2.136
  31   1 H      0.234  0.766  0.000  0.000     0.946     1.524
  32   1 H      0.251  0.749  0.000  0.000     0.881     1.470
  33   1 H      0.243  0.757  0.000  0.000     0.910     1.494
  34   1 H      0.251  0.749  0.000  0.000     0.880     1.469
  35   1 H      0.250  0.750  0.000  0.000     0.885     1.474
  36   7 N     -0.392  1.315  4.077  0.000    30.150     8.155
  37   6 C      0.026  1.067  2.907  0.000    20.159     6.396
  38   6 C      0.265  1.054  2.681  0.000    22.531     7.773
  39   8 O     -0.507  1.741  4.766  0.000    23.936     6.560
  40   6 C     -0.039  1.050  2.989  0.000    21.264     6.564
  41   6 C     -0.098  1.064  3.035  0.000    22.381     6.737
  42   6 C      0.367  1.031  2.602  0.000    20.780     7.460
  43   8 O     -0.633  1.768  4.865  0.000    26.957     6.961
  44   8 O     -0.642  1.773  4.869  0.000    27.168     6.988
  45   1 H      0.147  0.853  0.000  0.000     1.419     1.866
  46   1 H      0.036  0.964  0.000  0.000     2.508     2.477
  47   1 H      0.023  0.977  0.000  0.000     2.684     2.562
  48   1 H      0.038  0.962  0.000  0.000     2.475     2.460
  49   1 H      0.027  0.973  0.000  0.000     2.626     2.534
  50   1 H      0.014  0.986  0.000  0.000     2.834     2.633
  51   7 N     -0.184  1.257  3.928  0.000    24.991     7.425
  52   6 C      0.031  1.050  2.919  0.000    20.045     6.373
  53   6 C      0.272  1.043  2.685  0.000    22.411     7.752
  54   8 O     -0.471  1.735  4.736  0.000    23.150     6.451
  55   6 C     -0.113  1.064  3.049  0.000    22.642     6.772
  56   6 C      0.296  1.034  2.670  0.000    21.982     7.677
  57   8 O     -0.513  1.750  4.763  0.000    24.070     6.578
  58   7 N     -0.273  1.260  4.012  0.000    27.053     7.725
  59   1 H      0.235  0.765  0.000  0.000     0.944     1.522
  60   1 H      0.096  0.904  0.000  0.000     1.821     2.110
  61   1 H      0.106  0.894  0.000  0.000     1.731     2.057
  62   1 H      0.091  0.909  0.000  0.000     1.868     2.137
  63   1 H      0.215  0.785  0.000  0.000     1.031     1.590
  64   1 H      0.244  0.756  0.000  0.000     0.907     1.492
  65   7 N     -0.179  1.248  3.931  0.000    24.876     7.408
  66   6 C      0.005  1.070  2.925  0.000    20.499     6.448
  67   6 C      0.269  1.042  2.689  0.000    22.454     7.759
  68   8 O     -0.468  1.741  4.727  0.000    23.088     6.442
  69   6 C     -0.088  1.060  3.028  0.000    22.179     6.705
  70   6 C     -0.092  1.059  3.033  0.000    22.247     6.716
  71   6 C     -0.025  1.054  2.971  0.000    21.102     6.556
  72   7 N     -0.136  1.209  3.927  0.000    23.955     7.269
  73   6 C      0.230  1.019  2.751  0.000    23.161     7.879
  74   7 N     -0.248  1.243  4.005  0.000    26.462     7.640
  75   7 N     -0.262  1.243  4.019  0.000    26.795     7.688
  76   1 H      0.210  0.790  0.000  0.000     1.057     1.610
  77   1 H      0.097  0.903  0.000  0.000     1.809     2.103
  78   1 H      0.089  0.911  0.000  0.000     1.885     2.147
  79   1 H      0.063  0.937  0.000  0.000     2.169     2.303
  80   1 H      0.081  0.919  0.000  0.000     1.965     2.192
  81   1 H      0.080  0.920  0.000  0.000     1.977     2.199
  82   1 H      0.075  0.925  0.000  0.000     2.027     2.226
  83   1 H      0.090  0.910  0.000  0.000     1.884     2.146
  84   1 H      0.232  0.768  0.000  0.000     0.955     1.531
  85   1 H      0.246  0.754  0.000  0.000     0.900     1.486
  86   1 H      0.250  0.750  0.000  0.000     0.883     1.472
  87   1 H      0.251  0.749  0.000  0.000     0.878     1.468
  88   1 H      0.253  0.747  0.000  0.000     0.871     1.462
  89   7 N     -0.160  1.230  3.930  0.000    24.470     7.347
  90   6 C     -0.041  1.051  2.990  0.000    21.387     6.599
  91   6 C      0.203  1.080  2.718  0.000    23.690     7.971
  92   8 O     -0.381  1.765  4.617  0.000    21.313     6.190
  93   1 H      0.199  0.801  0.000  0.000     1.110     1.650
  94   1 H      0.122  0.878  0.000  0.000     1.597     1.977
  95   1 H      0.142  0.858  0.000  0.000     1.447     1.881
  96   8 O     -0.656  1.762  4.895  0.000    26.579     6.958
  97   1 H      0.331  0.669  0.000  0.000     0.635     1.252
  98   1 H      0.323  0.677  0.000  0.000     0.657     1.273
  99   8 O     -0.616  1.748  4.868  0.000    25.569     6.825
 100   1 H      0.295  0.705  0.000  0.000     0.736     1.348
 101   1 H      0.297  0.703  0.000  0.000     0.731     1.343
 102   8 O     -0.645  1.751  4.895  0.000    26.301     6.922
 103   1 H      0.291  0.709  0.000  0.000     0.750     1.360
 104   1 H      0.318  0.682  0.000  0.000     0.670     1.286
 105   8 O     -0.650  1.762  4.888  0.000    26.409     6.936
 106   1 H      0.326  0.674  0.000  0.000     0.648     1.265
 107   1 H      0.325  0.675  0.000  0.000     0.651     1.268
 108   8 O     -0.638  1.755  4.883  0.000    26.119     6.898
 109   1 H      0.333  0.667  0.000  0.000     0.630     1.247
 110   1 H      0.285  0.715  0.000  0.000     0.769     1.377
 111   8 O     -0.646  1.763  4.883  0.000    26.325     6.925
 112   1 H      0.321  0.679  0.000  0.000     0.662     1.278
 113   1 H      0.314  0.686  0.000  0.000     0.679     1.294
 114   8 O     -0.631  1.757  4.874  0.000    25.949     6.875
 115   1 H      0.330  0.670  0.000  0.000     0.638     1.255
 116   1 H      0.320  0.680  0.000  0.000     0.664     1.280
 117   8 O     -0.672  1.769  4.903  0.000    26.988     7.012
 118   1 H      0.314  0.686  0.000  0.000     0.679     1.294
 119   1 H      0.305  0.695  0.000  0.000     0.705     1.319
 120   8 O     -0.629  1.748  4.881  0.000    25.884     6.867
 121   1 H      0.307  0.693  0.000  0.000     0.699     1.313
 122   1 H      0.311  0.689  0.000  0.000     0.690     1.305
 123   8 O     -0.659  1.776  4.883  0.000    26.654     6.968
 124   1 H      0.337  0.663  0.000  0.000     0.620     1.237
 125   1 H      0.335  0.665  0.000  0.000     0.626     1.243
 126   8 O     -0.633  1.756  4.878  0.000    26.001     6.882
 127   1 H      0.303  0.697  0.000  0.000     0.711     1.324
 128   1 H      0.312  0.688  0.000  0.000     0.686     1.301
 129   8 O     -0.625  1.737  4.888  0.000    25.794     6.855
 130   1 H      0.328  0.672  0.000  0.000     0.643     1.259
 131   1 H      0.299  0.701  0.000  0.000     0.725     1.337
 132   8 O     -0.645  1.772  4.873  0.000    26.289     6.920
 133   1 H      0.335  0.665  0.000  0.000     0.623     1.240
 134   1 H      0.332  0.668  0.000  0.000     0.631     1.248
 135   8 O     -0.645  1.755  4.890  0.000    26.278     6.919
 136   1 H      0.294  0.706  0.000  0.000     0.740     1.351
 137   1 H      0.317  0.683  0.000  0.000     0.672     1.288
 138   8 O     -0.629  1.766  4.863  0.000    25.889     6.867
 139   1 H      0.288  0.712  0.000  0.000     0.759     1.368
 140   1 H      0.335  0.665  0.000  0.000     0.625     1.242
 141   7 N     -0.373  1.314  4.059  0.000    29.627     8.084
 142   6 C     -0.008  1.046  2.962  0.000    20.816     6.513
 143   6 C      0.200  1.093  2.707  0.000    23.747     7.980
 144   8 O     -0.399  1.753  4.645  0.000    21.661     6.240
 145   1 H      0.175  0.825  0.000  0.000     1.244     1.747
 146   1 H      0.084  0.916  0.000  0.000     1.941     2.179
 147   1 H      0.102  0.898  0.000  0.000     1.768     2.080
 148   7 N     -0.321  1.347  3.973  0.000    28.244     7.893
 149   6 C      0.033  1.065  2.902  0.000    20.030     6.374
 150   6 C      0.202  1.090  2.708  0.000    23.703     7.973
 151   8 O     -0.389  1.762  4.627  0.000    21.467     6.212
 152   6 C     -0.054  1.058  2.996  0.000    21.533     6.604
 153   6 C     -0.060  1.049  3.012  0.000    21.644     6.621
 154   6 C      0.007  1.050  2.943  0.000    20.533     6.464
 155   1 H      0.050  0.950  0.000  0.000     2.319     2.381
 156   1 H      0.040  0.960  0.000  0.000     2.452     2.449
 157   1 H      0.052  0.948  0.000  0.000     2.292     2.367
 158   1 H      0.047  0.953  0.000  0.000     2.354     2.399
 159   1 H      0.048  0.952  0.000  0.000     2.347     2.396
 160   1 H      0.022  0.978  0.000  0.000     2.710     2.574
 161   1 H      0.061  0.939  0.000  0.000     2.189     2.314
 162   7 N     -0.402  1.323  4.079  0.000    30.420     8.191
 163   6 C      0.031  1.060  2.909  0.000    20.062     6.380
 164   6 C      0.196  1.093  2.711  0.000    23.821     7.993
 165   8 O     -0.393  1.762  4.631  0.000    21.548     6.224
 166   6 C     -0.078  1.060  3.018  0.000    21.986     6.675
 167   6 C     -0.081  1.057  3.024  0.000    22.040     6.683
 168   6 C     -0.026  1.055  2.971  0.000    21.118     6.558
 169   7 N     -0.147  1.214  3.933  0.000    24.176     7.303
 170   6 C      0.227  1.023  2.750  0.000    23.219     7.889
 171   7 N     -0.262  1.233  4.029  0.000    26.798     7.688
 172   7 N     -0.250  1.236  4.014  0.000    26.506     7.646
 173   1 H      0.171  0.829  0.000  0.000     1.266     1.762
 174   1 H      0.082  0.918  0.000  0.000     1.955     2.187
 175   1 H      0.062  0.938  0.000  0.000     2.171     2.304
 176   1 H      0.069  0.931  0.000  0.000     2.093     2.262
 177   1 H      0.064  0.936  0.000  0.000     2.151     2.294
 178   1 H      0.063  0.937  0.000  0.000     2.168     2.302
 179   1 H      0.078  0.922  0.000  0.000     2.005     2.214
 180   1 H      0.088  0.912  0.000  0.000     1.902     2.157
 181   1 H      0.221  0.779  0.000  0.000     1.004     1.570
 182   1 H      0.239  0.761  0.000  0.000     0.928     1.509
 183   1 H      0.261  0.739  0.000  0.000     0.844     1.439
 184   1 H      0.242  0.758  0.000  0.000     0.913     1.497
 185   1 H      0.238  0.762  0.000  0.000     0.933     1.513
 186   7 N     -0.380  1.297  4.083  0.000    29.814     8.109
 187   6 C      0.031  1.056  2.913  0.000    20.066     6.380
 188   6 C      0.258  1.053  2.689  0.000    22.653     7.794
 189   8 O     -0.494  1.746  4.748  0.000    23.654     6.521
 190   6 C     -0.082  1.068  3.014  0.000    22.057     6.685
 191   6 C      0.374  1.018  2.608  0.000    20.664     7.439
 192   8 O     -0.636  1.762  4.875  0.000    27.031     6.971
 193   8 O     -0.660  1.783  4.878  0.000    27.650     7.050
 194   1 H      0.144  0.856  0.000  0.000     1.439     1.879
 195   1 H      0.074  0.926  0.000  0.000     2.040     2.234
 196   1 H      0.015  0.985  0.000  0.000     2.812     2.622
 197   1 H      0.022  0.978  0.000  0.000     2.700     2.570
 198   7 N     -0.161  1.247  3.913  0.000    24.483     7.349
 199   6 C      0.010  1.067  2.923  0.000    20.416     6.435
 200   6 C      0.192  1.093  2.715  0.000    23.890     8.005
 201   8 O     -0.342  1.735  4.606  0.000    20.550     6.078
 202   6 C     -0.081  1.061  3.020  0.000    22.046     6.683
 203   6 C      0.010  1.077  2.913  0.000    27.797     8.648
 204   6 C     -0.047  1.083  2.965  0.000    29.172     8.857
 205   6 C     -0.044  1.077  2.966  0.000    29.091     8.846
 206   6 C     -0.035  1.079  2.956  0.000    28.880     8.813
 207   6 C     -0.031  1.078  2.953  0.000    28.785     8.798
 208   6 C     -0.035  1.081  2.954  0.000    28.862     8.810
 209   1 H      0.214  0.786  0.000  0.000     1.038     1.596
 210   1 H      0.127  0.873  0.000  0.000     1.555     1.950
 211   1 H      0.066  0.934  0.000  0.000     2.130     2.282
 212   1 H      0.096  0.904  0.000  0.000     1.821     2.110
 213   1 H      0.056  0.944  0.000  0.000     2.241     2.341
 214   1 H      0.032  0.968  0.000  0.000     2.555     2.499
 215   1 H      0.033  0.967  0.000  0.000     2.541     2.493
 216   1 H      0.024  0.976  0.000  0.000     2.680     2.560
 217   1 H      0.036  0.964  0.000  0.000     2.505     2.475
 218   1 H      0.167  0.833  0.000  0.000     1.293     1.781
 219   1 H      0.088  0.912  0.000  0.000     1.900     2.155
 220   1 H      0.193  0.807  0.000  0.000     1.143     1.674
 221   1 H      0.080  0.920  0.000  0.000     1.975     2.198
 222   1 H      0.183  0.817  0.000  0.000     1.199     1.715
 223   1 H      0.104  0.896  0.000  0.000     1.747     2.067
 224   1 H      0.183  0.817  0.000  0.000     1.196     1.713
 225   1 H      0.063  0.937  0.000  0.000     2.163     2.300
 226   1 H      0.186  0.814  0.000  0.000     1.181     1.702
 227   1 H      0.074  0.926  0.000  0.000     2.042     2.234
 228   1 H      0.181  0.819  0.000  0.000     1.209     1.722
 229   1 H      0.074  0.926  0.000  0.000     2.041     2.234

 Mol. C6AA /au·bohr⁶  :     434159.088997
 Mol. C8AA /au·bohr⁸  :    9317140.524327
 Mol. α(0) /au        :        980.140123

 
molecular dipole:
                 x           y           z       tot (Debye)
 q only:       14.369      85.039      40.078
   full:       13.404      83.957      39.133     237.897
molecular quadrupole (traceless):
                xx          xy          yy          xz          yz          zz
 q only:    -4059.880    2151.240    7015.926    1187.796    4825.978   -2956.045
  q+dip:    -3978.668    1950.854    6857.749    1118.411    4715.935   -2879.080
   full:    -3980.992    1949.928    6858.522    1119.478    4712.129   -2877.530
speedup  1.89
cpu  time for grad    4.92 s
wall time for grad    2.60 s

SCC energy    :    -369.8068649
rep           :       4.0748013
ES            :       1.6174226
AES           :      -0.1421713
AXC           :       0.1065824
disp          :      -0.2418659
XB            :       0.0000000
fix           :       0.0000000
Gborn         :       0.0000000
Gsasa         :       0.0000000
Ghb           :       0.0000000
Gshift        :       0.0000000
Gsolv         :      -0.4231633     -265.54
Etot ala COSMO:    -369.8068649
grad norm     :       0.5659837
total E       :    -365.7131905
atomizationE  :      58.8820210    36949.03
(atE without considering molecular charge,
 total energy contains solvation terms)
H-L gap (eV)  :          1.4832

------------------------------------------------------------------------
 * finished run on 2019/05/05 at 17:07:08.039     
------------------------------------------------------------------------
 total:
 * wall-time:     0 d,  0 h,  0 min,  3.033 sec
 *  cpu-time:     0 d,  0 h,  0 min,  5.613 sec
 * ratio c/w:     1.851 speedup
 SCF:
 * wall-time:     0 d,  0 h,  0 min,  2.879 sec
 *  cpu-time:     0 d,  0 h,  0 min,  5.473 sec
 * ratio c/w:     1.901 speedup

