      -----------------------------------------------------------      
     |                   =====================                   |     
     |                           x T B                           |     
     |                   =====================                   |     
     |                         S. Grimme                         |     
     |          Mulliken Center for Theoretical Chemistry        |     
     |                    University of Bonn                     |     
     |                 Version 6.0.1 (SAW181210)                 |     
      -----------------------------------------------------------      

   This program is distributed in the hope that it will be useful,
   but WITHOUT ANY WARRANTY; without even the implied warranty of
   MERCHANTABILITY or FITNESS FOR A PARTICULAR PURPOSE.
   
   FOR NON-COMMERCIAL, ACADEMIA USE ONLY.
   
   Cite this work as:
   S. Grimme, C. Bannwarth, P. Shushkov, J. Comput. Theory Chem., 2017,
   13, 1989-2009.
   C. Bannwarth, S. Ehlert and S. Grimme., ChemRxiv, 2018, preprint.
   http://doi.org/10.26434/chemrxiv.7246238.v1
   
   for sTDA-xTB:
   S. Grimme and C. Bannwarth, J. Chem. Phys., 2016, 145, 054103.
   
   in the mass-spec context:
   V. Asgeirsson, C. Bauer and S. Grimme, Chem. Sci., 2017, 8, 4879.
   
   if GBSA is used:
   P. Shushkov, F. März and S. Grimme, unpublished.
   
   for ANC optimizer:
   S. Grimme, unpublished.
   Rational Function algorithm used in ANCopt:
   F. Eckert, P. Pulay, H.-J. Werner, J. Comput. Chem., 1997, 18, 1473.
   
   with help from (in alphabetical order)
   C. Bannwarth, F. Bohle, G. Brandenburg, E. Caldeweyher, M. Checinski,
   S. Dohm, S. Ehlert, S. Ehrlich, F. März, H. Neugebauer, J. Pisarek,
   P. Pracht, P. Shushkov, and S. Spicher.
   
 * started run on 2019/05/12 at 07:57:11.632     
========================================================================
 # omp threads = 2
========================================================================
number of atoms            : 612
number of electrons        : 1626
charge                     : 0
spin                       : .0
first test random number   : .2216

########################################################################
# WARNING! Please study the warnings concerning your input carefully
#  - Process number higher than OMP_NUM_THREADS, I hope you know what you are doing.
########################################################################

           ------------------------------------------------- 
          |                 G F N 2 - x T B                 |
          | Geometry, Frequencies, Noncovalent interactions |
          |            JCTC 2018 parametrisation            |
           ------------------------------------------------- 
 
      method parameters     
 k(s)        :  1.8500
 k(p)        :  2.2300
 k(d)        :  2.2300
 k(f)        :  2.0000
 kEN (H0ij)  : -2.0000
 D4 a1       :  0.5200
 D4 a2       :  5.0000
 D4 s6       :  1.0000
 D4 s8       :  2.7000
 D4 s9       :  5.0000
 alphaj      :  2.0000

 Solvent             : h2o
 Using internal parameter file: .param_gbsa2_h2o
 Gsolv ref. state (COSMO-RS): gsolv [1 M gas/solution]
 temperature (mdtemp)       :    298.150000000000     
 dielectric constant        :    80.2000000000000     
 rho                        :    1.00000000000000     
 mass                       :    18.0000000000000     
 surface tension            :    15.5689454083859     
 probe radius               :   0.975313790000000     
 vdW radii scaling          :    1.00000000000000     
 Gshift (Eh)                :   1.857443126794793E-003
 c1                         :    1.55243817000000     
 soset                      :   0.130326360000000     
 HB correction              :  T

            Z     q(EN)     CN     RAES       Cart. coordinates
     1  N   5.0   -0.19    3.14    1.94    26.24974    49.06459    -2.84142
     2  C   4.0    0.04    4.33    4.25    28.02977    51.19435    -3.39653
     3  C   4.0    0.16    3.41    3.08    28.34843    51.83340    -6.19553
     4  O   6.0   -0.30    1.26    1.80    28.27302    50.23072    -7.64962
     5  C   4.0   -0.04    4.27    4.13    30.68671    50.62959    -2.18000
     6  C   4.0   -0.04    4.26    4.11    32.25958    52.89041    -1.53199
     7  C   4.0   -0.04    4.24    4.07    34.98756    52.27079    -1.33172
     8  C   4.0   -0.03    4.21    4.02    36.55354    54.60357    -1.92282
     9  N   5.0   -0.10    4.05    3.01    38.18592    55.34146    -0.01150
    10  H   1.0    0.10    1.04    1.43    26.90820    47.51182    -3.65492
    11  H   1.0    0.06    1.07    1.44    27.47587    52.97371    -2.49677
    12  H   1.0    0.06    1.02    1.43    30.40885    49.53264    -0.43112
    13  H   1.0    0.05    1.04    1.43    31.72838    49.51837    -3.56983
    14  H   1.0    0.05    1.07    1.44    32.07374    54.18891    -3.08775
    15  H   1.0    0.07    1.07    1.44    31.70187    53.53533     0.26983
    16  H   1.0    0.07    1.05    1.44    35.53237    51.70862     0.54820
    17  H   1.0    0.04    1.01    1.43    35.54840    50.84391    -2.81298
    18  H   1.0    0.04    1.02    1.43    37.57391    54.14668    -3.69161
    19  H   1.0    0.04    1.03    1.43    35.15235    56.09754    -2.43076
    20  H   1.0    0.05    1.02    1.43    39.13009    57.02831    -0.54758
    21  H   1.0    0.09    1.07    1.44    37.10179    55.99228     1.48667
    22  H   1.0    0.07    1.00    1.43    39.61085    53.92582     0.33696
    23  N   5.0   -0.14    3.45    2.05    28.65504    54.32553    -6.42766
    24  C   4.0    0.04    4.26    4.13    28.38893    55.21496    -8.99106
    25  C   4.0    0.05    3.08    3.02    30.44714    57.55285    -9.56985
    26  O   6.0   -0.30    1.12    1.80    30.87375    58.88282    -7.45174
    27  C   4.0   -0.05    4.37    4.32    25.89692    56.17990    -9.76193
    28  C   4.0   -0.03    4.20    4.00    24.94270    57.00497   -12.40963
    29  C   4.0   -0.07    4.06    3.72    24.27415    54.62319   -13.91641
    30  C   4.0   -0.08    4.06    3.73    22.91928    58.99445   -12.21928
    31  H   1.0    0.11    1.08    1.44    29.03160    55.81607    -5.29723
    32  H   1.0    0.05    1.04    1.43    29.07116    53.96522   -10.56783
    33  H   1.0    0.05    1.07    1.44    24.54242    54.80726    -9.22434
    34  H   1.0    0.05    1.06    1.44    25.67028    58.00256    -8.78914
    35  H   1.0    0.04    1.07    1.44    26.55229    57.82534   -13.36501
    36  H   1.0    0.04    0.98    1.43    23.59567    55.37221   -15.77774
    37  H   1.0    0.05    1.00    1.43    25.87473    53.37572   -13.99313
    38  H   1.0    0.05    0.99    1.43    22.60091    53.89216   -12.85418
    39  H   1.0    0.04    0.98    1.43    22.37020    59.44971   -14.22610
    40  H   1.0    0.04    1.00    1.43    21.32361    58.08737   -11.25103
    41  H   1.0    0.04    1.00    1.43    23.65963    60.66003   -11.25643
    42  N   5.0   -0.18    3.30    1.98    32.63354    64.06361   -13.64204
    43  C   4.0    0.02    4.11    3.83    31.96026    66.07355   -15.42099
    44  C   4.0    0.10    3.35    3.07    33.37442    67.44380   -16.99939
    45  O   6.0   -0.31    1.31    1.80    35.32891    67.88297   -16.69888
    46  C   4.0   -0.04    4.12    3.84    30.85205    68.91056   -13.58978
    47  C   4.0   -0.04    4.30    4.19    29.24810    67.67949   -11.79582
    48  C   4.0   -0.07    4.09    3.78    29.44268    70.57567   -15.39177
    49  C   4.0   -0.08    3.96    3.55    26.65544    66.69888   -12.35838
    50  H   1.0    0.15    1.60    1.70    33.41255    64.97642   -12.12032
    51  H   1.0    0.03    1.04    1.43    30.11798    65.59588   -16.34825
    52  H   1.0    0.06    1.10    1.44    32.50227    69.56755   -13.07333
    53  H   1.0    0.06    1.10    1.44    30.00651    66.28135   -10.61893
    54  H   1.0    0.04    1.03    1.43    28.89375    69.29887   -10.41627
    55  H   1.0    0.04    1.02    1.43    28.60754    72.08167   -14.43572
    56  H   1.0    0.05    1.03    1.43    30.48139    71.08635   -16.97162
    57  H   1.0    0.04    0.90    1.42    27.72597    69.38744   -16.31713
    58  H   1.0    0.03    0.94    1.42    25.47571    66.26062   -10.56058
    59  H   1.0    0.03    0.93    1.42    25.54341    68.41640   -13.27077
    60  H   1.0    0.04    1.04    1.43    26.79222    65.35134   -13.66183
    61  N   5.0   -0.22    3.41    2.03    10.62622    69.89067    -6.77273
    62  C   4.0    0.06    4.38    4.35    10.52411    67.95884    -6.12853
    63  C   4.0    0.14    3.13    3.03     7.86200    66.90681    -4.72397
    64  O   6.0   -0.32    1.33    1.80     7.01247    68.15895    -4.12352
    65  C   4.0   -0.03    4.24    4.09    12.47974    67.44816    -3.73937
    66  C   4.0   -0.06    4.16    3.93    15.00006    67.12289    -4.82705
    67  C   4.0   -0.11    3.64    3.19    12.55155    64.73505    -1.83004
    68  C   4.0   -0.09    3.96    3.56    17.09521    68.99852    -3.50953
    69  H   1.0    0.10    1.18    1.46    10.67588    71.18278    -5.71509
    70  H   1.0    0.03    0.99    1.43    11.39995    66.22019    -7.27288
    71  H   1.0    0.04    1.09    1.44    12.54139    68.81585    -2.43224
    72  H   1.0    0.03    0.92    1.42    16.12536    65.15667    -4.72957
    73  H   1.0    0.04    1.07    1.44    15.22475    67.86026    -6.65790
    74  H   1.0    0.05    1.04    1.43    13.43912    64.54774    -0.86033
    75  H   1.0    0.04    0.88    1.42    10.23430    64.86583    -1.43005
    76  H   1.0    0.04    0.82    1.41    12.03867    63.27559    -3.64965
    77  H   1.0    0.03    1.00    1.43    18.89505    68.74289    -4.32606
    78  H   1.0    0.04    1.04    1.43    16.37324    70.70803    -3.57931
    79  H   1.0    0.04    0.97    1.43    17.06234    68.24842    -1.49549
    80  N   5.0   -0.20    3.18    1.95    18.81931    56.14864    17.54067
    81  C   4.0    0.03    4.36    4.30    20.09942    58.49356    16.70918
    82  C   4.0    0.17    3.40    3.08    20.52891    58.74243    13.94480
    83  O   6.0   -0.32    1.34    1.80    21.45026    57.19621    12.87634
    84  C   4.0   -0.04    4.27    4.14    22.62162    58.69230    18.20990
    85  C   4.0   -0.05    4.16    3.92    22.38121    59.27500    21.12689
    86  C   4.0   -0.02    4.14    3.89    24.84545    59.07875    22.47470
    87  N   5.0   -0.14    3.41    2.03    26.13375    56.62335    21.48675
    88  C   4.0    0.09    3.32    3.06    25.77604    54.36633    22.75388
    89  N   5.0   -0.19    3.24    1.96    24.03667    54.18976    24.41525
    90  N   5.0   -0.18    3.22    1.96    27.16093    52.47549    21.71874
    91  H   1.0    0.12    1.05    1.44    19.68617    54.67324    16.70599
    92  H   1.0    0.05    1.09    1.44    19.01247    60.11309    17.21545
    93  H   1.0    0.06    1.04    1.43    23.71073    56.94986    18.05140
    94  H   1.0    0.05    1.01    1.43    23.76244    60.28864    17.46165
    95  H   1.0    0.04    1.04    1.43    21.72745    61.19075    21.25822
    96  H   1.0    0.04    1.05    1.44    21.23959    57.76218    21.87504
    97  H   1.0    0.04    0.98    1.43    26.11719    60.71290    21.90213
    98  H   1.0    0.04    1.03    1.43    24.67514    58.87436    24.48522
    99  H   1.0    0.08    1.04    1.43    27.69900    56.87613    20.34793
   100  H   1.0    0.08    1.04    1.43    23.10153    55.73947    25.11283
   101  H   1.0    0.08    1.04    1.43    23.77385    52.42158    25.14853
   102  H   1.0    0.08    1.02    1.43    28.51354    52.76994    20.40592
   103  H   1.0    0.09    1.03    1.43    26.81403    50.74160    22.52764
   104  N   5.0   -0.14    3.48    2.06    19.80904    61.00227    13.00942
   105  C   4.0    0.04    4.43    4.43    20.58570    61.59046    10.38450
   106  C   4.0    0.15    3.39    3.08    22.78142    63.31780    10.30889
   107  O   6.0   -0.33    1.39    1.80    23.08434    65.42249    11.38322
   108  C   4.0   -0.05    4.33    4.26    18.31988    62.85442     9.01361
   109  C   4.0   -0.03    4.20    4.00    18.63681    63.25330     6.12973
   110  C   4.0   -0.08    4.05    3.70    18.84643    60.76240     4.71248
   111  C   4.0   -0.08    4.05    3.71    16.66952    65.07321     4.99854
   112  H   1.0    0.11    1.09    1.44    18.70583    62.40063    13.73152
   113  H   1.0    0.06    1.07    1.44    20.79533    59.89934     9.14662
   114  H   1.0    0.04    1.03    1.43    16.57672    61.83178     9.22269
   115  H   1.0    0.05    1.02    1.43    18.06452    64.77122     9.85644
   116  H   1.0    0.04    1.07    1.44    20.34966    64.39474     5.90073
   117  H   1.0    0.04    1.00    1.43    19.12801    61.31257     2.73633
   118  H   1.0    0.06    1.01    1.43    20.48751    59.79836     5.66161
   119  H   1.0    0.04    1.00    1.43    17.01485    59.85227     5.12845
   120  H   1.0    0.03    1.00    1.43    17.06532    65.32140     2.99943
   121  H   1.0    0.04    0.99    1.43    14.85102    64.11092     5.37651
   122  H   1.0    0.04    0.97    1.43    16.77183    66.92149     6.07217
   123  N   5.0   -0.13    3.44    2.04    24.60522    62.38240     8.79706
   124  C   4.0    0.03    4.39    4.37    27.06598    63.90094     8.36987
   125  C   4.0    0.15    3.47    3.10    27.32764    65.13916     5.90613
   126  O   6.0   -0.33    1.32    1.80    26.70085    64.22790     3.88415
   127  C   4.0   -0.02    4.28    4.15    29.35841    62.12703     8.84957
   128  C   4.0   -0.01    3.50    3.12    29.73202    61.44401    11.64985
   129  C   4.0   -0.03    3.52    3.13    29.01751    59.11542    12.69130
   130  C   4.0   -0.03    3.47    3.10    30.55267    63.27413    13.42658
   131  C   4.0   -0.05    3.42    3.09    29.23661    58.46257    15.15469
   132  C   4.0   -0.05    3.43    3.09    30.79940    62.69172    15.95206
   133  C   4.0    0.06    3.51    3.12    30.15349    60.27957    16.67603
   134  O   6.0   -0.25    1.95    1.82    31.22466    59.52666    19.06721
   135  H   1.0    0.13    1.21    1.47    24.70171    60.83318     7.62140
   136  H   1.0    0.07    1.06    1.44    27.05171    65.34116     9.91696
   137  H   1.0    0.06    1.05    1.44    28.93891    60.37596     7.95776
   138  H   1.0    0.07    1.05    1.44    31.01940    63.14939     8.30854
   139  H   1.0    0.05    1.03    1.43    28.30550    57.69931    11.34684
   140  H   1.0    0.07    1.04    1.43    31.06050    65.20772    12.73128
   141  H   1.0    0.05    1.05    1.44    28.83814    56.65379    15.80733
   142  H   1.0    0.05    1.03    1.43    31.67011    64.08093    17.17327
   143  H   1.0    0.09    0.88    1.42    31.29128    61.24327    20.23812
   144  N   5.0   -0.14    3.60    2.16    28.23792    67.49268     6.12327
   145  C   4.0    0.04    4.50    4.54    29.22040    68.49238     3.86904
   146  C   4.0    0.15    3.53    3.13    31.92359    68.45296     3.96624
   147  O   6.0   -0.31    1.32    1.80    33.09397    70.10301     5.14817
   148  C   4.0   -0.05    4.29    4.18    28.28428    71.34060     3.62448
   149  C   4.0   -0.04    4.18    3.95    29.53208    72.78165     1.33663
   150  C   4.0   -0.05    4.21    4.02    28.94600    75.46104     1.14277
   151  C   4.0   -0.03    4.15    3.91    30.89319    77.12718    -0.06578
   152  N   5.0   -0.11    3.92    2.66    30.15894    79.83491    -0.28462
   153  H   1.0    0.11    1.12    1.45    28.09526    68.79978     7.47793
   154  H   1.0    0.05    1.07    1.44    28.44795    67.62561     2.09887
   155  H   1.0    0.03    1.03    1.43    26.26687    71.47590     3.17742
   156  H   1.0    0.05    1.05    1.44    28.86581    72.51433     5.14731
   157  H   1.0    0.06    1.03    1.43    31.60326    72.66648     1.33629
   158  H   1.0    0.04    1.01    1.43    28.78526    71.97944    -0.48814
   159  H   1.0    0.04    1.03    1.43    27.23884    75.79798    -0.03083
   160  H   1.0    0.04    1.04    1.43    28.56387    76.21530     3.01888
   161  H   1.0    0.05    1.03    1.43    32.57224    77.03742     1.15130
   162  H   1.0    0.07    1.05    1.44    31.30631    76.44840    -1.91638
   163  H   1.0    0.06    0.97    1.43    31.70228    80.96489    -1.05204
   164  H   1.0    0.06    0.99    1.43    28.45920    79.93275    -1.38271
   165  H   1.0    0.05    0.99    1.43    29.71730    80.51196     1.59695
   166  N   5.0   -0.13    3.47    2.06    33.18229    66.73067     2.53059
   167  C   4.0    0.04    4.46    4.49    35.81474    66.02897     3.03345
   168  C   4.0    0.17    3.32    3.06    36.22332    64.85279     5.60172
   169  O   6.0   -0.32    1.33    1.80    35.21425    63.31455     6.37379
   170  C   4.0   -0.03    4.40    4.38    37.47931    68.40588     2.58702
   171  C   4.0    0.17    3.19    3.03    37.72177    69.17915    -0.18619
   172  O   6.0   -0.32    1.39    1.80    37.80991    67.72365    -1.76394
   173  N   5.0   -0.17    3.13    1.94    37.33838    71.74911    -0.79609
   174  H   1.0    0.11    1.10    1.44    32.49197    65.69524     1.20785
   175  H   1.0    0.06    1.10    1.44    36.16826    64.68403     1.65150
   176  H   1.0    0.06    1.03    1.43    36.58470    70.09839     3.52616
   177  H   1.0    0.04    1.05    1.44    39.31331    68.20147     3.40934
   178  H   1.0    0.11    0.99    1.43    37.45266    72.21619    -2.77168
   179  H   1.0    0.09    1.04    1.43    37.04477    72.87554     0.62819
   180  N   5.0   -0.14    3.50    2.08    37.75557    66.62852     7.04439
   181  C   4.0    0.03    4.41    4.40    38.37527    65.77387     9.79241
   182  C   4.0    0.19    3.32    3.06    36.82478    67.06562    11.87564
   183  O   6.0   -0.33    1.33    1.80    36.86889    66.66601    13.66939
   184  C   4.0   -0.04    4.33    4.26    41.05157    66.41864    10.21400
   185  C   4.0   -0.05    4.20    3.99    43.02902    64.47965     9.36680
   186  C   4.0   -0.05    4.19    3.99    45.63369    64.91566    10.46011
   187  C   4.0   -0.04    4.14    3.88    47.73288    63.83234     8.92762
   188  N   5.0   -0.10    3.92    2.67    50.11034    65.20994     9.27515
   189  H   1.0    0.07    1.04    1.43    38.46959    68.43102     6.65410
   190  H   1.0    0.05    1.10    1.44    38.31749    63.81936     9.89581
   191  H   1.0    0.05    1.04    1.43    41.66367    68.10122     9.15624
   192  H   1.0    0.05    1.04    1.43    41.47392    66.68275    12.24099
   193  H   1.0    0.04    1.02    1.43    42.39678    62.60303    10.01950
   194  H   1.0    0.04    1.04    1.43    43.31503    64.51367     7.34358
   195  H   1.0    0.04    1.04    1.43    45.99011    66.92304    10.72609
   196  H   1.0    0.05    1.01    1.43    45.72046    63.94119    12.33984
   197  H   1.0    0.05    1.02    1.43    48.12246    61.89430     9.60041
   198  H   1.0    0.04    1.05    1.44    47.26945    63.89398     6.98738
   199  H   1.0    0.06    0.96    1.43    51.70746    64.45121     8.17864
   200  H   1.0    0.05    0.97    1.43    49.97493    67.21117     8.77190
   201  H   1.0    0.06    0.97    1.43    50.76463    65.25662    11.24714
   202  N   5.0   -0.12    3.48    2.06    34.97593    68.68973    10.64232
   203  C   4.0    0.04    4.53    4.58    33.38830    70.26257    12.31676
   204  C   4.0    0.15    3.52    3.12    30.80462    69.32789    12.49801
   205  O   6.0   -0.31    1.37    1.80    29.78692    68.95248    10.47315
   206  C   4.0   -0.02    4.32    4.24    33.64311    73.17507    11.74444
   207  C   4.0    0.22    3.25    3.04    35.31940    74.49355    12.60382
   208  O   6.0   -0.25    1.30    1.80    36.55489    74.44121    14.66691
   209  O   6.0   -0.24    1.30    1.80    36.77232    76.00686    11.27422
   210  H   1.0    0.11    1.07    1.44    34.90041    69.39819     8.86095
   211  H   1.0    0.06    1.10    1.44    34.05988    70.06680    14.25817
   212  H   1.0    0.06    1.07    1.44    33.54404    73.16509     9.66845
   213  H   1.0    0.05    1.07    1.44    31.78343    73.92336    12.38937
   214  N   5.0   -0.15    3.43    2.04    30.02551    68.93505    14.86590
   215  C   4.0    0.04    4.49    4.53    27.29031    68.52834    15.04039
   216  C   4.0    0.18    3.44    3.09    25.62154    70.71386    14.35433
   217  O   6.0   -0.32    1.37    1.80    25.98835    72.49428    15.09098
   218  C   4.0   -0.05    4.35    4.29    26.42940    67.86696    17.89858
   219  C   4.0   -0.03    4.04    3.69    23.79681    66.96131    18.47430
   220  S   6.0   -0.02    2.58    3.10    21.93820    68.89781    20.48875
   221  C   4.0   -0.05    3.84    3.38    22.13300    71.45922    19.14830
   222  H   1.0    0.08    1.06    1.44    30.79517    68.87145    16.60137
   223  H   1.0    0.05    1.09    1.44    26.81551    66.77537    14.21217
   224  H   1.0    0.04    0.99    1.43    27.78632    66.39624    18.66259
   225  H   1.0    0.05    1.07    1.44    26.64070    69.54052    19.08616
   226  H   1.0    0.06    1.08    1.44    23.09426    67.01808    16.46417
   227  H   1.0    0.04    1.02    1.43    24.19220    64.89711    18.94602
   228  H   1.0    0.04    0.99    1.43    21.05213    73.10042    20.25591
   229  H   1.0    0.06    1.01    1.43    24.06064    72.45974    18.86853
   230  H   1.0    0.06    1.04    1.43    21.16734    71.64833    17.21191
   231  N   5.0   -0.15    3.59    2.15    23.85017    70.01512    12.52609
   232  C   4.0    0.04    4.59    4.65    22.04335    72.00766    11.80787
   233  C   4.0    0.16    3.45    3.10    19.38324    71.61590    12.76993
   234  O   6.0   -0.31    1.27    1.80    17.90208    73.08824    12.59824
   235  C   4.0   -0.02    4.38    4.34    22.13329    72.31638     8.89859
   236  C   4.0   -0.04    4.28    4.16    21.09660    69.89331     7.72227
   237  C   4.0   -0.07    4.09    3.78    24.76939    72.85613     7.81390
   238  C   4.0   -0.08    3.99    3.60    20.59219    70.02190     4.96859
   239  H   1.0    0.12    1.15    1.45    23.69140    68.33005    11.49147
   240  H   1.0    0.06    1.09    1.44    22.73626    73.83657    12.37222
   241  H   1.0    0.05    1.07    1.44    20.88953    73.79055     8.29644
   242  H   1.0    0.05    1.04    1.43    22.50961    68.39498     7.91677
   243  H   1.0    0.05    1.05    1.44    19.31326    69.35878     8.55845
   244  H   1.0    0.03    0.99    1.43    24.63215    72.98021     5.69438
   245  H   1.0    0.05    0.99    1.43    25.27740    74.66264     8.77088
   246  H   1.0    0.06    1.00    1.43    25.96623    71.26534     8.46173
   247  H   1.0    0.03    0.97    1.43    19.81265    68.14142     4.24341
   248  H   1.0    0.04    0.99    1.43    19.17022    71.54015     4.64049
   249  H   1.0    0.04    0.98    1.43    22.40707    70.57168     4.01413
   250  N   5.0   -0.15    3.58    2.14    19.33464    69.30434    13.85448
   251  C   4.0    0.04    4.51    4.55    16.89022    68.53215    14.76074
   252  C   4.0    0.16    3.38    3.07    16.93585    66.34323    16.62964
   253  O   6.0   -0.33    1.33    1.80    18.25996    64.73875    16.29072
   254  C   4.0   -0.03    4.29    4.18    14.98177    67.94483    12.66089
   255  C   4.0   -0.03    4.22    4.04    12.19112    68.12023    13.25719
   256  C   4.0    0.15    3.17    3.03    10.47641    66.40212    11.62689
   257  O   6.0   -0.32    1.25    1.80    10.90124    66.52958     9.43948
   258  N   5.0   -0.18    3.09    1.94     8.57154    65.10886    12.87176
   259  H   1.0    0.10    1.11    1.45    20.45224    67.84039    14.05997
   260  H   1.0    0.05    1.10    1.44    16.07188    69.94695    15.98983
   261  H   1.0    0.06    1.04    1.44    15.15070    69.34840    11.16234
   262  H   1.0    0.05    1.06    1.44    15.16309    66.02254    12.02925
   263  H   1.0    0.05    1.03    1.43    11.90313    67.52275    15.23045
   264  H   1.0    0.05    1.02    1.43    11.50671    70.07981    13.09136
   265  H   1.0    0.09    1.00    1.43     8.40837    65.30326    14.84797
   266  H   1.0    0.08    1.01    1.43     7.45263    63.96107    11.73798
   267  N   5.0   -0.14    3.40    2.02    15.22982    66.67323    18.64009
   268  C   4.0    0.03    4.33    4.25    15.12272    64.70513    20.72961
   269  C   4.0    0.06    3.40    3.08    12.38217    63.79630    20.87958
   270  O   6.0   -0.29    1.12    1.80    10.41274    65.09500    20.76294
   271  C   4.0    0.05    4.19    3.98    15.73355    65.85286    23.14169
   272  O   6.0   -0.25    2.02    1.83    18.31816    64.89533    23.98396
   273  C   4.0   -0.07    4.12    3.84    13.95156    64.68782    25.25993
   274  H   1.0    0.08    1.03    1.43    13.90111    68.06284    18.97657
   275  H   1.0    0.05    1.04    1.43    16.30666    63.08031    20.11907
   276  H   1.0    0.05    1.07    1.44    15.36857    67.78321    23.17865
   277  H   1.0    0.11    0.99    1.43    18.25151    63.30745    24.94901
   278  H   1.0    0.05    0.98    1.43    14.29570    65.49641    27.13640
   279  H   1.0    0.06    1.01    1.43    11.94050    65.11637    24.63491
   280  H   1.0    0.04    0.97    1.43    13.99703    62.54731    25.22943
   281  N   5.0   -0.18    3.34    2.00     3.47011    62.00740     6.79609
   282  C   4.0    0.03    4.45    4.46     6.03194    62.90157     6.68165
   283  C   4.0    0.16    3.58    3.15     6.43199    64.40783     4.22464
   284  O   6.0   -0.30    1.34    1.80     5.01628    64.13699     2.70645
   285  C   4.0   -0.03    4.33    4.26     7.87504    60.74074     6.51082
   286  C   4.0   -0.08    4.13    3.87     6.62397    58.36156     7.58121
   287  C   4.0   -0.07    4.15    3.90     8.82630    60.37766     3.73314
   288  H   1.0    0.09    1.05    1.44     3.08979    60.76054     5.42051
   289  H   1.0    0.05    1.04    1.43     6.60408    64.09491     8.31400
   290  H   1.0    0.04    1.04    1.43     9.56293    61.10978     7.68655
   291  H   1.0    0.04    0.98    1.43     8.07159    56.81856     7.41896
   292  H   1.0    0.04    0.99    1.43     6.20343    58.75423     9.59105
   293  H   1.0    0.04    1.01    1.43     4.95046    58.06363     6.33068
   294  H   1.0    0.03    0.97    1.43    10.17460    58.72921     3.84008
   295  H   1.0    0.05    1.00    1.43     7.14271    59.91501     2.63546
   296  H   1.0    0.04    1.01    1.43     9.82906    62.14670     3.22952
   297  N   5.0   -0.12    3.24    1.97     8.14875    66.49815     4.39653
   298  C   4.0    0.00    4.03    3.67     8.67286    67.45707     1.77975
   299  C   4.0    0.12    2.94    3.01     9.04184    70.71091     2.29524
   300  O   6.0   -0.31    1.18    1.80     9.49861    71.70279     3.81451
   301  H   1.0    0.11    1.02    1.43     9.10310    66.87820     6.13831
   302  H   1.0    0.04    1.06    1.44    10.64915    67.24086     1.44561
   303  H   1.0    0.07    1.06    1.44     7.28226    67.24852     0.57329
   304  N   5.0   -0.29    3.22    1.96    14.53794    78.65449    -5.69561
   305  C   4.0    0.02    3.47    3.10    16.81729    79.75900    -5.02647
   306  C   4.0    0.19    3.25    3.04    19.33808    80.32071    -8.27551
   307  O   6.0   -0.33    1.28    1.80    18.31243    78.99847    -9.16218
   308  C   4.0   -0.04    3.99    3.61    18.10532    76.71451    -4.06110
   309  C   4.0   -0.02    3.52    3.12    17.94392    77.02550    -1.40003
   310  C   4.0   -0.08    3.45    3.09    19.49139    77.30400     0.69441
   311  C   4.0   -0.06    3.50    3.12    15.72247    75.57791    -0.97456
   312  C   4.0    0.03    4.09    3.79    18.11721    76.75366     3.21945
   313  C   4.0    0.03    4.11    3.82    14.86581    74.94322     2.41283
   314  C   4.0    0.01    3.62    3.18    16.25391    75.63525     3.19919
   315  O   6.0   -0.13    2.98    2.73    16.02403    74.88991     4.91305
   316  H   1.0    0.17    1.19    1.46    14.30556    78.18671    -6.65284
   317  H   1.0    0.05    1.00    1.43    17.59971    81.25970    -3.89973
   318  H   1.0    0.05    1.05    1.44    18.11274    75.60253    -5.30377
   319  H   1.0    0.04    0.70    1.41    20.57359    77.45443    -3.97153
   320  H   1.0    0.05    1.08    1.44    20.94536    78.22646     0.36182
   321  H   1.0    0.04    0.99    1.43    14.31866    74.95454    -2.40752
   322  H   1.0    0.04    0.83    1.42    19.93583    77.23127     4.70719
   323  H   1.0    0.05    0.99    1.43    13.00598    73.93995     1.90985
   324  H   1.0    0.08    0.45    1.40    13.96999    74.19783     6.19434
   325  N   5.0   -0.17    3.49    2.07    20.33364    82.53622    -7.48339
   326  C   4.0    0.06    4.86    4.87    21.64642    82.30263    -9.48352
   327  C   4.0    0.20    3.42    3.08    24.43523    81.86966    -8.51223
   328  O   6.0   -0.33    1.37    1.80    25.55211    81.93277    -7.31324
   329  C   4.0   -0.06    4.05    3.70    22.39934    85.82173    -9.68440
   330  C   4.0    0.01    4.24    4.08    24.37966    86.18842   -11.90230
   331  C   4.0    0.32    2.88    3.01    24.65173    89.58356   -11.63609
   332  O   6.0   -0.28    1.62    1.81    23.17170    89.52217   -12.90675
   333  O   6.0   -0.30    1.30    1.80    26.45033    90.04526   -11.23775
   334  H   1.0    0.08    1.01    1.43    20.31182    83.72606    -5.88150
   335  H   1.0    0.04    1.14    1.45    21.21351    82.27445   -11.18895
   336  H   1.0    0.06    1.00    1.43    20.52231    86.49691   -10.28282
   337  H   1.0    0.06    1.04    1.43    23.03104    86.37369    -7.97716
   338  H   1.0    0.07    1.04    1.43    26.05136    85.39795   -11.34742
   339  H   1.0    0.07    1.07    1.44    23.52660    85.83679   -13.53144
   340  N   5.0   -0.12    3.46    2.05    24.79463    79.70544   -10.46705
   341  C   4.0    0.03    4.13    3.87    27.40856    78.19048    -9.79170
   342  C   4.0    0.09    3.28    3.05    29.11839    78.05565   -11.85630
   343  O   6.0   -0.27    1.19    1.80    28.62354    79.20586   -13.75867
   344  C   4.0   -0.05    4.15    3.90    26.17665    75.20744   -10.12254
   345  C   4.0   -0.02    4.16    3.91    24.10540    74.75269    -7.89094
   346  C   4.0   -0.07    4.17    3.94    22.96717    72.71467    -8.78539
   347  C   4.0   -0.09    4.07    3.74    24.83812    74.05516    -5.12267
   348  H   1.0    0.09    1.03    1.43    24.04992    79.10090   -12.08050
   349  H   1.0    0.06    1.09    1.44    28.02193    78.38674    -8.15386
   350  H   1.0    0.05    1.07    1.44    26.01201    74.50535   -11.60481
   351  H   1.0    0.04    0.84    1.42    27.99130    74.14718    -8.96126
   352  H   1.0    0.05    1.06    1.44    22.96292    76.49638    -7.84209
   353  H   1.0    0.03    0.87    1.42    20.99742    72.30633    -7.58626
   354  H   1.0    0.04    0.90    1.42    21.83265    73.16934   -10.74091
   355  H   1.0    0.03    1.04    1.43    23.58025    71.00356    -9.07645
   356  H   1.0    0.04    1.05    1.44    23.63892    73.88716    -4.04120
   357  H   1.0    0.04    1.02    1.43    26.24570    72.58587    -5.31768
   358  H   1.0    0.04    0.91    1.42    26.23446    75.80721    -4.68004
   359  N   5.0   -0.19    3.30    1.98    39.56241    69.80907   -13.90364
   360  C   4.0    0.01    3.96    3.56    40.95647    69.03166   -12.35164
   361  C   4.0    0.21    3.24    3.04    39.67704    67.87842    -9.86518
   362  O   6.0   -0.31    1.29    1.80    40.19837    66.76563    -8.57785
   363  H   1.0    0.11    1.05    1.44    38.66479    68.63082   -15.26425
   364  H   1.0    0.06    0.58    1.41    41.54805    66.49868   -13.03178
   365  H   1.0    0.06    1.05    1.44    42.66276    69.81847   -11.74555
   366  N   5.0   -0.13    3.39    2.02    37.67484    69.60128    -9.82541
   367  C   4.0    0.02    4.09    3.79    35.60612    69.43335    -7.15580
   368  C   4.0    0.07    2.93    3.01    34.59287    66.74465    -7.53229
   369  O   6.0   -0.26    1.58    1.80    33.34479    64.97361    -9.78575
   370  C   4.0    0.01    4.12    3.84    33.92662    71.62730    -6.51728
   371  C   4.0    0.20    3.18    3.03    34.13332    73.96187    -7.01745
   372  O   6.0   -0.22    1.77    1.81    36.19129    74.08503    -6.59819
   373  O   6.0   -0.29    1.35    1.80    32.23542    75.04200    -5.86225
   374  H   1.0    0.08    1.05    1.44    36.98012    71.14228   -10.79953
   375  H   1.0    0.08    1.19    1.46    36.66739    69.87811    -5.83259
   376  H   1.0    0.03    0.22    1.40    32.93643    71.50838    -9.65760
   377  H   1.0    0.04    1.01    1.43    32.04089    70.51242    -6.50257
   378  N   5.0   -0.16    3.49    2.07    34.57174    65.82131    -4.41453
   379  C   4.0    0.06    4.77    4.82    33.63875    63.40520    -4.68709
   380  C   4.0    0.19    3.62    3.18    31.21150    63.58946    -3.03741
   381  O   6.0   -0.28    1.99    1.82    31.11276    64.84127    -2.33260
   382  C   4.0    0.22    3.78    3.32    35.38116    61.85282    -2.57756
   383  O   6.0   -0.39    2.01    1.83    35.28229    61.60190    -1.44865
   384  C   4.0   -0.09    3.67    3.21    38.35280    60.91366    -4.06876
   385  H   1.0    0.15    1.20    1.47    35.85039    66.07160    -3.70390
   386  H   1.0    0.06    1.10    1.44    32.98572    62.45004    -6.17442
   387  H   1.0    0.06    0.82    1.41    34.43556    59.55148    -3.26930
   388  H   1.0    0.09    0.47    1.40    36.63587    60.53770     0.39700
   389  H   1.0    0.06    1.05    1.44    38.85998    59.87008    -3.48906
   390  H   1.0    0.05    0.78    1.41    37.54971    60.80549    -6.35569
   391  H   1.0    0.07    1.01    1.43    38.68787    63.00249    -4.10216
   392  N   5.0   -0.10    3.74    2.33    29.76690    61.66099    -2.85916
   393  C   4.0    0.02    4.51    4.54    27.39467    61.75937    -1.37294
   394  C   4.0    0.16    3.37    3.07    26.97995    58.97189    -0.36589
   395  O   6.0   -0.33    1.26    1.80    27.23541    57.27536    -1.64783
   396  C   4.0   -0.02    4.32    4.23    25.03897    62.34757    -2.99325
   397  C   4.0   -0.05    4.21    4.02    24.93799    65.27110    -3.30615
   398  C   4.0   -0.07    4.12    3.84    22.56797    61.61233    -1.64750
   399  C   4.0   -0.07    3.98    3.58    24.81193    66.79644    -0.83356
   400  H   1.0    0.10    1.09    1.44    29.81751    59.93898    -3.72725
   401  H   1.0    0.07    1.06    1.44    27.47586    63.08968     0.26568
   402  H   1.0    0.04    1.08    1.44    25.12405    61.56311    -4.79044
   403  H   1.0    0.05    1.02    1.43    26.73584    65.86933    -4.19489
   404  H   1.0    0.03    1.03    1.43    23.31785    65.86931    -4.41180
   405  H   1.0    0.03    0.98    1.43    21.00735    62.20921    -2.95741
   406  H   1.0    0.05    1.00    1.43    22.66866    59.51147    -1.56352
   407  H   1.0    0.04    0.99    1.43    22.40248    62.56774     0.19327
   408  H   1.0    0.03    0.98    1.43    24.84754    68.83089    -1.41160
   409  H   1.0    0.04    1.00    1.43    23.01065    66.17768     0.02544
   410  H   1.0    0.06    0.99    1.43    26.59652    66.24475     0.27687
   411  N   5.0   -0.14    3.35    2.00    26.40665    58.91332     2.24464
   412  C   4.0    0.04    4.67    4.74    26.20862    56.39923     3.66745
   413  C   4.0    0.14    3.42    3.08    24.04287    56.41510     5.42704
   414  O   6.0   -0.34    1.49    1.80    23.88615    58.22125     6.83602
   415  C   4.0   -0.02    4.37    4.33    28.83709    55.91602     4.73549
   416  C   4.0    0.21    3.39    3.08    29.21455    53.58928     4.47091
   417  O   6.0   -0.27    1.28    1.80    27.81914    51.66980     3.59790
   418  O   6.0   -0.26    1.31    1.80    31.26038    52.46551     4.94864
   419  H   1.0    0.10    1.01    1.43    25.45022    60.37778     3.34094
   420  H   1.0    0.06    1.10    1.44    25.46737    55.18263     2.14165
   421  H   1.0    0.06    1.08    1.44    30.05968    57.05763     3.53747
   422  H   1.0    0.05    1.12    1.45    28.50453    56.42881     6.60839
   423  N   5.0   -0.13    3.41    2.03    22.73317    54.23577     5.13259
   424  C   4.0    0.04    4.48    4.50    20.94322    53.54565     7.15912
   425  C   4.0    0.18    3.40    3.08    21.80589    51.26004     8.66675
   426  O   6.0   -0.31    1.32    1.80    22.46106    49.71787     7.67430
   427  C   4.0   -0.05    4.43    4.43    18.30346    52.74384     6.25040
   428  C   4.0   -0.03    4.21    4.03    15.92537    52.90946     7.77267
   429  C   4.0   -0.08    4.05    3.71    15.57605    55.66326     8.79960
   430  C   4.0   -0.08    4.06    3.73    13.56589    51.91825     6.49160
   431  H   1.0    0.08    1.05    1.44    22.14788    53.19951     3.56527
   432  H   1.0    0.05    1.06    1.44    20.23911    55.07719     8.47212
   433  H   1.0    0.04    1.04    1.43    17.75933    54.00994     4.66613
   434  H   1.0    0.05    1.06    1.44    18.31242    50.88472     5.47802
   435  H   1.0    0.04    1.09    1.44    16.24086    51.80501     9.42983
   436  H   1.0    0.04    0.97    1.43    13.87908    55.56444    10.08788
   437  H   1.0    0.05    0.99    1.43    17.31378    56.16641     9.82263
   438  H   1.0    0.03    0.99    1.43    15.14310    56.86060     7.15349
   439  H   1.0    0.04    0.98    1.43    12.01137    52.08158     7.92630
   440  H   1.0    0.04    1.00    1.43    13.22591    53.17101     4.87684
   441  H   1.0    0.04    1.01    1.43    13.94813    49.97645     5.98373
   442  N   5.0   -0.14    3.45    2.05    21.92029    52.09809    11.22706
   443  C   4.0    0.03    4.37    4.32    23.33621    50.54032    13.02991
   444  C   4.0    0.07    3.28    3.05    21.87243    49.86182    15.35335
   445  O   6.0   -0.30    1.18    1.80    21.75297    51.28098    17.18485
   446  C   4.0   -0.01    4.35    4.30    25.71051    51.95699    13.97526
   447  C   4.0   -0.04    4.19    3.99    27.45783    52.66678    11.67696
   448  C   4.0   -0.07    4.07    3.75    27.34167    50.30492    15.87731
   449  C   4.0   -0.06    4.02    3.66    29.12561    50.60879    10.72922
   450  H   1.0    0.10    1.06    1.44    20.71459    53.15160    12.34204
   451  H   1.0    0.05    1.04    1.43    23.89467    48.70877    12.13539
   452  H   1.0    0.06    1.08    1.44    25.19290    53.58743    14.93102
   453  H   1.0    0.06    1.06    1.44    26.12025    53.00720    10.14658
   454  H   1.0    0.04    1.03    1.43    28.55407    54.33023    12.27283
   455  H   1.0    0.04    0.98    1.43    28.92076    51.57746    16.48812
   456  H   1.0    0.06    1.00    1.43    26.05943    49.99533    17.49290
   457  H   1.0    0.04    0.99    1.43    27.95405    48.57132    14.89358
   458  H   1.0    0.07    1.00    1.43    30.24759    51.42869     9.18541
   459  H   1.0    0.04    1.00    1.43    30.35793    50.17803    12.40496
   460  H   1.0    0.06    1.00    1.43    27.94536    48.97226    10.28688
   461  N   5.0   -0.19    3.17    1.95     9.06472    51.21592    -2.19646
   462  C   4.0    0.03    4.18    3.97     9.30895    53.95340    -2.87310
   463  C   4.0    0.07    3.17    3.03     9.93380    54.32435    -5.66676
   464  O   6.0   -0.28    1.16    1.80    11.26771    52.50786    -6.54149
   465  C   4.0   -0.04    4.18    3.97    10.87956    55.28621    -0.83477
   466  C   4.0   -0.02    3.49    3.11    13.81053    55.11867    -0.91975
   467  C   4.0   -0.02    3.43    3.09    15.40202    53.17253     0.11730
   468  C   4.0    0.00    3.64    3.19    15.48284    56.60720    -2.69980
   469  N   5.0   -0.12    3.38    2.01    17.87224    53.53601    -0.70373
   470  C   4.0    0.03    3.73    3.26    17.98002    55.47676    -2.54687
   471  C   4.0   -0.04    3.31    3.06    15.09601    58.25474    -4.84232
   472  C   4.0   -0.05    3.35    3.06    19.91629    56.11135    -4.25742
   473  C   4.0   -0.05    3.27    3.05    16.98740    59.06164    -6.46738
   474  C   4.0   -0.04    3.38    3.07    19.40663    57.85968    -6.07178
   475  H   1.0    0.11    1.05    1.44     9.89651    50.23403    -3.68410
   476  H   1.0    0.04    1.05    1.44     7.35822    54.72053    -2.84078
   477  H   1.0    0.04    1.04    1.43    10.63671    57.32955    -1.06551
   478  H   1.0    0.04    1.06    1.44    10.50256    54.56998     0.97971
   479  H   1.0    0.04    1.02    1.43    14.53825    51.97101     1.47012
   480  H   1.0    0.08    1.05    1.44    19.25406    52.39005    -0.16403
   481  H   1.0    0.05    0.95    1.42    13.00693    58.89331    -5.19785
   482  H   1.0    0.06    1.03    1.43    21.80487    55.51998    -3.84018
   483  H   1.0    0.05    1.03    1.43    16.72320    60.58923    -7.69726
   484  H   1.0    0.04    1.04    1.43    20.99266    58.80190    -6.88523
   485  N   5.0   -0.20    3.24    1.97    52.24688    61.55376    17.34365
   486  C   4.0    0.03    4.32    4.24    50.93689    59.14963    16.75274
   487  C   4.0    0.16    3.53    3.13    50.71921    58.80959    13.80166
   488  O   6.0   -0.31    1.37    1.80    52.10065    59.91616    12.71490
   489  C   4.0    0.02    4.17    3.94    48.42426    59.09824    17.87878
   490  O   6.0   -0.25    2.03    1.83    46.70708    60.84704    16.61285
   491  H   1.0    0.11    1.05    1.44    52.00210    62.83682    16.10961
   492  H   1.0    0.05    1.08    1.44    52.16897    57.76032    17.46980
   493  H   1.0    0.05    1.03    1.43    47.46530    57.33263    17.40485
   494  H   1.0    0.04    1.02    1.43    48.38180    59.48499    19.85751
   495  H   1.0    0.13    0.98    1.43    45.72267    60.29726    15.10236
   496  N   5.0   -0.09    3.88    2.57    49.59697    56.70692    12.83898
   497  C   4.0    0.04    4.60    4.67    48.61800    56.86341    10.73213
   498  C   4.0    0.22    3.57    3.15    45.32761    57.25075    10.78550
   499  O   6.0   -0.30    1.68    1.81    45.00136    57.22102    12.50001
   500  C   4.0    0.06    4.15    3.89    49.13823    54.55868     9.81911
   501  O   6.0   -0.23    1.92    1.82    47.98099    52.45780    10.34698
   502  H   1.0    0.08    1.06    1.44    49.16364    55.20071    14.11860
   503  H   1.0    0.04    1.18    1.46    49.31172    57.97850     9.47196
   504  H   1.0    0.04    0.51    1.40    48.67412    54.47912     7.13189
   505  H   1.0    0.05    1.01    1.43    51.15359    53.86099     9.71380
   506  H   1.0    0.11    0.77    1.41    48.17635    50.58439     9.28609
   507  N   5.0   -0.23    3.63    2.19    44.35834    56.95345     8.91813
   508  C   4.0    0.05    4.68    4.75    41.60483    56.69153     9.26002
   509  C   4.0    0.12    3.44    3.09    40.48695    54.07078     9.00253
   510  O   6.0   -0.26    0.84    1.80    41.83594    52.33167     6.76748
   511  C   4.0   -0.07    4.00    3.61    40.25918    58.51445     6.91314
   512  C   4.0    0.03    4.58    4.64    37.37729    58.79682     6.85600
   513  C   4.0    0.22    3.00    3.02    35.85436    56.59999     6.23161
   514  O   6.0   -0.26    1.60    1.81    34.40085    57.06771     6.87742
   515  O   6.0   -0.28    1.02    1.80    36.98936    54.32778     4.64316
   516  H   1.0    0.14    1.39    1.54    44.37928    56.83292     7.77969
   517  H   1.0    0.04    1.17    1.46    40.82982    57.90111    10.36122
   518  H   1.0    0.04    1.03    1.43    41.28729    60.06739     6.40711
   519  H   1.0    0.06    0.79    1.41    40.74846    57.10324     4.97432
   520  H   1.0    0.05    1.08    1.44    37.17018    59.63122     8.63443
   521  H   1.0    0.06    1.09    1.44    37.33126    60.18239     5.35896
   522  N   5.0   -0.08    3.66    2.22    38.80788    53.55241    10.50048
   523  C   4.0    0.01    4.34    4.28    37.79912    55.30500    12.44320
   524  C   4.0    0.20    3.31    3.05    39.91575    55.31003    15.02438
   525  O   6.0   -0.31    1.35    1.80    41.10411    53.97678    14.92681
   526  C   4.0   -0.04    4.22    4.03    35.48636    53.35400    13.27633
   527  C   4.0   -0.05    4.19    3.98    35.68134    50.65198    11.75721
   528  C   4.0    0.04    4.51    4.55    38.25195    51.06078    10.59274
   529  H   1.0    0.04    1.11    1.44    37.06325    56.65505    12.11324
   530  H   1.0    0.05    0.97    1.43    35.52068    53.35166    15.43169
   531  H   1.0    0.04    0.97    1.43    33.81943    54.67639    12.88140
   532  H   1.0    0.05    1.06    1.44    34.97842    49.61280    13.17479
   533  H   1.0    0.05    1.06    1.44    34.12826    51.30370    10.54973
   534  H   1.0    0.06    1.00    1.43    39.12233    49.73543    12.14700
   535  H   1.0    0.06    1.08    1.44    37.81679    49.88437     9.02210
   536  N   5.0   -0.09    3.78    2.39    39.16834    57.26042    16.52783
   537  C   4.0    0.04    4.56    4.61    40.84335    57.21874    18.62498
   538  C   4.0    0.12    3.19    3.03    39.88584    55.29444    20.71488
   539  O   6.0   -0.31    1.21    1.80    38.16002    54.46764    20.71711
   540  C   4.0   -0.05    4.37    4.33    40.24779    59.90279    19.76797
   541  C   4.0   -0.03    4.41    4.39    38.34933    61.00513    17.98795
   542  C   4.0   -0.02    4.28    4.17    37.02607    59.25468    16.59229
   543  H   1.0    0.05    1.02    1.43    42.89887    57.39852    18.18672
   544  H   1.0    0.04    1.04    1.43    39.54196    59.65367    21.65613
   545  H   1.0    0.04    1.01    1.43    42.01804    61.04948    19.65730
   546  H   1.0    0.04    1.04    1.43    36.92190    61.98453    19.19390
   547  H   1.0    0.05    1.04    1.43    39.22202    62.37022    16.69488
   548  H   1.0    0.06    1.03    1.43    35.50955    58.35497    17.70066
   549  H   1.0    0.04    1.04    1.43    36.49470    59.66945    14.71616
   550  N   5.0   -0.21    3.08    1.93    35.58929    51.18805    30.41376
   551  C   4.0    0.02    4.16    3.91    33.79107    50.65072    28.13632
   552  C   4.0    0.09    3.23    3.04    34.25797    48.36154    26.66511
   553  O   6.0   -0.29    1.16    1.80    32.90455    47.49583    25.15500
   554  C   4.0   -0.04    4.32    4.23    33.65292    52.86045    26.25342
   555  C   4.0   -0.03    4.18    3.96    33.40603    55.60240    27.48476
   556  C   4.0   -0.07    4.05    3.71    33.61440    57.61830    25.49001
   557  C   4.0   -0.08    4.04    3.70    30.95775    55.84453    29.03476
   558  H   1.0    0.08    1.02    1.43    37.30271    51.59427    29.68436
   559  H   1.0    0.05    1.03    1.43    31.75363    50.63129    28.80309
   560  H   1.0    0.05    1.04    1.43    35.56881    52.88331    25.46489
   561  H   1.0    0.05    1.05    1.44    32.10520    52.76880    25.01766
   562  H   1.0    0.04    1.05    1.44    35.05885    55.96850    28.69774
   563  H   1.0    0.04    0.99    1.43    33.49971    59.52724    26.32817
   564  H   1.0    0.05    0.98    1.43    35.44900    57.36472    24.46029
   565  H   1.0    0.05    0.99    1.43    32.05480    57.21394    24.12299
   566  H   1.0    0.04    1.01    1.43    31.02835    57.75291    29.77446
   567  H   1.0    0.04    1.01    1.43    29.50463    55.36293    27.65844
   568  H   1.0    0.04    0.99    1.43    31.24307    54.26274    30.44337
   569  N   5.0   -0.18    3.17    1.95    25.78237    85.47412    24.50825
   570  C   4.0    0.03    4.30    4.21    25.21772    84.17215    22.01895
   571  C   4.0    0.12    3.27    3.05    24.83783    86.07298    19.96281
   572  O   6.0   -0.29    1.26    1.80    24.16044    87.83271    20.35136
   573  C   4.0   -0.04    4.38    4.34    22.75912    82.72468    22.13651
   574  C   4.0   -0.05    4.22    4.04    22.94665    79.95368    22.06200
   575  C   4.0   -0.05    4.26    4.12    22.88278    78.87667    24.68389
   576  C   4.0   -0.04    4.16    3.91    24.58708    76.59662    25.03948
   577  N   5.0   -0.11    3.95    2.74    25.58767    76.47147    27.56887
   578  H   1.0    0.08    1.03    1.43    24.25892    85.18942    25.66820
   579  H   1.0    0.04    1.08    1.44    26.62290    82.76449    21.71122
   580  H   1.0    0.04    1.05    1.44    21.76161    83.13863    23.90177
   581  H   1.0    0.05    1.05    1.44    21.63174    83.19464    20.45157
   582  H   1.0    0.04    1.02    1.43    21.29483    79.04077    21.14461
   583  H   1.0    0.04    1.05    1.44    24.78267    79.31005    21.34740
   584  H   1.0    0.04    1.04    1.44    23.49977    80.23323    26.10482
   585  H   1.0    0.04    1.03    1.43    21.00219    78.11202    25.16990
   586  H   1.0    0.04    1.03    1.43    23.53536    74.86053    24.69883
   587  H   1.0    0.04    1.04    1.43    26.17421    76.79633    23.74712
   588  H   1.0    0.05    0.97    1.43    26.88546    74.88945    27.87390
   589  H   1.0    0.05    0.98    1.43    26.61162    78.17835    28.07145
   590  H   1.0    0.05    0.98    1.43    24.08992    76.32242    28.97108
   591  H   1.0    0.11    1.06    1.44    26.14335    48.83740    -1.15927
   592  H   1.0    0.05    1.02    1.43    31.15691    57.77842   -11.30663
   593  H   1.0    0.10    1.07    1.44    31.23497    63.20000   -13.20533
   594  H   1.0    0.05    1.10    1.44    32.61809    68.13603   -18.58679
   595  H   1.0    0.09    1.26    1.48    12.03850    70.10761    -7.69521
   596  H   1.0    0.05    1.08    1.44     7.48156    65.05616    -4.68626
   597  H   1.0    0.10    1.07    1.44    18.92873    56.01135    19.23234
   598  H   1.0    0.05    1.05    1.44    12.00724    61.95697    21.09726
   599  H   1.0    0.09    1.09    1.44     3.20143    61.24431     8.29211
   600  H   1.0    0.06    1.10    1.44     8.77241    71.92896     0.87580
   601  H   1.0    0.10    1.20    1.47    14.19356    77.37365    -4.63099
   602  H   1.0    0.06    1.06    1.44    30.69378    77.02196   -11.71249
   603  H   1.0    0.10    1.27    1.48    38.23787    70.56422   -13.15002
   604  H   1.0    0.05    1.05    1.44    20.95573    48.21184    15.44431
   605  H   1.0    0.09    1.07    1.44     9.87032    50.91998    -0.72814
   606  H   1.0    0.05    1.03    1.43     9.30748    55.85574    -6.57981
   607  H   1.0    0.09    1.08    1.44    51.67403    62.16335    18.82447
   608  H   1.0    0.05    1.08    1.44    41.01558    54.82421    22.15489
   609  H   1.0    0.09    1.05    1.44    34.99084    52.50256    31.31180
   610  H   1.0    0.06    1.07    1.44    35.85873    47.38854    26.91393
   611  H   1.0    0.09    1.06    1.44    27.18664    84.80318    25.19413
   612  H   1.0    0.05    1.08    1.44    25.25041    85.62501    18.17390

  Z AO/shell   Hii/eV     exponent
  1     Wed Apr 25 08:07:45 CEST 2018   EN: 2.200 GM2: 0.406  GM3: 0.0800  RAES: 1.40
     1s    -10.707211    1.230000
  6     Wed Apr 25 08:07:45 CEST 2018   EN: 2.550 GM2: 0.538  GM3: 0.1500  RAES: 3.00
     2s    -13.970922    2.096432
     2p    -10.063292    1.800000
  7     Wed Apr 25 08:07:45 CEST 2018   EN: 3.040 GM2: 0.461  GM3:-0.0640  RAES: 1.90
     2s    -16.686243    2.339881
     2p    -12.523956    2.014332
  8     Wed Apr 25 08:07:45 CEST 2018   EN: 3.440 GM2: 0.452  GM3:-0.0517  RAES: 1.80
     2s    -20.229985    2.439742
     2p    -15.503117    2.137023
 16     Tue Apr 24 11:44:34 CEST 2018   EN: 2.580 GM2: 0.340  GM3:-0.0502  RAES: 3.10
     3s    -20.029654    1.981333
     3p    -11.377694    2.025643
     3d     -0.420282    1.702555
 no old-style atom pair restraining (fixing) potential

molecular fragmentation (1/2 indicates fragments):
111111111111111111111111111111111111111112222222222222222222222222222222
222222222222222222222222222222222222222222222222222222222222222222222222
222222222222222222222222222222222222222222222222222222222222222222222222
222222222222222222222222222222222222222222222222222222222222222222222222
222222222222222222222222222222222222222222222222222222222222222222222222
222222222222222222222222222222222222222222222222222222222222222222222222
222222222222222222222222222222222222222222222222222222222222222222222222
222222222222222222222222222222222222222222222222222222222222222222222222
222222222222221122222222222222222222
# atoms in fragment 1/2:    43   569
 fragment masses (1/2) :      244.36     3851.61
CMA distance (Bohr)    :  16.828
constraining FC (au)   :  0.0500
           ------------------------------------------------- 
          |        Self-Consistent Charge Iterations        |
           ------------------------------------------------- 

 Ncao       : 1479
 Nao        : 1478
 Nshell     : 900
 Nel        : 1626
 T(el)      :   500.0
 intcut     :    35.0
 scfconv/Eh :  0.100E-06
   qconv/e  :  0.100E-04
 intneglect :  0.100E-08
 broydamp   :      0.400
 iter      E             dE          RMSdq      gap      omega  full diag
   1   -923.2097345 -0.923210E+03  0.469E+00    0.07       0.0  T
   2   -922.7778177  0.431917E+00  0.318E+00    0.33       1.0  T
   3   -923.0643086 -0.286491E+00  0.247E+00    0.14       1.0  T
   4   -925.4947188 -0.243041E+01  0.161E+00    0.02       1.0  T
   5   -925.3041384  0.190580E+00  0.153E+00    0.22       1.0  T
   6   -926.5575128 -0.125337E+01  0.909E-01    0.26       1.0  T
   7   -925.9014836  0.656029E+00  0.107E+00    0.33       1.0  T
   8   -926.6114577 -0.709974E+00  0.706E-01    0.15       1.0  T
   9   -926.7878419 -0.176384E+00  0.566E-01    0.05       1.0  T
  10   -926.7765556  0.112862E-01  0.550E-01    0.06       1.0  T
  11   -926.8846820 -0.108126E+00  0.443E-01    0.27       1.0  T
  12   -926.8629680  0.217140E-01  0.402E-01    0.02       1.0  T
  13   -926.9398846 -0.769166E-01  0.302E-01    0.16       1.0  T
  14   -926.9042630  0.356215E-01  0.388E-01    0.18       1.0  T
  15   -926.9841721 -0.799091E-01  0.220E-01    0.17       1.0  T
  16   -926.9330105  0.511616E-01  0.315E-01    0.13       1.0  T
  17   -926.9542104 -0.211998E-01  0.282E-01    0.13       1.0  T
  18   -926.8633019  0.909085E-01  0.426E-01    0.16       1.0  T
  19   -926.8698804 -0.657851E-02  0.411E-01    0.16       1.0  T
  20   -926.8715708 -0.169041E-02  0.396E-01    0.14       1.0  T
  21   -926.8721511 -0.580258E-03  0.396E-01    0.14       1.0  T
  22   -926.8686449  0.350623E-02  0.406E-01    0.14       1.0  T
  23   -926.5835416  0.285103E+00  0.725E-01    0.02       1.0  T
  24   -926.5892244 -0.568281E-02  0.627E-01    0.15       1.0  T
  25   -926.9671266 -0.377902E+00  0.271E-01    0.20       1.0  T
  26   -926.9579686  0.915801E-02  0.533E-01    0.12       1.0  T
  27   -926.9332555  0.247131E-01  0.323E-01    0.08       1.0  T
  28   -926.9642318 -0.309763E-01  0.320E-01    0.11       1.0  T
  29   -926.9319071  0.323247E-01  0.309E-01    0.08       1.0  T
  30   -926.8678167  0.640905E-01  0.356E-01    0.04       1.0  T
  31   -926.8886429 -0.208262E-01  0.333E-01    0.09       1.0  T
  32   -926.9203411 -0.316983E-01  0.293E-01    0.08       1.0  T
  33   -927.0038869 -0.835457E-01  0.137E-01    0.11       1.0  T
  34   -927.0091548 -0.526796E-02  0.123E-01    0.12       1.0  T
  35   -927.0115910 -0.243615E-02  0.133E-01    0.14       1.0  T
  36   -927.0099961  0.159486E-02  0.109E-01    0.12       1.0  T
  37   -927.0092155  0.780566E-03  0.103E-01    0.11       1.0  T
  38   -927.0163794 -0.716382E-02  0.107E-01    0.14       1.0  T
  39   -927.0179694 -0.159004E-02  0.948E-02    0.13       1.0  T
  40   -927.0147842  0.318519E-02  0.118E-01    0.14       1.0  T
  41   -927.0166194 -0.183515E-02  0.108E-01    0.14       1.0  T
  42   -927.0213045 -0.468509E-02  0.738E-02    0.14       1.0  T
  43   -927.0229048 -0.160035E-02  0.593E-02    0.13       1.0  T
  44   -927.0241132 -0.120837E-02  0.471E-02    0.13       1.0  T
  45   -927.0242044 -0.912238E-04  0.455E-02    0.14       1.0  T
  46   -927.0257552 -0.155077E-02  0.210E-02    0.13       1.0  T
  47   -927.0260090 -0.253823E-03  0.111E-02    0.13       1.0  T
  48   -927.0259634  0.455988E-04  0.141E-02    0.13       1.0  T
  49   -927.0260647 -0.101284E-03  0.691E-03    0.13       1.0  T
  50   -927.0260772 -0.125505E-04  0.775E-03    0.13       1.0  T
  51   -927.0261213 -0.441230E-04  0.398E-03    0.13       1.0  T
  52   -927.0261217 -0.397258E-06  0.318E-03    0.13       1.3  T
  53   -927.0261321 -0.103777E-04  0.249E-03    0.13       1.6  T
  54   -927.0261330 -0.842067E-06  0.242E-03    0.13       1.7  T
  55   -927.0261357 -0.270820E-05  0.163E-03    0.13       2.5  T
  56   -927.0261372 -0.156959E-05  0.930E-04    0.13       4.3  T
  57   -927.0261380 -0.755489E-06  0.227E-04    0.13      17.8  T
  58   -927.0261381 -0.544428E-07  0.113E-04    0.13      35.8  T
  59   -927.0261381 -0.267075E-07  0.462E-05    0.13      87.5  T
  60   -927.0261381  0.136311E-08  0.514E-05    0.13      78.7  T
speedup  1.98
cpu  time for SCC    3 m 18.9 s
wall time for SCC    1 m 40.6 s

   *** convergence criteria satisfied after 60 iterations ***

          eigenvalues
 #    :         801        802        803        804        805        806        807        808
 occ. :        2.000      2.000      2.000      2.000      2.000      2.000      2.000      1.998
 eps  :        -9.368     -9.259     -9.241     -9.131     -9.043     -8.991     -8.937     -8.686
 #    :         809        810        811        812        813        814        815        816
 occ. :        1.965      1.964      1.907      1.810      1.616      0.366      0.213      0.149
 eps  :        -8.554     -8.553     -8.510     -8.478     -8.442     -8.316     -8.289     -8.272
 #    :         817        818        819        820        821        822        823        824
 occ. :        0.004      0.003      0.001      0.001      0.000      0.000      0.000      0.000
 eps  :        -8.115     -8.103     -8.067     -8.057     -7.855     -7.294     -7.230     -7.199


   #   Z            q   n(s)   n(p)   n(d)      C6AA      α(0)
   1   7 N     -0.391  1.331  4.059  0.000    30.117     8.151
   2   6 C      0.015  1.071  2.914  0.000    20.328     6.421
   3   6 C      0.307  1.016  2.676  0.000    21.786     7.645
   4   8 O     -0.417  1.693  4.725  0.000    22.031     6.293
   5   6 C     -0.057  1.061  2.996  0.000    21.597     6.616
   6   6 C     -0.035  1.026  3.009  0.000    21.177     6.549
   7   6 C     -0.064  1.055  3.010  0.000    21.729     6.636
   8   6 C     -0.005  1.025  2.979  0.000    20.751     6.501
   9   7 N     -0.109  1.238  3.871  0.000    23.370     7.180
  10   1 H      0.177  0.823  0.000  0.000     1.231     1.738
  11   1 H      0.025  0.975  0.000  0.000     2.664     2.553
  12   1 H      0.043  0.957  0.000  0.000     2.413     2.429
  13   1 H      0.022  0.978  0.000  0.000     2.710     2.574
  14   1 H      0.009  0.991  0.000  0.000     2.911     2.668
  15   1 H      0.024  0.976  0.000  0.000     2.666     2.553
  16   1 H      0.069  0.931  0.000  0.000     2.099     2.266
  17   1 H      0.045  0.955  0.000  0.000     2.388     2.417
  18   1 H      0.058  0.942  0.000  0.000     2.225     2.333
  19   1 H      0.066  0.934  0.000  0.000     2.130     2.282
  20   1 H      0.243  0.757  0.000  0.000     0.913     1.497
  21   1 H      0.282  0.718  0.000  0.000     0.769     1.374
  22   1 H      0.291  0.709  0.000  0.000     0.740     1.348
  23   7 N     -0.195  1.242  3.954  0.000    25.243     7.462
  24   6 C      0.048  1.057  2.896  0.000    19.785     6.335
  25   6 C      0.126  1.114  2.760  0.000    25.218     8.221
  26   8 O     -0.490  1.836  4.655  0.000    23.571     6.509
  27   6 C     -0.072  1.040  3.031  0.000    21.863     6.655
  28   6 C     -0.013  1.057  2.956  0.000    20.771     6.483
  29   6 C     -0.122  1.058  3.064  0.000    22.910     6.828
  30   6 C     -0.109  1.051  3.058  0.000    22.658     6.790
  31   1 H      0.199  0.801  0.000  0.000     1.114     1.653
  32   1 H      0.048  0.952  0.000  0.000     2.343     2.394
  33   1 H      0.064  0.936  0.000  0.000     2.154     2.295
  34   1 H      0.025  0.975  0.000  0.000     2.658     2.550
  35   1 H      0.006  0.994  0.000  0.000     2.958     2.690
  36   1 H      0.057  0.943  0.000  0.000     2.236     2.338
  37   1 H      0.050  0.950  0.000  0.000     2.319     2.382
  38   1 H      0.052  0.948  0.000  0.000     2.297     2.370
  39   1 H      0.058  0.942  0.000  0.000     2.221     2.331
  40   1 H      0.062  0.938  0.000  0.000     2.179     2.309
  41   1 H      0.029  0.971  0.000  0.000     2.603     2.523
  42   7 N     -0.454  1.376  4.078  0.000    31.910     8.390
  43   6 C      0.015  1.075  2.909  0.000    21.113     6.685
  44   6 C      0.244  1.013  2.743  0.000    22.914     7.841
  45   8 O     -0.406  1.659  4.747  0.000    21.774     6.257
  46   6 C      0.024  1.064  2.911  0.000    20.554     6.526
  47   6 C     -0.020  1.021  2.999  0.000    20.925     6.511
  48   6 C     -0.105  1.039  3.065  0.000    22.612     6.790
  49   6 C     -0.095  1.049  3.046  0.000    22.445     6.770
  50   1 H      0.274  0.726  0.000  0.000     0.787     1.385
  51   1 H     -0.004  1.004  0.000  0.000     3.123     2.764
  52   1 H      0.025  0.975  0.000  0.000     2.662     2.551
  53   1 H      0.045  0.955  0.000  0.000     2.388     2.416
  54   1 H     -0.002  1.002  0.000  0.000     3.088     2.749
  55   1 H      0.051  0.949  0.000  0.000     2.301     2.372
  56   1 H      0.049  0.951  0.000  0.000     2.338     2.391
  57   1 H      0.035  0.965  0.000  0.000     2.524     2.487
  58   1 H      0.024  0.976  0.000  0.000     2.675     2.559
  59   1 H      0.029  0.971  0.000  0.000     2.603     2.524
  60   1 H      0.059  0.941  0.000  0.000     2.215     2.327
  61   7 N     -0.242  1.176  4.065  0.000    26.307     7.618
  62   6 C     -0.001  1.052  2.948  0.000    20.593     6.460
  63   6 C      0.272  1.020  2.708  0.000    22.404     7.749
  64   8 O     -0.063  1.520  4.544  0.000    15.973     5.359
  65   6 C     -0.121  1.129  2.991  0.000    22.844     6.810
  66   6 C     -0.047  1.069  2.978  0.000    21.465     6.604
  67   6 C     -0.141  1.061  3.080  0.000    25.012     7.416
  68   6 C     -0.126  1.041  3.085  0.000    23.023     6.851
  69   1 H      0.225  0.775  0.000  0.000     0.985     1.554
  70   1 H     -0.035  1.035  0.000  0.000     3.759     3.034
  71   1 H      0.044  0.956  0.000  0.000     2.396     2.421
  72   1 H     -0.017  1.017  0.000  0.000     3.390     2.882
  73   1 H      0.019  0.981  0.000  0.000     2.754     2.595
  74   1 H      0.105  0.895  0.000  0.000     1.741     2.063
  75   1 H      0.007  0.993  0.000  0.000     2.969     2.701
  76   1 H     -0.014  1.014  0.000  0.000     3.362     2.877
  77   1 H      0.013  0.987  0.000  0.000     2.837     2.634
  78   1 H      0.068  0.932  0.000  0.000     2.112     2.272
  79   1 H      0.018  0.982  0.000  0.000     2.762     2.599
  80   7 N     -0.397  1.341  4.055  0.000    30.281     8.173
  81   6 C      0.000  1.059  2.941  0.000    20.581     6.460
  82   6 C      0.309  1.011  2.680  0.000    21.757     7.639
  83   8 O     -0.426  1.691  4.735  0.000    22.201     6.318
  84   6 C     -0.083  1.071  3.013  0.000    22.099     6.694
  85   6 C     -0.095  1.053  3.042  0.000    22.302     6.724
  86   6 C     -0.030  1.082  2.947  0.000    21.223     6.581
  87   7 N     -0.190  1.266  3.925  0.000    25.129     7.445
  88   6 C      0.228  1.022  2.750  0.000    23.201     7.886
  89   7 N     -0.212  1.226  3.986  0.000    25.613     7.516
  90   7 N     -0.251  1.239  4.013  0.000    26.543     7.652
  91   1 H      0.151  0.849  0.000  0.000     1.392     1.848
  92   1 H      0.061  0.939  0.000  0.000     2.192     2.315
  93   1 H      0.055  0.945  0.000  0.000     2.254     2.348
  94   1 H      0.021  0.979  0.000  0.000     2.718     2.579
  95   1 H      0.093  0.907  0.000  0.000     1.848     2.126
  96   1 H      0.077  0.923  0.000  0.000     2.010     2.217
  97   1 H      0.084  0.916  0.000  0.000     1.942     2.180
  98   1 H      0.108  0.892  0.000  0.000     1.717     2.049
  99   1 H      0.209  0.791  0.000  0.000     1.064     1.616
 100   1 H      0.276  0.724  0.000  0.000     0.788     1.391
 101   1 H      0.260  0.740  0.000  0.000     0.844     1.439
 102   1 H      0.230  0.770  0.000  0.000     0.967     1.540
 103   1 H      0.233  0.767  0.000  0.000     0.952     1.528
 104   7 N     -0.234  1.265  3.969  0.000    26.116     7.590
 105   6 C      0.017  1.058  2.925  0.000    20.277     6.410
 106   6 C      0.281  1.050  2.670  0.000    22.246     7.723
 107   8 O     -0.492  1.734  4.758  0.000    23.603     6.514
 108   6 C     -0.080  1.067  3.013  0.000    22.021     6.681
 109   6 C     -0.018  1.059  2.959  0.000    20.859     6.497
 110   6 C     -0.121  1.054  3.067  0.000    22.890     6.825
 111   6 C     -0.113  1.058  3.055  0.000    22.751     6.806
 112   1 H      0.230  0.770  0.000  0.000     0.967     1.540
 113   1 H      0.074  0.926  0.000  0.000     2.046     2.237
 114   1 H      0.061  0.939  0.000  0.000     2.182     2.310
 115   1 H      0.051  0.949  0.000  0.000     2.306     2.375
 116   1 H      0.002  0.998  0.000  0.000     3.025     2.720
 117   1 H      0.031  0.969  0.000  0.000     2.567     2.506
 118   1 H      0.030  0.970  0.000  0.000     2.583     2.514
 119   1 H      0.056  0.944  0.000  0.000     2.250     2.346
 120   1 H      0.040  0.960  0.000  0.000     2.449     2.447
 121   1 H      0.052  0.948  0.000  0.000     2.296     2.370
 122   1 H      0.058  0.942  0.000  0.000     2.219     2.330
 123   7 N     -0.231  1.305  3.925  0.000    26.047     7.580
 124   6 C      0.019  1.074  2.907  0.000    20.262     6.411
 125   6 C      0.286  1.029  2.685  0.000    22.162     7.712
 126   8 O     -0.499  1.751  4.748  0.000    23.770     6.537
 127   6 C     -0.060  1.046  3.015  0.000    21.656     6.624
 128   6 C     -0.004  1.096  2.909  0.000    28.134     8.700
 129   6 C     -0.030  1.082  2.948  0.000    28.744     8.794
 130   6 C     -0.042  1.096  2.946  0.000    29.044     8.839
 131   6 C     -0.050  1.054  2.996  0.000    29.245     8.868
 132   6 C     -0.068  1.078  2.990  0.000    29.695     8.936
 133   6 C      0.131  1.059  2.811  0.000    25.136     8.221
 134   8 O     -0.437  1.771  4.666  0.000    21.615     6.274
 135   1 H      0.250  0.750  0.000  0.000     0.882     1.470
 136   1 H      0.088  0.912  0.000  0.000     1.894     2.153
 137   1 H      0.030  0.970  0.000  0.000     2.588     2.516
 138   1 H      0.036  0.964  0.000  0.000     2.507     2.476
 139   1 H      0.006  0.994  0.000  0.000     2.958     2.690
 140   1 H      0.025  0.975  0.000  0.000     2.659     2.550
 141   1 H      0.081  0.919  0.000  0.000     1.968     2.194
 142   1 H      0.085  0.915  0.000  0.000     1.933     2.174
 143   1 H      0.346  0.654  0.000  0.000     0.611     1.234
 144   7 N     -0.184  1.245  3.939  0.000    24.985     7.424
 145   6 C      0.026  1.039  2.935  0.000    20.111     6.380
 146   6 C      0.285  1.041  2.674  0.000    22.181     7.714
 147   8 O     -0.452  1.728  4.724  0.000    22.747     6.395
 148   6 C     -0.098  1.078  3.019  0.000    22.363     6.733
 149   6 C     -0.061  1.047  3.015  0.000    21.688     6.632
 150   6 C     -0.084  1.043  3.042  0.000    22.102     6.693
 151   6 C     -0.048  1.050  2.998  0.000    21.525     6.621
 152   7 N     -0.147  1.262  3.885  0.000    24.172     7.302
 153   1 H      0.267  0.733  0.000  0.000     0.819     1.417
 154   1 H      0.055  0.945  0.000  0.000     2.256     2.349
 155   1 H      0.086  0.914  0.000  0.000     1.916     2.165
 156   1 H      0.100  0.900  0.000  0.000     1.786     2.090
 157   1 H      0.022  0.978  0.000  0.000     2.700     2.569
 158   1 H      0.021  0.979  0.000  0.000     2.726     2.582
 159   1 H      0.076  0.924  0.000  0.000     2.023     2.224
 160   1 H      0.091  0.909  0.000  0.000     1.865     2.136
 161   1 H      0.092  0.908  0.000  0.000     1.861     2.133
 162   1 H      0.102  0.898  0.000  0.000     1.768     2.079
 163   1 H      0.312  0.688  0.000  0.000     0.679     1.291
 164   1 H      0.298  0.702  0.000  0.000     0.720     1.329
 165   1 H      0.316  0.684  0.000  0.000     0.668     1.281
 166   7 N     -0.212  1.238  3.973  0.000    25.613     7.517
 167   6 C      0.038  1.044  2.918  0.000    19.937     6.357
 168   6 C      0.322  1.014  2.664  0.000    21.527     7.597
 169   8 O     -0.328  1.665  4.663  0.000    20.293     6.040
 170   6 C     -0.122  1.070  3.052  0.000    22.846     6.806
 171   6 C      0.302  1.037  2.661  0.000    21.872     7.657
 172   8 O     -0.468  1.725  4.743  0.000    23.086     6.442
 173   7 N     -0.322  1.287  4.035  0.000    28.297     7.900
 174   1 H      0.159  0.841  0.000  0.000     1.343     1.815
 175   1 H      0.007  0.993  0.000  0.000     2.937     2.680
 176   1 H      0.105  0.895  0.000  0.000     1.743     2.065
 177   1 H      0.093  0.907  0.000  0.000     1.847     2.125
 178   1 H      0.198  0.802  0.000  0.000     1.116     1.656
 179   1 H      0.236  0.764  0.000  0.000     0.941     1.520
 180   7 N     -0.295  1.314  3.981  0.000    27.599     7.802
 181   6 C     -0.020  1.071  2.949  0.000    20.933     6.516
 182   6 C      0.339  1.007  2.654  0.000    21.239     7.547
 183   8 O     -0.216  1.584  4.632  0.000    18.330     5.740
 184   6 C     -0.080  1.053  3.027  0.000    22.023     6.679
 185   6 C     -0.071  1.053  3.018  0.000    21.859     6.656
 186   6 C     -0.097  1.053  3.044  0.000    22.345     6.730
 187   6 C     -0.037  1.047  2.990  0.000    21.325     6.590
 188   7 N     -0.139  1.259  3.880  0.000    23.997     7.276
 189   1 H      0.203  0.797  0.000  0.000     1.089     1.635
 190   1 H      0.068  0.932  0.000  0.000     2.110     2.271
 191   1 H      0.059  0.941  0.000  0.000     2.213     2.326
 192   1 H      0.079  0.921  0.000  0.000     1.994     2.208
 193   1 H      0.029  0.971  0.000  0.000     2.601     2.522
 194   1 H      0.035  0.965  0.000  0.000     2.518     2.482
 195   1 H      0.095  0.905  0.000  0.000     1.830     2.115
 196   1 H      0.080  0.920  0.000  0.000     1.978     2.200
 197   1 H      0.089  0.911  0.000  0.000     1.893     2.152
 198   1 H      0.104  0.896  0.000  0.000     1.744     2.065
 199   1 H      0.307  0.693  0.000  0.000     0.694     1.305
 200   1 H      0.302  0.698  0.000  0.000     0.709     1.319
 201   1 H      0.296  0.704  0.000  0.000     0.726     1.335
 202   7 N     -0.319  1.302  4.017  0.000    28.210     7.888
 203   6 C      0.033  1.054  2.913  0.000    20.005     6.367
 204   6 C      0.289  1.023  2.688  0.000    22.109     7.702
 205   8 O     -0.490  1.739  4.751  0.000    23.568     6.509
 206   6 C     -0.056  1.037  3.019  0.000    21.581     6.613
 207   6 C      0.364  0.997  2.639  0.000    20.823     7.469
 208   8 O     -0.658  1.771  4.886  0.000    27.554     7.039
 209   8 O     -0.712  1.801  4.912  0.000    29.018     7.223
 210   1 H      0.177  0.823  0.000  0.000     1.234     1.740
 211   1 H      0.045  0.955  0.000  0.000     2.379     2.412
 212   1 H      0.054  0.946  0.000  0.000     2.275     2.359
 213   1 H      0.058  0.942  0.000  0.000     2.224     2.332
 214   7 N     -0.196  1.252  3.944  0.000    25.246     7.462
 215   6 C     -0.019  1.065  2.954  0.000    20.891     6.503
 216   6 C      0.333  0.999  2.669  0.000    21.347     7.566
 217   8 O     -0.347  1.638  4.708  0.000    20.632     6.090
 218   6 C     -0.084  1.073  3.011  0.000    22.097     6.691
 219   6 C     -0.026  1.066  2.960  0.000    21.047     6.535
 220  16 S     -0.111  1.842  4.188  0.081   145.711    20.317
 221   6 C     -0.016  1.030  2.986  0.000    21.050     6.566
 222   1 H      0.238  0.762  0.000  0.000     0.932     1.513
 223   1 H      0.053  0.947  0.000  0.000     2.280     2.361
 224   1 H      0.045  0.955  0.000  0.000     2.391     2.418
 225   1 H      0.063  0.937  0.000  0.000     2.160     2.298
 226   1 H      0.029  0.971  0.000  0.000     2.605     2.524
 227   1 H      0.070  0.930  0.000  0.000     2.090     2.261
 228   1 H      0.059  0.941  0.000  0.000     2.223     2.333
 229   1 H      0.032  0.968  0.000  0.000     2.568     2.507
 230   1 H     -0.004  1.004  0.000  0.000     3.126     2.765
 231   7 N     -0.299  1.295  4.005  0.000    27.707     7.818
 232   6 C     -0.006  1.066  2.939  0.000    20.661     6.468
 233   6 C      0.313  1.007  2.679  0.000    21.681     7.626
 234   8 O     -0.388  1.681  4.707  0.000    21.431     6.207
 235   6 C     -0.034  1.066  2.967  0.000    21.134     6.538
 236   6 C     -0.062  1.042  3.020  0.000    21.685     6.628
 237   6 C     -0.130  1.067  3.063  0.000    23.086     6.855
 238   6 C     -0.112  1.059  3.053  0.000    22.735     6.805
 239   1 H      0.233  0.767  0.000  0.000     0.952     1.528
 240   1 H      0.065  0.935  0.000  0.000     2.145     2.291
 241   1 H      0.061  0.939  0.000  0.000     2.185     2.312
 242   1 H      0.018  0.982  0.000  0.000     2.768     2.602
 243   1 H      0.032  0.968  0.000  0.000     2.552     2.498
 244   1 H      0.067  0.933  0.000  0.000     2.123     2.279
 245   1 H      0.052  0.948  0.000  0.000     2.301     2.372
 246   1 H      0.031  0.969  0.000  0.000     2.575     2.509
 247   1 H      0.035  0.965  0.000  0.000     2.521     2.483
 248   1 H      0.050  0.950  0.000  0.000     2.325     2.385
 249   1 H      0.024  0.976  0.000  0.000     2.670     2.555
 250   7 N     -0.219  1.240  3.979  0.000    25.766     7.539
 251   6 C      0.001  1.047  2.951  0.000    20.540     6.449
 252   6 C      0.295  1.028  2.677  0.000    21.989     7.678
 253   8 O     -0.375  1.683  4.692  0.000    21.177     6.170
 254   6 C     -0.070  1.043  3.027  0.000    21.829     6.651
 255   6 C     -0.105  1.066  3.039  0.000    22.499     6.753
 256   6 C      0.286  1.040  2.674  0.000    22.156     7.707
 257   8 O     -0.442  1.722  4.721  0.000    22.546     6.366
 258   7 N     -0.298  1.286  4.013  0.000    27.691     7.815
 259   1 H      0.217  0.783  0.000  0.000     1.024     1.585
 260   1 H      0.063  0.937  0.000  0.000     2.167     2.302
 261   1 H      0.069  0.931  0.000  0.000     2.092     2.262
 262   1 H      0.049  0.951  0.000  0.000     2.332     2.388
 263   1 H      0.044  0.956  0.000  0.000     2.400     2.423
 264   1 H      0.078  0.922  0.000  0.000     1.997     2.210
 265   1 H      0.228  0.772  0.000  0.000     0.976     1.548
 266   1 H      0.208  0.792  0.000  0.000     1.067     1.619
 267   7 N     -0.232  1.276  3.956  0.000    26.086     7.585
 268   6 C      0.018  1.070  2.912  0.000    20.291     6.416
 269   6 C      0.192  1.097  2.711  0.000    23.892     8.006
 270   8 O     -0.393  1.770  4.623  0.000    21.543     6.223
 271   6 C      0.095  1.054  2.850  0.000    19.115     6.245
 272   8 O     -0.483  1.749  4.734  0.000    22.537     6.408
 273   6 C     -0.139  1.076  3.063  0.000    23.268     6.885
 274   1 H      0.208  0.792  0.000  0.000     1.066     1.617
 275   1 H      0.108  0.892  0.000  0.000     1.715     2.048
 276   1 H      0.097  0.903  0.000  0.000     1.813     2.106
 277   1 H      0.338  0.662  0.000  0.000     0.618     1.235
 278   1 H      0.087  0.913  0.000  0.000     1.904     2.158
 279   1 H      0.046  0.954  0.000  0.000     2.374     2.410
 280   1 H      0.057  0.943  0.000  0.000     2.241     2.341
 281   7 N     -0.391  1.322  4.069  0.000    30.120     8.151
 282   6 C      0.018  1.058  2.924  0.000    20.281     6.413
 283   6 C      0.297  1.040  2.663  0.000    21.965     7.676
 284   8 O     -0.396  1.688  4.709  0.000    21.605     6.232
 285   6 C     -0.029  1.070  2.959  0.000    21.042     6.523
 286   6 C     -0.114  1.060  3.054  0.000    22.748     6.804
 287   6 C     -0.115  1.061  3.054  0.000    22.779     6.809
 288   1 H      0.163  0.837  0.000  0.000     1.317     1.798
 289   1 H      0.026  0.974  0.000  0.000     2.639     2.540
 290   1 H      0.017  0.983  0.000  0.000     2.775     2.605
 291   1 H      0.036  0.964  0.000  0.000     2.507     2.476
 292   1 H      0.042  0.958  0.000  0.000     2.417     2.431
 293   1 H      0.050  0.950  0.000  0.000     2.318     2.381
 294   1 H      0.033  0.967  0.000  0.000     2.543     2.494
 295   1 H      0.045  0.955  0.000  0.000     2.378     2.411
 296   1 H      0.041  0.959  0.000  0.000     2.441     2.443
 297   7 N     -0.264  1.296  3.968  0.000    26.841     7.695
 298   6 C     -0.080  1.068  3.012  0.000    22.307     6.772
 299   6 C      0.229  1.073  2.699  0.000    23.198     7.881
 300   8 O     -0.208  1.613  4.595  0.000    18.189     5.718
 301   1 H      0.205  0.795  0.000  0.000     1.083     1.631
 302   1 H      0.080  0.920  0.000  0.000     1.982     2.201
 303   1 H      0.088  0.912  0.000  0.000     1.897     2.154
 304   7 N     -0.360  1.158  4.202  0.000    29.268     8.035
 305   6 C     -0.083  1.178  2.905  0.000    30.056     8.981
 306   6 C      0.362  0.983  2.655  0.000    20.863     7.484
 307   8 O     -0.097  1.628  4.469  0.000    16.467     5.441
 308   6 C     -0.089  1.099  2.989  0.000    22.954     6.953
 309   6 C      0.018  1.076  2.906  0.000    27.602     8.617
 310   6 C     -0.070  1.107  2.963  0.000    29.746     8.945
 311   6 C     -0.175  1.285  2.890  0.000    32.554     9.359
 312   6 C     -0.102  1.075  3.027  0.000    22.393     6.729
 313   6 C     -0.032  1.078  2.954  0.000    21.085     6.526
 314   6 C      0.334  0.883  2.783  0.000    21.338     7.577
 315   8 O     -0.176  1.561  4.615  0.000    16.924     5.556
 316   1 H      0.249  0.751  0.000  0.000     0.886     1.474
 317   1 H      0.086  0.914  0.000  0.000     1.917     2.165
 318   1 H      0.091  0.909  0.000  0.000     1.864     2.135
 319   1 H     -0.025  1.025  0.000  0.000     4.053     3.254
 320   1 H      0.093  0.907  0.000  0.000     1.851     2.127
 321   1 H      0.035  0.965  0.000  0.000     2.514     2.480
 322   1 H      0.064  0.936  0.000  0.000     2.179     2.317
 323   1 H      0.113  0.887  0.000  0.000     1.670     2.021
 324   1 H      0.301  0.699  0.000  0.000     1.705     2.379
 325   7 N     -0.124  1.196  3.928  0.000    23.693     7.229
 326   6 C     -0.055  1.041  3.014  0.000    21.468     6.580
 327   6 C      0.350  1.008  2.642  0.000    21.055     7.515
 328   8 O     -0.035  1.532  4.503  0.000    15.574     5.292
 329   6 C     -0.141  1.131  3.010  0.000    24.748     7.338
 330   6 C     -0.133  1.112  3.021  0.000    23.003     6.819
 331   6 C      0.536  0.916  2.548  0.000    18.295     6.990
 332   8 O     -0.335  1.641  4.694  0.000    20.299     6.047
 333   8 O     -0.317  1.634  4.683  0.000    20.068     6.007
 334   1 H      0.290  0.710  0.000  0.000     0.746     1.353
 335   1 H      0.135  0.865  0.000  0.000     1.494     1.911
 336   1 H      0.082  0.918  0.000  0.000     1.956     2.187
 337   1 H      0.082  0.918  0.000  0.000     1.957     2.187
 338   1 H      0.051  0.949  0.000  0.000     2.308     2.376
 339   1 H      0.076  0.924  0.000  0.000     2.016     2.220
 340   7 N     -0.451  1.405  4.046  0.000    31.808     8.376
 341   6 C     -0.005  1.067  2.938  0.000    20.819     6.525
 342   6 C      0.227  1.048  2.724  0.000    23.228     7.895
 343   8 O     -0.414  1.732  4.682  0.000    21.964     6.284
 344   6 C     -0.048  1.088  2.960  0.000    21.529     6.624
 345   6 C      0.006  1.045  2.950  0.000    20.459     6.436
 346   6 C     -0.065  1.040  3.025  0.000    21.777     6.648
 347   6 C     -0.125  1.028  3.098  0.000    22.941     6.826
 348   1 H      0.146  0.854  0.000  0.000     1.427     1.871
 349   1 H      0.090  0.910  0.000  0.000     1.878     2.143
 350   1 H      0.063  0.937  0.000  0.000     2.161     2.298
 351   1 H     -0.027  1.027  0.000  0.000     3.621     2.987
 352   1 H      0.066  0.934  0.000  0.000     2.134     2.284
 353   1 H      0.014  0.986  0.000  0.000     2.847     2.644
 354   1 H     -0.005  1.005  0.000  0.000     3.162     2.784
 355   1 H      0.041  0.959  0.000  0.000     2.433     2.439
 356   1 H      0.122  0.878  0.000  0.000     1.601     1.978
 357   1 H      0.013  0.987  0.000  0.000     2.841     2.636
 358   1 H      0.028  0.972  0.000  0.000     2.627     2.537
 359   7 N     -0.332  1.220  4.112  0.000    28.536     7.934
 360   6 C      0.059  1.049  2.892  0.000    23.717     7.631
 361   6 C      0.341  1.006  2.653  0.000    21.205     7.540
 362   8 O     -0.249  1.596  4.653  0.000    18.880     5.826
 363   1 H      0.206  0.794  0.000  0.000     1.076     1.625
 364   1 H     -0.160  1.160  0.000  0.000    13.460     6.341
 365   1 H      0.054  0.946  0.000  0.000     2.268     2.355
 366   7 N     -0.367  1.366  4.000  0.000    29.471     8.063
 367   6 C      0.036  1.072  2.892  0.000    20.427     6.518
 368   6 C      0.103  1.237  2.660  0.000    25.786     8.299
 369   8 O     -0.639  1.917  4.723  0.000    26.770     6.951
 370   6 C      0.107  1.182  2.711  0.000    19.787     6.510
 371   6 C      0.416  0.975  2.609  0.000    19.995     7.318
 372   8 O     -0.505  1.681  4.825  0.000    23.278     6.499
 373   8 O     -0.666  1.756  4.910  0.000    27.719     7.062
 374   1 H      0.163  0.837  0.000  0.000     1.315     1.796
 375   1 H      0.089  0.911  0.000  0.000     1.886     2.147
 376   1 H     -0.790  1.790  0.000  0.000  2589.396    93.043
 377   1 H      0.007  0.993  0.000  0.000     2.950     2.687
 378   7 N     -0.328  1.332  3.997  0.000    28.453     7.922
 379   6 C     -0.091  1.077  3.015  0.000    22.158     6.687
 380   6 C      0.433  0.935  2.631  0.000    19.736     7.279
 381   8 O     -0.109  1.433  4.675  0.000    16.258     5.427
 382   6 C      0.559  0.910  2.531  0.000    17.207     6.706
 383   8 O      0.337  1.386  4.278  0.000    11.203     4.494
 384   6 C     -0.209  1.014  3.196  0.000    27.073     7.793
 385   1 H      0.221  0.779  0.000  0.000     1.004     1.570
 386   1 H      0.047  0.953  0.000  0.000     2.363     2.404
 387   1 H     -0.856  1.856  0.000  0.000  1370.893    59.690
 388   1 H     -0.826  1.826  0.000  0.000  2791.318    96.287
 389   1 H      0.076  0.924  0.000  0.000     2.024     2.225
 390   1 H     -0.095  1.095  0.000  0.000     5.506     3.688
 391   1 H     -0.026  1.026  0.000  0.000     3.562     2.952
 392   7 N     -0.361  1.272  4.089  0.000    29.292     8.038
 393   6 C      0.023  1.082  2.895  0.000    20.201     6.401
 394   6 C      0.310  1.045  2.645  0.000    21.729     7.632
 395   8 O     -0.429  1.715  4.715  0.000    22.272     6.327
 396   6 C     -0.014  1.055  2.958  0.000    20.783     6.484
 397   6 C     -0.057  1.057  3.000  0.000    21.600     6.617
 398   6 C     -0.107  1.057  3.050  0.000    22.619     6.784
 399   6 C     -0.120  1.070  3.050  0.000    22.895     6.831
 400   1 H      0.153  0.847  0.000  0.000     1.383     1.842
 401   1 H      0.065  0.935  0.000  0.000     2.147     2.292
 402   1 H      0.016  0.984  0.000  0.000     2.792     2.613
 403   1 H     -0.021  1.021  0.000  0.000     3.452     2.906
 404   1 H      0.048  0.952  0.000  0.000     2.343     2.394
 405   1 H      0.064  0.936  0.000  0.000     2.154     2.295
 406   1 H      0.018  0.982  0.000  0.000     2.771     2.603
 407   1 H      0.070  0.930  0.000  0.000     2.089     2.260
 408   1 H      0.059  0.941  0.000  0.000     2.207     2.323
 409   1 H      0.076  0.924  0.000  0.000     2.020     2.222
 410   1 H      0.042  0.958  0.000  0.000     2.423     2.435
 411   7 N     -0.291  1.335  3.956  0.000    27.498     7.788
 412   6 C      0.059  1.062  2.878  0.000    19.526     6.280
 413   6 C      0.285  1.026  2.689  0.000    22.179     7.712
 414   8 O     -0.426  1.709  4.717  0.000    22.202     6.318
 415   6 C     -0.037  1.017  3.021  0.000    21.221     6.555
 416   6 C      0.359  1.003  2.638  0.000    20.921     7.494
 417   8 O     -0.710  1.798  4.912  0.000    28.970     7.217
 418   8 O     -0.647  1.774  4.874  0.000    27.289     7.005
 419   1 H      0.215  0.785  0.000  0.000     1.034     1.593
 420   1 H      0.028  0.972  0.000  0.000     2.615     2.529
 421   1 H      0.027  0.973  0.000  0.000     2.624     2.533
 422   1 H      0.074  0.926  0.000  0.000     2.043     2.235
 423   7 N     -0.172  1.273  3.900  0.000    24.731     7.386
 424   6 C     -0.019  1.064  2.955  0.000    20.892     6.505
 425   6 C      0.340  1.001  2.659  0.000    21.234     7.547
 426   8 O     -0.308  1.658  4.650  0.000    19.921     5.984
 427   6 C     -0.080  1.047  3.033  0.000    22.014     6.676
 428   6 C     -0.021  1.052  2.969  0.000    20.916     6.505
 429   6 C     -0.123  1.064  3.059  0.000    22.943     6.834
 430   6 C     -0.119  1.051  3.068  0.000    22.841     6.817
 431   1 H      0.211  0.789  0.000  0.000     1.050     1.605
 432   1 H      0.090  0.910  0.000  0.000     1.882     2.145
 433   1 H      0.041  0.959  0.000  0.000     2.442     2.444
 434   1 H      0.030  0.970  0.000  0.000     2.592     2.518
 435   1 H      0.030  0.970  0.000  0.000     2.580     2.512
 436   1 H      0.060  0.940  0.000  0.000     2.198     2.319
 437   1 H      0.045  0.955  0.000  0.000     2.385     2.415
 438   1 H      0.045  0.955  0.000  0.000     2.378     2.412
 439   1 H      0.065  0.935  0.000  0.000     2.146     2.291
 440   1 H      0.051  0.949  0.000  0.000     2.310     2.377
 441   1 H      0.045  0.955  0.000  0.000     2.388     2.416
 442   7 N     -0.266  1.305  3.961  0.000    26.892     7.702
 443   6 C      0.027  1.055  2.918  0.000    20.128     6.390
 444   6 C      0.189  1.085  2.726  0.000    23.963     8.018
 445   8 O     -0.335  1.731  4.604  0.000    20.416     6.058
 446   6 C     -0.040  1.075  2.964  0.000    21.244     6.556
 447   6 C     -0.052  1.048  3.004  0.000    21.509     6.604
 448   6 C     -0.133  1.068  3.065  0.000    23.160     6.869
 449   6 C     -0.093  1.042  3.051  0.000    22.346     6.743
 450   1 H      0.224  0.776  0.000  0.000     0.992     1.560
 451   1 H      0.036  0.964  0.000  0.000     2.510     2.478
 452   1 H      0.085  0.915  0.000  0.000     1.932     2.174
 453   1 H      0.003  0.997  0.000  0.000     3.000     2.709
 454   1 H      0.033  0.967  0.000  0.000     2.546     2.495
 455   1 H      0.056  0.944  0.000  0.000     2.248     2.345
 456   1 H      0.075  0.925  0.000  0.000     2.036     2.231
 457   1 H      0.048  0.952  0.000  0.000     2.340     2.392
 458   1 H      0.007  0.993  0.000  0.000     2.932     2.678
 459   1 H      0.050  0.950  0.000  0.000     2.315     2.380
 460   1 H      0.025  0.975  0.000  0.000     2.662     2.552
 461   7 N     -0.390  1.357  4.032  0.000    30.085     8.146
 462   6 C      0.035  1.065  2.900  0.000    20.010     6.373
 463   6 C      0.185  1.096  2.719  0.000    24.033     8.028
 464   8 O     -0.412  1.792  4.620  0.000    21.925     6.278
 465   6 C     -0.071  1.052  3.019  0.000    21.862     6.657
 466   6 C     -0.048  1.110  2.938  0.000    29.191     8.862
 467   6 C     -0.016  1.079  2.937  0.000    28.403     8.738
 468   6 C     -0.024  1.108  2.916  0.000    28.594     8.772
 469   7 N     -0.119  1.231  3.888  0.000    23.597     7.215
 470   6 C      0.041  1.085  2.874  0.000    27.071     8.534
 471   6 C     -0.027  1.105  2.922  0.000    28.678     8.780
 472   6 C     -0.045  1.067  2.978  0.000    29.118     8.847
 473   6 C     -0.050  1.079  2.970  0.000    29.238     8.866
 474   6 C     -0.039  1.078  2.960  0.000    28.958     8.825
 475   1 H      0.162  0.838  0.000  0.000     1.325     1.803
 476   1 H      0.077  0.923  0.000  0.000     2.014     2.220
 477   1 H      0.077  0.923  0.000  0.000     2.006     2.215
 478   1 H      0.088  0.912  0.000  0.000     1.899     2.155
 479   1 H      0.076  0.924  0.000  0.000     2.020     2.222
 480   1 H      0.160  0.840  0.000  0.000     1.336     1.810
 481   1 H      0.018  0.982  0.000  0.000     2.768     2.603
 482   1 H     -0.007  1.007  0.000  0.000     3.178     2.788
 483   1 H      0.051  0.949  0.000  0.000     2.307     2.375
 484   1 H      0.009  0.991  0.000  0.000     2.912     2.669
 485   7 N     -0.406  1.320  4.086  0.000    30.539     8.207
 486   6 C     -0.006  1.057  2.949  0.000    20.696     6.479
 487   6 C      0.277  1.031  2.691  0.000    22.318     7.743
 488   8 O     -0.373  1.666  4.707  0.000    21.143     6.165
 489   6 C      0.060  1.044  2.896  0.000    19.763     6.366
 490   8 O     -0.488  1.705  4.784  0.000    22.645     6.424
 491   1 H      0.171  0.829  0.000  0.000     1.265     1.761
 492   1 H      0.059  0.941  0.000  0.000     2.214     2.327
 493   1 H      0.032  0.968  0.000  0.000     2.557     2.501
 494   1 H      0.071  0.929  0.000  0.000     2.077     2.254
 495   1 H      0.299  0.701  0.000  0.000     0.724     1.337
 496   7 N     -0.157  1.215  3.942  0.000    24.379     7.333
 497   6 C     -0.070  1.000  3.070  0.000    21.802     6.640
 498   6 C      0.369  0.937  2.694  0.000    20.757     7.470
 499   8 O     -0.261  1.537  4.724  0.000    18.998     5.849
 500   6 C      0.202  1.059  2.740  0.000    18.090     6.185
 501   8 O     -0.470  1.689  4.781  0.000    22.340     6.376
 502   1 H      0.182  0.818  0.000  0.000     1.202     1.717
 503   1 H      0.069  0.931  0.000  0.000     2.094     2.262
 504   1 H     -0.261  1.261  0.000  0.000    32.207    10.037
 505   1 H     -0.015  1.015  0.000  0.000     3.326     2.853
 506   1 H      0.375  0.625  0.000  0.000     0.566     1.199
 507   7 N     -0.204  1.122  4.082  0.000    25.417     7.488
 508   6 C      0.007  1.048  2.945  0.000    20.379     6.414
 509   6 C      0.182  1.101  2.717  0.000    24.102     8.045
 510   8 O     -0.754  1.935  4.819  0.000    30.305     7.377
 511   6 C     -0.071  1.109  2.962  0.000    22.536     6.876
 512   6 C     -0.094  1.079  3.015  0.000    22.196     6.691
 513   6 C      0.402  1.010  2.588  0.000    20.227     7.357
 514   8 O     -0.211  1.547  4.664  0.000    17.916     5.693
 515   8 O     -0.904  1.913  4.991  0.000    34.992     7.929
 516   1 H      0.238  0.762  0.000  0.000     0.924     1.503
 517   1 H      0.096  0.904  0.000  0.000     1.819     2.109
 518   1 H      0.053  0.947  0.000  0.000     2.283     2.363
 519   1 H     -0.050  1.050  0.000  0.000     4.202     3.226
 520   1 H      0.044  0.956  0.000  0.000     2.397     2.421
 521   1 H      0.021  0.979  0.000  0.000     2.714     2.576
 522   7 N      0.060  1.214  3.727  0.000    20.196     6.675
 523   6 C     -0.134  1.084  3.050  0.000    23.294     6.910
 524   6 C      0.342  1.000  2.658  0.000    21.193     7.540
 525   8 O     -0.187  1.602  4.585  0.000    17.853     5.665
 526   6 C     -0.078  1.116  2.962  0.000    22.018     6.685
 527   6 C     -0.102  1.061  3.041  0.000    22.446     6.747
 528   6 C      0.002  1.011  2.987  0.000    20.474     6.430
 529   1 H      0.074  0.926  0.000  0.000     2.046     2.237
 530   1 H      0.054  0.946  0.000  0.000     2.275     2.359
 531   1 H      0.016  0.984  0.000  0.000     2.804     2.619
 532   1 H      0.104  0.896  0.000  0.000     1.744     2.065
 533   1 H      0.039  0.961  0.000  0.000     2.466     2.456
 534   1 H      0.083  0.917  0.000  0.000     1.953     2.187
 535   1 H      0.080  0.920  0.000  0.000     1.979     2.200
 536   7 N     -0.168  1.243  3.925  0.000    24.624     7.370
 537   6 C     -0.032  1.087  2.945  0.000    21.085     6.527
 538   6 C      0.249  1.042  2.710  0.000    22.822     7.823
 539   8 O     -0.239  1.628  4.611  0.000    18.718     5.801
 540   6 C     -0.075  1.067  3.008  0.000    21.906     6.658
 541   6 C     -0.065  1.029  3.036  0.000    21.678     6.617
 542   6 C      0.002  1.058  2.940  0.000    20.625     6.479
 543   1 H      0.066  0.934  0.000  0.000     2.136     2.286
 544   1 H      0.072  0.928  0.000  0.000     2.058     2.243
 545   1 H      0.078  0.922  0.000  0.000     2.003     2.213
 546   1 H      0.083  0.917  0.000  0.000     1.948     2.183
 547   1 H      0.059  0.941  0.000  0.000     2.208     2.324
 548   1 H      0.090  0.910  0.000  0.000     1.877     2.143
 549   1 H      0.046  0.954  0.000  0.000     2.364     2.404
 550   7 N     -0.406  1.369  4.037  0.000    30.538     8.207
 551   6 C      0.015  1.070  2.915  0.000    20.371     6.433
 552   6 C      0.223  1.056  2.720  0.000    23.304     7.907
 553   8 O     -0.378  1.726  4.652  0.000    21.253     6.181
 554   6 C     -0.080  1.061  3.019  0.000    22.028     6.681
 555   6 C     -0.022  1.069  2.953  0.000    20.938     6.510
 556   6 C     -0.119  1.057  3.061  0.000    22.853     6.820
 557   6 C     -0.134  1.058  3.076  0.000    23.142     6.862
 558   1 H      0.157  0.843  0.000  0.000     1.353     1.822
 559   1 H      0.085  0.915  0.000  0.000     1.926     2.171
 560   1 H      0.035  0.965  0.000  0.000     2.520     2.483
 561   1 H      0.073  0.927  0.000  0.000     2.052     2.240
 562   1 H      0.017  0.983  0.000  0.000     2.785     2.610
 563   1 H      0.058  0.942  0.000  0.000     2.223     2.331
 564   1 H      0.023  0.977  0.000  0.000     2.694     2.567
 565   1 H      0.052  0.948  0.000  0.000     2.297     2.370
 566   1 H      0.070  0.930  0.000  0.000     2.090     2.261
 567   1 H      0.064  0.936  0.000  0.000     2.148     2.292
 568   1 H      0.039  0.961  0.000  0.000     2.465     2.456
 569   7 N     -0.413  1.368  4.045  0.000    30.743     8.235
 570   6 C     -0.005  1.064  2.940  0.000    20.663     6.472
 571   6 C      0.258  1.028  2.714  0.000    22.655     7.796
 572   8 O     -0.277  1.640  4.637  0.000    19.362     5.900
 573   6 C     -0.068  1.050  3.018  0.000    21.773     6.639
 574   6 C     -0.073  1.052  3.021  0.000    21.896     6.661
 575   6 C     -0.096  1.061  3.036  0.000    22.330     6.726
 576   6 C     -0.048  1.052  2.996  0.000    21.530     6.622
 577   7 N     -0.140  1.255  3.885  0.000    24.029     7.280
 578   1 H      0.164  0.836  0.000  0.000     1.307     1.791
 579   1 H      0.046  0.954  0.000  0.000     2.364     2.404
 580   1 H      0.070  0.930  0.000  0.000     2.086     2.259
 581   1 H      0.032  0.968  0.000  0.000     2.553     2.499
 582   1 H      0.054  0.946  0.000  0.000     2.268     2.355
 583   1 H      0.056  0.944  0.000  0.000     2.249     2.345
 584   1 H      0.071  0.929  0.000  0.000     2.076     2.253
 585   1 H      0.074  0.926  0.000  0.000     2.043     2.235
 586   1 H      0.115  0.885  0.000  0.000     1.653     2.010
 587   1 H      0.102  0.898  0.000  0.000     1.771     2.081
 588   1 H      0.309  0.691  0.000  0.000     0.689     1.300
 589   1 H      0.289  0.711  0.000  0.000     0.749     1.356
 590   1 H      0.301  0.699  0.000  0.000     0.710     1.320
 591   1 H      0.182  0.818  0.000  0.000     1.201     1.717
 592   1 H      0.054  0.946  0.000  0.000     2.265     2.353
 593   1 H      0.158  0.842  0.000  0.000     1.347     1.818
 594   1 H      0.001  0.999  0.000  0.000     3.037     2.725
 595   1 H      0.220  0.780  0.000  0.000     1.004     1.566
 596   1 H      0.005  0.995  0.000  0.000     2.969     2.694
 597   1 H      0.204  0.796  0.000  0.000     1.087     1.633
 598   1 H      0.093  0.907  0.000  0.000     1.848     2.126
 599   1 H      0.185  0.815  0.000  0.000     1.186     1.706
 600   1 H      0.033  0.967  0.000  0.000     2.539     2.491
 601   1 H      0.222  0.778  0.000  0.000     0.999     1.565
 602   1 H     -0.017  1.017  0.000  0.000     3.360     2.866
 603   1 H      0.202  0.798  0.000  0.000     1.091     1.635
 604   1 H      0.070  0.930  0.000  0.000     2.085     2.258
 605   1 H      0.189  0.811  0.000  0.000     1.164     1.690
 606   1 H      0.082  0.918  0.000  0.000     1.963     2.191
 607   1 H      0.188  0.812  0.000  0.000     1.170     1.694
 608   1 H      0.022  0.978  0.000  0.000     2.696     2.567
 609   1 H      0.190  0.810  0.000  0.000     1.161     1.688
 610   1 H      0.039  0.961  0.000  0.000     2.462     2.454
 611   1 H      0.183  0.817  0.000  0.000     1.199     1.715
 612   1 H     -0.004  1.004  0.000  0.000     3.124     2.764

 Mol. C6AA /au·bohr⁶  :    3905363.194268
 Mol. C8AA /au·bohr⁸  :   83404148.682534
 Mol. α(0) /au        :       3005.720650

 
molecular dipole:
                 x           y           z       tot (Debye)
 q only:      -35.278      31.830      74.896
   full:      -30.950      29.373      70.007     208.393
molecular quadrupole (traceless):
                xx          xy          yy          xz          yz          zz
 q only:    -4290.580   -2275.011    4326.136    3211.232    7334.533     -35.555
  q+dip:    -3902.805   -1943.574    3924.695    2979.049    6854.795     -21.890
   full:    -3897.151   -1946.722    3920.918    2978.282    6852.722     -23.767
speedup  1.98
cpu  time for grad    3 m 36.0 s
wall time for grad    1 m 49.2 s

SCC energy    :    -927.0524908
rep           :      21.8738275
ES            :       3.3909663
AES           :      -0.2131044
AXC           :       0.2820614
disp          :      -1.0269387
XB            :       0.0000000
fix           :       0.0000000
Gborn         :       0.0000000
Gsasa         :       0.0000000
Ghb           :       0.0000000
Gshift        :       0.0000000
Gsolv         :      -1.2494275     -784.03
Etot ala COSMO:    -927.0524908
grad norm     :      16.7515874
total E       :    -905.0839551
atomizationE  :     155.4886173    97570.58
(atE without considering molecular charge,
 total energy contains solvation terms)
H-L gap (eV)  :          0.1264

------------------------------------------------------------------------
 * finished run on 2019/05/12 at 07:59:03.105     
------------------------------------------------------------------------
 total:
 * wall-time:     0 d,  0 h,  1 min, 51.471 sec
 *  cpu-time:     0 d,  0 h,  3 min, 39.356 sec
 * ratio c/w:     1.968 speedup
 SCF:
 * wall-time:     0 d,  0 h,  1 min, 50.510 sec
 *  cpu-time:     0 d,  0 h,  3 min, 38.237 sec
 * ratio c/w:     1.975 speedup

