      -----------------------------------------------------------      
     |                   =====================                   |     
     |                           x T B                           |     
     |                   =====================                   |     
     |                         S. Grimme                         |     
     |          Mulliken Center for Theoretical Chemistry        |     
     |                    University of Bonn                     |     
     |                 Version 6.0.1 (SAW181210)                 |     
      -----------------------------------------------------------      

   This program is distributed in the hope that it will be useful,
   but WITHOUT ANY WARRANTY; without even the implied warranty of
   MERCHANTABILITY or FITNESS FOR A PARTICULAR PURPOSE.
   
   FOR NON-COMMERCIAL, ACADEMIA USE ONLY.
   
   Cite this work as:
   S. Grimme, C. Bannwarth, P. Shushkov, J. Comput. Theory Chem., 2017,
   13, 1989-2009.
   C. Bannwarth, S. Ehlert and S. Grimme., ChemRxiv, 2018, preprint.
   http://doi.org/10.26434/chemrxiv.7246238.v1
   
   for sTDA-xTB:
   S. Grimme and C. Bannwarth, J. Chem. Phys., 2016, 145, 054103.
   
   in the mass-spec context:
   V. Asgeirsson, C. Bauer and S. Grimme, Chem. Sci., 2017, 8, 4879.
   
   if GBSA is used:
   P. Shushkov, F. März and S. Grimme, unpublished.
   
   for ANC optimizer:
   S. Grimme, unpublished.
   Rational Function algorithm used in ANCopt:
   F. Eckert, P. Pulay, H.-J. Werner, J. Comput. Chem., 1997, 18, 1473.
   
   with help from (in alphabetical order)
   C. Bannwarth, F. Bohle, G. Brandenburg, E. Caldeweyher, M. Checinski,
   S. Dohm, S. Ehlert, S. Ehrlich, F. März, H. Neugebauer, J. Pisarek,
   P. Pracht, P. Shushkov, and S. Spicher.
   
 * started run on 2019/05/04 at 20:24:13.423     
========================================================================
 # omp threads = 2
========================================================================
number of atoms            : 800
number of electrons        : 2196
charge                     : -2
spin                       : .0
first test random number   : .7149

########################################################################
# WARNING! Please study the warnings concerning your input carefully
#  - Process number higher than OMP_NUM_THREADS, I hope you know what you are doing.
########################################################################

           ------------------------------------------------- 
          |                 G F N 2 - x T B                 |
          | Geometry, Frequencies, Noncovalent interactions |
          |            JCTC 2018 parametrisation            |
           ------------------------------------------------- 
 
      method parameters     
 k(s)        :  1.8500
 k(p)        :  2.2300
 k(d)        :  2.2300
 k(f)        :  2.0000
 kEN (H0ij)  : -2.0000
 D4 a1       :  0.5200
 D4 a2       :  5.0000
 D4 s6       :  1.0000
 D4 s8       :  2.7000
 D4 s9       :  5.0000
 alphaj      :  2.0000

 Solvent             : h2o
 Using internal parameter file: .param_gbsa2_h2o
 Gsolv ref. state (COSMO-RS): gsolv [1 M gas/solution]
 temperature (mdtemp)       :    298.150000000000     
 dielectric constant        :    80.2000000000000     
 rho                        :    1.00000000000000     
 mass                       :    18.0000000000000     
 surface tension            :    15.5689454083859     
 probe radius               :   0.975313790000000     
 vdW radii scaling          :    1.00000000000000     
 Gshift (Eh)                :   1.857443126794793E-003
 c1                         :    1.55243817000000     
 soset                      :   0.130326360000000     
 HB correction              :  T

            Z     q(EN)     CN     RAES       Cart. coordinates
     1  N   5.0   -0.22    3.25    1.97    59.44889   125.71969   -26.17648
     2  C   4.0    0.02    4.37    4.32    60.79626   124.75404   -28.36101
     3  C   4.0    0.15    3.44    3.09    63.55148   125.51371   -28.23817
     4  O   6.0   -0.33    1.34    1.80    65.22578   123.96224   -28.67281
     5  C   4.0   -0.05    4.32    4.23    59.60952   125.73292   -30.80064
     6  C   4.0   -0.05    4.24    4.09    57.80294   123.90366   -32.01763
     7  C   4.0   -0.05    4.22    4.05    55.68266   123.18746   -30.24506
     8  C   4.0   -0.04    4.15    3.90    55.33873   120.35098   -30.19404
     9  N   5.0   -0.11    4.05    2.99    55.09118   119.25494   -32.78486
    10  H   1.0    0.07    1.03    1.43    57.83128   126.67022   -26.61490
    11  H   1.0    0.04    1.06    1.44    60.65642   122.69991   -28.38179
    12  H   1.0    0.03    1.04    1.43    58.56828   127.46013   -30.38301
    13  H   1.0    0.04    1.04    1.43    61.11185   126.12598   -32.15369
    14  H   1.0    0.04    1.03    1.43    56.97902   124.77294   -33.69381
    15  H   1.0    0.04    1.04    1.44    58.81772   122.18779   -32.53919
    16  H   1.0    0.03    1.06    1.44    56.12864   123.82996   -28.34022
    17  H   1.0    0.04    1.03    1.43    53.92522   124.05106   -30.88568
    18  H   1.0    0.04    1.02    1.43    56.97524   119.48926   -29.28697
    19  H   1.0    0.04    1.02    1.43    53.62853   119.89744   -29.13957
    20  H   1.0    0.06    1.01    1.43    54.01971   117.60898   -32.71872
    21  H   1.0    0.08    1.04    1.43    54.20868   120.54373   -33.97916
    22  H   1.0    0.07    1.02    1.43    56.86941   118.82975   -33.50673
    23  N   5.0   -0.15    3.49    2.07    64.00124   127.89854   -27.59378
    24  C   4.0    0.03    4.47    4.49    66.56182   128.87931   -27.38402
    25  C   4.0    0.16    3.49    3.11    68.15486   127.33540   -25.58311
    26  O   6.0   -0.33    1.49    1.80    70.14663   126.40377   -26.31632
    27  C   4.0   -0.06    4.39    4.37    66.52780   131.63264   -26.56010
    28  C   4.0   -0.02    4.19    3.98    66.65063   133.60929   -28.65769
    29  C   4.0   -0.08    4.12    3.83    65.57538   132.68522   -31.18993
    30  C   4.0   -0.08    4.12    3.84    65.27302   135.94311   -27.73551
    31  H   1.0    0.07    1.06    1.44    62.63308   129.19867   -27.20449
    32  H   1.0    0.05    1.07    1.44    67.41975   128.76971   -29.25296
    33  H   1.0    0.03    1.05    1.44    64.78170   131.96523   -25.51886
    34  H   1.0    0.04    1.04    1.43    68.15108   131.95011   -25.33367
    35  H   1.0    0.05    1.06    1.44    68.62351   134.04015   -29.06399
    36  H   1.0    0.04    1.00    1.43    65.73412   134.19889   -32.57699
    37  H   1.0    0.04    1.00    1.43    66.65063   131.04305   -31.81543
    38  H   1.0    0.04    1.00    1.43    63.59684   132.17310   -30.93103
    39  H   1.0    0.04    1.00    1.43    65.33538   137.38308   -29.20571
    40  H   1.0    0.03    1.00    1.43    63.31716   135.44800   -27.32166
    41  H   1.0    0.04    1.00    1.43    66.19710   136.63852   -26.03097
    42  N   5.0   -0.15    3.47    2.06    67.25913   127.04628   -23.24930
    43  C   4.0    0.04    4.43    4.43    68.51579   125.42300   -21.41437
    44  C   4.0    0.17    3.46    3.10    69.41719   122.96258   -22.62002
    45  O   6.0   -0.31    1.29    1.80    71.65463   122.32763   -22.48207
    46  C   4.0   -0.05    4.30    4.20    66.76024   124.85986   -19.19017
    47  C   4.0   -0.04    4.22    4.04    67.09661   126.63054   -16.96407
    48  C   4.0    0.15    3.22    3.04    69.48900   126.08818   -15.45607
    49  O   6.0   -0.29    1.24    1.80    71.45432   125.39277   -16.50676
    50  N   5.0   -0.19    3.17    1.95    69.32649   126.41700   -12.97108
    51  H   1.0    0.07    1.06    1.44    65.67176   127.90799   -22.57656
    52  H   1.0    0.06    1.07    1.44    70.15608   126.43211   -20.68494
    53  H   1.0    0.03    1.03    1.43    64.81004   125.02238   -19.83078
    54  H   1.0    0.05    1.04    1.43    67.12685   122.94368   -18.52876
    55  H   1.0    0.04    1.03    1.43    67.20810   128.56750   -17.65760
    56  H   1.0    0.03    1.03    1.43    65.48656   126.42834   -15.69606
    57  H   1.0    0.07    1.03    1.43    67.66731   127.00092   -12.18306
    58  H   1.0    0.09    1.02    1.43    70.86094   126.08629   -11.85236
    59  N   5.0   -0.14    3.48    2.06    67.66164   121.62654   -23.83511
    60  C   4.0    0.03    4.41    4.40    68.17564   119.21336   -25.07855
    61  C   4.0    0.16    3.43    3.09    70.08427   119.42312   -27.23284
    62  O   6.0   -0.33    1.52    1.80    71.73589   117.80174   -27.55409
    63  C   4.0   -0.04    4.34    4.28    65.72467   118.10976   -26.10278
    64  C   4.0   -0.04    4.24    4.08    64.00691   117.02506   -24.11479
    65  C   4.0    0.14    3.23    3.04    62.13797   115.18258   -25.24107
    66  O   6.0   -0.30    1.21    1.80    61.61640   115.25628   -27.52764
    67  N   5.0   -0.19    3.16    1.95    61.12319   113.50072   -23.64614
    68  H   1.0    0.08    1.07    1.44    65.82104   122.17456   -23.99763
    69  H   1.0    0.05    1.06    1.44    68.97878   117.95858   -23.65559
    70  H   1.0    0.06    1.04    1.43    64.68910   119.60076   -27.07599
    71  H   1.0    0.06    1.04    1.43    66.18576   116.59609   -27.42181
    72  H   1.0    0.04    1.03    1.43    65.13507   116.02728   -22.70884
    73  H   1.0    0.04    1.03    1.43    62.95244   118.55007   -23.21717
    74  H   1.0    0.08    1.02    1.43    61.62396   113.51395   -21.78476
    75  H   1.0    0.09    1.02    1.43    59.84951   112.20626   -24.29243
    76  N   5.0   -0.13    3.54    2.11    69.80837   121.41300   -28.73517
    77  C   4.0    0.04    4.43    4.43    71.51101   121.88732   -30.83466
    78  C   4.0    0.16    3.49    3.11    74.08860   122.54495   -29.74618
    79  O   6.0   -0.32    1.38    1.80    75.98777   121.36954   -30.42270
    80  C   4.0   -0.04    4.37    4.33    70.49245   124.06429   -32.44470
    81  C   4.0   -0.02    3.49    3.11    68.48367   123.37265   -34.38923
    82  C   4.0   -0.05    3.44    3.09    68.79358   124.03405   -36.92336
    83  C   4.0   -0.03    3.45    3.10    66.26135   122.10275   -33.70137
    84  C   4.0   -0.04    3.41    3.08    66.96244   123.43501   -38.73182
    85  C   4.0   -0.05    3.41    3.08    64.41887   121.48670   -35.50417
    86  C   4.0    0.06    3.42    3.09    64.78925   122.15944   -38.01562
    87  O   6.0   -0.25    2.12    1.84    62.99968   121.56607   -39.81464
    88  H   1.0    0.12    1.11    1.45    68.41942   122.73581   -28.54620
    89  H   1.0    0.05    1.06    1.44    71.65841   120.23948   -32.06109
    90  H   1.0    0.06    1.05    1.44    69.65908   125.46269   -31.18237
    91  H   1.0    0.04    1.07    1.44    72.07226   124.89577   -33.47272
    92  H   1.0    0.04    1.03    1.43    70.48111   125.02805   -37.49972
    93  H   1.0    0.07    1.05    1.44    65.96277   121.59064   -31.74929
    94  H   1.0    0.05    1.03    1.43    67.24023   123.96602   -40.68202
    95  H   1.0    0.05    1.03    1.43    62.72378   120.49649   -34.94481
    96  H   1.0    0.11    1.03    1.43    61.58239   120.67034   -39.02662
    97  N   5.0   -0.14    3.61    2.16    74.09615   124.40255   -28.02653
    98  C   4.0    0.03    4.39    4.37    76.30146   125.11120   -26.50341
    99  C   4.0    0.17    3.51    3.12    77.63561   122.66589   -25.83444
   100  O   6.0   -0.30    1.22    1.80    79.92029   122.39377   -26.24073
   101  C   4.0   -0.04    4.28    4.16    75.46999   126.54361   -24.10534
   102  C   4.0   -0.05    4.15    3.90    77.47687   128.19523   -22.84679
   103  C   4.0   -0.00    4.20    4.01    76.34682   129.84118   -20.74919
   104  N   5.0   -0.13    3.38    2.01    76.01234   128.48058   -18.36058
   105  C   4.0    0.10    3.34    3.06    75.44353   129.56339   -16.15338
   106  N   5.0   -0.17    3.25    1.97    75.18842   128.14421   -14.09925
   107  N   5.0   -0.17    3.27    1.97    75.12228   132.05216   -15.97952
   108  H   1.0    0.12    1.22    1.47    72.55414   125.48725   -27.63157
   109  H   1.0    0.04    1.06    1.44    77.55246   126.39810   -27.51252
   110  H   1.0    0.06    1.04    1.43    73.89773   127.77571   -24.60612
   111  H   1.0    0.07    1.04    1.43    74.86149   125.15844   -22.70884
   112  H   1.0    0.05    1.03    1.43    78.92440   126.99147   -22.01342
   113  H   1.0    0.05    1.03    1.43    78.31969   129.43678   -24.25841
   114  H   1.0    0.08    1.04    1.43    77.60349   131.43422   -20.39959
   115  H   1.0    0.05    1.03    1.43    74.49867   130.52148   -21.35579
   116  H   1.0    0.09    1.06    1.44    76.22966   126.56629   -18.38514
   117  H   1.0    0.10    1.03    1.43    75.42652   126.23558   -14.21074
   118  H   1.0    0.08    1.03    1.43    74.75378   128.96435   -12.40983
   119  H   1.0    0.10    1.05    1.44    75.30936   133.15954   -17.54611
   120  H   1.0    0.08    1.02    1.43    74.68764   132.85151   -14.28066
   121  N   5.0   -0.13    3.53    2.10    76.14651   120.86309   -24.90848
   122  C   4.0    0.04    4.40    4.39    77.10082   118.37243   -24.29621
   123  C   4.0    0.16    3.41    3.08    77.83403   116.87388   -26.66970
   124  O   6.0   -0.33    1.42    1.80    80.07525   116.41468   -27.06466
   125  C   4.0   -0.04    4.26    4.12    75.27156   116.95136   -22.55010
   126  C   4.0   -0.03    4.18    3.97    75.00511   118.19669   -19.94228
   127  C   4.0    0.25    3.11    3.03    73.96954   116.44302   -17.90326
   128  O   6.0   -0.28    1.17    1.80    74.20954   117.11577   -15.64504
   129  O   6.0   -0.29    1.18    1.80    72.91508   114.41724   -18.52687
   130  H   1.0    0.11    1.10    1.44    74.26245   121.08230   -24.56455
   131  H   1.0    0.05    1.07    1.44    78.85070   118.57274   -23.22851
   132  H   1.0    0.07    1.03    1.43    73.40829   116.90601   -23.42693
   133  H   1.0    0.05    1.03    1.43    75.96698   115.03329   -22.27231
   134  H   1.0    0.05    1.03    1.43    76.86082   118.84486   -19.32623
   135  H   1.0    0.07    1.04    1.43    73.71821   119.79729   -20.10290
   136  N   5.0   -0.14    3.48    2.06    76.01612   116.20870   -28.29109
   137  C   4.0    0.04    4.41    4.40    76.57170   114.51550   -30.43593
   138  C   4.0    0.16    3.43    3.09    78.70331   115.44714   -32.17258
   139  O   6.0   -0.30    1.28    1.80    79.91651   113.95236   -33.47838
   140  C   4.0   -0.04    4.24    4.07    74.17741   113.83709   -31.93259
   141  C   4.0   -0.03    4.01    3.64    74.53835   111.80942   -34.04719
   142  S   6.0    0.00    2.52    3.10    76.59815   109.08254   -33.49350
   143  C   4.0   -0.05    3.87    3.43    75.71187   106.96416   -36.00873
   144  H   1.0    0.14    1.29    1.49    74.18119   116.78884   -28.18526
   145  H   1.0    0.05    1.08    1.44    77.22932   112.74483   -29.61390
   146  H   1.0    0.05    1.03    1.43    72.77335   113.10577   -30.61356
   147  H   1.0    0.05    1.03    1.43    73.47066   115.54729   -32.83588
   148  H   1.0    0.04    1.07    1.44    72.67697   111.04030   -34.47994
   149  H   1.0    0.06    1.10    1.44    75.30369   112.77695   -35.69692
   150  H   1.0    0.06    1.04    1.43    76.83626   105.24451   -35.86511
   151  H   1.0    0.04    1.04    1.43    73.71065   106.51062   -35.82920
   152  H   1.0    0.06    1.04    1.43    76.06525   107.88445   -37.81720
   153  N   5.0   -0.13    3.54    2.10    79.17196   117.90756   -32.15558
   154  C   4.0    0.04    4.51    4.55    81.37160   118.90345   -33.44815
   155  C   4.0    0.16    3.47    3.10    83.76966   118.20236   -32.05920
   156  O   6.0   -0.29    1.27    1.80    85.51388   117.12521   -33.15713
   157  C   4.0   -0.05    4.40    4.37    81.22420   121.76638   -33.73161
   158  C   4.0   -0.03    4.21    4.02    79.92407   122.73581   -36.12211
   159  C   4.0   -0.08    4.12    3.84    81.28845   125.05639   -37.13689
   160  C   4.0   -0.08    4.32    4.24    79.88627   120.71191   -38.09876
   161  H   1.0    0.13    1.15    1.45    78.08348   119.23415   -31.27874
   162  H   1.0    0.06    1.10    1.44    81.40561   118.08708   -35.33976
   163  H   1.0    0.06    1.04    1.43    80.18107   122.51849   -32.12156
   164  H   1.0    0.05    1.05    1.44    83.14416   122.51093   -33.73728
   165  H   1.0    0.04    1.06    1.44    77.98521   123.26115   -35.66669
   166  H   1.0    0.04    1.00    1.43    80.32658   125.70835   -38.83765
   167  H   1.0    0.04    1.00    1.43    81.25822   126.53416   -35.70259
   168  H   1.0    0.04    1.01    1.43    83.23487   124.54995   -37.58098
   169  H   1.0    0.04    1.03    1.43    78.95275   121.43946   -39.78440
   170  H   1.0    0.04    1.01    1.43    81.82324   120.17334   -38.54474
   171  H   1.0    0.05    1.04    1.43    78.85448   119.08486   -37.37122
   172  N   5.0   -0.13    3.53    2.10    83.85470   118.81085   -29.62901
   173  C   4.0    0.04    4.49    4.52    86.12048   118.31007   -28.16826
   174  C   4.0    0.16    3.41    3.08    86.44173   115.45281   -27.73929
   175  O   6.0   -0.30    1.25    1.80    88.56390   114.52873   -27.45961
   176  C   4.0   -0.02    4.29    4.19    86.19796   119.92390   -25.70594
   177  C   4.0   -0.04    4.17    3.93    88.94184   120.40956   -24.89336
   178  C   4.0   -0.06    4.09    3.78    84.51799   118.80518   -23.61968
   179  C   4.0   -0.08    4.00    3.62    89.36514   122.94935   -23.59701
   180  H   1.0    0.11    1.07    1.44    82.41851   119.63288   -28.64069
   181  H   1.0    0.07    1.07    1.44    87.76076   118.92423   -29.25296
   182  H   1.0    0.05    1.07    1.44    85.37782   121.77016   -26.10467
   183  H   1.0    0.05    1.03    1.43    89.50687   118.93368   -23.57244
   184  H   1.0    0.06    1.03    1.43    90.14182   120.35665   -26.56577
   185  H   1.0    0.04    1.00    1.43    84.64083   120.00138   -21.94728
   186  H   1.0    0.07    1.00    1.43    82.57158   118.73337   -24.29243
   187  H   1.0    0.05    1.00    1.43    85.17751   116.90601   -23.17371
   188  H   1.0    0.04    1.00    1.43    91.35502   123.12131   -23.09245
   189  H   1.0    0.05    1.00    1.43    88.83602   124.46113   -24.89336
   190  H   1.0    0.04    1.00    1.43    88.19918   123.03817   -21.90003
   191  N   5.0   -0.14    3.53    2.10    84.33280   114.07898   -27.78842
   192  C   4.0    0.04    4.36    4.30    84.31390   111.33509   -27.46150
   193  C   4.0    0.16    3.47    3.10    85.46664   110.01418   -29.72917
   194  O   6.0   -0.29    1.22    1.80    86.78566   108.11689   -29.46461
   195  C   4.0   -0.06    4.12    3.85    81.64183   110.41291   -27.03253
   196  H   1.0    0.12    1.16    1.46    82.57347   114.81786   -28.05487
   197  H   1.0    0.06    1.06    1.44    85.43262   110.86266   -25.79854
   198  H   1.0    0.05    1.00    1.43    81.66829   108.36633   -26.79442
   199  H   1.0    0.05    1.00    1.43    80.88783   111.30675   -25.33745
   200  H   1.0    0.06    1.00    1.43    80.48910   110.91557   -28.66336
   201  N   5.0   -0.12    3.56    2.12    84.91673   111.01384   -31.96471
   202  C   4.0    0.05    4.45    4.47    86.25087   110.27118   -34.23994
   203  C   4.0    0.15    3.48    3.11    88.58657   111.94359   -34.47616
   204  O   6.0   -0.33    1.42    1.80    89.34624   112.65979   -36.54919
   205  C   4.0   -0.02    4.30    4.19    84.53689   110.51117   -36.56053
   206  C   4.0    0.25    3.14    3.03    82.38260   108.59499   -36.56809
   207  O   6.0   -0.28    1.21    1.80    82.28434   106.96416   -34.86166
   208  O   6.0   -0.30    1.18    1.80    80.77823   108.71593   -38.30097
   209  H   1.0    0.11    1.07    1.44    83.55234   112.34421   -32.25006
   210  H   1.0    0.07    1.06    1.44    86.79133   108.28508   -34.17947
   211  H   1.0    0.06    1.03    1.43    83.70919   112.39712   -36.59076
   212  H   1.0    0.05    1.03    1.43    85.66317   110.20882   -38.25939
   213  N   5.0   -0.12    3.44    2.04    89.67506   112.58231   -32.29920
   214  C   4.0    0.02    4.25    4.10    92.00698   114.03740   -32.13479
   215  C   4.0    0.16    3.33    3.06    91.86903   116.68302   -33.23650
   216  O   6.0   -0.28    1.25    1.80    93.14648   118.44613   -32.30675
   217  H   1.0    0.11    1.11    1.45    88.96641   112.10610   -30.57199
   218  H   1.0    0.06    1.03    1.43    92.53610   114.21315   -30.15247
   219  H   1.0    0.05    1.03    1.43    93.49041   113.01884   -33.13634
   220  N   5.0   -0.11    3.55    2.11    90.29866   116.94947   -35.20559
   221  C   4.0    0.04    4.49    4.53    90.20418   119.24549   -36.72682
   222  C   4.0    0.17    3.52    3.12    90.73708   121.63788   -35.21315
   223  O   6.0   -0.28    1.23    1.80    89.57301   122.09330   -33.24406
   224  C   4.0   -0.02    4.35    4.30    87.64927   119.45714   -38.14034
   225  C   4.0   -0.05    4.23    4.06    87.64738   117.76583   -40.47604
   226  C   4.0   -0.07    4.19    3.97    87.07479   122.14811   -38.90946
   227  C   4.0   -0.07    4.03    3.67    85.81812   115.61343   -40.33620
   228  H   1.0    0.12    1.21    1.47    89.06278   115.58887   -35.78952
   229  H   1.0    0.04    1.07    1.44    91.74997   119.10187   -38.07987
   230  H   1.0    0.06    1.08    1.44    86.18473   118.83542   -36.83076
   231  H   1.0    0.03    1.06    1.44    87.14849   118.90723   -42.11632
   232  H   1.0    0.05    1.04    1.43    89.53144   116.97215   -40.71793
   233  H   1.0    0.03    1.00    1.43    85.26632   122.19346   -39.89211
   234  H   1.0    0.06    1.01    1.43    86.98598   123.32352   -37.22004
   235  H   1.0    0.04    1.02    1.43    88.56957   122.82274   -40.15668
   236  H   1.0    0.04    1.00    1.43    85.94285   114.51361   -42.07286
   237  H   1.0    0.06    1.02    1.43    86.29623   114.43047   -38.71859
   238  H   1.0    0.04    1.00    1.43    83.91328   116.36554   -40.11699
   239  N   5.0   -0.14    3.45    2.05    92.55689   123.11187   -36.13912
   240  C   4.0    0.04    4.42    4.41    93.05955   125.64977   -35.18292
   241  C   4.0    0.15    3.50    3.12    90.94873   127.43745   -36.03896
   242  O   6.0   -0.30    1.27    1.80    89.87159   127.08218   -38.07987
   243  C   4.0   -0.03    4.27    4.14    95.61824   126.60975   -36.13912
   244  C   4.0    0.24    3.16    3.03    96.19650   129.29316   -35.25473
   245  O   6.0   -0.30    1.18    1.80    97.23585   129.58796   -33.14579
   246  O   6.0   -0.29    1.17    1.80    95.58612   131.11108   -36.65312
   247  H   1.0    0.07    1.06    1.44    93.73419   122.59597   -37.57531
   248  H   1.0    0.06    1.06    1.44    93.12569   125.63276   -33.12501
   249  H   1.0    0.05    1.03    1.43    97.10735   125.37198   -35.43614
   250  H   1.0    0.05    1.03    1.43    95.61068   126.60408   -38.19892
   251  N   5.0   -0.09    3.65    2.21    90.34213   129.35930   -34.47994
   252  C   4.0    0.03    4.56    4.62    88.38059   131.16777   -35.18103
   253  C   4.0    0.15    3.40    3.08    88.94940   132.59073   -37.63200
   254  O   6.0   -0.29    1.26    1.80    88.37870   131.65910   -39.69747
   255  C   4.0   -0.05    4.43    4.44    88.33902   133.01025   -32.92470
   256  C   4.0   -0.04    4.30    4.20    90.78243   132.57183   -31.54708
   257  C   4.0   -0.01    4.38    4.35    91.27187   129.82606   -31.89290
   258  H   1.0    0.05    1.05    1.44    86.57590   130.18889   -35.35488
   259  H   1.0    0.05    1.05    1.44    88.21997   134.94911   -33.60878
   260  H   1.0    0.04    1.02    1.43    86.72708   132.59073   -31.71149
   261  H   1.0    0.06    1.03    1.43    92.28477   133.70756   -32.38423
   262  H   1.0    0.04    1.03    1.43    90.56890   133.04427   -29.55342
   263  H   1.0    0.06    1.04    1.43    93.28443   129.41032   -31.74551
   264  H   1.0    0.04    1.02    1.43    90.21930   128.70923   -30.51718
   265  N   5.0   -0.14    3.50    2.08    90.12670   134.79604   -37.34665
   266  C   4.0    0.04    4.38    4.35    90.40071   136.72545   -39.31575
   267  C   4.0    0.16    3.42    3.08    90.71629   135.75224   -42.02562
   268  O   6.0   -0.30    1.26    1.80    88.95318   135.88074   -43.54684
   269  C   4.0   -0.04    4.31    4.22    92.54933   138.55282   -38.60521
   270  C   4.0    0.15    3.26    3.05    92.52098   139.27847   -35.81031
   271  O   6.0   -0.30    1.21    1.80    90.58401   140.05893   -34.78419
   272  N   5.0   -0.18    3.17    1.95    94.68850   139.02336   -34.57632
   273  H   1.0    0.09    1.11    1.45    90.95440   135.33650   -35.69314
   274  H   1.0    0.05    1.07    1.44    88.60169   137.72701   -39.38000
   275  H   1.0    0.04    1.04    1.43    94.35780   137.65331   -39.01150
   276  H   1.0    0.04    1.03    1.43    92.35658   140.27814   -39.71259
   277  H   1.0    0.09    1.02    1.43    94.79243   139.47689   -32.70549
   278  H   1.0    0.08    1.03    1.43    96.25130   138.37329   -35.49850
   279  N   5.0   -0.14    3.44    2.04    92.96318   134.76959   -42.59631
   280  C   4.0    0.03    4.38    4.34    93.61513   133.82094   -45.11343
   281  C   4.0    0.16    3.46    3.10    91.41360   132.46223   -46.41545
   282  O   6.0   -0.31    1.23    1.80    90.56134   133.24647   -48.44312
   283  C   4.0   -0.04    4.26    4.12    95.91115   132.05405   -44.93390
   284  C   4.0   -0.03    4.12    3.84    96.96373   131.10163   -47.49259
   285  C   4.0    0.24    3.08    3.02    98.32244   128.50136   -47.15055
   286  O   6.0   -0.30    1.15    1.80    97.05632   126.59841   -46.37576
   287  O   6.0   -0.29    1.15    1.80   100.64869   128.34641   -47.67590
   288  H   1.0    0.08    1.06    1.44    94.40693   134.59762   -41.33209
   289  H   1.0    0.05    1.06    1.44    94.10835   135.44611   -46.27750
   290  H   1.0    0.05    1.03    1.43    97.43238   133.06316   -43.98148
   291  H   1.0    0.06    1.03    1.43    95.37069   130.39676   -43.83786
   292  H   1.0    0.05    1.02    1.43    95.41415   130.86163   -48.82863
   293  H   1.0    0.05    1.02    1.43    98.32433   132.46223   -48.22770
   294  N   5.0   -0.13    3.47    2.06    90.48575   130.46101   -45.20224
   295  C   4.0    0.03    4.43    4.43    88.64138   128.75459   -46.34364
   296  C   4.0    0.14    3.48    3.10    86.13182   130.00559   -46.95213
   297  O   6.0   -0.31    1.69    1.81    84.89027   129.36308   -48.80973
   298  C   4.0   -0.05    4.38    4.34    88.22753   126.44912   -44.65989
   299  C   4.0   -0.02    4.22    4.05    90.29866   124.46869   -44.97548
   300  C   4.0   -0.06    4.13    3.86    92.14304   124.52160   -42.77395
   301  C   4.0   -0.08    4.13    3.87    89.13081   121.87976   -45.26461
   302  H   1.0    0.09    1.06    1.44    90.97708   129.96212   -43.40701
   303  H   1.0    0.05    1.07    1.44    89.43506   128.12531   -48.13699
   304  H   1.0    0.06    1.04    1.43    88.21052   127.05006   -42.69080
   305  H   1.0    0.04    1.04    1.43    86.42662   125.57607   -45.14744
   306  H   1.0    0.05    1.07    1.44    91.37959   124.89577   -46.67623
   307  H   1.0    0.04    1.03    1.43    93.58679   123.08352   -43.07441
   308  H   1.0    0.06    1.00    1.43    93.01798   126.38487   -42.67568
   309  H   1.0    0.05    1.02    1.43    91.11692   124.13421   -41.02973
   310  H   1.0    0.04    1.01    1.43    90.63315   120.48704   -45.48759
   311  H   1.0    0.03    1.02    1.43    88.02154   121.45269   -43.58275
   312  H   1.0    0.04    1.00    1.43    87.91572   121.87410   -46.92756
   313  N   5.0   -0.13    3.56    2.12    85.38916   131.79894   -45.38177
   314  C   4.0    0.03    4.44    4.45    83.04968   133.13686   -45.81452
   315  C   4.0    0.16    3.46    3.10    83.13471   134.35574   -48.42801
   316  O   6.0   -0.31    1.22    1.80    81.28467   134.26881   -49.84152
   317  C   4.0   -0.05    4.35    4.29    82.62449   135.09651   -43.73771
   318  C   4.0   -0.02    4.22    4.03    83.39739   134.35385   -41.03162
   319  C   4.0   -0.07    4.10    3.81    82.81346   136.50813   -39.21748
   320  C   4.0   -0.07    4.10    3.80    82.13316   131.92744   -40.10376
   321  H   1.0    0.10    1.09    1.44    86.35670   132.36018   -43.81141
   322  H   1.0    0.05    1.06    1.44    81.44908   131.84429   -45.73326
   323  H   1.0    0.05    1.03    1.43    83.70352   136.78214   -44.22715
   324  H   1.0    0.03    1.03    1.43    80.61382   135.53681   -43.68668
   325  H   1.0    0.07    1.08    1.44    85.42317   133.98157   -41.05997
   326  H   1.0    0.05    1.00    1.43    83.37093   135.95255   -37.31453
   327  H   1.0    0.05    1.00    1.43    83.86793   138.17865   -39.79952
   328  H   1.0    0.05    1.00    1.43    80.79145   136.89931   -39.27039
   329  H   1.0    0.04    1.00    1.43    82.77189   131.52871   -38.18569
   330  H   1.0    0.04    1.00    1.43    80.09037   132.18633   -40.12455
   331  H   1.0    0.05    1.00    1.43    82.65850   130.37786   -41.35476
   332  N   5.0   -0.14    3.50    2.08    85.31924   135.41776   -49.07618
   333  C   4.0    0.04    4.43    4.43    85.71797   136.54026   -51.55928
   334  C   4.0    0.16    3.47    3.10    85.68395   134.56172   -53.64932
   335  O   6.0   -0.28    1.32    1.80    84.75988   135.06627   -55.72424
   336  C   4.0   -0.03    4.31    4.21    88.19918   138.02747   -51.63487
   337  C   4.0    0.15    3.21    3.04    88.29178   139.95121   -53.78727
   338  O   6.0   -0.27    1.22    1.80    87.49053   139.44288   -55.91510
   339  N   5.0   -0.19    3.17    1.95    89.30089   142.17731   -53.22980
   340  H   1.0    0.11    1.07    1.44    86.85747   135.53303   -47.91967
   341  H   1.0    0.05    1.07    1.44    84.17595   137.86118   -51.89943
   342  H   1.0    0.04    1.03    1.43    88.42217   139.04793   -49.86042
   343  H   1.0    0.06    1.03    1.43    89.76198   136.71033   -51.89187
   344  H   1.0    0.09    1.02    1.43    89.41994   143.54736   -54.58095
   345  H   1.0    0.08    1.03    1.43    89.95662   142.51935   -51.44968
   346  N   5.0   -0.13    3.50    2.08    86.67606   132.31861   -53.09185
   347  C   4.0    0.04    4.41    4.39    86.77811   130.25881   -54.93244
   348  C   4.0    0.17    3.47    3.10    84.17784   129.75236   -56.06250
   349  O   6.0   -0.29    1.21    1.80    83.93596   129.11742   -58.29805
   350  C   4.0    0.03    4.17    3.94    87.75509   127.85508   -53.68522
   351  O   6.0   -0.26    2.14    1.85    85.87860   126.81951   -52.08463
   352  H   1.0    0.10    1.08    1.44    87.42817   131.85941   -51.37787
   353  H   1.0    0.06    1.06    1.44    88.07635   130.79549   -56.43856
   354  H   1.0    0.04    1.01    1.43    88.23319   126.48125   -55.14409
   355  H   1.0    0.04    1.02    1.43    89.42561   128.30483   -52.56651
   356  H   1.0    0.17    1.38    1.53    85.13026   128.15365   -51.04150
   357  N   5.0   -0.13    3.55    2.11    82.24654   130.03960   -54.48269
   358  C   4.0    0.04    4.43    4.44    79.64817   129.76748   -55.30472
   359  C   4.0    0.15    3.39    3.07    78.38772   132.29593   -55.89809
   360  O   6.0   -0.30    1.22    1.80    76.21643   132.35641   -56.74280
   361  C   4.0   -0.04    4.42    4.42    78.14395   128.30861   -53.33751
   362  C   4.0   -0.04    4.07    3.75    78.01923   125.50426   -53.87420
   363  S   6.0   -0.04    2.63    3.10    75.36983   124.04917   -52.33029
   364  C   4.0   -0.07    3.96    3.55    73.08704   126.56440   -52.50037
   365  H   1.0    0.10    1.07    1.44    82.43363   130.46479   -52.61186
   366  H   1.0    0.06    1.07    1.44    79.61415   128.64309   -57.03004
   367  H   1.0    0.05    1.04    1.43    79.03023   128.56373   -51.49503
   368  H   1.0    0.05    1.10    1.44    76.21643   129.03427   -53.29783
   369  H   1.0    0.05    1.07    1.44    77.82836   125.20757   -55.90376
   370  H   1.0    0.04    1.08    1.44    79.74077   124.60286   -53.19012
   371  H   1.0    0.04    1.04    1.43    71.33526   125.94079   -51.61408
   372  H   1.0    0.04    1.05    1.44    73.82781   128.21035   -51.51015
   373  H   1.0    0.05    1.04    1.43    72.74689   127.02927   -54.47891
   374  N   5.0   -0.12    3.47    2.06    79.76344   134.36140   -55.46724
   375  C   4.0    0.05    4.24    4.07    78.84504   136.89175   -56.09085
   376  C   4.0    0.09    3.18    3.03    79.52156   137.70811   -58.79882
   377  O   6.0   -0.28    1.11    1.80    78.34237   139.44477   -59.84384
   378  C   4.0   -0.06    4.10    3.79    79.80313   138.81549   -54.16899
   379  H   1.0    0.12    1.13    1.45    81.52656   134.34440   -54.68678
   380  H   1.0    0.06    1.06    1.44    76.78901   136.91253   -55.95856
   381  H   1.0    0.05    1.00    1.43    79.09259   140.68065   -54.67733
   382  H   1.0    0.05    1.00    1.43    79.12094   138.29014   -52.29817
   383  H   1.0    0.06    1.01    1.43    81.86293   138.81738   -54.19167
   384  N   5.0   -0.23    3.19    1.95    98.58818   105.13269   -56.34060
   385  C   4.0    0.03    4.35    4.29    97.78023   107.60547   -57.23067
   386  C   4.0    0.07    3.31    3.06    95.09536   107.58062   -58.23033
   387  O   6.0   -0.30    1.16    1.80    93.57823   109.18790   -57.51601
   388  C   4.0   -0.03    4.29    4.18    99.57713   108.75638   -59.14307
   389  C   4.0   -0.07    4.15    3.90    98.32560   110.98833   -60.50745
   390  C   4.0   -0.09    4.13    3.87   101.94280   109.61377   -57.79002
   391  H   1.0    0.07    1.02    1.43    99.49969   104.03768   -57.63885
   392  H   1.0    0.04    1.07    1.44    97.84512   108.82344   -55.57149
   393  H   1.0    0.03    1.06    1.44   100.07279   107.35363   -60.56792
   394  H   1.0    0.03    1.00    1.43    99.65743   111.77690   -61.86616
   395  H   1.0    0.05    1.01    1.43    96.63954   110.31819   -61.48444
   396  H   1.0    0.05    1.00    1.43    97.80966   112.41865   -59.11850
   397  H   1.0    0.03    1.00    1.43   103.23766   110.43992   -59.16197
   398  H   1.0    0.04    1.00    1.43   101.43190   111.01646   -56.37084
   399  H   1.0    0.03    1.00    1.43   102.82527   107.98703   -56.88485
   400  N   5.0   -0.20    3.27    1.97    91.37009   104.38026   -56.21588
   401  C   4.0    0.03    4.36    4.30    90.05079   104.14445   -53.82538
   402  C   4.0    0.15    3.46    3.10    89.32756   106.70104   -52.78981
   403  O   6.0   -0.30    1.26    1.80    87.12421   107.13096   -52.14730
   404  C   4.0   -0.05    4.29    4.18    91.63113   102.71113   -51.87707
   405  C   4.0   -0.04    4.19    3.97    90.77385    99.99702   -51.48779
   406  C   4.0    0.24    3.14    3.03    87.97860    99.80807   -50.80182
   407  O   6.0   -0.30    1.18    1.80    87.24320   100.83238   -48.81194
   408  O   6.0   -0.30    1.17    1.80    86.51110    98.64223   -52.24746
   409  H   1.0    0.08    1.04    1.43    93.23839   103.91839   -56.12518
   410  H   1.0    0.05    1.07    1.44    88.34202   103.04878   -54.17120
   411  H   1.0    0.04    1.03    1.43    93.59014   102.67040   -52.51013
   412  H   1.0    0.05    1.04    1.43    91.49578   103.68256   -50.06671
   413  H   1.0    0.04    1.03    1.43    91.07694    98.93914   -53.22823
   414  H   1.0    0.04    1.03    1.43    91.86634    99.15924   -49.95522
   415  N   5.0   -0.14    3.50    2.08    91.17030   108.39993   -52.61595
   416  C   4.0    0.04    4.46    4.47    90.66359   110.86116   -51.51235
   417  C   4.0    0.16    3.48    3.11    88.64142   112.13757   -53.09594
   418  O   6.0   -0.31    1.26    1.80    86.59782   112.69898   -52.14730
   419  C   4.0   -0.05    4.29    4.18    93.04653   112.47479   -51.31582
   420  C   4.0   -0.05    4.21    4.01    93.24908   113.78314   -48.78926
   421  C   4.0   -0.01    4.21    4.02    95.79770   115.03420   -48.41131
   422  N   5.0   -0.14    3.37    2.01    96.03337   116.11510   -45.86774
   423  C   4.0    0.09    3.33    3.06    95.55854   118.52490   -45.24602
   424  N   5.0   -0.18    3.27    1.97    94.82338   120.17996   -46.98457
   425  N   5.0   -0.19    3.24    1.96    95.82321   119.30614   -42.86308
   426  H   1.0    0.09    1.06    1.44    92.98546   108.13213   -53.20744
   427  H   1.0    0.05    1.07    1.44    90.01837   110.63702   -49.56972
   428  H   1.0    0.04    1.04    1.43    94.70039   111.26940   -51.55204
   429  H   1.0    0.04    1.04    1.43    93.01081   113.91615   -52.78603
   430  H   1.0    0.04    1.03    1.43    91.79779   115.23859   -48.66454
   431  H   1.0    0.04    1.03    1.43    92.98850   112.39765   -47.28882
   432  H   1.0    0.04    1.03    1.43    97.28881   113.63447   -48.66076
   433  H   1.0    0.04    1.03    1.43    96.02228   116.55384   -49.78326
   434  H   1.0    0.07    1.06    1.44    96.60539   114.93536   -44.45612
   435  H   1.0    0.08    1.03    1.43    94.61467   119.62305   -48.81761
   436  H   1.0    0.09    1.03    1.43    94.46810   122.00853   -46.48568
   437  H   1.0    0.08    1.02    1.43    96.39034   118.06685   -41.50059
   438  H   1.0    0.08    1.04    1.44    95.45899   121.14264   -42.40388
   439  N   5.0   -0.14    3.51    2.09    89.15926   112.43873   -55.53558
   440  C   4.0    0.04    4.49    4.52    87.39654   113.66637   -57.27035
   441  C   4.0    0.15    3.44    3.09    84.78118   112.45533   -57.32893
   442  O   6.0   -0.31    1.24    1.80    82.91551   113.74791   -57.81081
   443  C   4.0    0.05    4.26    4.12    88.42379   113.68993   -59.94809
   444  O   6.0   -0.25    2.14    1.85    91.12302   113.70124   -59.85172
   445  C   4.0   -0.07    4.08    3.77    87.50093   116.01781   -61.35783
   446  H   1.0    0.11    1.09    1.44    90.78950   111.85250   -56.38029
   447  H   1.0    0.05    1.07    1.44    87.20183   115.59855   -56.58438
   448  H   1.0    0.04    1.05    1.44    87.77115   112.02353   -60.96854
   449  H   1.0    0.11    1.01    1.43    91.81912   113.71255   -61.56759
   450  H   1.0    0.04    1.00    1.43    88.24746   116.02113   -63.27779
   451  H   1.0    0.05    1.00    1.43    85.44340   116.02130   -61.44097
   452  H   1.0    0.04    1.00    1.43    88.13346   117.72279   -60.39218
   453  N   5.0   -0.14    3.48    2.07    84.65032   109.99478   -56.82437
   454  C   4.0    0.03    4.45    4.45    82.25725   108.60659   -56.89240
   455  C   4.0    0.15    3.48    3.10    80.40343   109.44778   -54.88552
   456  O   6.0   -0.33    1.30    1.80    78.12462   109.24496   -55.22000
   457  C   4.0   -0.05    4.30    4.20    82.70231   105.77592   -56.58249
   458  C   4.0   -0.05    4.19    3.98    80.43522   104.15062   -57.27602
   459  C   4.0   -0.01    4.24    4.08    79.67124   104.59327   -60.01801
   460  N   5.0   -0.15    3.38    2.01    78.56281   102.32550   -61.15563
   461  C   4.0    0.09    3.33    3.06    79.89227   100.48767   -62.26490
   462  N   5.0   -0.19    3.25    1.97    82.40813   100.62006   -62.38962
   463  N   5.0   -0.19    3.22    1.96    78.69913    98.50267   -63.24755
   464  H   1.0    0.09    1.07    1.44    86.16634   108.89965   -56.35950
   465  H   1.0    0.05    1.07    1.44    81.42844   108.97254   -58.74245
   466  H   1.0    0.04    1.03    1.43    84.26820   105.21801   -57.79758
   467  H   1.0    0.05    1.03    1.43    83.16812   105.39242   -54.61339
   468  H   1.0    0.05    1.03    1.43    80.91615   102.16112   -57.04169
   469  H   1.0    0.05    1.03    1.43    78.84058   104.63739   -56.06470
   470  H   1.0    0.04    1.02    1.43    78.27338   106.10358   -60.09927
   471  H   1.0    0.04    1.04    1.43    81.33569   105.11565   -61.11216
   472  H   1.0    0.07    1.06    1.44    76.64466   102.13671   -61.09704
   473  H   1.0    0.08    1.03    1.43    83.33241   102.13343   -61.63373
   474  H   1.0    0.08    1.02    1.43    83.40637    99.20853   -63.23999
   475  H   1.0    0.08    1.02    1.43    76.77738    98.38816   -63.15118
   476  H   1.0    0.07    1.02    1.43    79.70556    97.09586   -64.09604
   477  N   5.0   -0.14    3.59    2.15    81.38223   110.34893   -52.77091
   478  C   4.0    0.03    4.50    4.53    79.74311   111.13951   -50.73379
   479  C   4.0    0.15    3.50    3.11    78.74373   113.75488   -51.30637
   480  O   6.0   -0.32    1.32    1.80    76.63336   114.41304   -50.61096
   481  C   4.0   -0.05    4.28    4.15    81.15047   111.02249   -48.22612
   482  C   4.0   -0.04    4.20    4.00    82.47323   108.47817   -47.80660
   483  C   4.0   -0.05    4.19    3.98    80.62058   106.26732   -47.98991
   484  C   4.0   -0.02    4.13    3.86    81.89922   103.89391   -48.99335
   485  N   5.0   -0.12    3.99    2.84    80.06718   101.79098   -49.41476
   486  H   1.0    0.11    1.08    1.44    83.26751   110.54930   -52.42131
   487  H   1.0    0.05    1.07    1.44    78.13991   109.86477   -50.51080
   488  H   1.0    0.05    1.03    1.43    82.58400   112.50039   -48.19211
   489  H   1.0    0.04    1.03    1.43    79.80847   111.30599   -46.68977
   490  H   1.0    0.07    1.04    1.43    83.92784   108.22259   -49.24279
   491  H   1.0    0.05    1.03    1.43    83.32302   108.45383   -45.93010
   492  H   1.0    0.04    1.03    1.43    79.86650   105.85377   -46.11908
   493  H   1.0    0.04    1.04    1.43    79.08776   106.76796   -49.27303
   494  H   1.0    0.06    1.02    1.43    82.80722   104.32432   -50.79237
   495  H   1.0    0.06    1.02    1.43    83.30397   103.25605   -47.63086
   496  H   1.0    0.07    1.01    1.43    81.00806   100.20668   -50.09884
   497  H   1.0    0.06    1.01    1.43    79.17739   101.32526   -47.72534
   498  H   1.0    0.05    1.01    1.43    78.70596   102.33832   -50.72245
   499  N   5.0   -0.14    3.59    2.15    80.25471   115.21204   -52.66887
   500  C   4.0    0.04    4.48    4.50    79.41234   117.62349   -53.63641
   501  C   4.0    0.16    3.47    3.10    77.25364   117.23908   -55.47133
   502  O   6.0   -0.31    1.24    1.80    76.04740   119.04112   -56.27635
   503  C   4.0   -0.04    4.38    4.35    81.58873   118.98258   -54.91764
   504  C   4.0   -0.02    4.18    3.97    83.21712   120.65591   -53.20933
   505  C   4.0   -0.07    4.09    3.79    83.55419   119.65256   -50.48812
   506  C   4.0   -0.07    4.11    3.82    85.74725   121.05837   -54.49812
   507  H   1.0    0.09    1.07    1.44    82.07277   114.76916   -53.13185
   508  H   1.0    0.05    1.06    1.44    78.78554   118.84142   -52.09817
   509  H   1.0    0.06    1.05    1.44    82.83194   117.56628   -55.74723
   510  H   1.0    0.05    1.04    1.43    80.81267   120.19071   -56.39352
   511  H   1.0    0.04    1.07    1.44    82.23991   122.45053   -52.95044
   512  H   1.0    0.04    1.00    1.43    84.73413   120.96878   -49.42988
   513  H   1.0    0.04    1.00    1.43    81.70271   119.49571   -49.59806
   514  H   1.0    0.05    1.00    1.43    84.45688   117.80182   -50.56182
   515  H   1.0    0.05    1.00    1.43    86.92798   122.24849   -53.30193
   516  H   1.0    0.04    1.00    1.43    86.65358   119.23156   -54.78347
   517  H   1.0    0.05    1.00    1.43    85.43633   121.97863   -56.31415
   518  N   5.0   -0.13    3.57    2.13    76.78884   114.86939   -56.13273
   519  C   4.0    0.05    4.43    4.44    74.48708   114.18854   -57.43854
   520  C   4.0    0.16    3.47    3.10    72.39369   113.92912   -55.49590
   521  O   6.0   -0.31    1.28    1.80    70.47475   115.23459   -55.67920
   522  C   4.0   -0.04    4.28    4.16    74.81398   111.73261   -58.93331
   523  C   4.0   -0.03    4.22    4.05    72.35206   110.43342   -59.75912
   524  C   4.0    0.16    3.21    3.04    71.00361   111.79768   -61.90018
   525  O   6.0   -0.28    1.20    1.80    69.86561   113.80278   -61.52034
   526  N   5.0   -0.18    3.17    1.95    71.09714   110.69082   -64.16407
   527  H   1.0    0.10    1.10    1.44    77.97094   113.38508   -55.78880
   528  H   1.0    0.07    1.06    1.44    74.00645   115.63707   -58.82181
   529  H   1.0    0.05    1.03    1.43    75.88775   112.15180   -60.63973
   530  H   1.0    0.07    1.06    1.44    75.84940   110.39274   -57.75979
   531  H   1.0    0.04    1.03    1.43    72.78997   108.52600   -60.40163
   532  H   1.0    0.06    1.04    1.43    71.06722   110.35715   -58.15096
   533  H   1.0    0.08    1.02    1.43    72.03629   109.02260   -64.38328
   534  H   1.0    0.09    1.02    1.43    70.22903   111.51413   -65.67585
   535  N   5.0   -0.14    3.48    2.06    72.78750   112.29082   -53.61562
   536  C   4.0    0.03    4.37    4.33    70.79974   111.68216   -51.76558
   537  C   4.0    0.15    3.42    3.08    69.98064   113.97393   -50.20844
   538  O   6.0   -0.31    1.24    1.80    67.88103   114.05787   -49.19555
   539  C   4.0   -0.04    4.22    4.04    71.51892   109.40471   -50.07427
   540  C   4.0   -0.03    4.19    3.99    73.22995   109.94088   -47.77070
   541  C   4.0    0.15    3.18    3.03    73.05608   107.92901   -45.65987
   542  O   6.0   -0.29    1.20    1.80    71.29437   106.40346   -45.57862
   543  N   5.0   -0.19    3.17    1.95    74.89269   107.95289   -43.93833
   544  H   1.0    0.10    1.06    1.44    74.44556   111.35407   -53.31515
   545  H   1.0    0.05    1.06    1.44    69.14395   111.05786   -52.81816
   546  H   1.0    0.06    1.03    1.43    69.77682   108.58220   -49.34484
   547  H   1.0    0.05    1.03    1.43    72.50972   108.03252   -51.24779
   548  H   1.0    0.04    1.03    1.43    75.18729   110.01265   -48.40565
   549  H   1.0    0.05    1.05    1.44    72.68770   111.75315   -46.95245
   550  H   1.0    0.08    1.03    1.43    76.31060   109.25376   -44.05928
   551  H   1.0    0.09    1.02    1.43    74.88151   106.67211   -42.49836
   552  N   5.0   -0.13    3.54    2.11    71.65152   115.84199   -50.09317
   553  C   4.0    0.03    4.46    4.48    71.18857   118.11027   -48.64942
   554  C   4.0    0.15    3.50    3.11    69.71195   120.04424   -50.15742
   555  O   6.0   -0.33    1.53    1.80    67.79137   120.98217   -49.26169
   556  C   4.0   -0.04    4.34    4.27    73.67020   119.19391   -47.68755
   557  C   4.0   -0.01    3.51    3.12    74.57167   117.98399   -45.25358
   558  C   4.0   -0.05    3.44    3.09    75.24483   119.46367   -43.18811
   559  C   4.0   -0.03    3.46    3.10    74.74325   115.35111   -44.99469
   560  C   4.0   -0.04    3.49    3.11    76.07922   118.36996   -40.92611
   561  C   4.0   -0.05    3.40    3.08    75.58432   114.23070   -42.72513
   562  C   4.0    0.06    3.41    3.08    76.24928   115.76238   -40.69745
   563  O   6.0   -0.24    2.12    1.84    77.08900   114.73502   -38.44490
   564  H   1.0    0.11    1.11    1.45    73.35587   115.82661   -50.99268
   565  H   1.0    0.06    1.07    1.44    70.05948   117.63950   -46.99213
   566  H   1.0    0.05    1.04    1.43    75.12382   118.89848   -49.11618
   567  H   1.0    0.04    1.04    1.43    73.42566   121.20861   -47.33795
   568  H   1.0    0.04    1.03    1.43    75.12116   121.49579   -43.33173
   569  H   1.0    0.06    1.06    1.44    74.22142   114.15736   -46.56505
   570  H   1.0    0.05    1.11    1.44    76.59356   119.56156   -39.35197
   571  H   1.0    0.05    1.04    1.43    75.70963   112.19953   -42.56450
   572  H   1.0    0.12    1.03    1.43    77.10848   112.88714   -38.56017
   573  N   5.0   -0.14    3.56    2.13    70.57048   120.63592   -52.44399
   574  C   4.0    0.03    4.45    4.47    69.03519   122.16507   -54.14285
   575  C   4.0    0.16    3.52    3.12    66.40141   121.03505   -54.10128
   576  O   6.0   -0.29    1.22    1.80    64.54397   122.37384   -53.68743
   577  C   4.0   -0.05    4.29    4.18    70.10608   122.12437   -56.82248
   578  C   4.0   -0.05    4.17    3.95    68.77954   123.88532   -58.67442
   579  C   4.0   -0.01    4.21    4.01    69.22138   123.04066   -61.40696
   580  N   5.0   -0.14    3.38    2.01    68.15403   124.81379   -63.24755
   581  C   4.0    0.09    3.33    3.06    68.13235   124.46960   -65.74388
   582  N   5.0   -0.18    3.25    1.97    69.11878   122.39445   -66.76622
   583  N   5.0   -0.19    3.23    1.96    67.10964   126.21831   -67.22732
   584  H   1.0    0.09    1.08    1.44    72.27902   120.09927   -53.15831
   585  H   1.0    0.05    1.06    1.44    69.02498   124.14050   -53.56082
   586  H   1.0    0.05    1.04    1.43    72.08656   122.68518   -56.74501
   587  H   1.0    0.06    1.04    1.43    69.94420   120.20888   -57.56326
   588  H   1.0    0.05    1.03    1.43    66.75375   123.86786   -58.30592
   589  H   1.0    0.04    1.03    1.43    69.51828   125.79564   -58.45521
   590  H   1.0    0.05    1.03    1.43    71.24879   122.90413   -61.75089
   591  H   1.0    0.05    1.03    1.43    68.33253   121.20515   -61.69798
   592  H   1.0    0.08    1.06    1.44    67.36744   126.43698   -62.56725
   593  H   1.0    0.08    1.03    1.43    69.90346   121.04291   -65.63806
   594  H   1.0    0.08    1.02    1.43    69.08914   122.15476   -68.67863
   595  H   1.0    0.08    1.02    1.43    66.34686   127.81161   -66.45442
   596  H   1.0    0.08    1.02    1.43    67.08662   125.96717   -69.13783
   597  N   5.0   -0.14    3.52    2.09    66.29978   118.53901   -54.43765
   598  C   4.0    0.04    4.41    4.39    63.95079   117.09335   -54.42064
   599  C   4.0    0.16    3.43    3.09    62.58596   117.13673   -51.89786
   600  O   6.0   -0.28    1.24    1.80    60.29733   116.71659   -51.81093
   601  C   4.0   -0.03    4.29    4.17    64.41094   114.34994   -55.19732
   602  C   4.0   -0.02    4.18    3.97    64.50916   113.92660   -58.04325
   603  C   4.0    0.25    3.12    3.03    63.89564   111.21357   -58.78213
   604  O   6.0   -0.28    1.17    1.80    65.57489   109.93774   -59.84416
   605  O   6.0   -0.28    1.17    1.80    61.74024   110.35101   -58.29836
   606  H   1.0    0.11    1.10    1.44    67.85263   117.43677   -54.73434
   607  H   1.0    0.06    1.06    1.44    62.71563   117.96660   -55.81904
   608  H   1.0    0.07    1.03    1.43    66.21381   113.73683   -54.41308
   609  H   1.0    0.07    1.04    1.43    62.88387   113.18899   -54.44521
   610  H   1.0    0.05    1.03    1.43    63.13456   115.16230   -58.95410
   611  H   1.0    0.08    1.03    1.43    66.40418   114.35952   -58.72166
   612  N   5.0   -0.12    3.51    2.09    63.96732   117.59386   -49.84562
   613  C   4.0    0.05    4.51    4.55    62.72966   117.81758   -47.40976
   614  C   4.0    0.16    3.45    3.09    61.97684   120.54258   -46.82017
   615  O   6.0   -0.30    1.35    1.80    59.92276   120.98230   -45.84696
   616  C   4.0   -0.04    4.32    4.23    64.32823   116.65883   -45.30649
   617  C   4.0   -0.04    4.06    3.73    63.04924   116.58375   -42.72135
   618  S   6.0   -0.01    2.62    3.10    59.66187   116.09003   -42.74403
   619  C   4.0   -0.06    3.88    3.43    59.02619   115.72085   -39.42567
   620  H   1.0    0.12    1.10    1.44    65.88300   117.80959   -49.82105
   621  H   1.0    0.07    1.11    1.45    61.00673   116.68974   -47.44944
   622  H   1.0    0.06    1.03    1.43    64.78830   114.72056   -45.82806
   623  H   1.0    0.05    1.03    1.43    66.05501   117.76488   -45.11185
   624  H   1.0    0.04    1.07    1.44    63.88069   115.04537   -41.63476
   625  H   1.0    0.06    1.10    1.44    63.39517   118.38075   -41.77649
   626  H   1.0    0.05    1.04    1.43    57.00736   115.40410   -39.16111
   627  H   1.0    0.04    1.04    1.43    60.08909   114.10662   -38.71513
   628  H   1.0    0.05    1.04    1.43    59.60408   117.43356   -38.43734
   629  N   5.0   -0.14    3.50    2.08    63.61607   122.35963   -47.40220
   630  C   4.0    0.04    4.36    4.31    62.97250   125.02769   -47.09607
   631  C   4.0    0.10    3.31    3.06    60.52812   125.58029   -48.44344
   632  O   6.0   -0.32    1.24    1.80    58.60122   126.20035   -47.28315
   633  C   4.0   -0.05    4.41    4.39    64.98591   126.71819   -48.25447
   634  C   4.0   -0.03    4.20    4.01    66.82466   128.10274   -46.52915
   635  C   4.0   -0.08    4.15    3.90    66.79060   130.85649   -47.25291
   636  C   4.0   -0.08    4.17    3.93    66.20301   127.79620   -43.75314
   637  H   1.0    0.13    1.22    1.47    65.39064   122.04876   -48.08439
   638  H   1.0    0.05    1.08    1.44    62.81882   125.42992   -45.08162
   639  H   1.0    0.06    1.04    1.43    66.13240   125.54500   -49.49980
   640  H   1.0    0.05    1.07    1.44    64.01587   128.16782   -49.34862
   641  H   1.0    0.04    1.06    1.44    68.70667   127.29965   -46.76536
   642  H   1.0    0.03    1.00    1.43    68.09699   131.88567   -46.03782
   643  H   1.0    0.04    1.00    1.43    67.36968   131.04025   -49.22201
   644  H   1.0    0.05    1.02    1.43    64.88148   131.58937   -47.01103
   645  H   1.0    0.04    1.00    1.43    67.59023   128.83277   -42.63631
   646  H   1.0    0.04    1.01    1.43    64.31749   128.54490   -43.40165
   647  H   1.0    0.04    1.01    1.43    66.26560   125.79429   -43.26937
   648  N   5.0   -0.20    3.26    1.97    55.07814   122.28317   -46.13986
   649  C   4.0    0.04    4.27    4.13    53.95946   123.31750   -43.87975
   650  C   4.0    0.09    3.23    3.04    53.38574   126.09134   -44.32573
   651  O   6.0   -0.31    1.15    1.80    53.25154   127.59368   -42.56450
   652  C   4.0   -0.02    4.29    4.18    55.64323   122.86910   -41.58373
   653  C   4.0    0.24    3.13    3.03    54.24641   121.56949   -39.43323
   654  O   6.0   -0.29    1.21    1.80    51.88398   121.40568   -39.53527
   655  O   6.0   -0.32    1.22    1.80    55.51229   120.69217   -37.63988
   656  H   1.0    0.14    1.07    1.44    56.78023   123.03894   -46.64064
   657  H   1.0    0.06    1.09    1.44    52.19052   122.36384   -43.43000
   658  H   1.0    0.06    1.04    1.43    57.22721   121.67137   -42.13364
   659  H   1.0    0.06    1.06    1.44    56.33624   124.68100   -40.89209
   660  N   5.0   -0.20    3.25    1.97    56.37193   130.77212   -46.89953
   661  C   4.0    0.03    4.36    4.32    58.18803   132.50582   -45.82617
   662  C   4.0    0.07    3.28    3.05    59.68126   133.94836   -47.78204
   663  O   6.0   -0.29    1.13    1.80    60.89988   132.84300   -49.43177
   664  C   4.0   -0.02    4.39    4.37    59.97616   131.15101   -44.03093
   665  C   4.0   -0.05    4.24    4.08    58.52869   130.32841   -41.67255
   666  C   4.0   -0.09    4.25    4.09    62.10755   132.87908   -43.31283
   667  C   4.0   -0.07    4.04    3.69    59.39752   127.87114   -40.55761
   668  H   1.0    0.13    1.08    1.44    57.12420   129.17058   -47.66676
   669  H   1.0    0.03    1.07    1.44    57.06948   133.93298   -44.85107
   670  H   1.0    0.06    1.07    1.44    60.74910   129.48721   -44.96634
   671  H   1.0    0.03    1.04    1.43    58.74889   131.78005   -40.22691
   672  H   1.0    0.06    1.05    1.44    56.53891   130.12008   -42.16388
   673  H   1.0    0.03    1.01    1.43    63.37278   131.88573   -42.02782
   674  H   1.0    0.04    1.03    1.43    63.12682   133.43046   -45.01548
   675  H   1.0    0.03    1.03    1.43    61.33341   134.54874   -42.38687
   676  H   1.0    0.04    1.00    1.43    58.25790   127.44884   -38.89465
   677  H   1.0    0.06    1.01    1.43    59.17116   126.38103   -41.96168
   678  H   1.0    0.04    1.00    1.43    61.37950   128.04006   -40.02471
   679  N   5.0   -0.22    3.23    1.96    68.14529   141.46228   -40.15510
   680  C   4.0    0.02    4.35    4.28    68.41048   139.23039   -38.54883
   681  C   4.0    0.13    3.45    3.09    71.12391   138.37053   -38.21246
   682  O   6.0   -0.31    1.63    1.81    71.77873   137.12295   -36.35486
   683  C   4.0   -0.05    4.36    4.31    66.75726   137.08231   -39.53527
   684  C   4.0   -0.03    4.22    4.04    64.06860   137.27567   -38.49214
   685  C   4.0   -0.09    4.11    3.83    62.24042   138.46551   -40.37242
   686  C   4.0   -0.08    4.12    3.85    63.13289   134.69739   -37.67011
   687  H   1.0    0.07    1.03    1.43    67.13017   141.13805   -41.76137
   688  H   1.0    0.04    1.07    1.44    67.72996   139.72123   -36.66856
   689  H   1.0    0.04    1.04    1.43    66.66940   137.17779   -41.59129
   690  H   1.0    0.04    1.04    1.43    67.55895   135.27800   -38.94757
   691  H   1.0    0.03    1.07    1.44    64.11743   138.52145   -36.85186
   692  H   1.0    0.03    1.00    1.43    60.36676   138.55116   -39.52204
   693  H   1.0    0.03    1.00    1.43    62.89178   140.36466   -40.82973
   694  H   1.0    0.03    1.02    1.43    62.18696   137.31089   -42.07695
   695  H   1.0    0.03    1.00    1.43    61.21778   134.88130   -36.93501
   696  H   1.0    0.03    1.03    1.43    63.14205   133.43053   -39.29528
   697  H   1.0    0.04    1.00    1.43    64.38148   133.96718   -36.20368
   698  N   5.0   -0.14    3.54    2.10    72.70526   139.07841   -40.01337
   699  C   4.0    0.03    4.42    4.41    75.37816   138.52683   -39.84897
   700  C   4.0    0.15    3.42    3.08    76.51756   139.84146   -37.52460
   701  O   6.0   -0.31    1.22    1.80    77.73192   138.63763   -35.94479
   702  C   4.0   -0.05    4.32    4.24    76.68872   139.30311   -42.31695
   703  C   4.0   -0.03    4.20    4.00    75.23789   138.76224   -44.79060
   704  C   4.0   -0.08    4.08    3.76    76.68244   139.66171   -47.12252
   705  C   4.0   -0.08    4.08    3.77    74.47607   135.98104   -45.08729
   706  H   1.0    0.07    1.09    1.44    72.19400   140.03574   -41.60641
   707  H   1.0    0.05    1.06    1.44    75.68509   136.50233   -39.62976
   708  H   1.0    0.06    1.03    1.43    77.02917   141.33261   -42.24703
   709  H   1.0    0.04    1.03    1.43    78.47907   138.29218   -42.43222
   710  H   1.0    0.04    1.07    1.44    73.49290   139.84955   -44.66399
   711  H   1.0    0.04    1.00    1.43    75.57449   139.23369   -48.80438
   712  H   1.0    0.04    1.00    1.43    76.98630   141.69409   -46.98079
   713  H   1.0    0.05    1.00    1.43    78.49443   138.68509   -47.20756
   714  H   1.0    0.04    1.00    1.43    73.46639   135.74942   -46.86741
   715  H   1.0    0.04    1.00    1.43    76.17568   134.81734   -45.08729
   716  H   1.0    0.04    1.00    1.43    73.25842   135.44823   -43.51314
   717  N   5.0   -0.13    3.61    2.17    76.00645   142.29141   -37.28650
   718  C   4.0    0.04    4.43    4.43    77.06827   143.86892   -35.27772
   719  C   4.0    0.15    3.44    3.09    76.00478   143.19382   -32.70391
   720  O   6.0   -0.31    1.25    1.80    77.16407   143.72567   -30.75560
   721  C   4.0   -0.04    4.32    4.23    76.51317   146.67098   -35.77283
   722  C   4.0    0.14    3.30    3.05    75.54707   147.18023   -38.43923
   723  O   6.0   -0.31    1.33    1.80    76.14710   145.81592   -40.23069
   724  N   5.0   -0.19    3.17    1.95    74.03014   149.16512   -38.70379
   725  H   1.0    0.10    1.15    1.45    74.84139   143.26623   -38.47325
   726  H   1.0    0.05    1.06    1.44    79.11014   143.59018   -35.27205
   727  H   1.0    0.04    1.04    1.43    75.07442   147.31103   -34.44435
   728  H   1.0    0.04    1.03    1.43    78.24568   147.75198   -35.51016
   729  H   1.0    0.09    1.02    1.43    73.31772   149.60917   -40.43856
   730  H   1.0    0.07    1.03    1.43    73.57765   150.24366   -37.17122
   731  N   5.0   -0.14    3.51    2.09    73.76883   142.05127   -32.73415
   732  C   4.0    0.03    4.40    4.38    72.36989   141.43562   -30.44947
   733  C   4.0    0.16    3.47    3.10    73.93212   139.75400   -28.71848
   734  O   6.0   -0.30    1.22    1.80    74.43411   140.40387   -26.53396
   735  C   4.0    0.02    4.18    3.96    69.92298   140.08399   -31.16190
   736  O   6.0   -0.26    2.17    1.85    70.45949   137.71853   -32.30518
   737  H   1.0    0.08    1.08    1.44    72.85777   141.51655   -34.34608
   738  H   1.0    0.05    1.06    1.44    71.91725   143.17961   -29.45169
   739  H   1.0    0.04    1.01    1.43    68.80467   139.77219   -29.45925
   740  H   1.0    0.03    1.01    1.43    68.87074   141.25268   -32.49226
   741  H   1.0    0.17    1.36    1.52    71.13480   137.97750   -34.00971
   742  N   5.0   -0.14    3.56    2.12    74.70704   137.59165   -29.72948
   743  C   4.0    0.04    4.44    4.45    76.24644   135.82485   -28.31408
   744  C   4.0    0.16    3.42    3.08    78.90222   136.85629   -27.89834
   745  O   6.0   -0.26    1.26    1.80    80.16950   136.13906   -26.07664
   746  C   4.0   -0.05    4.39    4.36    76.33249   133.29096   -29.67090
   747  C   4.0   -0.04    4.06    3.73    74.17398   131.54941   -28.96792
   748  S   6.0   -0.04    2.66    3.10    73.46607   129.29467   -31.41512
   749  C   4.0   -0.07    3.90    3.46    76.55641   128.22038   -32.32975
   750  H   1.0    0.10    1.08    1.44    74.29707   137.01673   -31.52283
   751  H   1.0    0.06    1.07    1.44    75.38399   135.48184   -26.47538
   752  H   1.0    0.05    1.06    1.44    76.24242   133.62082   -31.70236
   753  H   1.0    0.05    1.04    1.43    78.09562   132.33850   -29.18902
   754  H   1.0    0.04    1.07    1.44    74.67764   130.50696   -27.26528
   755  H   1.0    0.04    1.07    1.44    72.48249   132.67635   -28.62966
   756  H   1.0    0.04    1.04    1.43    76.36434   126.82207   -33.83019
   757  H   1.0    0.04    1.04    1.43    77.65278   129.82875   -33.00438
   758  H   1.0    0.04    1.05    1.44    77.48346   127.37436   -30.69702
   759  N   5.0   -0.13    3.47    2.06    79.71078   138.56253   -29.56697
   760  C   4.0    0.04    4.33    4.25    82.19728   139.76244   -29.37988
   761  C   4.0    0.16    3.38    3.07    82.55462   141.31291   -26.94970
   762  O   6.0   -0.28    1.22    1.80    84.63039   141.37231   -25.89145
   763  C   4.0   -0.06    4.10    3.80    82.71300   141.38253   -31.70425
   764  H   1.0    0.10    1.07    1.44    78.68333   139.16292   -31.08442
   765  H   1.0    0.06    1.06    1.44    83.59117   138.24767   -29.31752
   766  H   1.0    0.05    1.00    1.43    84.56998   142.25172   -31.51716
   767  H   1.0    0.05    1.00    1.43    82.66371   140.18666   -33.38043
   768  H   1.0    0.06    1.01    1.43    81.26404   142.84151   -31.84031
   769  N   5.0   -0.13    3.45    2.04    80.53781   142.54223   -26.07097
   770  C   4.0    0.04    4.33    4.25    80.65536   144.09609   -23.77685
   771  C   4.0    0.15    3.37    3.07    80.00574   142.64745   -21.35233
   772  O   6.0   -0.30    1.22    1.80    80.90095   143.31922   -19.30953
   773  C   4.0   -0.07    4.09    3.79    78.99201   146.43285   -24.04708
   774  H   1.0    0.11    1.06    1.44    78.79691   142.50378   -26.89867
   775  H   1.0    0.06    1.07    1.44    82.59223   144.76265   -23.55197
   776  H   1.0    0.05    1.00    1.43    79.11643   147.54772   -22.31987
   777  H   1.0    0.05    1.00    1.43    79.65250   147.54518   -25.64957
   778  H   1.0    0.05    1.00    1.43    77.04497   145.83679   -24.36077
   779  N   5.0   -0.12    3.45    2.04    78.44569   140.68191   -21.57910
   780  C   4.0    0.04    4.31    4.22    77.73706   139.11628   -19.41536
   781  C   4.0    0.25    3.21    3.04    78.25016   136.32272   -19.91425
   782  O   6.0   -0.30    1.24    1.80    78.83422   134.91426   -18.16247
   783  C   4.0   -0.07    4.09    3.79    74.97335   139.53034   -18.71616
   784  O   6.0   -0.27    1.26    1.80    78.08001   135.47603   -22.07420
   785  H   1.0    0.11    1.06    1.44    77.63928   140.12468   -23.24016
   786  H   1.0    0.06    1.07    1.44    78.88752   139.68231   -17.80342
   787  H   1.0    0.04    1.00    1.43    74.50377   138.34057   -17.10233
   788  H   1.0    0.04    1.00    1.43    74.69357   141.51160   -18.23239
   789  H   1.0    0.05    1.00    1.43    73.79120   139.02675   -20.32621
   790  H   1.0    0.08    1.07    1.44    99.66306   105.32214   -55.03627
   791  H   1.0    0.05    1.05    1.44    94.56063   106.25770   -59.46928
   792  H   1.0    0.09    1.07    1.44    90.65277   103.35094   -57.36415
   793  H   1.0    0.07    1.05    1.44    60.43648   125.44892   -50.32637
   794  H   1.0    0.11    1.08    1.44    55.33503   120.61461   -45.93378
   795  H   1.0    0.06    1.05    1.44    53.10814   126.72812   -46.08315
   796  H   1.0    0.10    1.08    1.44    55.28610   130.26759   -45.69166
   797  H   1.0    0.04    1.05    1.44    59.69496   135.83786   -47.75595
   798  H   1.0    0.09    1.07    1.44    67.35015   142.69249   -39.29087
   799  H   1.0    0.09    1.07    1.44    59.01311   124.42678   -25.16107
   800  H   1.0    0.07    1.04    1.43    80.91872   136.83766   -59.72689

  Z AO/shell   Hii/eV     exponent
  1     Wed Apr 25 08:07:45 CEST 2018   EN: 2.200 GM2: 0.406  GM3: 0.0800  RAES: 1.40
     1s    -10.707211    1.230000
  6     Wed Apr 25 08:07:45 CEST 2018   EN: 2.550 GM2: 0.538  GM3: 0.1500  RAES: 3.00
     2s    -13.970922    2.096432
     2p    -10.063292    1.800000
  7     Wed Apr 25 08:07:45 CEST 2018   EN: 3.040 GM2: 0.461  GM3:-0.0640  RAES: 1.90
     2s    -16.686243    2.339881
     2p    -12.523956    2.014332
  8     Wed Apr 25 08:07:45 CEST 2018   EN: 3.440 GM2: 0.452  GM3:-0.0517  RAES: 1.80
     2s    -20.229985    2.439742
     2p    -15.503117    2.137023
 16     Tue Apr 24 11:44:34 CEST 2018   EN: 2.580 GM2: 0.340  GM3:-0.0502  RAES: 3.10
     3s    -20.029654    1.981333
     3p    -11.377694    2.025643
     3d     -0.420282    1.702555
 no old-style atom pair restraining (fixing) potential

molecular fragmentation (1/2 indicates fragments):
111111111111111111111111111111111111111111111111111111111111111111111111
111111111111111111111111111111111111111111111111111111111111111111111111
111111111111111111111111111111111111111111111111111111111111111111111111
111111111111111111111111111111111111111111111111111111111111111111111111
111111111111111111111111111111111111111111111111111111111111111111111111
111111111111111111111112222222222222222222222222222222222222222222222222
222222222222222222222222222222222222222222222222222222222222222222222222
222222222222222222222222222222222222222222222222222222222222222222222222
222222222222222222222222222222222222222222222222222222222222222222222222
222222222222222222222222222222222222222222222222222222222222222222222222
222222222222222222222222222222222222222222222222222222222222222222222222
22222211
# atoms in fragment 1/2:   385   415
 fragment masses (1/2) :     2745.15     2858.40
CMA distance (Bohr)    :  12.152
constraining FC (au)   :  0.0500
           ------------------------------------------------- 
          |        Self-Consistent Charge Iterations        |
           ------------------------------------------------- 

 Ncao       : 1991
 Nao        : 1987
 Nshell     : 1193
 Nel        : 2196
 T(el)      :   500.0
 intcut     :    35.0
 scfconv/Eh :  0.100E-06
   qconv/e  :  0.100E-04
 intneglect :  0.100E-08
 broydamp   :      0.400
 iter      E             dE          RMSdq      gap      omega  full diag
   1  -1257.9462591 -0.125795E+04  0.470E+00    2.78       0.0  T
   2  -1261.1715167 -0.322526E+01  0.218E+00    1.36       1.0  T
   3  -1261.3685099 -0.196993E+00  0.122E+00    1.57       1.0  T
   4  -1261.5595857 -0.191076E+00  0.265E-01    1.10       1.0  T
   5  -1261.5712390 -0.116532E-01  0.133E-01    1.33       1.0  T
   6  -1261.5729291 -0.169013E-02  0.556E-02    1.34       1.0  T
   7  -1261.5735773 -0.648253E-03  0.245E-02    1.38       1.0  T
   8  -1261.5736363 -0.589321E-04  0.133E-02    1.39       1.0  T
   9  -1261.5736690 -0.327376E-04  0.616E-03    1.40       1.0  T
  10  -1261.5736745 -0.545655E-05  0.319E-03    1.40       1.1  T
  11  -1261.5736761 -0.160985E-05  0.145E-03    1.40       2.4  T
  12  -1261.5736764 -0.301598E-06  0.724E-04    1.41       4.9  T
  13  -1261.5736765 -0.912573E-07  0.368E-04    1.41       9.6  T
  14  -1261.5736765 -0.220830E-07  0.174E-04    1.41      20.3  T
  15  -1261.5736765 -0.714817E-08  0.864E-05    1.41      40.9  T
  16  -1261.5736765 -0.150271E-08  0.435E-05    1.41      81.3  T
speedup  1.21
cpu  time for SCC    1 m 40.8 s
wall time for SCC    1 m 23.1 s

   *** convergence criteria satisfied after 16 iterations ***

          eigenvalues
 #    :        1086       1087       1088       1089       1090       1091       1092       1093
 occ. :        2.000      2.000      2.000      2.000      2.000      2.000      2.000      2.000
 eps  :        -9.770     -9.755     -9.703     -9.698     -9.652     -9.636     -9.600     -9.581
 #    :        1094       1095       1096       1097       1098       1099       1100       1101
 occ. :        2.000      2.000      2.000      2.000      2.000      0.000      0.000      0.000
 eps  :        -9.458     -9.430     -9.229     -9.221     -9.147     -7.742     -7.705     -7.650
 #    :        1102       1103       1104       1105       1106       1107       1108       1109
 occ. :        0.000      0.000      0.000      0.000      0.000      0.000      0.000      0.000
 eps  :        -7.587     -7.195     -6.971     -6.783     -6.745     -6.743     -6.682     -6.655


   #   Z            q   n(s)   n(p)   n(d)      C6AA      α(0)
   1   7 N     -0.398  1.326  4.071  0.000    30.306     8.176
   2   6 C      0.018  1.056  2.926  0.000    20.290     6.415
   3   6 C      0.264  1.045  2.691  0.000    22.548     7.776
   4   8 O     -0.500  1.745  4.755  0.000    23.778     6.538
   5   6 C     -0.078  1.053  3.024  0.000    21.973     6.672
   6   6 C     -0.074  1.047  3.028  0.000    21.912     6.663
   7   6 C     -0.094  1.050  3.043  0.000    22.282     6.720
   8   6 C     -0.045  1.056  2.989  0.000    21.467     6.612
   9   7 N     -0.140  1.236  3.904  0.000    24.020     7.279
  10   1 H      0.175  0.825  0.000  0.000     1.241     1.745
  11   1 H      0.054  0.946  0.000  0.000     2.273     2.358
  12   1 H      0.069  0.931  0.000  0.000     2.102     2.267
  13   1 H      0.047  0.953  0.000  0.000     2.361     2.403
  14   1 H      0.047  0.953  0.000  0.000     2.357     2.401
  15   1 H      0.049  0.951  0.000  0.000     2.336     2.390
  16   1 H      0.093  0.907  0.000  0.000     1.851     2.128
  17   1 H      0.068  0.932  0.000  0.000     2.110     2.272
  18   1 H      0.109  0.891  0.000  0.000     1.707     2.043
  19   1 H      0.117  0.883  0.000  0.000     1.635     2.000
  20   1 H      0.293  0.707  0.000  0.000     0.736     1.344
  21   1 H      0.290  0.710  0.000  0.000     0.745     1.352
  22   1 H      0.273  0.727  0.000  0.000     0.800     1.401
  23   7 N     -0.163  1.246  3.918  0.000    24.528     7.356
  24   6 C      0.002  1.059  2.938  0.000    20.544     6.453
  25   6 C      0.275  1.039  2.686  0.000    22.350     7.742
  26   8 O     -0.485  1.739  4.746  0.000    23.443     6.492
  27   6 C     -0.093  1.064  3.029  0.000    22.253     6.714
  28   6 C     -0.018  1.054  2.964  0.000    20.867     6.497
  29   6 C     -0.126  1.048  3.078  0.000    22.979     6.836
  30   6 C     -0.123  1.046  3.076  0.000    22.897     6.822
  31   1 H      0.235  0.765  0.000  0.000     0.943     1.521
  32   1 H      0.090  0.910  0.000  0.000     1.882     2.146
  33   1 H      0.084  0.916  0.000  0.000     1.943     2.180
  34   1 H      0.051  0.949  0.000  0.000     2.304     2.374
  35   1 H      0.034  0.966  0.000  0.000     2.529     2.487
  36   1 H      0.056  0.944  0.000  0.000     2.249     2.345
  37   1 H      0.038  0.962  0.000  0.000     2.471     2.458
  38   1 H      0.055  0.945  0.000  0.000     2.264     2.353
  39   1 H      0.050  0.950  0.000  0.000     2.325     2.385
  40   1 H      0.060  0.940  0.000  0.000     2.198     2.318
  41   1 H      0.037  0.963  0.000  0.000     2.491     2.468
  42   7 N     -0.175  1.248  3.927  0.000    24.792     7.395
  43   6 C      0.008  1.062  2.930  0.000    20.453     6.439
  44   6 C      0.284  1.038  2.678  0.000    22.187     7.713
  45   8 O     -0.496  1.759  4.738  0.000    23.704     6.528
  46   6 C     -0.077  1.052  3.025  0.000    21.957     6.670
  47   6 C     -0.115  1.060  3.054  0.000    22.689     6.781
  48   6 C      0.276  1.040  2.683  0.000    22.323     7.736
  49   8 O     -0.520  1.769  4.751  0.000    24.221     6.598
  50   7 N     -0.278  1.268  4.010  0.000    27.185     7.744
  51   1 H      0.244  0.756  0.000  0.000     0.908     1.493
  52   1 H      0.098  0.902  0.000  0.000     1.799     2.098
  53   1 H      0.090  0.910  0.000  0.000     1.876     2.142
  54   1 H      0.059  0.941  0.000  0.000     2.211     2.325
  55   1 H      0.098  0.902  0.000  0.000     1.804     2.101
  56   1 H      0.092  0.908  0.000  0.000     1.862     2.134
  57   1 H      0.241  0.759  0.000  0.000     0.918     1.501
  58   1 H      0.224  0.776  0.000  0.000     0.990     1.559
  59   7 N     -0.176  1.245  3.931  0.000    24.821     7.399
  60   6 C      0.021  1.060  2.919  0.000    20.233     6.405
  61   6 C      0.275  1.040  2.685  0.000    22.353     7.742
  62   8 O     -0.504  1.740  4.763  0.000    23.833     6.547
  63   6 C     -0.071  1.047  3.024  0.000    21.848     6.653
  64   6 C     -0.103  1.055  3.048  0.000    22.457     6.746
  65   6 C      0.283  1.039  2.679  0.000    22.212     7.717
  66   8 O     -0.504  1.757  4.747  0.000    23.864     6.550
  67   7 N     -0.284  1.271  4.013  0.000    27.331     7.764
  68   1 H      0.226  0.774  0.000  0.000     0.981     1.551
  69   1 H      0.062  0.938  0.000  0.000     2.175     2.306
  70   1 H      0.091  0.909  0.000  0.000     1.867     2.137
  71   1 H      0.067  0.933  0.000  0.000     2.123     2.279
  72   1 H      0.059  0.941  0.000  0.000     2.212     2.326
  73   1 H      0.092  0.908  0.000  0.000     1.860     2.133
  74   1 H      0.228  0.772  0.000  0.000     0.975     1.547
  75   1 H      0.243  0.757  0.000  0.000     0.912     1.496
  76   7 N     -0.173  1.255  3.918  0.000    24.739     7.387
  77   6 C      0.026  1.058  2.917  0.000    20.147     6.391
  78   6 C      0.281  1.042  2.677  0.000    22.241     7.723
  79   8 O     -0.519  1.749  4.770  0.000    24.205     6.596
  80   6 C     -0.089  1.060  3.029  0.000    22.193     6.706
  81   6 C     -0.000  1.082  2.918  0.000    28.033     8.684
  82   6 C     -0.043  1.089  2.954  0.000    29.075     8.842
  83   6 C     -0.049  1.092  2.958  0.000    29.227     8.865
  84   6 C     -0.062  1.077  2.984  0.000    29.538     8.912
  85   6 C     -0.072  1.081  2.992  0.000    29.801     8.951
  86   6 C      0.142  1.048  2.809  0.000    24.893     8.177
  87   8 O     -0.424  1.727  4.697  0.000    21.311     6.232
  88   1 H      0.263  0.737  0.000  0.000     0.833     1.430
  89   1 H      0.068  0.932  0.000  0.000     2.112     2.272
  90   1 H      0.090  0.910  0.000  0.000     1.879     2.143
  91   1 H      0.063  0.937  0.000  0.000     2.163     2.300
  92   1 H      0.049  0.951  0.000  0.000     2.339     2.391
  93   1 H      0.076  0.924  0.000  0.000     2.023     2.224
  94   1 H      0.057  0.943  0.000  0.000     2.237     2.339
  95   1 H      0.049  0.951  0.000  0.000     2.338     2.391
  96   1 H      0.313  0.687  0.000  0.000     0.685     1.300
  97   7 N     -0.213  1.267  3.946  0.000    25.639     7.520
  98   6 C      0.033  1.059  2.908  0.000    20.019     6.372
  99   6 C      0.288  1.037  2.675  0.000    22.115     7.701
 100   8 O     -0.529  1.758  4.771  0.000    24.438     6.628
 101   6 C     -0.084  1.060  3.025  0.000    22.108     6.694
 102   6 C     -0.064  1.048  3.016  0.000    21.728     6.637
 103   6 C     -0.015  1.053  2.962  0.000    20.925     6.528
 104   7 N     -0.145  1.213  3.931  0.000    24.129     7.296
 105   6 C      0.238  1.017  2.745  0.000    23.021     7.855
 106   7 N     -0.248  1.232  4.016  0.000    26.469     7.641
 107   7 N     -0.236  1.229  4.006  0.000    26.172     7.598
 108   1 H      0.281  0.719  0.000  0.000     0.771     1.375
 109   1 H      0.048  0.952  0.000  0.000     2.349     2.397
 110   1 H      0.079  0.921  0.000  0.000     1.989     2.205
 111   1 H      0.070  0.930  0.000  0.000     2.084     2.258
 112   1 H      0.043  0.957  0.000  0.000     2.415     2.430
 113   1 H      0.047  0.953  0.000  0.000     2.356     2.400
 114   1 H      0.101  0.899  0.000  0.000     1.780     2.087
 115   1 H      0.069  0.931  0.000  0.000     2.092     2.262
 116   1 H      0.211  0.789  0.000  0.000     1.050     1.605
 117   1 H      0.241  0.759  0.000  0.000     0.921     1.503
 118   1 H      0.259  0.741  0.000  0.000     0.850     1.444
 119   1 H      0.225  0.775  0.000  0.000     0.987     1.556
 120   1 H      0.257  0.743  0.000  0.000     0.856     1.449
 121   7 N     -0.185  1.249  3.935  0.000    25.002     7.426
 122   6 C      0.037  1.057  2.906  0.000    19.957     6.361
 123   6 C      0.277  1.047  2.676  0.000    22.313     7.735
 124   8 O     -0.514  1.740  4.774  0.000    24.102     6.582
 125   6 C     -0.052  1.051  3.001  0.000    21.514     6.604
 126   6 C     -0.092  1.064  3.028  0.000    22.254     6.716
 127   6 C      0.369  1.025  2.606  0.000    20.736     7.452
 128   8 O     -0.655  1.769  4.885  0.000    27.504     7.031
 129   8 O     -0.655  1.773  4.882  0.000    27.513     7.032
 130   1 H      0.231  0.769  0.000  0.000     0.960     1.535
 131   1 H      0.047  0.953  0.000  0.000     2.360     2.402
 132   1 H      0.050  0.950  0.000  0.000     2.317     2.381
 133   1 H      0.027  0.973  0.000  0.000     2.627     2.535
 134   1 H      0.014  0.986  0.000  0.000     2.822     2.627
 135   1 H      0.059  0.941  0.000  0.000     2.210     2.325
 136   7 N     -0.233  1.285  3.948  0.000    26.109     7.589
 137   6 C      0.038  1.058  2.903  0.000    19.939     6.359
 138   6 C      0.288  1.037  2.675  0.000    22.123     7.702
 139   8 O     -0.519  1.756  4.763  0.000    24.213     6.597
 140   6 C     -0.067  1.059  3.008  0.000    21.786     6.645
 141   6 C     -0.020  1.069  2.952  0.000    20.952     6.519
 142  16 S     -0.259  1.933  4.254  0.072   152.178    20.763
 143   6 C     -0.040  1.049  2.991  0.000    21.365     6.594
 144   1 H      0.277  0.723  0.000  0.000     0.780     1.381
 145   1 H      0.047  0.953  0.000  0.000     2.356     2.401
 146   1 H      0.071  0.929  0.000  0.000     2.075     2.253
 147   1 H      0.059  0.941  0.000  0.000     2.205     2.322
 148   1 H      0.068  0.932  0.000  0.000     2.104     2.269
 149   1 H      0.064  0.936  0.000  0.000     2.150     2.293
 150   1 H      0.063  0.937  0.000  0.000     2.169     2.303
 151   1 H      0.065  0.935  0.000  0.000     2.143     2.289
 152   1 H      0.052  0.948  0.000  0.000     2.299     2.371
 153   7 N     -0.208  1.262  3.946  0.000    25.528     7.504
 154   6 C      0.033  1.052  2.915  0.000    20.010     6.368
 155   6 C      0.282  1.039  2.679  0.000    22.220     7.720
 156   8 O     -0.513  1.749  4.764  0.000    24.073     6.578
 157   6 C     -0.069  1.053  3.015  0.000    21.805     6.646
 158   6 C     -0.008  1.050  2.958  0.000    20.692     6.470
 159   6 C     -0.124  1.047  3.077  0.000    22.935     6.828
 160   6 C     -0.131  1.051  3.080  0.000    23.061     6.845
 161   1 H      0.243  0.757  0.000  0.000     0.910     1.495
 162   1 H      0.084  0.916  0.000  0.000     1.935     2.175
 163   1 H      0.041  0.959  0.000  0.000     2.429     2.437
 164   1 H      0.033  0.967  0.000  0.000     2.550     2.497
 165   1 H      0.031  0.969  0.000  0.000     2.566     2.505
 166   1 H      0.067  0.933  0.000  0.000     2.122     2.278
 167   1 H      0.026  0.974  0.000  0.000     2.638     2.540
 168   1 H      0.047  0.953  0.000  0.000     2.353     2.399
 169   1 H      0.081  0.919  0.000  0.000     1.970     2.195
 170   1 H      0.043  0.957  0.000  0.000     2.408     2.426
 171   1 H      0.057  0.943  0.000  0.000     2.237     2.339
[...]
 514   1 H      0.048  0.952  0.000  0.000     2.341     2.393
 515   1 H      0.055  0.945  0.000  0.000     2.255     2.349
 516   1 H      0.043  0.957  0.000  0.000     2.406     2.426
 517   1 H      0.040  0.960  0.000  0.000     2.444     2.445
 518   7 N     -0.179  1.239  3.940  0.000    24.880     7.408
 519   6 C      0.020  1.055  2.924  0.000    20.233     6.404
 520   6 C      0.281  1.042  2.677  0.000    22.247     7.724
 521   8 O     -0.496  1.750  4.746  0.000    23.697     6.527
 522   6 C     -0.096  1.061  3.035  0.000    22.330     6.727
 523   6 C     -0.095  1.059  3.036  0.000    22.309     6.724
 524   6 C      0.289  1.040  2.671  0.000    22.096     7.697
 525   8 O     -0.520  1.766  4.755  0.000    24.240     6.601
 526   7 N     -0.286  1.273  4.013  0.000    27.386     7.772
 527   1 H      0.207  0.793  0.000  0.000     1.070     1.620
 528   1 H      0.092  0.908  0.000  0.000     1.856     2.130
 529   1 H      0.079  0.921  0.000  0.000     1.993     2.207
 530   1 H      0.108  0.892  0.000  0.000     1.711     2.045
 531   1 H      0.078  0.922  0.000  0.000     2.002     2.213
 532   1 H      0.046  0.954  0.000  0.000     2.366     2.405
 533   1 H      0.241  0.759  0.000  0.000     0.919     1.502
 534   1 H      0.232  0.768  0.000  0.000     0.955     1.531
 535   7 N     -0.182  1.249  3.933  0.000    24.939     7.417
 536   6 C      0.021  1.063  2.916  0.000    20.234     6.406
 537   6 C      0.278  1.037  2.685  0.000    22.301     7.733
 538   8 O     -0.513  1.764  4.749  0.000    24.074     6.578
 539   6 C     -0.075  1.056  3.019  0.000    21.931     6.668
 540   6 C     -0.111  1.065  3.046  0.000    22.615     6.771
 541   6 C      0.285  1.041  2.675  0.000    22.178     7.711
 542   8 O     -0.500  1.760  4.741  0.000    23.793     6.540
 543   7 N     -0.264  1.257  4.007  0.000    26.849     7.696
 544   1 H      0.229  0.771  0.000  0.000     0.968     1.541
 545   1 H      0.060  0.940  0.000  0.000     2.194     2.316
 546   1 H      0.075  0.925  0.000  0.000     2.029     2.228
 547   1 H      0.087  0.913  0.000  0.000     1.912     2.163
 548   1 H      0.077  0.923  0.000  0.000     2.009     2.216
 549   1 H      0.077  0.923  0.000  0.000     2.013     2.219
 550   1 H      0.208  0.792  0.000  0.000     1.065     1.616
 551   1 H      0.218  0.782  0.000  0.000     1.019     1.581
 552   7 N     -0.179  1.245  3.934  0.000    24.871     7.407
 553   6 C      0.020  1.053  2.927  0.000    20.232     6.404
 554   6 C      0.270  1.042  2.688  0.000    22.439     7.757
 555   8 O     -0.479  1.729  4.750  0.000    23.316     6.474
 556   6 C     -0.087  1.058  3.030  0.000    22.152     6.699
 557   6 C      0.002  1.080  2.918  0.000    27.978     8.676
 558   6 C     -0.046  1.089  2.957  0.000    29.152     8.854
 559   6 C     -0.060  1.094  2.966  0.000    29.488     8.905
 560   6 C     -0.088  1.091  2.997  0.000    30.208     9.013
 561   6 C     -0.080  1.083  2.997  0.000    29.989     8.980
 562   6 C      0.144  1.049  2.808  0.000    24.866     8.172
 563   8 O     -0.438  1.733  4.705  0.000    21.602     6.274
 564   1 H      0.235  0.765  0.000  0.000     0.946     1.523
 565   1 H      0.075  0.925  0.000  0.000     2.031     2.228
 566   1 H      0.082  0.918  0.000  0.000     1.958     2.188
 567   1 H      0.078  0.922  0.000  0.000     2.002     2.213
 568   1 H      0.058  0.942  0.000  0.000     2.223     2.332
 569   1 H      0.074  0.926  0.000  0.000     2.044     2.236
 570   1 H      0.085  0.915  0.000  0.000     1.923     2.169
 571   1 H      0.040  0.960  0.000  0.000     2.452     2.449
 572   1 H      0.306  0.694  0.000  0.000     0.705     1.319
 573   7 N     -0.162  1.245  3.917  0.000    24.496     7.351
 574   6 C      0.013  1.062  2.925  0.000    20.362     6.424
 575   6 C      0.287  1.034  2.679  0.000    22.136     7.705
 576   8 O     -0.501  1.753  4.748  0.000    23.804     6.541
 577   6 C     -0.090  1.055  3.034  0.000    22.202     6.707
 578   6 C     -0.080  1.050  3.030  0.000    22.025     6.682
 579   6 C     -0.025  1.055  2.970  0.000    21.109     6.556
 580   7 N     -0.148  1.214  3.934  0.000    24.196     7.306
 581   6 C      0.231  1.018  2.751  0.000    23.154     7.878
 582   7 N     -0.248  1.232  4.016  0.000    26.468     7.641
 583   7 N     -0.256  1.238  4.019  0.000    26.658     7.668
 584   1 H      0.226  0.774  0.000  0.000     0.983     1.553
 585   1 H      0.092  0.908  0.000  0.000     1.859     2.132
 586   1 H      0.092  0.908  0.000  0.000     1.863     2.134
 587   1 H      0.066  0.934  0.000  0.000     2.128     2.281
 588   1 H      0.057  0.943  0.000  0.000     2.231     2.336
 589   1 H      0.078  0.922  0.000  0.000     2.003     2.213
 590   1 H      0.092  0.908  0.000  0.000     1.857     2.131
 591   1 H      0.077  0.923  0.000  0.000     2.009     2.217
 592   1 H      0.229  0.771  0.000  0.000     0.968     1.541
 593   1 H      0.242  0.758  0.000  0.000     0.915     1.498
 594   1 H      0.262  0.738  0.000  0.000     0.840     1.436
 595   1 H      0.251  0.749  0.000  0.000     0.881     1.470
 596   1 H      0.263  0.737  0.000  0.000     0.834     1.431
 597   7 N     -0.201  1.254  3.947  0.000    25.367     7.480
 598   6 C      0.033  1.060  2.907  0.000    20.019     6.371
 599   6 C      0.284  1.039  2.677  0.000    22.197     7.716
 600   8 O     -0.528  1.758  4.770  0.000    24.414     6.625
 601   6 C     -0.039  1.045  2.994  0.000    21.268     6.565
 602   6 C     -0.092  1.064  3.028  0.000    22.245     6.715
 603   6 C      0.369  1.025  2.606  0.000    20.747     7.454
 604   8 O     -0.636  1.760  4.876  0.000    27.021     6.969
 605   8 O     -0.671  1.782  4.889  0.000    27.928     7.085
 606   1 H      0.229  0.771  0.000  0.000     0.971     1.544
 607   1 H      0.062  0.938  0.000  0.000     2.176     2.307
 608   1 H      0.037  0.963  0.000  0.000     2.488     2.467
 609   1 H      0.025  0.975  0.000  0.000     2.663     2.552
 610   1 H      0.019  0.981  0.000  0.000     2.744     2.590
 611   1 H      0.055  0.945  0.000  0.000     2.262     2.352
 612   7 N     -0.183  1.249  3.934  0.000    24.969     7.421
 613   6 C      0.041  1.051  2.908  0.000    19.881     6.348
 614   6 C      0.278  1.041  2.681  0.000    22.304     7.734
 615   8 O     -0.495  1.746  4.749  0.000    23.665     6.522
 616   6 C     -0.062  1.051  3.010  0.000    21.666     6.624
 617   6 C     -0.016  1.063  2.953  0.000    20.867     6.505
 618  16 S     -0.256  1.927  4.262  0.068   152.071    20.755
 619   6 C     -0.056  1.052  3.004  0.000    21.656     6.638
 620   1 H      0.214  0.786  0.000  0.000     1.039     1.596
 621   1 H      0.065  0.935  0.000  0.000     2.140     2.288
 622   1 H      0.060  0.940  0.000  0.000     2.199     2.319
 623   1 H      0.046  0.954  0.000  0.000     2.373     2.409
 624   1 H      0.049  0.951  0.000  0.000     2.327     2.385
 625   1 H      0.067  0.933  0.000  0.000     2.121     2.278
 626   1 H      0.077  0.923  0.000  0.000     2.008     2.216
 627   1 H      0.067  0.933  0.000  0.000     2.116     2.275
 628   1 H      0.056  0.944  0.000  0.000     2.247     2.344
 629   7 N     -0.218  1.272  3.946  0.000    25.760     7.538
 630   6 C      0.040  1.049  2.911  0.000    19.909     6.354
 631   6 C      0.207  1.082  2.712  0.000    23.617     7.959
 632   8 O     -0.369  1.750  4.619  0.000    21.068     6.154
 633   6 C     -0.083  1.058  3.026  0.000    22.072     6.686
 634   6 C     -0.013  1.050  2.963  0.000    20.773     6.482
 635   6 C     -0.125  1.048  3.077  0.000    22.940     6.827
 636   6 C     -0.124  1.045  3.078  0.000    22.929     6.827
 637   1 H      0.262  0.738  0.000  0.000     0.838     1.433
 638   1 H      0.086  0.914  0.000  0.000     1.915     2.164
 639   1 H      0.060  0.940  0.000  0.000     2.200     2.320
 640   1 H      0.067  0.933  0.000  0.000     2.121     2.277
 641   1 H      0.037  0.963  0.000  0.000     2.493     2.469
 642   1 H      0.054  0.946  0.000  0.000     2.271     2.357
 643   1 H      0.045  0.955  0.000  0.000     2.388     2.417
 644   1 H      0.054  0.946  0.000  0.000     2.271     2.357
 645   1 H      0.054  0.946  0.000  0.000     2.268     2.355
 646   1 H      0.051  0.949  0.000  0.000     2.311     2.378
 647   1 H      0.036  0.964  0.000  0.000     2.502     2.474
 648   7 N     -0.401  1.319  4.082  0.000    30.395     8.188
 649   6 C      0.050  1.047  2.902  0.000    19.747     6.329
 650   6 C      0.203  1.090  2.707  0.000    23.679     7.969
 651   8 O     -0.396  1.744  4.652  0.000    21.606     6.232
 652   6 C     -0.101  1.064  3.036  0.000    22.420     6.741
 653   6 C      0.360  1.030  2.610  0.000    20.892     7.480
 654   8 O     -0.655  1.780  4.875  0.000    27.515     7.033
 655   8 O     -0.626  1.740  4.886  0.000    26.775     6.938
 656   1 H      0.171  0.829  0.000  0.000     1.267     1.763
 657   1 H      0.074  0.926  0.000  0.000     2.046     2.237
 658   1 H      0.039  0.961  0.000  0.000     2.467     2.456
 659   1 H      0.056  0.944  0.000  0.000     2.246     2.344
 660   7 N     -0.396  1.324  4.072  0.000    30.266     8.171
 661   6 C      0.039  1.052  2.909  0.000    19.922     6.356
 662   6 C      0.198  1.090  2.712  0.000    23.778     7.986
 663   8 O     -0.383  1.760  4.623  0.000    21.342     6.194
 664   6 C     -0.015  1.058  2.958  0.000    20.809     6.487
 665   6 C     -0.066  1.049  3.017  0.000    21.752     6.639
 666   6 C     -0.135  1.052  3.083  0.000    23.143     6.858
 667   6 C     -0.098  1.036  3.062  0.000    22.430     6.754
 668   1 H      0.172  0.828  0.000  0.000     1.258     1.757
 669   1 H      0.047  0.953  0.000  0.000     2.354     2.399
 670   1 H      0.033  0.967  0.000  0.000     2.539     2.492
 671   1 H      0.050  0.950  0.000  0.000     2.324     2.384
 672   1 H      0.038  0.962  0.000  0.000     2.475     2.460
 673   1 H      0.062  0.938  0.000  0.000     2.176     2.307
 674   1 H      0.042  0.958  0.000  0.000     2.422     2.434
 675   1 H      0.074  0.926  0.000  0.000     2.039     2.233
 676   1 H      0.031  0.969  0.000  0.000     2.566     2.505
 677   1 H      0.031  0.969  0.000  0.000     2.575     2.509
 678   1 H      0.041  0.959  0.000  0.000     2.433     2.439
 679   7 N     -0.402  1.326  4.076  0.000    30.422     8.192
 680   6 C      0.022  1.059  2.919  0.000    20.217     6.403
 681   6 C      0.257  1.045  2.698  0.000    22.666     7.796
 682   8 O     -0.492  1.753  4.738  0.000    23.505     6.504
 683   6 C     -0.079  1.061  3.018  0.000    22.008     6.678
 684   6 C     -0.016  1.058  2.957  0.000    20.817     6.489
 685   6 C     -0.127  1.047  3.080  0.000    22.992     6.837
 686   6 C     -0.138  1.048  3.090  0.000    23.208     6.868
 687   1 H      0.172  0.828  0.000  0.000     1.259     1.758
 688   1 H      0.049  0.951  0.000  0.000     2.330     2.387
 689   1 H      0.058  0.942  0.000  0.000     2.220     2.330
 690   1 H      0.050  0.950  0.000  0.000     2.316     2.380
 691   1 H      0.032  0.968  0.000  0.000     2.559     2.502
 692   1 H      0.042  0.958  0.000  0.000     2.426     2.436
 693   1 H      0.042  0.958  0.000  0.000     2.428     2.437
 694   1 H      0.052  0.948  0.000  0.000     2.300     2.371
 695   1 H      0.040  0.960  0.000  0.000     2.443     2.444
 696   1 H      0.059  0.941  0.000  0.000     2.208     2.324
 697   1 H      0.041  0.959  0.000  0.000     2.431     2.438
 698   7 N     -0.162  1.245  3.918  0.000    24.511     7.353
 699   6 C      0.013  1.062  2.926  0.000    20.364     6.425
 700   6 C      0.271  1.043  2.686  0.000    22.417     7.753
 701   8 O     -0.502  1.759  4.743  0.000    23.824     6.544
 702   6 C     -0.093  1.060  3.033  0.000    22.267     6.718
 703   6 C     -0.021  1.063  2.958  0.000    20.920     6.506
 704   6 C     -0.122  1.045  3.077  0.000    22.899     6.824
 705   6 C     -0.123  1.044  3.079  0.000    22.922     6.827
 706   1 H      0.237  0.763  0.000  0.000     0.936     1.516
 707   1 H      0.076  0.924  0.000  0.000     2.025     2.226
 708   1 H      0.072  0.928  0.000  0.000     2.064     2.247
 709   1 H      0.056  0.944  0.000  0.000     2.249     2.345
 710   1 H      0.047  0.953  0.000  0.000     2.358     2.401
 711   1 H      0.057  0.943  0.000  0.000     2.232     2.336
 712   1 H      0.054  0.946  0.000  0.000     2.275     2.359
 713   1 H      0.038  0.962  0.000  0.000     2.481     2.463
 714   1 H      0.056  0.944  0.000  0.000     2.245     2.343
 715   1 H      0.037  0.963  0.000  0.000     2.484     2.465
 716   1 H      0.041  0.959  0.000  0.000     2.435     2.440
 717   7 N     -0.191  1.246  3.946  0.000    25.154     7.449
 718   6 C      0.022  1.057  2.921  0.000    20.208     6.401
 719   6 C      0.272  1.038  2.690  0.000    22.402     7.751
 720   8 O     -0.490  1.757  4.734  0.000    23.568     6.509
 721   6 C     -0.114  1.062  3.052  0.000    22.663     6.776
 722   6 C      0.280  1.036  2.684  0.000    22.253     7.724
 723   8 O     -0.487  1.752  4.734  0.000    23.489     6.498
 724   7 N     -0.273  1.269  4.004  0.000    27.061     7.726
 725   1 H      0.238  0.762  0.000  0.000     0.932     1.512
 726   1 H      0.083  0.917  0.000  0.000     1.946     2.182
 727   1 H      0.081  0.919  0.000  0.000     1.964     2.192
 728   1 H      0.108  0.892  0.000  0.000     1.715     2.048
 729   1 H      0.258  0.742  0.000  0.000     0.854     1.448
 730   1 H      0.240  0.760  0.000  0.000     0.922     1.504
 731   7 N     -0.176  1.240  3.936  0.000    24.809     7.398
 732   6 C      0.006  1.063  2.931  0.000    20.485     6.445
 733   6 C      0.283  1.035  2.682  0.000    22.214     7.718
 734   8 O     -0.509  1.757  4.753  0.000    23.993     6.567
 735   6 C      0.064  1.042  2.895  0.000    19.716     6.359
 736   8 O     -0.520  1.733  4.787  0.000    23.337     6.521
 737   1 H      0.204  0.796  0.000  0.000     1.084     1.631
 738   1 H      0.084  0.916  0.000  0.000     1.942     2.179
 739   1 H      0.072  0.928  0.000  0.000     2.066     2.248
 740   1 H      0.048  0.952  0.000  0.000     2.339     2.392
 741   1 H      0.350  0.650  0.000  0.000     0.576     1.186
 742   7 N     -0.175  1.248  3.928  0.000    24.794     7.395
 743   6 C      0.026  1.056  2.918  0.000    20.131     6.388
 744   6 C      0.278  1.036  2.686  0.000    22.289     7.731
 745   8 O     -0.494  1.774  4.719  0.000    23.646     6.520
 746   6 C     -0.060  1.048  3.012  0.000    21.627     6.616
 747   6 C     -0.021  1.062  2.958  0.000    20.944     6.516
 748  16 S     -0.170  1.895  4.225  0.051   148.264    20.494
 749   6 C     -0.056  1.050  3.005  0.000    21.645     6.637
 750   1 H      0.232  0.768  0.000  0.000     0.955     1.531
 751   1 H      0.085  0.915  0.000  0.000     1.930     2.172
 752   1 H      0.066  0.934  0.000  0.000     2.127     2.281
 753   1 H      0.035  0.965  0.000  0.000     2.520     2.483
 754   1 H      0.044  0.956  0.000  0.000     2.391     2.418
 755   1 H      0.081  0.919  0.000  0.000     1.973     2.196
 756   1 H      0.056  0.944  0.000  0.000     2.251     2.346
 757   1 H      0.048  0.952  0.000  0.000     2.349     2.397
 758   1 H      0.024  0.976  0.000  0.000     2.678     2.559
 759   7 N     -0.189  1.248  3.941  0.000    25.098     7.440
 760   6 C      0.030  1.058  2.912  0.000    20.081     6.382
 761   6 C      0.282  1.042  2.676  0.000    22.223     7.719
 762   8 O     -0.517  1.758  4.758  0.000    24.161     6.590
 763   6 C     -0.131  1.045  3.086  0.000    23.078     6.850
 764   1 H      0.210  0.790  0.000  0.000     1.057     1.610
 765   1 H      0.055  0.945  0.000  0.000     2.260     2.351
 766   1 H      0.073  0.927  0.000  0.000     2.055     2.242
 767   1 H      0.071  0.929  0.000  0.000     2.073     2.251
 768   1 H      0.078  0.922  0.000  0.000     2.003     2.213
 769   7 N     -0.175  1.247  3.928  0.000    24.787     7.394
 770   6 C      0.022  1.060  2.918  0.000    20.215     6.403
 771   6 C      0.274  1.043  2.683  0.000    22.368     7.744
 772   8 O     -0.519  1.750  4.769  0.000    24.208     6.597
 773   6 C     -0.129  1.046  3.083  0.000    23.031     6.843
 774   1 H      0.213  0.787  0.000  0.000     1.041     1.599
 775   1 H      0.075  0.925  0.000  0.000     2.034     2.230
 776   1 H      0.075  0.925  0.000  0.000     2.027     2.227
 777   1 H      0.080  0.920  0.000  0.000     1.981     2.201
 778   1 H      0.065  0.935  0.000  0.000     2.139     2.287
 779   7 N     -0.173  1.250  3.923  0.000    24.737     7.387
 780   6 C      0.014  1.065  2.921  0.000    20.347     6.424
 781   6 C      0.362  1.017  2.621  0.000    20.862     7.475
 782   8 O     -0.630  1.750  4.879  0.000    26.854     6.948
 783   6 C     -0.116  1.044  3.073  0.000    22.785     6.806
 784   8 O     -0.614  1.767  4.847  0.000    26.456     6.896
 785   1 H      0.193  0.807  0.000  0.000     1.140     1.673
 786   1 H      0.039  0.961  0.000  0.000     2.466     2.456
 787   1 H      0.061  0.939  0.000  0.000     2.192     2.315
 788   1 H      0.057  0.943  0.000  0.000     2.235     2.338
 789   1 H      0.050  0.950  0.000  0.000     2.318     2.381
 790   1 H      0.180  0.820  0.000  0.000     1.212     1.724
 791   1 H      0.081  0.919  0.000  0.000     1.973     2.196
 792   1 H      0.194  0.806  0.000  0.000     1.139     1.672
 793   1 H      0.058  0.942  0.000  0.000     2.225     2.332
 794   1 H      0.167  0.833  0.000  0.000     1.291     1.780
 795   1 H      0.062  0.938  0.000  0.000     2.171     2.304
 796   1 H      0.177  0.823  0.000  0.000     1.231     1.738
 797   1 H      0.076  0.924  0.000  0.000     2.025     2.225
 798   1 H      0.189  0.811  0.000  0.000     1.164     1.690
 799   1 H      0.187  0.813  0.000  0.000     1.176     1.699
 800   1 H      0.075  0.925  0.000  0.000     2.031     2.229

 Mol. C6AA /au·bohr⁶  :    6012189.794536
 Mol. C8AA /au·bohr⁸  :  135528203.821903
 Mol. α(0) /au        :       3663.181695

 
molecular dipole:
                 x           y           z       tot (Debye)
 q only:     -172.791    -242.683      36.872
   full:     -167.656    -243.703      39.219     758.452
molecular quadrupole (traceless):
                xx          xy          yy          xz          yz          zz
 q only:    -1072.427  -32273.374  -21922.102    4081.017    7440.430   22994.529
  q+dip:        2.638  -31466.292  -22460.422    4000.272    7957.984   22457.784
   full:        1.913  -31462.617  -22457.662    3999.377    7958.903   22455.749
speedup  1.20
cpu  time for grad    2 m 12.1 s
wall time for grad    1 m 50.1 s

SCC energy    :   -1261.6056973
rep           :      14.4564075
ES            :       4.6665286
AES           :      -0.1724616
AXC           :       0.3839909
disp          :      -1.1428502
XB            :       0.0000000
fix           :       0.0000000
Gborn         :       0.0000000
Gsasa         :       0.0000000
Ghb           :       0.0000000
Gshift        :       0.0000000
Gsolv         :      -1.3100417     -822.06
Etot ala COSMO:   -1261.6056973
grad norm     :       0.6469471
total E       :   -1247.0341229
atomizationE  :     224.5690518   140919.21
(atE without considering molecular charge,
 total energy contains solvation terms)
H-L gap (eV)  :          1.4051

------------------------------------------------------------------------
 * finished run on 2019/05/04 at 20:26:06.961     
------------------------------------------------------------------------
 total:
 * wall-time:     0 d,  0 h,  1 min, 53.537 sec
 *  cpu-time:     0 d,  0 h,  2 min, 14.632 sec
 * ratio c/w:     1.186 speedup
 SCF:
 * wall-time:     0 d,  0 h,  1 min, 52.060 sec
 *  cpu-time:     0 d,  0 h,  2 min, 13.784 sec
 * ratio c/w:     1.194 speedup

