      -----------------------------------------------------------      
     |                   =====================                   |     
     |                           x T B                           |     
     |                   =====================                   |     
     |                         S. Grimme                         |     
     |          Mulliken Center for Theoretical Chemistry        |     
     |                    University of Bonn                     |     
     |                 Version 6.0.1 (SAW181210)                 |     
      -----------------------------------------------------------      

   This program is distributed in the hope that it will be useful,
   but WITHOUT ANY WARRANTY; without even the implied warranty of
   MERCHANTABILITY or FITNESS FOR A PARTICULAR PURPOSE.
   
   FOR NON-COMMERCIAL, ACADEMIA USE ONLY.
   
   Cite this work as:
   S. Grimme, C. Bannwarth, P. Shushkov, J. Comput. Theory Chem., 2017,
   13, 1989-2009.
   C. Bannwarth, S. Ehlert and S. Grimme., ChemRxiv, 2018, preprint.
   http://doi.org/10.26434/chemrxiv.7246238.v1
   
   for sTDA-xTB:
   S. Grimme and C. Bannwarth, J. Chem. Phys., 2016, 145, 054103.
   
   in the mass-spec context:
   V. Asgeirsson, C. Bauer and S. Grimme, Chem. Sci., 2017, 8, 4879.
   
   if GBSA is used:
   P. Shushkov, F. März and S. Grimme, unpublished.
   
   for ANC optimizer:
   S. Grimme, unpublished.
   Rational Function algorithm used in ANCopt:
   F. Eckert, P. Pulay, H.-J. Werner, J. Comput. Chem., 1997, 18, 1473.
   
   with help from (in alphabetical order)
   C. Bannwarth, F. Bohle, G. Brandenburg, E. Caldeweyher, M. Checinski,
   S. Dohm, S. Ehlert, S. Ehrlich, F. März, H. Neugebauer, J. Pisarek,
   P. Pracht, P. Shushkov, and S. Spicher.
   
 * started run on 2019/05/04 at 18:52:21.396     
========================================================================
 # omp threads = 2
========================================================================
number of atoms            : 1356
number of electrons        : 3712
charge                     : 6
spin                       : .0
first test random number   : .7982

########################################################################
# WARNING! Please study the warnings concerning your input carefully
#  - Process number higher than OMP_NUM_THREADS, I hope you know what you are doing.
########################################################################

           ------------------------------------------------- 
          |                 G F N 2 - x T B                 |
          | Geometry, Frequencies, Noncovalent interactions |
          |            JCTC 2018 parametrisation            |
           ------------------------------------------------- 
 
      method parameters     
 k(s)        :  1.8500
 k(p)        :  2.2300
 k(d)        :  2.2300
 k(f)        :  2.0000
 kEN (H0ij)  : -2.0000
 D4 a1       :  0.5200
 D4 a2       :  5.0000
 D4 s6       :  1.0000
 D4 s8       :  2.7000
 D4 s9       :  5.0000
 alphaj      :  2.0000

 Solvent             : h2o
 Using internal parameter file: .param_gbsa2_h2o
 Gsolv ref. state (COSMO-RS): gsolv [1 M gas/solution]
 temperature (mdtemp)       :    298.150000000000     
 dielectric constant        :    80.2000000000000     
 rho                        :    1.00000000000000     
 mass                       :    18.0000000000000     
 surface tension            :    15.5689454083859     
 probe radius               :   0.975313790000000     
 vdW radii scaling          :    1.00000000000000     
 Gshift (Eh)                :   1.857443126794793E-003
 c1                         :    1.55243817000000     
 soset                      :   0.130326360000000     
 HB correction              :  T

            Z     q(EN)     CN     RAES       Cart. coordinates
     1  N   5.0   -0.21    3.28    1.98   -10.65805    78.93196   180.71638
     2  C   4.0    0.03    4.50    4.54   -11.24009    81.21475   179.31610
     3  C   4.0    0.15    3.56    3.14    -8.84770    82.67740   178.90980
     4  O   6.0   -0.32    1.43    1.80    -7.93118    82.94007   176.77819
     5  C   4.0   -0.03    4.50    4.53   -12.96919    82.88527   180.86000
     6  C   4.0   -0.08    4.18    3.97   -13.50209    85.30223   179.48239
     7  C   4.0   -0.06    4.18    3.96   -15.35402    81.49065   181.43259
     8  H   1.0    0.08    1.05    1.44   -11.21552    78.98865   182.56075
     9  H   1.0    0.05    1.05    1.44   -12.09425    80.68563   177.51897
    10  H   1.0    0.03    1.18    1.46   -12.05645    83.37849   182.64012
    11  H   1.0    0.04    1.00    1.43   -14.74931    86.47008   180.63323
    12  H   1.0    0.04    1.01    1.43   -11.72575    86.29056   179.14980
    13  H   1.0    0.04    1.00    1.43   -14.40916    84.86381   177.68526
    14  H   1.0    0.05    1.00    1.43   -16.58990    82.70575   182.54564
    15  H   1.0    0.05    1.00    1.43   -16.27621    80.98232   179.66192
    16  H   1.0    0.05    1.01    1.43   -14.89671    79.78990   182.49839
    17  N   5.0   -0.15    3.66    2.22    -7.89905    83.66195   181.01685
    18  C   4.0    0.03    4.57    4.63    -5.43674    84.83169   181.17748
    19  C   4.0    0.16    3.65    3.20    -3.67741    83.48809   179.40680
    20  O   6.0   -0.30    1.33    1.80    -2.52467    84.62571   177.73817
    21  C   4.0   -0.03    4.44    4.45    -4.26322    84.32713   183.73805
    22  C   4.0   -0.08    4.14    3.88    -2.65318    86.52110   184.50906
    23  C   4.0   -0.08    4.25    4.10    -6.27011    83.76021   185.68447
    24  H   1.0    0.06    1.15    1.45    -8.83825    83.67140   182.70059
    25  H   1.0    0.04    1.05    1.44    -5.67485    86.83291   180.75229
    26  H   1.0    0.04    1.11    1.44    -3.05569    82.66228   183.61900
    27  H   1.0    0.03    1.00    1.43    -1.82359    86.12804   186.35343
    28  H   1.0    0.04    1.00    1.43    -1.16407    86.78377   183.11067
    29  H   1.0    0.04    1.00    1.43    -3.82670    88.21052   184.61300
    30  H   1.0    0.04    1.00    1.43    -5.36304    83.40683   187.49861
    31  H   1.0    0.04    1.00    1.43    -7.53434    85.37971   185.83565
    32  H   1.0    0.04    1.04    1.43    -7.32836    82.09536   185.09110
    33  N   5.0   -0.14    3.59    2.15    -3.42985    81.02956   179.83955
    34  C   4.0    0.03    4.45    4.47    -1.82359    79.50077   178.25974
    35  C   4.0    0.17    3.52    3.12    -2.32247    80.16784   175.50452
    36  O   6.0   -0.30    1.26    1.80    -0.68030    81.18263   174.22706
    37  C   4.0   -0.05    4.31    4.22    -2.27901    76.71531   178.78886
    38  C   4.0   -0.05    4.20    3.99    -1.06392    75.81392   181.20582
    39  C   4.0   -0.05    4.17    3.94    -1.97098    73.16263   181.92014
    40  C   4.0   -0.03    4.12    3.85    -0.28913    71.96832   183.94781
    41  N   5.0   -0.11    4.00    2.85    -1.37194    69.59672   184.98338
    42  H   1.0    0.07    1.07    1.44    -4.31235    80.06580   181.25684
    43  H   1.0    0.05    1.06    1.44     0.16063    79.85604   178.68493
    44  H   1.0    0.04    1.04    1.43    -4.30669    76.38839   178.94004
    45  H   1.0    0.05    1.03    1.43    -1.50044    75.60605   177.23740
    46  H   1.0    0.05    1.03    1.43     0.98077    75.75533   180.96205
    47  H   1.0    0.04    1.03    1.43    -1.55335    77.10082   182.73839
    48  H   1.0    0.04    1.03    1.43    -3.89095    73.27601   182.65713
    49  H   1.0    0.05    1.03    1.43    -1.92752    71.95509   180.25151
    50  H   1.0    0.06    1.02    1.43     1.54580    71.52613   183.12578
    51  H   1.0    0.04    1.02    1.43    -0.06236    73.29869   185.50306
    52  H   1.0    0.07    1.01    1.43    -0.05291    68.70099   186.13234
    53  H   1.0    0.07    1.01    1.43    -2.97632    69.99734   186.04541
    54  H   1.0    0.07    1.02    1.43    -1.86516    68.38540   183.51507
    55  N   5.0   -0.13    3.49    2.07    -4.60148    79.68407   174.60123
    56  C   4.0    0.04    4.48    4.51    -5.14383    80.12816   171.94805
    57  C   4.0    0.16    3.51    3.12    -5.14761    82.89472   171.22429
    58  O   6.0   -0.29    1.33    1.80    -3.71898    83.69407   169.57834
    59  C   4.0   -0.05    4.29    4.18    -7.63827    78.91496   171.17705
    60  C   4.0   -0.05    4.19    3.97    -7.34725    76.19753   170.27376
    61  C   4.0   -0.04    4.19    3.97    -5.63138    75.98210   167.95128
    62  C   4.0   -0.03    4.14    3.89    -4.82825    73.24200   167.56011
    63  N   5.0   -0.10    4.24    3.58    -3.59237    72.80925   165.10536
    64  H   1.0    0.09    1.06    1.44    -6.08114    78.99999   175.63113
    65  H   1.0    0.05    1.08    1.44    -3.61316    79.22298   170.90681
    66  H   1.0    0.05    1.03    1.43    -8.90628    78.91118   172.80032
    67  H   1.0    0.06    1.04    1.43    -8.46408    80.00911   169.63881
    68  H   1.0    0.05    1.03    1.43    -6.52144    75.06936   171.78554
    69  H   1.0    0.05    1.03    1.43    -9.20108    75.45109   169.77109
    70  H   1.0    0.06    1.03    1.43    -6.64995    76.61705   166.27699
    71  H   1.0    0.05    1.03    1.43    -3.94386    77.13105   168.22718
    72  H   1.0    0.05    1.02    1.43    -3.49599    72.71665   169.04166
    73  H   1.0    0.06    1.03    1.43    -6.49499    72.03635   167.65082
    74  H   1.0    0.08    1.08    1.44    -2.24688    71.38629   165.27165
    75  H   1.0    0.09    1.02    1.43    -4.92652    72.27068   163.76743
    76  H   1.0    0.11    1.27    1.49    -2.70798    74.45709   164.49875
    77  N   5.0   -0.14    3.63    2.18    -6.78034    84.35359   172.42804
    78  C   4.0    0.05    4.65    4.71    -6.97309    87.01054   171.81955
    79  C   4.0    0.16    3.55    3.14    -4.42385    88.28233   171.76286
    80  O   6.0   -0.32    1.31    1.80    -4.07614    90.21552   170.56100
    81  C   4.0   -0.04    4.21    4.03    -8.64172    88.31067   173.71495
    82  S   6.0   -0.02    2.74    3.11   -11.72008    87.72108   172.93827
    83  H   1.0    0.12    1.17    1.46    -7.97842    83.75832   173.81510
    84  H   1.0    0.06    1.10    1.44    -7.83102    87.20707   169.95817
    85  H   1.0    0.05    1.09    1.44    -8.26755    87.57746   175.60278
    86  H   1.0    0.06    1.09    1.44    -8.30912    90.34402   173.66959
    87  N   5.0   -0.13    3.63    2.18    -2.61727    87.21274   173.09323
    88  C   4.0    0.05    4.58    4.65    -0.15685    88.34658   173.05354
    89  C   4.0    0.16    3.54    3.13     1.03935    87.71352   170.54777
    90  O   6.0   -0.31    1.31    1.80     1.86138    89.39916   169.21551
    91  C   4.0   -0.03    4.18    3.97     1.49099    87.39605   175.21539
    92  S   6.0   -0.03    2.44    3.10     4.59581    88.82657   175.20405
    93  H   1.0    0.12    1.10    1.44    -2.79868    85.62537   174.17037
    94  H   1.0    0.06    1.07    1.44    -0.30992    90.38370   173.31811
    95  H   1.0    0.06    1.07    1.44     0.58015    87.84958   177.00685
    96  H   1.0    0.07    1.07    1.44     1.72343    85.35703   175.03965
    97  N   5.0   -0.13    3.48    2.07     1.09037    85.28333   169.89014
    98  C   4.0    0.04    4.41    4.39     2.39617    84.40083   167.60168
    99  C   4.0    0.16    3.52    3.12     1.63839    85.89182   165.26031
   100  O   6.0   -0.31    1.31    1.80     3.23899    86.91795   163.93373
   101  C   4.0   -0.03    4.32    4.23     1.95965    81.57569   167.14248
   102  C   4.0   -0.01    3.54    3.13     3.38072    80.51555   164.88615
   103  C   4.0   -0.02    3.48    3.11     2.47932    80.82925   162.44840
   104  C   4.0   -0.05    3.46    3.10     5.61816    79.17385   165.19984
   105  C   4.0   -0.02    3.54    3.13     3.76622    79.83903   160.38482
   106  C   4.0   -0.05    3.44    3.09     6.92207    78.17229   163.13815
   107  C   4.0    0.07    3.45    3.09     5.98287    78.51244   160.73442
   108  O   6.0   -0.22    2.09    1.84     7.26411    77.53924   158.67273
   109  H   1.0    0.11    1.07    1.44     0.24944    83.86982   170.89548
   110  H   1.0    0.05    1.06    1.44     4.40684    84.68996   167.93995
   111  H   1.0    0.05    1.03    1.43     2.57192    80.53445   168.81111
   112  H   1.0    0.06    1.03    1.43    -0.05102    81.26388   166.81745
   113  H   1.0    0.08    1.03    1.43     0.74455    81.86293   162.14605
   114  H   1.0    0.05    1.03    1.43     6.36271    78.90173   167.08012
   115  H   1.0    0.07    1.04    1.43     3.02923    80.10926   158.50076
   116  H   1.0    0.04    1.03    1.43     8.65683    77.13672   163.42539
   117  H   1.0    0.12    1.02    1.43     8.79101    76.65673   159.23587
   118  N   5.0   -0.13    3.57    2.13    -0.80124    85.99765   164.73875
   119  C   4.0    0.04    4.50    4.54    -1.67808    87.46975   162.59769
   120  C   4.0    0.16    3.50    3.12    -0.73132    90.15883   162.84902
   121  O   6.0   -0.28    1.23    1.80     0.16252    91.29077   161.03111
   122  C   4.0   -0.03    4.32    4.24    -4.54857    87.47919   162.52588
   123  C   4.0    0.25    3.16    3.03    -5.65217    84.83925   162.62982
   124  O   6.0   -0.27    1.23    1.80    -4.19141    82.97976   162.50320
   125  O   6.0   -0.26    1.17    1.80    -7.98976    84.62571   162.83580
   126  H   1.0    0.11    1.08    1.44    -2.19019    85.10759   165.73652
   127  H   1.0    0.06    1.06    1.44    -0.98644    86.63260   160.84780
   128  H   1.0    0.05    1.03    1.43    -5.25911    88.53366   164.14538
   129  H   1.0    0.06    1.03    1.43    -5.17596    88.36736   160.77599
   130  N   5.0   -0.13    3.44    2.04    -0.96565    91.16605   165.13181
   131  C   4.0    0.03    4.27    4.14    -0.11338    93.70017   165.72519
   132  C   4.0    0.17    3.35    3.06     2.61538    94.20284   165.00709
   133  O   6.0   -0.30    1.32    1.80     3.25600    96.26642   164.14538
   134  H   1.0    0.11    1.07    1.44    -1.75367    90.25709   166.63792
   135  H   1.0    0.06    1.04    1.43    -1.29446    95.05699   164.72174
   136  H   1.0    0.06    1.03    1.43    -0.30614    94.01387   167.75097
   137  N   5.0   -0.12    3.48    2.07     4.23677    92.31878   165.36047
   138  C   4.0    0.04    4.35    4.28     6.88616    92.57956   164.65749
   139  C   4.0    0.16    3.40    3.08     7.26600    92.27910   161.79078
   140  O   6.0   -0.29    1.26    1.80     8.48298    93.86269   160.57190
   141  C   4.0   -0.07    4.11    3.81     8.49621    90.69173   166.10313
   142  H   1.0    0.12    1.09    1.44     3.78134    90.60669   166.12014
   143  H   1.0    0.06    1.06    1.44     7.51733    94.46929   165.18095
   144  H   1.0    0.04    1.00    1.43    10.46530    90.92416   165.54566
   145  H   1.0    0.05    1.00    1.43     8.29212    91.04322   168.12325
   146  H   1.0    0.05    1.00    1.43     7.85937    88.78499   165.65338
   147  N   5.0   -0.13    3.44    2.04     6.18696    90.27032   160.72119
   148  C   4.0    0.04    4.52    4.56     6.51766    89.69017   158.03589
   149  C   4.0    0.17    3.45    3.09     6.43830    91.98997   156.27845
   150  O   6.0   -0.26    1.29    1.80     4.64684    93.49419   156.29545
   151  C   4.0   -0.02    4.09    3.79     4.71109    87.60958   157.21197
   152  S   6.0   -0.04    2.40    3.10     6.25499    84.58224   157.51244
   153  H   1.0    0.11    1.09    1.44     5.07391    89.00798   161.66039
   154  H   1.0    0.04    1.11    1.45     8.43196    88.96263   157.81668
   155  H   1.0    0.07    1.07    1.44     3.03490    87.62659   158.41006
   156  H   1.0    0.06    1.07    1.44     4.17251    87.89304   155.24477
   157  H   1.0    0.06    1.05    1.44     4.80746    83.07046   158.80123
   158  N   5.0   -0.13    3.46    2.06     8.44707    92.23374   154.78367
   159  C   4.0    0.04    4.52    4.56     8.89683    94.48630   153.25300
   160  C   4.0    0.16    3.51    3.12     6.56869    95.39715   151.88483
   161  O   6.0   -0.26    1.26    1.80     4.92652    93.93261   151.14406
   162  C   4.0   -0.02    4.32    4.23    10.90372    94.06867   151.14784
   163  C   4.0   -0.06    4.13    3.86    12.06212    96.57633   150.33904
   164  C   4.0   -0.05    4.35    4.29    12.92573    92.31689   151.99822
   165  H   1.0    0.07    1.09    1.44     9.81335    90.88826   154.58903
   166  H   1.0    0.05    1.06    1.44     9.50154    95.87525   154.64761
   167  H   1.0    0.06    1.07    1.44     9.95508    93.21829   149.52835
   168  H   1.0    0.05    1.00    1.43    13.45863    96.22674   148.86505
   169  H   1.0    0.06    1.01    1.43    10.57113    97.80088   149.61716
   170  H   1.0    0.05    1.00    1.43    12.96541    97.45506   151.96798
   171  H   1.0    0.06    1.00    1.43    14.29011    92.07690   150.47321
   172  H   1.0    0.07    1.04    1.43    13.85547    93.11814   153.65173
   173  H   1.0    0.04    1.11    1.45    12.08102    90.50087   152.47821
   174  N   5.0   -0.14    3.50    2.08     6.48932    97.86324   151.52201
   175  C   4.0    0.05    4.48    4.51     4.77345    99.02164   149.73810
   176  C   4.0    0.16    3.51    3.12     5.59548   101.72395   149.35827
   177  O   6.0   -0.27    1.28    1.80     5.31202   103.30376   151.03068
   178  C   4.0   -0.01    4.36    4.31     2.06736    98.96495   150.70564
   179  C   4.0    0.16    3.24    3.04     0.21165    99.95327   148.77057
   180  O   6.0   -0.26    1.22    1.80     0.75778    99.96272   146.50289
   181  N   5.0   -0.18    3.19    1.95    -1.99177   100.79420   149.64551
   182  H   1.0    0.09    1.07    1.44     7.60804    99.12746   152.44986
   183  H   1.0    0.07    1.06    1.44     4.80179    97.98985   147.95609
   184  H   1.0    0.07    1.03    1.43     1.55147    97.02231   151.15729
   185  H   1.0    0.06    1.05    1.44     1.92752   100.14225   152.39128
   186  H   1.0    0.11    1.03    1.43    -3.31458   101.48206   148.42475
   187  H   1.0    0.08    1.04    1.43    -2.35649   100.75074   151.53712
   188  N   5.0   -0.13    3.48    2.07     6.61026   102.30787   147.16619
   189  C   4.0    0.05    4.39    4.36     7.55134   104.84955   146.86383
   190  C   4.0    0.10    3.18    3.03     5.73532   106.46338   145.29158
   191  O   6.0   -0.24    1.11    1.80     6.12460   108.73861   144.93631
   192  C   4.0   -0.02    4.29    4.18    10.27633   104.76074   145.92086
   193  C   4.0    0.16    3.24    3.04    11.90716   102.96361   147.50823
   194  O   6.0   -0.27    1.20    1.80    11.79945   102.99006   149.84204
   195  N   5.0   -0.17    3.17    1.95    13.38682   101.37624   146.24400
   196  H   1.0    0.09    1.05    1.44     6.79545   101.12868   145.65252
   197  H   1.0    0.08    1.08    1.44     7.70441   105.85111   148.65718
   198  H   1.0    0.06    1.03    1.43    10.29901   104.09933   143.97066
   199  H   1.0    0.07    1.03    1.43    11.09647   106.64668   146.03424
   200  H   1.0    0.10    1.02    1.43    14.51310   100.13847   147.20020
   201  H   1.0    0.10    1.02    1.43    13.39627   101.39514   144.31648
   202  N   5.0   -0.18    3.18    1.95    -0.07370   107.10967   147.33437
   203  C   4.0    0.04    4.31    4.22    -1.78201   108.21138   149.20709
   204  C   4.0    0.16    3.42    3.08    -0.59715   108.70460   151.79791
   205  O   6.0   -0.27    1.23    1.80     0.95998   107.22494   152.71064
   206  C   4.0   -0.03    4.29    4.19    -4.13661   106.56354   149.53590
   207  C   4.0   -0.02    4.21    4.02    -5.91295   106.56165   147.29847
   208  C   4.0    0.25    3.13    3.03    -8.37904   105.23506   147.86728
   209  O   6.0   -0.29    1.22    1.80   -10.08169   106.46149   148.95009
   210  O   6.0   -0.26    1.17    1.80    -8.59447   102.96739   147.24178
   211  H   1.0    0.11    1.02    1.43     1.09793   105.74151   148.02034
   212  H   1.0    0.07    1.07    1.44    -2.26578   110.08410   148.50033
   213  H   1.0    0.05    1.06    1.44    -3.53568   104.61901   149.85338
   214  H   1.0    0.06    1.04    1.43    -5.19297   107.24951   151.16674
   215  H   1.0    0.07    1.03    1.43    -6.33814   108.50806   146.77501
   216  H   1.0    0.06    1.03    1.43    -5.01155   105.58844   145.72244
   217  N   5.0   -0.12    3.55    2.11    -1.35682   110.79085   152.97710
   218  C   4.0    0.04    4.54    4.59    -0.47621   111.33131   155.50177
   219  C   4.0    0.17    3.58    3.15    -1.89540   109.59088   157.21575
   220  O   6.0   -0.30    1.33    1.80    -3.91551   108.64412   156.56379
   221  C   4.0    0.05    4.25    4.10    -0.95809   114.06197   156.33136
   222  O   6.0   -0.24    2.12    1.84    -3.56780   114.39456   157.00032
   223  C   4.0   -0.06    4.10    3.80    -0.21165   115.88366   154.24699
   224  H   1.0    0.10    1.09    1.44    -2.55680   112.10421   152.23632
   225  H   1.0    0.05    1.06    1.44     1.56469   111.07809   155.60570
   226  H   1.0    0.05    1.04    1.43     0.18708   114.49283   157.98865
   227  H   1.0    0.12    1.01    1.43    -3.86827   116.14256   157.53133
   228  H   1.0    0.06    1.00    1.43    -0.55747   117.82252   154.84792
   229  H   1.0    0.06    1.00    1.43     1.78957   115.66824   153.80480
   230  H   1.0    0.06    1.00    1.43    -1.31525   115.50383   152.55002
   231  N   5.0   -0.14    3.57    2.13    -0.79746   109.13356   159.40972
   232  C   4.0    0.04    4.54    4.59    -1.99555   107.54241   161.25409
   233  C   4.0    0.16    3.53    3.13    -4.64495   108.53263   161.66228
   234  O   6.0   -0.31    1.37    1.80    -6.46853   107.14368   161.36748
   235  C   4.0   -0.04    4.15    3.90    -0.47621   107.58966   163.68806
   236  S   6.0   -0.03    2.40    3.10     2.65695   106.17425   163.37248
   237  H   1.0    0.08    1.08    1.44     0.91274   109.83843   159.95207
   238  H   1.0    0.05    1.07    1.44    -2.07114   105.57899   160.63426
   239  H   1.0    0.05    1.07    1.44    -0.23055   109.54741   164.28144
   240  H   1.0    0.04    1.07    1.44    -1.50233   106.54086   165.13370
   241  N   5.0   -0.14    3.56    2.12    -4.85660   110.95337   162.27833
   242  C   4.0    0.03    4.41    4.40    -7.29812   112.10232   162.86225
   243  C   4.0    0.16    3.49    3.11    -9.36359   111.23305   161.06512
   244  O   6.0   -0.31    1.25    1.80   -11.36859   110.38267   161.88715
   245  C   4.0   -0.04    4.28    4.17    -7.12616   115.00494   162.81879
   246  C   4.0   -0.04    4.18    3.96    -5.48965   116.19925   164.88993
   247  C   4.0    0.24    3.15    3.03    -2.66073   115.83642   164.44395
   248  O   6.0   -0.31    1.51    1.80    -1.94642   114.44558   162.66572
   249  O   6.0   -0.30    1.17    1.80    -1.14517   116.94380   165.88203
   250  H   1.0    0.13    1.33    1.51    -3.37316   112.17980   162.39171
   251  H   1.0    0.04    1.06    1.44    -7.79701   111.51840   164.77276
   252  H   1.0    0.06    1.03    1.43    -6.33247   115.57753   161.00654
   253  H   1.0    0.05    1.03    1.43    -9.02722   115.76839   163.02666
   254  H   1.0    0.05    1.05    1.44    -5.86760   118.22315   164.95607
   255  H   1.0    0.04    1.03    1.43    -5.96209   115.33375   166.69840
   256  N   5.0   -0.13    3.52    2.09    -8.86470   111.46549   158.61226
   257  C   4.0    0.04    4.47    4.49   -10.71286   110.74928   156.70174
   258  C   4.0    0.16    3.48    3.11   -11.43851   108.01862   156.99843
   259  O   6.0   -0.31    1.25    1.80   -13.66650   107.41580   157.16473
   260  C   4.0   -0.03    4.38    4.35    -9.62626   111.10266   154.07881
   261  C   4.0   -0.03    4.27    4.15    -8.82124   113.76717   153.53078
   262  C   4.0    0.16    3.25    3.04    -7.02222   113.86166   151.32925
   263  O   6.0   -0.30    1.30    1.80    -5.95264   111.93603   150.60549
   264  N   5.0   -0.17    3.18    1.95    -6.66317   116.08964   150.25211
   265  H   1.0    0.10    1.07    1.44    -7.20930   112.14012   157.89227
   266  H   1.0    0.06    1.06    1.44   -12.36448   111.95870   156.92473
   267  H   1.0    0.07    1.05    1.44    -7.97275   109.89134   153.87660
   268  H   1.0    0.06    1.03    1.43   -11.05679   110.57920   152.69175
   269  H   1.0    0.05    1.03    1.43   -10.47664   114.90101   153.06780
   270  H   1.0    0.05    1.04    1.43    -7.87071   114.54952   155.18241
   271  H   1.0    0.10    1.03    1.43    -7.58725   117.64300   150.92107
   272  H   1.0    0.11    1.02    1.43    -5.46131   116.25405   148.75356
   273  N   5.0   -0.13    3.54    2.10    -9.52422   106.38590   157.04379
   274  C   4.0    0.04    4.40    4.38    -9.87760   103.66470   157.29134
   275  C   4.0    0.16    3.43    3.09   -11.33080   102.94660   159.69885
   276  O   6.0   -0.31    1.25    1.80   -13.04667   101.38002   159.64027
   277  C   4.0   -0.04    4.31    4.21    -7.31891   102.34756   157.26299
   278  C   4.0   -0.04    4.20    4.00    -5.57658   103.21494   155.16162
   279  C   4.0   -0.00    4.20    4.00    -2.78546   102.63858   155.75688
   280  N   5.0   -0.15    3.39    2.01    -2.30169    99.93249   156.18963
   281  C   4.0    0.09    3.34    3.06    -0.04346    98.92148   156.68474
   282  N   5.0   -0.17    3.27    1.97     2.00689   100.36712   156.81702
   283  N   5.0   -0.16    3.24    1.97     0.16819    96.44972   157.04001
   284  H   1.0    0.10    1.10    1.44    -7.67040   106.89613   156.90961
   285  H   1.0    0.06    1.06    1.44   -10.99065   103.02219   155.68129
   286  H   1.0    0.05    1.04    1.43    -6.37027   102.71416   159.05445
   287  H   1.0    0.05    1.03    1.43    -7.62315   100.32366   157.02867
   288  H   1.0    0.05    1.03    1.43    -6.07736   102.23984   153.41740
   289  H   1.0    0.06    1.05    1.44    -5.77500   105.25018   154.91217
   290  H   1.0    0.06    1.03    1.43    -1.62327   103.24518   154.16762
   291  H   1.0    0.05    1.03    1.43    -2.23933   103.66092   157.45952
   292  H   1.0    0.08    1.06    1.44    -3.80969    98.73629   156.10459
   293  H   1.0    0.10    1.03    1.43     1.86516   102.27008   156.53923
   294  H   1.0    0.10    1.02    1.43     3.72276    99.57344   157.19685
   295  H   1.0    0.10    1.02    1.43    -1.39273    95.32345   156.93418
   296  H   1.0    0.13    1.05    1.44     1.89162    95.67494   157.41795
   297  N   5.0   -0.14    3.50    2.08   -10.66561   104.09366   161.81723
   298  C   4.0    0.04    4.37    4.33   -11.95252   103.49462   164.17561
   299  C   4.0    0.15    3.43    3.09   -14.69262   104.38279   164.21341
   300  O   6.0   -0.30    1.23    1.80   -16.24408   103.40391   165.65149
   301  C   4.0   -0.07    4.11    3.82   -10.51444   104.58877   166.41116
   302  H   1.0    0.12    1.11    1.45    -9.27477   105.41836   161.96841
   303  H   1.0    0.05    1.06    1.44   -11.97141   101.44616   164.39293
   304  H   1.0    0.05    1.00    1.43   -11.51410   104.11445   168.14781
   305  H   1.0    0.05    1.00    1.43    -8.61904   103.78186   166.44895
   306  H   1.0    0.05    1.00    1.43   -10.40294   106.63535   166.19951
   307  N   5.0   -0.13    3.50    2.08   -15.28599   106.25173   162.65060
   308  C   4.0    0.04    4.34    4.28   -17.90137   107.08321   162.36147
   309  C   4.0    0.16    3.40    3.08   -19.59457   104.97050   161.29945
   310  O   6.0   -0.25    1.22    1.80   -21.83578   104.82499   161.91172
   311  C   4.0   -0.06    4.13    3.86   -18.02799   109.41891   160.67773
   312  H   1.0    0.11    1.08    1.44   -14.01988   107.22116   161.56779
   313  H   1.0    0.06    1.06    1.44   -18.63081   107.60289   164.21718
   314  H   1.0    0.06    1.00    1.43   -19.99330   110.00284   160.48876
   315  H   1.0    0.05    1.02    1.43   -16.92628   110.92880   161.54133
   316  H   1.0    0.07    1.01    1.43   -17.25320   108.95404   158.82769
   317  N   5.0   -0.14    3.52    2.09   -18.49475   103.32833   159.74231
   318  C   4.0    0.04    4.41    4.39   -19.90448   101.33466   158.46486
   319  C   4.0    0.17    3.37    3.07   -20.49219    99.03109   160.15049
   320  O   6.0   -0.25    1.21    1.80   -22.06066    97.42671   159.49287
   321  C   4.0   -0.04    4.28    4.17   -18.47018   100.52019   156.09892
   322  C   4.0   -0.04    4.22    4.04   -17.76153   102.73873   154.43596
   323  C   4.0    0.00    4.22    4.04   -15.75465   102.06032   152.48388
   324  N   5.0   -0.12    3.40    2.02   -15.04222   104.28264   151.00422
   325  C   4.0    0.12    3.34    3.06   -15.62614   104.63602   148.58348
   326  N   5.0   -0.16    3.26    1.97   -16.90927   102.87857   147.33437
   327  N   5.0   -0.15    3.25    1.97   -14.90805   106.74117   147.40429
   328  H   1.0    0.10    1.08    1.44   -16.61258   103.33210   159.32468
   329  H   1.0    0.08    1.06    1.44   -21.72996   102.08678   157.87904
   330  H   1.0    0.06    1.03    1.43   -16.73730    99.56021   156.66017
   331  H   1.0    0.06    1.03    1.43   -19.65693    99.24652   154.99721
   332  H   1.0    0.06    1.03    1.43   -19.43772   103.38880   153.42874
   333  H   1.0    0.06    1.04    1.43   -17.01698   104.25429   155.61515
   334  H   1.0    0.05    1.02    1.43   -14.07657   101.34600   153.44197
   335  H   1.0    0.05    1.04    1.43   -16.49731   100.62980   151.20075
   336  H   1.0    0.10    1.06    1.44   -14.02555   105.66025   151.89050
   337  H   1.0    0.10    1.04    1.43   -17.44784   101.25908   148.23010
   338  H   1.0    0.11    1.02    1.43   -17.35713   103.14880   145.47866
   339  H   1.0    0.11    1.03    1.43   -13.90838   108.08666   148.35672
   340  H   1.0    0.11    1.02    1.43   -15.35780   107.00762   145.54858
   341  N   5.0   -0.12    3.47    2.06   -19.24686    98.90070   162.32935
   342  C   4.0    0.04    4.39    4.36   -19.57189    96.83901   164.14349
   343  C   4.0    0.09    3.26    3.05   -22.22696    96.75019   165.26031
   344  O   6.0   -0.24    1.13    1.80   -23.37591    98.72873   165.73652
   345  C   4.0   -0.02    4.35    4.29   -17.62925    97.11491   166.29399
   346  C   4.0   -0.04    4.21    4.01   -14.96852    96.70862   165.24520
   347  C   4.0   -0.08    4.14    3.87   -18.23586    95.35179   168.52765
   348  C   4.0   -0.07    4.03    3.68   -12.92195    96.91271   167.21807
   349  H   1.0    0.10    1.08    1.44   -17.96940   100.21973   162.91516
   350  H   1.0    0.05    1.06    1.44   -19.28276    95.08345   163.10603
   351  H   1.0    0.06    1.06    1.44   -17.73508    99.02920   167.04799
   352  H   1.0    0.05    1.03    1.43   -14.86080    94.82456   164.41939
   353  H   1.0    0.06    1.03    1.43   -14.59813    98.13347   163.80334
   354  H   1.0    0.04    1.00    1.43   -16.81478    95.61446   169.99597
   355  H   1.0    0.04    1.01    1.43   -20.10101    95.82044   169.26464
   356  H   1.0    0.04    1.00    1.43   -18.21129    93.40159   167.86814
   357  H   1.0    0.05    1.00    1.43   -11.09269    96.60090   166.32234
   358  H   1.0    0.04    1.00    1.43   -12.98242    98.79487   168.05522
   359  H   1.0    0.04    1.00    1.43   -13.24509    95.48785   168.66938
   360  N   5.0   -0.20    3.27    1.97   -23.75386    92.41138   170.54210
   361  C   4.0    0.03    4.34    4.27   -23.64614    90.76354   172.75875
   362  C   4.0    0.16    3.45    3.09   -23.23607    92.22996   175.17193
   363  O   6.0   -0.27    1.28    1.80   -22.66159    91.14148   177.14669
   364  C   4.0   -0.04    4.38    4.35   -21.55232    88.79255   172.48852
   365  C   4.0   -0.03    4.19    3.97   -21.50886    87.08424   170.16226
   366  C   4.0   -0.07    4.11    3.82   -20.56967    84.47264   170.94461
   367  C   4.0   -0.06    4.14    3.88   -24.07511    86.90283   168.86591
   368  H   1.0    0.08    1.03    1.43   -22.10790    93.33356   170.14337
   369  H   1.0    0.06    1.06    1.44   -25.44327    89.76387   172.88158
   370  H   1.0    0.04    1.04    1.43   -19.75520    89.79978   172.49985
   371  H   1.0    0.06    1.05    1.44   -21.67138    87.54344   174.12124
   372  H   1.0    0.04    1.06    1.44   -20.23330    87.89871   168.76576
   373  H   1.0    0.06    1.00    1.43   -20.53565    83.24810   169.28921
   374  H   1.0    0.04    1.00    1.43   -18.67238    84.64838   171.72696
   375  H   1.0    0.05    1.00    1.43   -21.84523    83.69785   172.36379
   376  H   1.0    0.06    1.00    1.43   -23.91448    85.66128   167.22941
   377  H   1.0    0.06    1.00    1.43   -25.44705    86.13560   170.19817
   378  H   1.0    0.05    1.02    1.43   -24.65714    88.78499   168.26498
   379  N   5.0   -0.13    3.40    2.02   -23.47607    94.71306   175.02453
   380  C   4.0    0.02    4.37    4.32   -23.48362    96.19272   177.32243
   381  C   4.0    0.14    3.47    3.10   -20.97029    96.28910   178.67170
   382  O   6.0   -0.28    1.28    1.80   -19.39804    94.60157   178.42225
   383  H   1.0    0.08    1.06    1.44   -23.66315    95.71840   173.38991
   384  H   1.0    0.04    1.04    1.43   -24.02976    98.12591   176.86701
   385  H   1.0    0.06    1.04    1.43   -24.86690    95.39526   178.62257
   386  N   5.0   -0.11    3.68    2.24   -20.66415    98.23173   180.23261
   387  C   4.0    0.02    4.56    4.61   -18.39459    99.34667   181.37590
   388  C   4.0    0.15    3.51    3.12   -16.21952    97.51364   181.66502
   389  O   6.0   -0.31    1.59    1.81   -14.38648    97.71584   180.24773
   390  C   4.0   -0.05    4.44    4.44   -19.30166   100.14603   183.99317
   391  C   4.0   -0.04    4.33    4.26   -22.01153   100.65436   183.62467
   392  C   4.0   -0.01    4.48    4.51   -22.95072    98.79676   181.69904
   393  H   1.0    0.03    1.05    1.44   -17.81067   100.96428   180.24017
   394  H   1.0    0.04    1.05    1.44   -19.00497    98.62102   185.34621
   395  H   1.0    0.03    1.03    1.43   -18.30011   101.83733   184.60733
   396  H   1.0    0.05    1.03    1.43   -23.00363   100.40303   185.41235
   397  H   1.0    0.04    1.03    1.43   -22.25908   102.58377   182.94626
   398  H   1.0    0.05    1.03    1.43   -23.68394    97.09979   182.60611
   399  H   1.0    0.04    1.03    1.43   -24.40203    99.63958   180.50662
   400  N   5.0   -0.14    3.49    2.07   -16.42361    95.78454   183.48672
   401  C   4.0    0.03    4.40    4.38   -14.42428    93.93828   183.95726
   402  C   4.0    0.17    3.57    3.15   -13.05234    93.39593   181.48739
   403  O   6.0   -0.31    1.30    1.80   -10.83002    94.03654   181.16803
   404  C   4.0   -0.05    4.23    4.07   -15.45796    91.48163   185.10622
   405  C   4.0   -0.05    4.10    3.81   -13.88760    90.46496   187.37011
   406  C   4.0   -0.01    4.14    3.88   -14.49231    87.68517   188.16379
   407  N   5.0   -0.15    3.34    2.00   -13.13737    85.72742   186.68981
   408  C   4.0    0.09    3.33    3.06   -12.62526    83.37471   187.49105
   409  N   5.0   -0.17    3.25    1.97   -13.32068    82.63016   189.78329
   410  N   5.0   -0.19    3.35    2.00   -11.40072    81.74388   186.01706
   411  H   1.0    0.07    1.07    1.44   -17.94295    95.61635   184.66213
   412  H   1.0    0.04    1.06    1.44   -13.10147    94.70740   185.33676
   413  H   1.0    0.05    1.03    1.43   -17.37603    91.82367   185.77707
   414  H   1.0    0.04    1.04    1.43   -15.47119    90.02654   183.64924
   415  H   1.0    0.04    1.03    1.43   -11.89205    90.54055   186.86744
   416  H   1.0    0.04    1.02    1.43   -14.24853    91.66305   189.00661
   417  H   1.0    0.05    1.03    1.43   -13.97263    87.43951   190.14234
   418  H   1.0    0.05    1.02    1.43   -16.51054    87.35825   187.92002
   419  H   1.0    0.07    1.06    1.44   -12.54400    86.20741   184.91913
   420  H   1.0    0.09    1.03    1.43   -14.25231    83.84903   190.95114
   421  H   1.0    0.10    1.03    1.43   -12.92384    80.84059   190.37666
   422  H   1.0    0.07    1.13    1.45   -10.83758    82.27489   184.25206
   423  H   1.0    0.08    1.03    1.43   -11.02655    79.96375   186.65390
   424  N   5.0   -0.14    3.53    2.10   -14.40349    92.27343   179.70349
   425  C   4.0    0.04    4.62    4.68   -13.32068    91.85769   177.22228
   426  C   4.0    0.17    3.62    3.18   -12.34369    94.30866   176.11868
   427  O   6.0   -0.32    1.41    1.80   -10.20830    94.45795   175.23618
   428  C   4.0   -0.04    4.31    4.22   -15.28977    90.78054   175.45350
   429  S   6.0   -0.03    2.50    3.10   -14.14082    90.65393   172.30143
   430  H   1.0    0.09    1.06    1.44   -16.21385    91.64415   179.91514
   431  H   1.0    0.05    1.08    1.44   -11.77299    90.51220   177.41125
   432  H   1.0    0.04    1.09    1.44   -15.77165    88.86814   176.05065
   433  H   1.0    0.06    1.08    1.44   -16.96785    91.97485   175.48940
   434  N   5.0   -0.12    3.60    2.16   -13.94051    96.23240   176.16781
   435  C   4.0    0.04    4.54    4.59   -13.29233    98.66637   175.06043
   436  C   4.0    0.17    3.50    3.11   -10.75443    99.64525   176.01663
   437  O   6.0   -0.32    1.34    1.80    -8.95730    99.93438   174.55588
   438  C   4.0   -0.03    4.37    4.32   -15.39938   100.62602   175.51397
   439  C   4.0   -0.05    4.22    4.04   -17.81256    99.78131   174.14392
   440  C   4.0   -0.08    4.15    3.90   -14.56790   103.21494   174.60123
   441  C   4.0   -0.07    4.03    3.67   -20.08023   101.41025   174.67115
   442  H   1.0    0.11    1.10    1.44   -15.69795    96.17193   176.95772
   443  H   1.0    0.05    1.06    1.44   -13.10714    98.36402   173.03087
   444  H   1.0    0.05    1.07    1.44   -15.78299   100.75074   177.53408
   445  H   1.0    0.04    1.03    1.43   -17.46863    99.82855   172.11435
   446  H   1.0    0.05    1.04    1.43   -18.26987    97.86324   174.73729
   447  H   1.0    0.04    1.00    1.43   -16.08535   104.56610   174.94138
   448  H   1.0    0.04    1.01    1.43   -12.87848   103.77997   175.63680
   449  H   1.0    0.05    1.00    1.43   -14.15594   103.11479   172.58489
   450  H   1.0    0.05    1.00    1.43   -21.69405   100.67137   173.62613
   451  H   1.0    0.04    1.01    1.43   -20.47707   101.37435   176.69127
   452  H   1.0    0.05    1.00    1.43   -19.67583   103.33777   174.06833
   453  N   5.0   -0.13    3.56    2.13   -10.62782   100.12524   178.47706
   454  C   4.0    0.03    4.45    4.47    -8.27511   100.84900   179.72617
   455  C   4.0    0.17    3.53    3.13    -6.12838    99.11802   178.97594
   456  O   6.0   -0.30    1.33    1.80    -4.31613    99.91926   177.76652
   457  C   4.0   -0.05    4.41    4.40    -8.59825   100.61468   182.56264
   458  C   4.0   -0.05    4.31    4.23   -11.15316   101.41592   183.45082
   459  C   4.0   -0.05    4.26    4.12   -11.17962   101.34222   186.28163
   460  C   4.0   -0.04    4.16    3.92   -13.41894   102.71416   187.33231
   461  N   5.0   -0.12    4.02    2.91   -13.16383   102.85589   190.13100
   462  H   1.0    0.10    1.16    1.46   -12.13582   100.02886   179.67325
   463  H   1.0    0.04    1.05    1.44    -7.82158   102.78408   179.18570
   464  H   1.0    0.05    1.06    1.44    -8.32424    98.64747   183.10689
   465  H   1.0    0.04    1.04    1.43    -7.19986   101.80521   183.49617
   466  H   1.0    0.03    1.03    1.43   -11.55001   103.33777   182.82154
   467  H   1.0    0.06    1.07    1.44   -12.58935   100.12713   182.72894
   468  H   1.0    0.04    1.03    1.43   -11.26655    99.38258   186.91279
   469  H   1.0    0.04    1.04    1.43    -9.47320   102.23984   187.00350
   470  H   1.0    0.03    1.03    1.43   -13.49642   104.62468   186.56697
   471  H   1.0    0.04    1.02    1.43   -15.14993   101.69749   186.86555
   472  H   1.0    0.06    1.01    1.43   -14.70585   103.80265   190.90012
   473  H   1.0    0.06    1.02    1.43   -13.08446   101.04554   190.89067
   474  H   1.0    0.06    1.02    1.43   -11.51977   103.82154   190.60721
   475  N   5.0   -0.13    3.55    2.12    -6.34192    96.75964   179.80175
   476  C   4.0    0.04    4.40    4.38    -4.63172    94.76409   179.06665
   477  C   4.0    0.17    3.57    3.15    -3.59048    95.24219   176.46828
   478  O   6.0   -0.29    1.26    1.80    -1.32281    95.71084   176.13758
   479  C   4.0   -0.07    4.21    4.01    -6.01878    92.30366   179.05720
   480  H   1.0    0.10    1.10    1.44    -7.71953    96.16815   181.01307
   481  H   1.0    0.05    1.06    1.44    -3.06703    94.68094   180.40269
   482  H   1.0    0.04    1.00    1.43    -4.72054    90.80322   178.50162
   483  H   1.0    0.05    1.00    1.43    -6.74632    91.93706   180.94882
   484  H   1.0    0.07    1.02    1.43    -7.57591    92.41705   177.71550
   485  N   5.0   -0.13    3.55    2.11    -5.27989    95.07211   174.61635
   486  C   4.0    0.04    4.44    4.45    -4.59770    95.42360   171.98207
   487  C   4.0    0.17    3.51    3.12    -2.92719    97.76119   171.67215
   488  O   6.0   -0.30    1.27    1.80    -0.80313    97.64403   170.71406
   489  C   4.0   -0.03    4.35    4.29    -6.98254    95.69194   170.36257
   490  C   4.0   -0.02    3.56    3.15    -6.42696    96.06800   167.59601
   491  C   4.0   -0.04    3.46    3.10    -6.39861    94.01954   165.96140
   492  C   4.0   -0.04    3.48    3.10    -5.86193    98.47173   166.63792
   493  C   4.0   -0.03    3.38    3.07    -5.84492    94.35969   163.42917
   494  C   4.0   -0.04    3.36    3.07    -5.30824    98.83078   164.11703
   495  C   4.0   -0.03    3.37    3.07    -5.30068    96.78042   162.50509
   496  H   1.0    0.12    1.16    1.46    -7.14883    94.69039   174.88658
   497  H   1.0    0.08    1.09    1.44    -3.56213    93.76253   171.33956
   498  H   1.0    0.05    1.03    1.43    -8.11448    93.98174   170.55344
   499  H   1.0    0.06    1.04    1.43    -8.05401    97.32278   171.02020
   500  H   1.0    0.06    1.03    1.43    -6.81057    92.15060   166.66816
   501  H   1.0    0.05    1.03    1.43    -5.86004   100.07611   167.90026
   502  H   1.0    0.06    1.03    1.43    -5.83169    92.75909   162.16305
   503  H   1.0    0.05    1.03    1.43    -4.88494   100.69783   163.41027
   504  H   1.0    0.05    1.03    1.43    -4.87360    97.04310   160.52655
   505  N   5.0   -0.13    3.54    2.10    -3.91929    99.89091   172.51875
   506  C   4.0    0.04    4.52    4.57    -2.65695   102.29842   172.21451
   507  C   4.0    0.16    3.53    3.13     0.02268   102.29653   173.21606
   508  O   6.0   -0.31    1.34    1.80     1.80847   102.56110   171.77609
   509  C   4.0    0.05    4.30    4.19    -4.16118   104.31854   173.59778
   510  O   6.0   -0.26    2.10    1.84    -6.69530   104.35634   172.62458
   511  C   4.0   -0.07    4.10    3.80    -2.92908   106.89424   173.28598
   512  H   1.0    0.12    1.11    1.45    -5.61249   100.00997   173.43338
   513  H   1.0    0.05    1.06    1.44    -2.54546   102.70661   170.19817
   514  H   1.0    0.05    1.05    1.44    -4.21598   103.90469   175.61412
   515  H   1.0    0.14    1.05    1.44    -7.66662   102.94660   173.32944
   516  H   1.0    0.04    1.00    1.43    -4.02323   108.32476   174.28564
   517  H   1.0    0.04    1.00    1.43    -1.01856   106.85833   174.05321
   518  H   1.0    0.04    1.00    1.43    -2.83837   107.39502   171.29043
   519  N   5.0   -0.14    3.53    2.10     0.24755   102.04520   175.70105
   520  C   4.0    0.03    4.46    4.47     2.64940   102.07544   177.00874
   521  C   4.0    0.17    3.60    3.17     4.61282   100.75452   175.44405
   522  O   6.0   -0.31    1.32    1.80     6.47420   101.88457   174.62957
   523  C   4.0   -0.04    4.40    4.39     2.36405   100.69783   179.50885
   524  C   4.0   -0.03    4.25    4.10     4.81691   100.08556   180.82032
   525  C   4.0    0.24    3.16    3.03     4.42007    99.78131   183.61711
   526  O   6.0   -0.30    1.29    1.80     2.24877   100.13847   184.44670
   527  O   6.0   -0.29    1.18    1.80     6.23799    99.21061   184.98905
   528  H   1.0    0.10    1.10    1.44    -1.25100   101.81088   176.89158
   529  H   1.0    0.05    1.06    1.44     3.22765   104.01996   177.36590
   530  H   1.0    0.06    1.05    1.44     1.25856   101.87891   180.78252
   531  H   1.0    0.06    1.04    1.43     1.38328    98.91959   179.16681
   532  H   1.0    0.06    1.03    1.43     5.57469    98.32244   180.07199
   533  H   1.0    0.05    1.03    1.43     6.16051   101.61623   180.51229
   534  N   5.0   -0.13    3.60    2.16     4.15740    98.34512   174.99807
   535  C   4.0    0.04    4.56    4.61     5.91484    96.85790   173.55432
   536  C   4.0    0.17    3.49    3.11     6.53845    98.01820   170.98996
   537  O   6.0   -0.31    1.31    1.80     8.72109    98.10701   170.23596
   538  C   4.0   -0.03    4.23    4.06     4.85471    94.23118   173.18582
   539  S   6.0   -0.01    2.46    3.10     4.47109    92.57767   176.06010
   540  H   1.0    0.10    1.09    1.44     2.60215    97.38514   175.60845
   541  H   1.0    0.07    1.08    1.44     7.67229    96.76153   174.62391
   542  H   1.0    0.07    1.08    1.44     3.01033    94.37480   172.28065
   543  H   1.0    0.05    1.09    1.44     6.14161    93.15026   171.99530
   544  N   5.0   -0.12    3.51    2.08     4.63172    98.87613   169.61613
   545  C   4.0    0.05    4.58    4.64     5.14194   100.06666   167.20484
   546  C   4.0    0.17    3.57    3.15     7.03167   102.21717   167.51287
   547  O   6.0   -0.30    1.32    1.80     9.15194   102.11701   166.55856
   548  C   4.0   -0.02    4.25    4.11     2.71743   101.05687   166.02754
   549  S   6.0    0.01    2.43    3.10     3.24655   102.42126   162.99642
   550  H   1.0    0.12    1.09    1.44     2.77223    98.77598   170.11124
   551  H   1.0    0.08    1.08    1.44     5.94886    98.66259   165.93117
   552  H   1.0    0.07    1.09    1.44     1.38706    99.49974   165.81022
   553  H   1.0    0.05    1.09    1.44     1.91240   102.50440   167.25397
   554  N   5.0   -0.14    3.53    2.10     6.25310   104.16169   168.87914
   555  C   4.0    0.04    4.59    4.65     7.84992   106.35567   169.24953
   556  C   4.0    0.17    3.57    3.15    10.49365   105.62434   170.06967
   557  O   6.0   -0.31    1.33    1.80    12.33424   106.45960   168.93583
   558  C   4.0   -0.03    4.35    4.30     6.73876   108.15091   171.16571
   559  C   4.0   -0.07    4.19    3.98     8.56802   110.25984   171.66648
   560  C   4.0   -0.07    4.16    3.91     4.27267   109.18837   170.16793
   561  H   1.0    0.10    1.09    1.44     4.53723   104.27319   169.74841
   562  H   1.0    0.05    1.07    1.44     7.95386   107.29108   167.41649
   563  H   1.0    0.05    1.06    1.44     6.37594   107.16447   172.93827
   564  H   1.0    0.05    1.01    1.43     7.74788   111.54485   173.05165
   565  H   1.0    0.05    1.02    1.43    10.32357   109.46616   172.39781
   566  H   1.0    0.05    1.00    1.43     8.93084   111.26517   169.90526
   567  H   1.0    0.04    1.01    1.43     3.47710   110.48283   171.55877
   568  H   1.0    0.04    1.00    1.43     4.63172   110.18803   168.40293
   569  H   1.0    0.05    1.00    1.43     2.97254   107.62556   169.83912
   570  N   5.0   -0.13    3.50    2.07    10.69396   104.05398   172.01608
   571  C   4.0    0.04    4.56    4.62    13.17328   103.21683   172.86835
   572  C   4.0    0.16    3.56    3.14    14.71530   102.12646   170.68950
   573  O   6.0   -0.31    1.31    1.80    16.68061   103.13179   169.97707
   574  C   4.0   -0.02    4.35    4.29    12.97297   101.24207   174.94327
   575  C   4.0   -0.07    4.19    3.97    15.54867   100.20839   175.51208
   576  C   4.0   -0.06    4.14    3.88    11.78433   102.38535   177.28275
   577  H   1.0    0.11    1.10    1.44     9.21052   103.34344   173.01953
   578  H   1.0    0.05    1.06    1.44    14.12192   104.88924   173.60723
   579  H   1.0    0.06    1.06    1.44    11.76921    99.69060   174.32344
   580  H   1.0    0.07    1.02    1.43    15.38993    98.79487   177.00118
   581  H   1.0    0.05    1.02    1.43    16.31778    99.34856   173.80565
   582  H   1.0    0.05    1.00    1.43    16.76754   101.74851   176.13191
   583  H   1.0    0.07    1.00    1.43    11.65772   100.93971   178.74540
   584  H   1.0    0.05    1.00    1.43    12.95785   103.94627   177.93660
   585  H   1.0    0.06    1.01    1.43     9.90027   103.07321   176.81032
   586  N   5.0   -0.14    3.50    2.08    13.80067   100.06477   169.62558
   587  C   4.0    0.04    4.38    4.35    15.03655    98.88936   167.47696
   588  C   4.0    0.17    3.52    3.12    15.97007   100.81310   165.55133
   589  O   6.0   -0.32    1.37    1.80    18.19806   100.87168   164.91449
   590  C   4.0   -0.07    4.15    3.90    13.24698    97.06577   166.22974
   591  H   1.0    0.11    1.10    1.44    12.20196    99.15581   170.20573
   592  H   1.0    0.04    1.06    1.44    16.67494    97.85757   168.17994
   593  H   1.0    0.04    1.00    1.43    14.19184    96.19461   164.61970
   594  H   1.0    0.05    1.00    1.43    12.70463    95.62013   167.59224
   595  H   1.0    0.07    1.00    1.43    11.57835    98.09189   165.59291
   596  N   5.0   -0.13    3.52    2.09    14.24664   102.35512   164.59324
   597  C   4.0    0.04    4.44    4.45    14.91183   104.20705   162.67706
   598  C   4.0    0.16    3.52    3.12    17.27776   105.60356   163.44051
   599  O   6.0   -0.31    1.34    1.80    19.12214   105.70938   162.03833
   600  C   4.0    0.04    4.18    3.97    12.75943   106.08166   162.31990
   601  O   6.0   -0.24    2.04    1.83    10.59569   104.82310   161.36937
   602  H   1.0    0.11    1.10    1.44    12.38715   102.37023   165.09969
   603  H   1.0    0.06    1.06    1.44    15.23119   103.23573   160.88938
   604  H   1.0    0.06    1.02    1.43    12.30023   106.93959   164.13593
   605  H   1.0    0.06    1.02    1.43    13.34147   107.53486   160.98008
   606  H   1.0    0.14    1.02    1.43     9.82469   103.79509   162.70351
   607  N   5.0   -0.13    3.58    2.14    17.19273   106.65235   165.70629
   608  C   4.0    0.04    4.49    4.52    19.27520   108.10744   166.75698
   609  C   4.0    0.16    3.49    3.11    21.71295   106.64668   166.87792
   610  O   6.0   -0.29    1.28    1.80    23.75008   107.68225   166.54155
   611  C   4.0   -0.03    4.37    4.33    18.55522   108.96160   169.37803
   612  C   4.0   -0.03    4.33    4.25    16.12314   110.41480   169.29866
   613  C   4.0    0.15    3.25    3.04    16.09858   112.48405   171.22996
   614  O   6.0   -0.27    1.22    1.80    16.64849   112.03051   173.44094
   615  N   5.0   -0.18    3.18    1.95    15.48441   114.78951   170.42116
   616  H   1.0    0.11    1.10    1.44    15.67906   106.53141   166.89304
   617  H   1.0    0.06    1.06    1.44    19.60402   109.72883   165.53054
   618  H   1.0    0.07    1.04    1.43    18.30389   107.31943   170.59501
   619  H   1.0    0.07    1.04    1.43    20.03110   110.18236   170.13770
   620  H   1.0    0.04    1.05    1.44    15.89448   111.26139   167.43539
   621  H   1.0    0.07    1.07    1.44    14.55278   109.14112   169.69172
   622  H   1.0    0.08    1.02    1.43    15.05923   115.07675   168.56355
   623  H   1.0    0.09    1.03    1.43    15.43906   116.26539   171.66082
   624  N   5.0   -0.13    3.60    2.16    21.49941   104.22217   167.38059
   625  C   4.0    0.04    4.53    4.58    23.68394   102.59700   167.22563
   626  C   4.0    0.16    3.51    3.12    24.46250   102.21906   164.49686
   627  O   6.0   -0.26    1.27    1.80    26.67348   101.89591   163.93751
   628  C   4.0   -0.04    4.40    4.38    23.12458   100.07422   168.47096
   629  C   4.0   -0.02    4.23    4.07    22.41782   100.37090   171.24886
   630  C   4.0   -0.07    4.11    3.83    22.47640    97.82355   172.52631
   631  C   4.0   -0.06    4.15    3.90    24.21873   102.23795   172.52820
   632  H   1.0    0.12    1.10    1.44    19.86669   103.33588   167.89270
   633  H   1.0    0.07    1.08    1.44    25.25619   103.45494   168.24419
   634  H   1.0    0.05    1.03    1.43    21.54854    99.17471   167.49586
   635  H   1.0    0.05    1.03    1.43    24.79887    98.87802   168.35568
   636  H   1.0    0.06    1.06    1.44    20.50920   101.12490   171.42649
   637  H   1.0    0.05    1.00    1.43    21.96995    98.05599   174.50863
   638  H   1.0    0.04    1.00    1.43    21.12525    96.57633   171.59656
   639  H   1.0    0.05    1.00    1.43    24.37558    97.04121   172.37513
   640  H   1.0    0.05    1.00    1.43    23.68960   102.43071   174.50863
   641  H   1.0    0.06    1.00    1.43    26.14436   101.51986   172.38269
   642  H   1.0    0.06    1.01    1.43    24.07511   104.06154   171.58334
   643  N   5.0   -0.13    3.59    2.15    22.65970   102.30031   162.77910
   644  C   4.0    0.05    4.50    4.53    23.37780   102.40614   160.15238
   645  C   4.0    0.17    3.44    3.09    25.04643   104.70971   159.58547
   646  O   6.0   -0.25    1.23    1.80    26.55254   104.67948   157.80534
   647  C   4.0   -0.04    4.35    4.29    21.06666   102.27386   158.47998
   648  C   4.0   -0.05    4.28    4.16    20.38636    99.57155   157.97164
   649  C   4.0   -0.00    4.28    4.15    18.32467    99.38069   156.04790
   650  N   5.0   -0.14    3.43    2.04    15.89448    99.22195   157.30457
   651  C   4.0    0.09    3.36    3.07    15.06301    97.14892   158.44407
   652  N   5.0   -0.18    3.28    1.98    16.48219    95.07778   158.46297
   653  N   5.0   -0.17    3.24    1.96    12.81801    97.14892   159.56279
   654  H   1.0    0.12    1.13    1.45    20.76431   102.29465   163.13437
   655  H   1.0    0.06    1.08    1.44    24.49841   100.74696   159.66861
   656  H   1.0    0.07    1.07    1.44    19.47930   103.19038   159.41917
   657  H   1.0    0.06    1.04    1.43    21.45595   103.20738   156.68474
   658  H   1.0    0.04    1.04    1.43    22.03798    98.57188   157.25543
   659  H   1.0    0.05    1.04    1.43    19.73252    98.69094   159.71397
   660  H   1.0    0.05    1.03    1.43    18.33979   101.05121   154.84414
   661  H   1.0    0.05    1.03    1.43    18.59301    97.68749   154.90651
   662  H   1.0    0.08    1.06    1.44    14.76632   100.78475   157.31213
   663  H   1.0    0.09    1.04    1.43    18.20751    95.08345   157.60314
   664  H   1.0    0.09    1.02    1.43    15.84724    93.48285   159.33791
   665  H   1.0    0.10    1.02    1.43    11.73331    98.74196   159.54578
   666  H   1.0    0.10    1.04    1.43    12.17739    95.55588   160.43962
   667  N   5.0   -0.11    3.47    2.06    24.85368   106.67314   161.13882
   668  C   4.0    0.05    4.31    4.22    26.69427   108.72538   161.00465
   669  C   4.0    0.28    3.19    3.03    29.29831   107.94493   162.08557
   670  O   6.0   -0.21    1.18    1.80    30.98017   107.07943   160.69285
   671  C   4.0   -0.04    4.12    3.84    25.68327   111.04786   162.34258
   672  O   6.0   -0.23    1.20    1.80    29.73106   108.17736   164.35891
   673  H   1.0    0.11    1.08    1.44    23.48173   106.89424   162.47486
   674  H   1.0    0.08    1.06    1.44    26.99474   109.20348   159.02422
   675  H   1.0    0.07    1.00    1.43    27.08355   112.55397   162.21974
   676  H   1.0    0.06    1.00    1.43    23.93338   111.63934   161.42984
   677  H   1.0    0.09    1.02    1.43    25.32422   110.58109   164.31545
   678  N   5.0   -0.19    3.25    1.97    21.49752    89.28955   194.32052
   679  C   4.0    0.03    4.40    4.37    21.39548    89.95473   191.69002
   680  C   4.0    0.09    3.38    3.07    23.74441    89.11003   190.32186
   681  O   6.0   -0.31    1.17    1.80    23.65937    87.41872   188.71559
   682  C   4.0   -0.02    4.41    4.40    21.41815    92.76854   191.46703
   683  C   4.0   -0.07    4.21    4.02    22.07956    93.51687   188.80630
   684  C   4.0   -0.07    4.14    3.87    18.90104    93.84190   192.30985
   685  H   1.0    0.09    1.04    1.43    21.14414    90.78999   195.47703
   686  H   1.0    0.04    1.06    1.44    19.72874    89.04578   190.89067
   687  H   1.0    0.05    1.07    1.44    22.85624    93.57167   192.70291
   688  H   1.0    0.05    1.00    1.43    22.09090    95.57289   188.67024
   689  H   1.0    0.05    1.03    1.43    23.94472    92.77232   188.34332
   690  H   1.0    0.05    1.00    1.43    20.67360    92.73452   187.52129
   691  H   1.0    0.05    1.00    1.43    18.95395    95.89414   192.13411
   692  H   1.0    0.04    1.00    1.43    17.41005    93.07278   191.11554
   693  H   1.0    0.05    1.00    1.43    18.57034    93.31278   194.27328
   694  N   5.0   -0.18    3.29    1.98    23.88614    82.03867   189.20692
   695  C   4.0    0.04    4.46    4.48    21.92460    81.11271   187.52506
   696  C   4.0    0.15    3.47    3.10    22.40459    81.92340   184.82276
   697  O   6.0   -0.31    1.29    1.80    21.63736    80.68941   183.01429
   698  C   4.0   -0.04    4.19    3.98    19.37914    82.06513   188.40190
   699  S   6.0   -0.00    2.53    3.10    18.16783    80.14517   190.82453
   700  H   1.0    0.10    1.03    1.43    23.21150    82.97976   190.74894
   701  H   1.0    0.06    1.09    1.44    21.89625    79.05480   187.58176
   702  H   1.0    0.05    1.08    1.44    19.57756    83.98320   189.12377
   703  H   1.0    0.05    1.09    1.44    18.05633    82.03867   186.82209
   704  N   5.0   -0.14    3.54    2.11    23.72173    84.00777   184.53741
   705  C   4.0    0.05    4.55    4.61    24.35290    84.81279   182.03541
   706  C   4.0    0.10    3.35    3.07    26.36168    83.07613   180.94504
   707  O   6.0   -0.29    1.19    1.80    25.99885    81.98387   178.92870
   708  C   4.0   -0.03    4.19    3.98    25.30343    87.49242   182.11100
   709  S   6.0    0.01    2.64    3.10    26.15570    88.43162   179.11578
   710  H   1.0    0.11    1.10    1.44    24.35479    85.13971   185.96415
   711  H   1.0    0.07    1.08    1.44    22.68238    84.75610   180.83355
   712  H   1.0    0.05    1.09    1.44    23.81622    88.73964   182.80264
   713  H   1.0    0.06    1.09    1.44    26.95127    87.61147   183.34121
   714  N   5.0   -0.18    3.16    1.95    24.41904    77.02145   178.88146
   715  C   4.0    0.02    4.20    3.99    22.76553    77.59215   176.78386
   716  C   4.0    0.16    3.34    3.06    24.17337    77.95497   174.34045
   717  O   6.0   -0.29    1.30    1.80    23.27009    77.20286   172.36757
   718  H   1.0    0.12    1.03    1.43    24.20172    78.20253   180.38946
   719  H   1.0    0.06    1.06    1.44    21.42760    76.04635   176.53442
   720  H   1.0    0.07    1.03    1.43    21.72429    79.32125   177.19204
   721  N   5.0   -0.13    3.47    2.06    26.39191    79.10204   174.45383
   722  C   4.0    0.04    4.27    4.13    27.88291    79.46676   172.16915
   723  C   4.0    0.11    3.20    3.04    29.29264    77.04413   171.41515
   724  O   6.0   -0.24    1.11    1.80    29.22650    76.27879   169.21551
   725  C   4.0   -0.06    4.10    3.80    29.71972    81.64561   172.51686
   726  H   1.0    0.11    1.08    1.44    27.19883    79.78990   176.06388
   727  H   1.0    0.07    1.06    1.44    26.60734    79.95808   170.62714
   728  H   1.0    0.06    1.00    1.43    30.81387    81.88372   170.78776
   729  H   1.0    0.05    1.00    1.43    28.65580    83.36337   172.91559
   730  H   1.0    0.06    1.00    1.43    30.97828    81.21664   174.09100
   731  N   5.0   -0.15    3.28    1.98    14.09547    65.32594   162.23108
   732  C   4.0    0.04    4.40    4.39    13.55878    67.93376   161.59236
   733  C   4.0    0.17    3.55    3.14    13.45674    69.33405   164.04711
   734  O   6.0   -0.24    1.31    1.80    13.01643    68.20777   166.02943
   735  C   4.0    0.05    4.24    4.08    11.04167    68.30036   160.17506
   736  O   6.0   -0.23    2.12    1.84     8.96864    68.15108   161.89660
   737  C   4.0   -0.05    4.10    3.81    10.72986    66.32938   158.12849
   738  H   1.0    0.11    1.03    1.43    12.58746    64.13163   162.11203
   739  H   1.0    0.05    1.06    1.44    15.00253    68.65752   160.31301
   740  H   1.0    0.04    1.04    1.43    11.04167    70.15797   159.28689
   741  H   1.0    0.13    1.01    1.43     7.37182    68.38729   160.98764
   742  H   1.0    0.07    1.00    1.43     8.94407    66.61284   157.14394
   743  H   1.0    0.06    1.00    1.43    12.27188    66.47300   156.76978
   744  H   1.0    0.07    1.00    1.43    10.74309    64.44343   158.95808
   745  N   5.0   -0.14    3.55    2.12    13.89704    71.78880   163.92995
   746  C   4.0    0.04    4.57    4.63    13.79500    73.29491   166.19951
   747  C   4.0    0.17    3.53    3.13    11.30434    72.75067   167.47696
   748  O   6.0   -0.28    1.27    1.80    11.23631    72.07604   169.66715
   749  C   4.0   -0.05    4.28    4.16    14.02366    76.08037   165.52677
   750  S   6.0   -0.02    2.49    3.10    17.11714    76.97988   164.31923
   751  H   1.0    0.08    1.07    1.44    14.32034    72.76579   162.32179
   752  H   1.0    0.07    1.08    1.44    15.35780    72.85838   167.46940
   753  H   1.0    0.04    1.07    1.44    12.63093    76.52445   164.07546
   754  H   1.0    0.04    1.09    1.44    13.66083    77.19908   167.21807
   755  N   5.0   -0.14    3.49    2.07     9.26722    72.96043   166.04455
   756  C   4.0    0.04    4.33    4.26     6.74065    72.46721   167.00264
   757  C   4.0    0.11    3.24    3.04     6.49121    70.10127   168.65426
   758  O   6.0   -0.27    1.12    1.80     5.47076    70.22411   170.73107
   759  C   4.0   -0.04    4.32    4.23     4.90006    72.29525   164.80111
   760  C   4.0   -0.03    4.24    4.08     2.17507    72.63918   165.54566
   761  C   4.0    0.23    3.38    3.07     0.52345    73.09838   163.26476
   762  O   6.0   -0.26    1.20    1.80     0.21165    71.32204   161.74353
   763  O   6.0   -0.29    1.44    1.80    -0.47621    75.22621   162.99075
   764  H   1.0    0.07    1.07    1.44     9.29934    73.47443   164.18695
   765  H   1.0    0.05    1.06    1.44     6.27011    74.06403   168.21585
   766  H   1.0    0.05    1.05    1.44     5.36682    73.76356   163.43295
   767  H   1.0    0.06    1.04    1.43     5.08336    70.43765   163.92995
   768  H   1.0    0.06    1.03    1.43     1.50800    70.93842   166.49808
   769  H   1.0    0.05    1.03    1.43     2.01067    74.26245   166.80422
   770  N   5.0   -0.18    3.18    1.95    10.05712    70.30158   175.30988
   771  C   4.0    0.04    4.16    3.92     8.86281    72.01368   177.10701
   772  C   4.0    0.10    3.19    3.04     6.32491    71.00267   178.03864
   773  O   6.0   -0.29    1.12    1.80     5.45753    71.69431   180.06821
   774  C   4.0   -0.06    4.11    3.82     8.56046    74.63284   175.99018
   775  H   1.0    0.12    1.04    1.43    10.20074    70.99889   173.51842
   776  H   1.0    0.05    1.06    1.44    10.10247    72.21399   178.73973
   777  H   1.0    0.05    1.00    1.43     7.66473    75.85738   177.38291
   778  H   1.0    0.05    1.00    1.43    10.41995    75.37172   175.49885
   779  H   1.0    0.06    1.00    1.43     7.38505    74.51000   174.30265
   780  N   5.0   -0.15    3.48    2.06     2.67207    84.32146   192.62166
   781  C   4.0    0.02    4.56    4.61     2.92152    86.40583   190.84531
   782  C   4.0    0.14    3.48    3.10     5.61249    87.24865   190.48438
   783  O   6.0   -0.31    1.38    1.80     6.76333    86.67606   188.54363
   784  C   4.0   -0.05    4.54    4.59     1.50611    88.50909   192.16434
   785  C   4.0   -0.04    4.39    4.35    -0.39495    87.20896   193.63455
   786  C   4.0   -0.01    4.35    4.29     0.80313    84.87515   194.58130
   787  H   1.0    0.03    1.05    1.44     2.06736    85.88049   189.04629
   788  H   1.0    0.04    1.08    1.44     2.78546    89.57301   193.37755
   789  H   1.0    0.03    1.03    1.43     0.64440    89.76387   190.77539
   790  H   1.0    0.05    1.04    1.43    -0.99211    88.40516   195.20113
   791  H   1.0    0.04    1.04    1.43    -2.00878    86.76110   192.43457
   792  H   1.0    0.05    1.02    1.43     1.71398    85.19829   196.40111
   793  H   1.0    0.04    1.02    1.43    -0.57259    83.35014   194.74193
   794  N   5.0   -0.15    3.55    2.12     6.53278    88.66972   192.34387
   795  C   4.0    0.03    4.41    4.39     9.04612    89.75253   192.30796
   796  C   4.0    0.17    3.51    3.12    10.84136    88.07068   190.80185
   797  O   6.0   -0.30    1.24    1.80    11.94874    88.89460   188.94992
   798  C   4.0   -0.05    4.29    4.17     9.98909    90.07946   195.02161
   799  C   4.0   -0.05    4.15    3.89    10.85648    92.75342   195.70569
   800  C   4.0   -0.01    4.20    4.00    12.20385    92.82901   198.28327
   801  N   5.0   -0.13    3.37    2.01    10.47853    92.95751   200.44890
   802  C   4.0    0.10    3.34    3.06     9.45808    95.08912   201.32195
   803  N   5.0   -0.17    3.26    1.97     9.96830    97.27931   200.19001
   804  N   5.0   -0.16    3.22    1.96     7.91606    95.04188   203.31561
   805  H   1.0    0.07    1.09    1.44     5.54635    89.11003   193.94068
   806  H   1.0    0.05    1.06    1.44     9.00832    91.60258   191.40278
   807  H   1.0    0.05    1.04    1.43     8.45841    89.58057   196.30662
   808  H   1.0    0.04    1.04    1.43    11.59158    88.81901   195.31074
   809  H   1.0    0.04    1.03    1.43    12.17172    93.42805   194.27139
   810  H   1.0    0.05    1.03    1.43     9.21619    93.99686   195.80017
   811  H   1.0    0.05    1.03    1.43    13.33958    91.12259   198.48737
   812  H   1.0    0.05    1.03    1.43    13.41516    94.49386   198.34942
   813  H   1.0    0.09    1.06    1.44    10.03067    91.30967   201.34463
   814  H   1.0    0.09    1.03    1.43    11.13804    97.32278   198.65933
   815  H   1.0    0.10    1.02    1.43     9.18974    98.91204   200.85519
   816  H   1.0    0.10    1.02    1.43     7.51166    93.36758   204.18111
   817  H   1.0    0.10    1.02    1.43     7.14127    96.68027   203.97324
   818  N   5.0   -0.14    3.51    2.09    11.07568    85.69718   191.58987
   819  C   4.0    0.03    4.52    4.56    12.73675    83.89060   190.35965
   820  C   4.0    0.17    3.55    3.14    11.78811    83.20463   187.74616
   821  O   6.0   -0.31    1.38    1.80    13.21296    83.23298   185.89423
   822  C   4.0   -0.04    4.25    4.11    12.89171    81.49632   191.93002
   823  S   6.0    0.00    2.40    3.10    14.55656    78.91874   190.42957
   824  H   1.0    0.08    1.06    1.44    10.12704    84.96019   193.09598
   825  H   1.0    0.05    1.06    1.44    14.60380    84.74665   190.19903
   826  H   1.0    0.05    1.08    1.44    13.87248    81.92907   193.68935
   827  H   1.0    0.05    1.07    1.44    10.97742    80.85004   192.33064
   828  N   5.0   -0.13    3.52    2.09     9.37115    82.55079   187.59687
   829  C   4.0    0.04    4.55    4.61     8.25243    81.78545   185.19314
   830  C   4.0    0.17    3.51    3.12     8.89116    83.65250   183.07476
   831  O   6.0   -0.31    1.33    1.80    10.24987    83.02322   181.30220
   832  C   4.0   -0.03    4.41    4.39     5.41595    81.42451   185.46715
   833  C   4.0   -0.05    4.25    4.10     4.91518    79.23243   187.26995
   834  C   4.0   -0.07    4.21    4.01     4.26322    80.88027   182.97083
   835  C   4.0   -0.08    4.03    3.67     2.14484    78.77323   187.80852
   836  H   1.0    0.08    1.07    1.44     8.15039    82.53000   189.08787
   837  H   1.0    0.05    1.06    1.44     9.10659    79.99399   184.63945
   838  H   1.0    0.05    1.06    1.44     4.58448    83.15172   186.21926
   839  H   1.0    0.05    1.03    1.43     5.68619    77.51089   186.44414
   840  H   1.0    0.04    1.04    1.43     5.84492    79.62927   189.06519
   841  H   1.0    0.04    1.01    1.43     2.23366    80.62894   183.21082
   842  H   1.0    0.05    1.01    1.43     4.62983    82.46197   181.70282
   843  H   1.0    0.05    1.01    1.43     5.09848    79.15873   182.20738
   844  H   1.0    0.05    1.00    1.43     1.96909    77.18397   189.10677
   845  H   1.0    0.04    1.00    1.43     1.33793    80.46642   188.65890
   846  H   1.0    0.04    1.00    1.43     1.17919    78.34615   186.03974
   847  N   5.0   -0.14    3.53    2.10     7.95008    85.95985   183.31476
   848  C   4.0    0.03    4.45    4.46     8.57180    88.01210   181.58755
   849  C   4.0    0.17    3.52    3.12    11.37426    88.15761   181.00740
   850  O   6.0   -0.30    1.35    1.80    12.20763    87.75509   178.87579
   851  C   4.0   -0.04    4.40    4.38     7.82158    90.49520   182.80075
   852  C   4.0   -0.05    4.32    4.23     5.44430    90.33079   184.33710
   853  C   4.0   -0.04    4.25    4.11     4.65251    92.92160   185.13456
   854  C   4.0   -0.04    4.16    3.93     1.93886    92.95940   185.94336
   855  N   5.0   -0.11    4.05    3.00     1.16407    95.59746   186.48572
   856  H   1.0    0.09    1.12    1.45     6.72742    86.48142   184.71126
   857  H   1.0    0.05    1.06    1.44     7.56268    87.68139   179.82254
   858  H   1.0    0.06    1.06    1.44     9.33903    91.10936   184.04986
   859  H   1.0    0.05    1.04    1.43     7.51922    91.89359   181.31920
   860  H   1.0    0.04    1.04    1.43     3.94008    89.49364   183.20704
   861  H   1.0    0.06    1.07    1.44     5.77878    89.19129   186.01895
   862  H   1.0    0.05    1.03    1.43     5.81280    93.53388   186.72193
   863  H   1.0    0.05    1.04    1.43     4.87738    94.22363   183.55475
   864  H   1.0    0.04    1.03    1.43     0.75022    92.21296   184.43536
   865  H   1.0    0.04    1.02    1.43     1.70264    91.83123   187.65168
   866  H   1.0    0.06    1.01    1.43    -0.62928    95.62013   187.29074
   867  H   1.0    0.08    1.02    1.43     2.43397    96.42705   187.73482
   868  H   1.0    0.08    1.05    1.44     1.13006    96.64247   184.82276
   869  N   5.0   -0.13    3.54    2.10    12.80478    88.84736   182.94815
   870  C   4.0    0.04    4.39    4.36    15.55622    88.90972   182.84988
   871  C   4.0    0.17    3.57    3.15    16.48030    86.87448   181.10189
   872  O   6.0   -0.28    1.27    1.80    17.57256    87.39605   179.13279
   873  C   4.0   -0.06    4.17    3.95    16.61825    88.47508   185.45015
   874  H   1.0    0.10    1.08    1.44    12.09803    89.38782   184.65835
   875  H   1.0    0.06    1.06    1.44    16.19873    90.74464   182.16769
   876  H   1.0    0.05    1.00    1.43    18.67427    88.52610   185.35188
   877  H   1.0    0.06    1.00    1.43    15.93795    89.95662   186.70870
   878  H   1.0    0.06    1.01    1.43    15.99464    86.63449   186.13045
   879  N   5.0   -0.13    3.56    2.13    16.02677    84.53500   181.86912
   880  C   4.0    0.04    4.47    4.50    16.89037    82.36182   180.45371
   881  C   4.0    0.17    3.55    3.14    16.23275    82.66228   177.68715
   882  O   6.0   -0.29    1.25    1.80    17.87492    82.57724   176.05254
   883  C   4.0   -0.02    4.39    4.36    15.66205    79.96564   181.45904
   884  C   4.0   -0.01    3.59    3.16    16.46140    77.63561   180.07577
   885  C   4.0   -0.03    3.48    3.11    18.35869    76.10115   181.02819
   886  C   4.0   -0.03    3.50    3.11    15.33702    76.99310   177.79865
   887  C   4.0   -0.03    3.40    3.08    19.11080    73.96009   179.74506
   888  C   4.0   -0.03    3.38    3.07    16.07590    74.85771   176.50418
   889  C   4.0   -0.03    3.40    3.08    17.97507    73.34215   177.47361
   890  H   1.0    0.12    1.15    1.45    15.05923    84.08525   183.47349
   891  H   1.0    0.08    1.08    1.44    18.93127    82.19930   180.67859
   892  H   1.0    0.06    1.04    1.43    16.17794    79.73321   183.43948
   893  H   1.0    0.06    1.04    1.43    13.61737    80.13950   181.27763
   894  H   1.0    0.07    1.03    1.43    19.25820    76.58681   182.79508
   895  H   1.0    0.05    1.03    1.43    13.86492    78.17985   177.02953
   896  H   1.0    0.07    1.03    1.43    20.58101    72.77146   180.51229
   897  H   1.0    0.06    1.03    1.43    15.17639    74.36828   174.73918
   898  H   1.0    0.07    1.03    1.43    18.57034    71.67542   176.45505
   899  N   5.0   -0.13    3.54    2.11    13.80445    83.00243   177.19204
   900  C   4.0    0.04    4.51    4.55    12.84069    83.27455   174.65225
   901  C   4.0    0.16    3.49    3.11    14.22397    85.29089   173.09890
   902  O   6.0   -0.31    1.29    1.80    15.46174    84.68240   171.24130
   903  C   4.0    0.05    4.31    4.22    10.07413    83.94352   174.77886
   904  O   6.0   -0.26    2.12    1.84     8.75699    81.98576   176.08844
   905  C   4.0   -0.07    4.13    3.86     9.00076    84.23264   172.15970
   906  H   1.0    0.12    1.11    1.45    12.43251    83.09881   178.54320
   907  H   1.0    0.05    1.06    1.44    13.11848    81.46798   173.70172
   908  H   1.0    0.06    1.05    1.44     9.82469    85.73120   175.77286
   909  H   1.0    0.14    1.04    1.43     8.94596    82.20875   177.91770
   910  H   1.0    0.05    1.01    1.43     7.00143    84.71452   172.26742
   911  H   1.0    0.04    1.01    1.43     9.99665    85.72742   171.15248
   912  H   1.0    0.05    1.00    1.43     9.20863    82.46953   171.11468
   913  N   5.0   -0.14    3.47    2.06    14.03499    87.68139   173.88691
   914  C   4.0    0.03    4.40    4.37    14.99875    89.82434   172.40348
   915  C   4.0    0.17    3.47    3.10    17.65760    89.36514   171.40381
   916  O   6.0   -0.32    1.29    1.80    18.21318    89.92261   169.24575
   917  C   4.0   -0.04    4.30    4.19    14.96096    92.29233   173.92093
   918  C   4.0   -0.03    4.18    3.96    12.39660    93.13892   174.89036
   919  C   4.0    0.24    3.12    3.03    12.60447    94.86424   177.20149
   920  O   6.0   -0.29    1.21    1.80    14.63026    94.87747   178.41470
   921  O   6.0   -0.30    1.17    1.80    10.74687    96.20217   177.82510
   922  H   1.0    0.11    1.10    1.44    13.22052    88.20863   175.55176
   923  H   1.0    0.05    1.06    1.44    13.71941    90.03977   170.80477
   924  H   1.0    0.07    1.04    1.43    16.18361    92.05611   175.56121
   925  H   1.0    0.04    1.03    1.43    15.68284    93.79844   172.71528
   926  H   1.0    0.05    1.03    1.43    11.42339    94.17827   173.40125
   927  H   1.0    0.05    1.03    1.43    11.29867    91.48163   175.42704
   928  N   5.0   -0.13    3.56    2.12    19.31111    88.36359   172.97229
   929  C   4.0    0.04    4.56    4.61    21.86980    87.82690   172.15592
   930  C   4.0    0.16    3.48    3.11    22.03798    85.64616   170.29076
   931  O   6.0   -0.30    1.32    1.80    23.33623    85.80490   168.39159
   932  C   4.0   -0.03    4.27    4.13    23.48551    87.22597   174.44816
   933  S   6.0   -0.01    2.43    3.10    23.68205    89.81867   176.54954
   934  H   1.0    0.11    1.08    1.44    18.94639    87.90249   174.80721
   935  H   1.0    0.06    1.07    1.44    22.57089    89.51065   171.19783
   936  H   1.0    0.06    1.08    1.44    22.65781    85.63482   175.46105
   937  H   1.0    0.05    1.08    1.44    25.39225    86.75165   173.82833
   938  N   5.0   -0.13    3.50    2.07    20.78510    83.56935   170.86335
   939  C   4.0    0.05    4.53    4.58    20.82100    81.47175   169.11158
   940  C   4.0    0.17    3.60    3.17    20.10290    82.37504   166.46785
   941  O   6.0   -0.29    1.31    1.80    21.62980    82.31646   164.71985
   942  C   4.0   -0.03    4.16    3.92    19.01253    79.39306   169.96006
   943  S   6.0    0.02    2.55    3.10    18.83868    76.77012   167.74719
   944  H   1.0    0.11    1.07    1.44    19.76086    83.29156   172.47340
   945  H   1.0    0.07    1.06    1.44    22.72018    80.67618   169.05677
   946  H   1.0    0.07    1.09    1.44    19.65126    78.65228   171.77231
   947  H   1.0    0.05    1.07    1.44    17.12281    80.19052   170.15092
   948  N   5.0   -0.14    3.53    2.10    17.76720    83.22542   166.18439
   949  C   4.0    0.04    4.59    4.65    16.85825    84.01722   163.72964
   950  C   4.0    0.16    3.55    3.14    18.68561    85.80868   162.40872
   951  O   6.0   -0.31    1.34    1.80    19.39993    85.38349   160.23931
   952  C   4.0   -0.03    4.35    4.29    14.26932    85.21152   163.93562
   953  C   4.0   -0.07    4.19    3.98    13.48130    86.24898   161.42606
   954  C   4.0   -0.07    4.17    3.94    12.41739    83.24999   164.80678
   955  H   1.0    0.10    1.08    1.44    16.47463    83.38605   167.60546
   956  H   1.0    0.05    1.07    1.44    16.72785    82.31079   162.58257
   957  H   1.0    0.05    1.06    1.44    14.31089    86.76110   165.29244
   958  H   1.0    0.04    1.00    1.43    11.61426    87.10125   161.60936
   959  H   1.0    0.05    1.01    1.43    14.84758    87.67195   160.82891
   960  H   1.0    0.05    1.00    1.43    13.42272    84.71263   160.05412
   961  H   1.0    0.04    1.00    1.43    10.55034    84.10981   164.95607
   962  H   1.0    0.04    1.00    1.43    12.37582    81.71175   163.43673
   963  H   1.0    0.04    1.01    1.43    13.01076    82.53567   166.64548
   964  N   5.0   -0.14    3.49    2.07    19.46796    87.79478   163.71074
   965  C   4.0    0.04    4.57    4.63    21.25753    89.54466   162.58068
   966  C   4.0    0.16    3.55    3.14    23.58945    88.16894   161.59236
   967  O   6.0   -0.31    1.30    1.80    24.08456    88.17083   159.33035
   968  C   4.0   -0.02    4.35    4.28    22.09657    91.57045   164.42505
   969  C   4.0   -0.07    4.18    3.95    24.17904    93.11625   163.24020
   970  C   4.0   -0.07    4.15    3.90    19.88370    93.22207   165.14693
   971  H   1.0    0.10    1.07    1.44    18.91427    88.23508   165.50409
   972  H   1.0    0.05    1.06    1.44    20.26164    90.42906   161.01032
   973  H   1.0    0.06    1.06    1.44    22.81844    90.70118   166.14660
   974  H   1.0    0.05    1.00    1.43    24.77620    94.56945   164.57245
   975  H   1.0    0.05    1.02    1.43    25.76263    91.87659   162.79422
   976  H   1.0    0.04    1.00    1.43    23.46662    93.99308   161.51866
   977  H   1.0    0.04    1.00    1.43    20.52620    94.66393   166.47163
   978  H   1.0    0.04    1.00    1.43    19.12970    94.11402   163.44996
   979  H   1.0    0.06    1.02    1.43    18.43428    92.05422   166.02943
   980  N   5.0   -0.13    3.48    2.06    25.01619    87.00487   163.29122
   981  C   4.0    0.04    4.36    4.32    27.20261    85.48931   162.57123
   982  C   4.0    0.17    3.50    3.11    26.75663    83.90761   160.20152
   983  O   6.0   -0.28    1.30    1.80    28.10589    84.20052   158.33258
   984  C   4.0   -0.05    4.15    3.90    27.94527    83.77533   164.70662
   985  H   1.0    0.11    1.09    1.44    24.71006    87.07101   165.19228
   986  H   1.0    0.05    1.06    1.44    28.73706    86.80645   162.17817
   987  H   1.0    0.06    1.00    1.43    29.57988    82.66039   164.13404
   988  H   1.0    0.06    1.00    1.43    28.41770    84.92050   166.35258
   989  H   1.0    0.07    1.01    1.43    26.36546    82.53000   165.14693
   990  N   5.0   -0.12    3.48    2.07    24.89147    82.21442   160.29789
   991  C   4.0    0.05    4.42    4.41    24.30377    80.58169   158.14927
   992  C   4.0    0.17    3.51    3.12    24.33778    82.10292   155.72665
   993  O   6.0   -0.24    1.24    1.80    25.73807    81.53034   153.96164
   994  C   4.0    0.04    4.18    3.97    21.71673    79.36093   158.47431
   995  O   6.0   -0.22    2.07    1.83    21.75264    77.67152   160.52277
   996  H   1.0    0.12    1.09    1.44    23.75763    81.92907   161.83046
   997  H   1.0    0.08    1.06    1.44    25.70594    79.07558   158.06424
   998  H   1.0    0.06    1.02    1.43    20.31644    80.82925   158.83336
   999  H   1.0    0.06    1.02    1.43    21.23485    78.33103   156.75655
  1000  H   1.0    0.13    1.12    1.45    20.13692    77.73577   161.42606
  1001  N   5.0   -0.13    3.58    2.14    22.79765    84.07580   155.69263
  1002  C   4.0    0.04    4.49    4.52    22.53120    85.70474   153.50433
[...]
1070   1 H      0.059  0.941  0.000  0.000     2.208     2.324
1071   1 H      0.032  0.968  0.000  0.000     2.562     2.503
1072   1 H      0.039  0.961  0.000  0.000     2.467     2.456
1073   1 H      0.025  0.975  0.000  0.000     2.664     2.552
1074   1 H      0.045  0.955  0.000  0.000     2.389     2.417
1075   7 N     -0.185  1.249  3.936  0.000    25.017     7.429
1076   6 C      0.008  1.069  2.923  0.000    20.455     6.441
1077   6 C      0.274  1.036  2.690  0.000    22.364     7.744
1078   8 O     -0.525  1.780  4.745  0.000    24.349     6.616
1079   6 C     -0.070  1.052  3.018  0.000    21.838     6.653
1080   6 C     -0.109  1.062  3.046  0.000    22.574     6.764
1081   6 C      0.287  1.040  2.674  0.000    22.144     7.705
1082   8 O     -0.513  1.768  4.746  0.000    24.077     6.579
1083   7 N     -0.267  1.262  4.005  0.000    26.921     7.706
1084   1 H      0.223  0.777  0.000  0.000     0.994     1.562
1085   1 H      0.089  0.911  0.000  0.000     1.889     2.150
1086   1 H      0.079  0.921  0.000  0.000     1.988     2.205
1087   1 H      0.055  0.945  0.000  0.000     2.261     2.351
1088   1 H      0.080  0.920  0.000  0.000     1.979     2.200
1089   1 H      0.085  0.915  0.000  0.000     1.927     2.171
1090   1 H      0.215  0.785  0.000  0.000     1.033     1.592
1091   1 H      0.212  0.788  0.000  0.000     1.046     1.602
1092   7 N     -0.175  1.253  3.922  0.000    24.798     7.396
1093   6 C      0.014  1.057  2.929  0.000    20.346     6.422
1094   6 C      0.276  1.040  2.684  0.000    22.327     7.738
1095   8 O     -0.506  1.749  4.757  0.000    23.908     6.556
1096   6 C     -0.099  1.062  3.037  0.000    22.368     6.731
1097   6 C     -0.067  1.043  3.024  0.000    21.777     6.643
1098   6 C     -0.098  1.057  3.041  0.000    22.356     6.731
1099   6 C     -0.058  1.062  2.997  0.000    21.723     6.653
1100   7 N     -0.150  1.237  3.913  0.000    24.233     7.311
1101   1 H      0.247  0.753  0.000  0.000     0.894     1.481
1102   1 H      0.069  0.931  0.000  0.000     2.092     2.262
1103   1 H      0.067  0.933  0.000  0.000     2.124     2.279
1104   1 H      0.087  0.913  0.000  0.000     1.907     2.159
1105   1 H      0.056  0.944  0.000  0.000     2.245     2.343
1106   1 H      0.041  0.959  0.000  0.000     2.430     2.438
1107   1 H      0.098  0.902  0.000  0.000     1.806     2.102
1108   1 H      0.078  0.922  0.000  0.000     1.998     2.211
1109   1 H      0.105  0.895  0.000  0.000     1.737     2.061
1110   1 H      0.119  0.881  0.000  0.000     1.621     1.991
1111   1 H      0.301  0.699  0.000  0.000     0.711     1.321
1112   1 H      0.308  0.692  0.000  0.000     0.690     1.301
1113   1 H      0.297  0.703  0.000  0.000     0.723     1.332
1114   7 N     -0.180  1.248  3.932  0.000    24.909     7.412
1115   6 C      0.002  1.059  2.939  0.000    20.542     6.452
1116   6 C      0.276  1.035  2.689  0.000    22.341     7.741
1117   8 O     -0.468  1.746  4.722  0.000    23.077     6.441
1118   6 C     -0.096  1.056  3.040  0.000    22.328     6.726
1119   6 C     -0.084  1.047  3.037  0.000    22.101     6.692
1120   6 C     -0.103  1.057  3.046  0.000    22.466     6.747
1121   6 C     -0.082  1.074  3.009  0.000    22.077     6.691
1122   7 N     -0.168  1.253  3.915  0.000    24.617     7.369
1123   1 H      0.262  0.738  0.000  0.000     0.839     1.435
1124   1 H      0.096  0.904  0.000  0.000     1.821     2.110
1125   1 H      0.090  0.910  0.000  0.000     1.877     2.142
1126   1 H      0.074  0.926  0.000  0.000     2.047     2.237
1127   1 H      0.075  0.925  0.000  0.000     2.029     2.227
1128   1 H      0.066  0.934  0.000  0.000     2.125     2.280
1129   1 H      0.078  0.922  0.000  0.000     2.001     2.212
1130   1 H      0.084  0.916  0.000  0.000     1.943     2.180
1131   1 H      0.150  0.850  0.000  0.000     1.383     1.837
1132   1 H      0.119  0.881  0.000  0.000     1.622     1.991
1133   1 H      0.325  0.675  0.000  0.000     0.642     1.256
1134   1 H      0.290  0.710  0.000  0.000     0.744     1.352
1135   1 H      0.291  0.709  0.000  0.000     0.740     1.348
1136   7 N     -0.179  1.237  3.942  0.000    24.872     7.407
1137   6 C      0.003  1.065  2.932  0.000    20.514     6.447
1138   6 C      0.287  1.035  2.677  0.000    22.130     7.705
1139   8 O     -0.470  1.728  4.742  0.000    23.130     6.448
1140   6 C     -0.035  1.062  2.973  0.000    21.157     6.541
1141   6 C     -0.084  1.058  3.026  0.000    22.096     6.692
1142   6 C     -0.122  1.041  3.081  0.000    22.899     6.823
1143   6 C     -0.121  1.041  3.079  0.000    22.878     6.821
1144   1 H      0.205  0.795  0.000  0.000     1.079     1.627
1145   1 H      0.115  0.885  0.000  0.000     1.653     2.011
1146   1 H      0.033  0.967  0.000  0.000     2.543     2.494
1147   1 H      0.083  0.917  0.000  0.000     1.946     2.182
1148   1 H      0.059  0.941  0.000  0.000     2.207     2.323
1149   1 H      0.050  0.950  0.000  0.000     2.323     2.383
1150   1 H      0.018  0.982  0.000  0.000     2.762     2.599
1151   1 H      0.057  0.943  0.000  0.000     2.237     2.339
1152   1 H      0.062  0.938  0.000  0.000     2.178     2.308
1153   1 H      0.019  0.981  0.000  0.000     2.750     2.593
1154   1 H      0.043  0.957  0.000  0.000     2.408     2.427
1155   7 N     -0.179  1.242  3.937  0.000    24.873     7.407
1156   6 C      0.038  1.048  2.914  0.000    19.922     6.352
1157   6 C      0.283  1.032  2.685  0.000    22.207     7.718
1158   8 O     -0.512  1.724  4.788  0.000    24.051     6.575
1159   6 C     -0.051  1.042  3.009  0.000    21.473     6.594
1160   6 C     -0.083  1.057  3.026  0.000    22.069     6.687
1161   6 C      0.372  1.018  2.610  0.000    20.703     7.447
1162   8 O     -0.646  1.765  4.881  0.000    27.281     7.003
1163   8 O     -0.677  1.785  4.892  0.000    28.083     7.105
1164   1 H      0.195  0.805  0.000  0.000     1.132     1.667
1165   1 H      0.052  0.948  0.000  0.000     2.290     2.366
1166   1 H      0.059  0.941  0.000  0.000     2.208     2.324
1167   1 H      0.026  0.974  0.000  0.000     2.651     2.546
1168   1 H      0.028  0.972  0.000  0.000     2.614     2.529
1169   1 H      0.032  0.968  0.000  0.000     2.561     2.503
1170   7 N     -0.215  1.266  3.949  0.000    25.689     7.528
1171   6 C      0.034  1.057  2.909  0.000    20.003     6.368
1172   6 C      0.283  1.040  2.676  0.000    22.204     7.717
1173   8 O     -0.530  1.749  4.781  0.000    24.448     6.629
1174   6 C     -0.064  1.053  3.011  0.000    21.730     6.636
1175   6 C     -0.091  1.059  3.031  0.000    22.231     6.713
1176   6 C      0.361  1.028  2.611  0.000    20.874     7.477
1177   8 O     -0.617  1.750  4.867  0.000    26.542     6.907
1178   8 O     -0.645  1.773  4.872  0.000    27.253     6.999
1179   1 H      0.250  0.750  0.000  0.000     0.881     1.471
1180   1 H      0.030  0.970  0.000  0.000     2.582     2.513
1181   1 H      0.027  0.973  0.000  0.000     2.634     2.538
1182   1 H      0.086  0.914  0.000  0.000     1.915     2.164
1183   1 H      0.017  0.983  0.000  0.000     2.772     2.604
1184   1 H      0.004  0.996  0.000  0.000     2.992     2.705
1185   7 N     -0.180  1.248  3.932  0.000    24.889     7.409
1186   6 C      0.016  1.061  2.923  0.000    20.294     6.412
1187   6 C      0.275  1.039  2.686  0.000    22.353     7.743
1188   8 O     -0.476  1.732  4.744  0.000    23.256     6.466
1189   6 C     -0.039  1.066  2.973  0.000    21.221     6.551
1190   6 C     -0.088  1.054  3.034  0.000    22.175     6.704
1191   6 C     -0.137  1.047  3.090  0.000    23.192     6.867
1192   6 C     -0.150  1.051  3.100  0.000    23.468     6.909
1193   1 H      0.231  0.769  0.000  0.000     0.960     1.535
1194   1 H      0.085  0.915  0.000  0.000     1.930     2.173
1195   1 H      0.041  0.959  0.000  0.000     2.434     2.440
1196   1 H      0.047  0.953  0.000  0.000     2.356     2.401
1197   1 H      0.054  0.946  0.000  0.000     2.273     2.358
1198   1 H      0.084  0.916  0.000  0.000     1.935     2.175
1199   1 H      0.021  0.979  0.000  0.000     2.718     2.578
1200   1 H      0.077  0.923  0.000  0.000     2.008     2.216
1201   1 H      0.088  0.912  0.000  0.000     1.894     2.152
1202   1 H      0.049  0.951  0.000  0.000     2.339     2.391
1203   1 H      0.082  0.918  0.000  0.000     1.957     2.187
1204   7 N     -0.189  1.243  3.947  0.000    25.103     7.441
1205   6 C      0.023  1.052  2.925  0.000    20.191     6.398
1206   6 C      0.263  1.044  2.693  0.000    22.564     7.779
1207   8 O     -0.494  1.743  4.751  0.000    23.650     6.520
1208   6 C     -0.137  1.042  3.095  0.000    23.189     6.864
1209   1 H      0.209  0.791  0.000  0.000     1.063     1.615
1210   1 H      0.072  0.928  0.000  0.000     2.061     2.245
1211   1 H      0.073  0.927  0.000  0.000     2.051     2.239
1212   1 H      0.070  0.930  0.000  0.000     2.082     2.257
1213   1 H      0.053  0.947  0.000  0.000     2.284     2.364
1214   7 N     -0.185  1.248  3.937  0.000    25.003     7.426
1215   6 C      0.014  1.055  2.932  0.000    20.344     6.422
1216   6 C      0.256  1.045  2.699  0.000    22.684     7.799
1217   8 O     -0.490  1.728  4.763  0.000    23.565     6.508
1218   6 C     -0.136  1.043  3.093  0.000    23.170     6.861
1219   1 H      0.233  0.767  0.000  0.000     0.953     1.530
1220   1 H      0.086  0.914  0.000  0.000     1.918     2.166
1221   1 H      0.076  0.924  0.000  0.000     2.025     2.225
1222   1 H      0.066  0.934  0.000  0.000     2.127     2.281
1223   1 H      0.066  0.934  0.000  0.000     2.134     2.284
1224   7 N     -0.154  1.245  3.910  0.000    24.343     7.328
1225   6 C      0.002  1.069  2.930  0.000    20.567     6.459
1226   6 C      0.279  1.034  2.687  0.000    22.273     7.728
1227   8 O     -0.482  1.752  4.731  0.000    23.393     6.485
1228   6 C     -0.092  1.060  3.032  0.000    22.243     6.714
1229   6 C     -0.079  1.055  3.023  0.000    22.006     6.680
1230   6 C     -0.099  1.065  3.034  0.000    22.393     6.739
1231   6 C     -0.055  1.064  2.991  0.000    21.676     6.648
1232   7 N     -0.161  1.241  3.920  0.000    24.461     7.346
1233   1 H      0.219  0.781  0.000  0.000     1.013     1.577
1234   1 H      0.089  0.911  0.000  0.000     1.889     2.149
1235   1 H      0.073  0.927  0.000  0.000     2.049     2.238
1236   1 H      0.094  0.906  0.000  0.000     1.839     2.121
1237   1 H      0.050  0.950  0.000  0.000     2.326     2.385
1238   1 H      0.062  0.938  0.000  0.000     2.178     2.308
1239   1 H      0.097  0.903  0.000  0.000     1.814     2.106
1240   1 H      0.073  0.927  0.000  0.000     2.057     2.243
1241   1 H      0.096  0.904  0.000  0.000     1.818     2.109
1242   1 H      0.123  0.877  0.000  0.000     1.591     1.972
1243   1 H      0.294  0.706  0.000  0.000     0.732     1.340
1244   1 H      0.316  0.684  0.000  0.000     0.667     1.279
1245   1 H      0.284  0.716  0.000  0.000     0.763     1.368
1246   7 N     -0.165  1.236  3.929  0.000    24.562     7.361
1247   6 C      0.014  1.063  2.923  0.000    20.339     6.421
1248   6 C      0.269  1.044  2.687  0.000    22.449     7.759
1249   8 O     -0.512  1.766  4.746  0.000    24.040     6.574
1250   6 C     -0.073  1.051  3.022  0.000    21.895     6.660
1251   6 C     -0.005  1.082  2.923  0.000    28.136     8.701
1252   6 C     -0.039  1.084  2.956  0.000    28.980     8.828
1253   6 C     -0.044  1.083  2.961  0.000    29.101     8.847
1254   6 C     -0.059  1.074  2.986  0.000    29.477     8.903
1255   6 C     -0.083  1.081  3.002  0.000    30.074     8.993
1256   6 C      0.127  1.049  2.824  0.000    25.209     8.229
1257   8 O     -0.408  1.715  4.694  0.000    21.012     6.188
1258   1 H      0.206  0.794  0.000  0.000     1.077     1.626
1259   1 H      0.096  0.904  0.000  0.000     1.820     2.110
1260   1 H      0.059  0.941  0.000  0.000     2.210     2.325
1261   1 H      0.039  0.961  0.000  0.000     2.457     2.451
1262   1 H      0.017  0.983  0.000  0.000     2.774     2.604
1263   1 H      0.040  0.960  0.000  0.000     2.446     2.446
1264   1 H      0.060  0.940  0.000  0.000     2.194     2.316
1265   1 H      0.086  0.914  0.000  0.000     1.918     2.166
1266   1 H      0.376  0.624  0.000  0.000     0.530     1.144
1267   7 N     -0.179  1.248  3.932  0.000    24.879     7.408
1268   6 C      0.011  1.057  2.931  0.000    20.393     6.430
1269   6 C      0.187  1.098  2.715  0.000    24.001     8.023
1270   8 O     -0.322  1.729  4.593  0.000    20.175     6.022
1271   6 C     -0.094  1.058  3.035  0.000    22.276     6.718
1272   6 C     -0.095  1.055  3.040  0.000    22.304     6.724
1273   6 C     -0.101  1.057  3.044  0.000    22.432     6.743
1274   6 C     -0.056  1.062  2.994  0.000    21.681     6.647
1275   7 N     -0.138  1.233  3.905  0.000    23.984     7.274
1276   1 H      0.259  0.741  0.000  0.000     0.849     1.444
1277   1 H      0.076  0.924  0.000  0.000     2.018     2.221
1278   1 H      0.090  0.910  0.000  0.000     1.878     2.143
1279   1 H      0.079  0.921  0.000  0.000     1.984     2.203
1280   1 H      0.062  0.938  0.000  0.000     2.174     2.306
1281   1 H      0.091  0.909  0.000  0.000     1.865     2.136
1282   1 H      0.078  0.922  0.000  0.000     2.004     2.214
1283   1 H      0.083  0.917  0.000  0.000     1.953     2.185
1284   1 H      0.118  0.882  0.000  0.000     1.630     1.997
1285   1 H      0.119  0.881  0.000  0.000     1.622     1.991
1286   1 H      0.291  0.709  0.000  0.000     0.741     1.349
1287   1 H      0.282  0.718  0.000  0.000     0.768     1.373
1288   1 H      0.295  0.705  0.000  0.000     0.730     1.338
1289   7 N     -0.393  1.323  4.069  0.000    30.167     8.157
1290   6 C      0.026  1.054  2.920  0.000    20.147     6.394
1291   6 C      0.190  1.090  2.720  0.000    23.939     8.013
1292   8 O     -0.370  1.757  4.612  0.000    21.083     6.156
1293   6 C      0.079  1.035  2.886  0.000    19.446     6.313
1294   8 O     -0.450  1.709  4.741  0.000    21.848     6.310
1295   1 H      0.155  0.845  0.000  0.000     1.366     1.831
1296   1 H      0.081  0.919  0.000  0.000     1.971     2.196
1297   1 H      0.029  0.971  0.000  0.000     2.604     2.523
1298   1 H      0.063  0.937  0.000  0.000     2.167     2.302
1299   1 H      0.314  0.686  0.000  0.000     0.681     1.296
1300   7 N     -0.390  1.323  4.067  0.000    30.091     8.147
1301   6 C      0.040  1.049  2.911  0.000    19.916     6.356
1302   6 C      0.204  1.091  2.705  0.000    23.659     7.966
1303   8 O     -0.389  1.763  4.626  0.000    21.454     6.210
1304   6 C     -0.077  1.053  3.025  0.000    21.969     6.672
1305   6 C     -0.073  1.050  3.024  0.000    21.894     6.661
1306   6 C     -0.088  1.056  3.032  0.000    22.180     6.705
1307   6 C     -0.055  1.060  2.995  0.000    21.657     6.643
1308   7 N     -0.149  1.242  3.907  0.000    24.203     7.307
1309   1 H      0.170  0.830  0.000  0.000     1.273     1.767
1310   1 H      0.042  0.958  0.000  0.000     2.420     2.433
1311   1 H      0.059  0.941  0.000  0.000     2.211     2.326
1312   1 H      0.053  0.947  0.000  0.000     2.277     2.360
1313   1 H      0.059  0.941  0.000  0.000     2.205     2.322
1314   1 H      0.052  0.948  0.000  0.000     2.300     2.372
1315   1 H      0.065  0.935  0.000  0.000     2.140     2.288
1316   1 H      0.076  0.924  0.000  0.000     2.022     2.224
1317   1 H      0.116  0.884  0.000  0.000     1.647     2.007
1318   1 H      0.120  0.880  0.000  0.000     1.610     1.984
1319   1 H      0.278  0.722  0.000  0.000     0.783     1.386
1320   1 H      0.301  0.699  0.000  0.000     0.710     1.320
1321   1 H      0.274  0.726  0.000  0.000     0.795     1.397
1322   7 N     -0.369  1.310  4.059  0.000    29.535     8.071
1323   6 C      0.021  1.055  2.924  0.000    20.235     6.408
1324   6 C      0.203  1.085  2.713  0.000    23.690     7.972
1325   8 O     -0.376  1.759  4.617  0.000    21.214     6.175
1326   6 C      0.065  1.038  2.897  0.000    19.692     6.355
1327   8 O     -0.492  1.733  4.759  0.000    22.729     6.436
1328   1 H      0.154  0.846  0.000  0.000     1.373     1.836
1329   1 H      0.103  0.897  0.000  0.000     1.762     2.076
1330   1 H      0.051  0.949  0.000  0.000     2.310     2.377
1331   1 H      0.044  0.956  0.000  0.000     2.390     2.418
1332   1 H      0.325  0.675  0.000  0.000     0.650     1.267
1333   1 H      0.198  0.802  0.000  0.000     1.115     1.654
1334   1 H      0.075  0.925  0.000  0.000     2.030     2.228
1335   1 H      0.187  0.813  0.000  0.000     1.173     1.696
1336   1 H      0.081  0.919  0.000  0.000     1.969     2.194
1337   1 H      0.174  0.826  0.000  0.000     1.250     1.751
1338   1 H      0.082  0.918  0.000  0.000     1.955     2.186
1339   1 H      0.164  0.836  0.000  0.000     1.308     1.792
1340   1 H      0.195  0.805  0.000  0.000     1.132     1.666
1341   1 H      0.073  0.927  0.000  0.000     2.054     2.241
1342   1 H      0.189  0.811  0.000  0.000     1.166     1.691
1343   1 H      0.102  0.898  0.000  0.000     1.766     2.078
1344   1 H      0.184  0.816  0.000  0.000     1.189     1.708
1345   1 H      0.092  0.908  0.000  0.000     1.857     2.131
1346   1 H      0.184  0.816  0.000  0.000     1.192     1.710
1347   1 H      0.074  0.926  0.000  0.000     2.037     2.232
1348   1 H      0.164  0.836  0.000  0.000     1.308     1.791
1349   1 H      0.081  0.919  0.000  0.000     1.963     2.191
1350   1 H      0.181  0.819  0.000  0.000     1.209     1.722
1351   1 H      0.069  0.931  0.000  0.000     2.095     2.263
1352   1 H      0.084  0.916  0.000  0.000     1.939     2.177
1353   1 H      0.190  0.810  0.000  0.000     1.159     1.686
1354   1 H      0.074  0.926  0.000  0.000     2.037     2.232
1355   1 H      0.180  0.820  0.000  0.000     1.215     1.726
1356   1 H      0.074  0.926  0.000  0.000     2.042     2.235

 Mol. C6AA /au·bohr⁶  :   17490502.042749
 Mol. C8AA /au·bohr⁸  :  402777521.227170
 Mol. α(0) /au        :       6269.497395

 
molecular dipole:
                 x           y           z       tot (Debye)
 q only:     -137.596     603.002    1201.554
   full:     -138.625     600.935    1194.380    3416.697
molecular quadrupole (traceless):
                xx          xy          yy          xz          yz          zz
 q only:  -150452.163  -20979.832  -56607.463  -35977.059  179544.861  207059.627
  q+dip:  -149060.514  -21264.491  -55623.902  -36038.416  177898.173  204684.416
   full:  -149060.296  -21264.582  -55619.980  -36036.890  177894.044  204680.276
speedup  0.96
cpu  time for grad    6 m 44.8 s
wall time for grad    7 m  3.9 s

SCC energy    :   -2130.3834145
rep           :      24.8685945
ES            :       8.6058486
AES           :      -0.6370875
AXC           :       0.6902316
disp          :      -2.0331375
XB            :       0.0000000
fix           :       0.0000000
Gborn         :       0.0000000
Gsasa         :       0.0000000
Ghb           :       0.0000000
Gshift        :       0.0000000
Gsolv         :      -3.2994590    -2070.44
Etot ala COSMO:   -2130.3834145
grad norm     :       0.9193683
total E       :   -2105.2534225
atomizationE  :     375.0305252   235335.21
(atE without considering molecular charge,
 total energy contains solvation terms)
H-L gap (eV)  :          0.6178

------------------------------------------------------------------------
 * finished run on 2019/05/04 at 18:59:39.738     
------------------------------------------------------------------------
 total:
 * wall-time:     0 d,  0 h,  7 min, 18.339 sec
 *  cpu-time:     0 d,  0 h,  6 min, 52.757 sec
 * ratio c/w:     0.942 speedup
 SCF:
 * wall-time:     0 d,  0 h,  7 min, 11.630 sec
 *  cpu-time:     0 d,  0 h,  6 min, 49.911 sec
 * ratio c/w:     0.950 speedup

