      -----------------------------------------------------------      
     |                   =====================                   |     
     |                           x T B                           |     
     |                   =====================                   |     
     |                         S. Grimme                         |     
     |          Mulliken Center for Theoretical Chemistry        |     
     |                    University of Bonn                     |     
     |                 Version 6.0.1 (SAW181210)                 |     
      -----------------------------------------------------------      

   This program is distributed in the hope that it will be useful,
   but WITHOUT ANY WARRANTY; without even the implied warranty of
   MERCHANTABILITY or FITNESS FOR A PARTICULAR PURPOSE.
   
   FOR NON-COMMERCIAL, ACADEMIA USE ONLY.
   
   Cite this work as:
   S. Grimme, C. Bannwarth, P. Shushkov, J. Comput. Theory Chem., 2017,
   13, 1989-2009.
   C. Bannwarth, S. Ehlert and S. Grimme., ChemRxiv, 2018, preprint.
   http://doi.org/10.26434/chemrxiv.7246238.v1
   
   for sTDA-xTB:
   S. Grimme and C. Bannwarth, J. Chem. Phys., 2016, 145, 054103.
   
   in the mass-spec context:
   V. Asgeirsson, C. Bauer and S. Grimme, Chem. Sci., 2017, 8, 4879.
   
   if GBSA is used:
   P. Shushkov, F. März and S. Grimme, unpublished.
   
   for ANC optimizer:
   S. Grimme, unpublished.
   Rational Function algorithm used in ANCopt:
   F. Eckert, P. Pulay, H.-J. Werner, J. Comput. Chem., 1997, 18, 1473.
   
   with help from (in alphabetical order)
   C. Bannwarth, F. Bohle, G. Brandenburg, E. Caldeweyher, M. Checinski,
   S. Dohm, S. Ehlert, S. Ehrlich, F. März, H. Neugebauer, J. Pisarek,
   P. Pracht, P. Shushkov, and S. Spicher.
   
 * started run on 2019/05/10 at 16:39:07.918     
========================================================================
 # omp threads = 2
========================================================================
number of atoms            : 350
number of electrons        : 942
charge                     : 1
spin                       : .0
first test random number   : .1584

########################################################################
# WARNING! Please study the warnings concerning your input carefully
#  - Process number higher than OMP_NUM_THREADS, I hope you know what you are doing.
########################################################################

           ------------------------------------------------- 
          |                 G F N 2 - x T B                 |
          | Geometry, Frequencies, Noncovalent interactions |
          |            JCTC 2018 parametrisation            |
           ------------------------------------------------- 
 
      method parameters     
 k(s)        :  1.8500
 k(p)        :  2.2300
 k(d)        :  2.2300
 k(f)        :  2.0000
 kEN (H0ij)  : -2.0000
 D4 a1       :  0.5200
 D4 a2       :  5.0000
 D4 s6       :  1.0000
 D4 s8       :  2.7000
 D4 s9       :  5.0000
 alphaj      :  2.0000

 Solvent             : h2o
 Using internal parameter file: .param_gbsa2_h2o
 Gsolv ref. state (COSMO-RS): gsolv [1 M gas/solution]
 temperature (mdtemp)       :    298.150000000000     
 dielectric constant        :    80.2000000000000     
 rho                        :    1.00000000000000     
 mass                       :    18.0000000000000     
 surface tension            :    15.5689454083859     
 probe radius               :   0.975313790000000     
 vdW radii scaling          :    1.00000000000000     
 Gshift (Eh)                :   1.857443126794793E-003
 c1                         :    1.55243817000000     
 soset                      :   0.130326360000000     
 HB correction              :  T

            Z     q(EN)     CN     RAES       Cart. coordinates
     1  N   5.0   -0.07    4.33    3.85     8.77951    65.77457   -35.05002
     2  C   4.0   -0.00    4.48    4.51     9.27032    66.38208   -32.33758
     3  C   4.0    0.14    3.41    3.08    11.75282    65.06807   -31.60608
     4  O   6.0   -0.31    1.29    1.80    12.77949    63.66509   -33.12641
     5  C   4.0   -0.04    4.33    4.25     6.99364    65.28441   -30.89516
     6  C   4.0   -0.04    4.25    4.10     4.88261    65.39576   -32.85541
     7  C   4.0   -0.03    4.28    4.16     6.23745    64.55693   -35.25230
     8  H   1.0    0.06    1.05    1.44     8.88054    67.35530   -36.16334
     9  H   1.0    0.08    1.10    1.44    10.23819    64.54233   -35.56885
    10  H   1.0    0.04    1.04    1.43     9.41001    68.42023   -32.05933
    11  H   1.0    0.05    1.03    1.43     7.35054    63.33184   -30.34502
    12  H   1.0    0.04    1.02    1.43     6.55731    66.35853   -29.20298
    13  H   1.0    0.04    1.02    1.43     3.32020    64.15537   -32.37684
    14  H   1.0    0.05    1.02    1.43     4.16308    67.31497   -33.04069
    15  H   1.0    0.05    1.02    1.43     6.46791    62.51110   -35.25242
    16  H   1.0    0.05    1.02    1.43     5.27927    65.14249   -36.97323
    17  N   5.0   -0.14    3.46    2.05    12.57462    65.53514   -29.27720
    18  C   4.0    0.04    4.50    4.53    14.58490    64.09882   -28.09447
    19  C   4.0    0.15    3.50    3.11    13.74879    63.58112   -25.37020
    20  O   6.0   -0.29    1.24    1.80    13.18917    65.33583   -23.96833
    21  C   4.0   -0.03    4.16    3.92    17.06679    65.57694   -28.07476
    22  S   6.0   -0.03    2.50    3.10    19.59758    63.53873   -26.78391
    23  H   1.0    0.09    1.07    1.44    11.67122    66.78487   -28.14451
    24  H   1.0    0.07    1.08    1.44    14.82559    62.32324   -29.12344
    25  H   1.0    0.05    1.06    1.44    17.60021    66.12250   -29.98419
    26  H   1.0    0.06    1.07    1.44    16.92319    67.22986   -26.86032
    27  N   5.0   -0.14    3.48    2.07    13.63548    61.15255   -24.73124
    28  C   4.0    0.04    4.32    4.23    12.77493    60.38977   -22.25492
    29  C   4.0    0.07    3.21    3.04    13.57833    57.67945   -21.68649
    30  O   6.0   -0.30    1.17    1.80    14.15763    56.16128   -23.33851
    31  C   4.0   -0.04    4.35    4.28     9.89884    60.74438   -22.00606
    32  C   4.0   -0.03    4.06    3.73     8.38472    59.38178   -24.02323
    33  S   6.0   -0.05    2.51    3.10     5.18390    60.68655   -24.20657
    34  C   4.0   -0.06    3.89    3.44     3.85116    59.38208   -21.34878
    35  H   1.0    0.12    1.10    1.44    14.01442    59.75581   -25.99473
    36  H   1.0    0.05    1.06    1.44    13.64975    61.63312   -20.84841
    37  H   1.0    0.04    1.03    1.43     9.33068    60.14791   -20.12333
    38  H   1.0    0.06    1.05    1.44     9.51710    62.76156   -22.18079
    39  H   1.0    0.05    1.08    1.44     9.19427    59.69698   -25.88838
    40  H   1.0    0.05    1.06    1.44     8.23822    57.35473   -23.68925
    41  H   1.0    0.05    1.05    1.44     1.81699    59.60393   -21.48879
    42  H   1.0    0.05    1.04    1.43     4.29471    57.38028   -21.26830
    43  H   1.0    0.05    1.04    1.43     4.57657    60.38712   -19.71322
    44  N   5.0   -0.19    3.20    1.96    15.32752    47.75477   -23.62016
    45  C   4.0    0.03    4.32    4.24    15.96101    50.16731   -24.75782
    46  C   4.0    0.15    3.40    3.08    14.65136    50.51890   -27.32171
    47  O   6.0   -0.28    1.21    1.80    14.17055    48.74031   -28.71353
    48  C   4.0   -0.04    4.35    4.30    18.82109    50.38017   -25.29176
    49  C   4.0   -0.04    4.05    3.72    20.31030    50.93989   -22.90300
    50  S   6.0   -0.02    2.46    3.10    23.70176    51.17376   -23.48865
    51  C   4.0   -0.06    3.89    3.45    23.74645    53.84303   -25.63682
    52  H   1.0    0.11    1.03    1.43    15.11520    46.30388   -24.84475
    53  H   1.0    0.06    1.05    1.44    15.38543    51.66694   -23.45850
    54  H   1.0    0.05    1.03    1.43    19.47976    48.62489   -26.15061
    55  H   1.0    0.05    1.04    1.43    19.10712    51.90335   -26.65074
    56  H   1.0    0.05    1.07    1.44    19.69665    52.71814   -22.06729
    57  H   1.0    0.05    1.07    1.44    20.09704    49.43914   -21.51519
    58  H   1.0    0.06    1.05    1.44    25.58325    54.74223   -25.45238
    59  H   1.0    0.05    1.03    1.43    23.47648    53.20000   -27.56697
    60  H   1.0    0.04    1.04    1.43    22.27072    55.15872   -25.08955
    61  N   5.0   -0.14    3.48    2.06    14.32108    52.95723   -27.91474
    62  C   4.0    0.04    4.31    4.22    13.43254    53.88186   -30.33648
    63  C   4.0    0.15    3.43    3.09    14.68040    56.45861   -30.74308
    64  O   6.0   -0.31    1.30    1.80    14.43440    58.14794   -29.17713
    65  C   4.0   -0.06    4.10    3.80    10.55515    54.21948   -30.34402
    66  H   1.0    0.11    1.10    1.44    14.50838    54.27903   -26.54208
    67  H   1.0    0.05    1.05    1.44    13.99109    52.50881   -31.77662
    68  H   1.0    0.05    1.00    1.43     9.92061    54.84946   -32.19068
    69  H   1.0    0.06    1.00    1.43     9.66438    52.42094   -29.90923
    70  H   1.0    0.06    1.00    1.43    10.01553    55.59865   -28.92081
    71  N   5.0   -0.13    3.46    2.05    15.95802    56.78615   -32.89082
    72  C   4.0    0.04    4.38    4.35    17.20054    59.14887   -33.49648
    73  C   4.0    0.16    3.47    3.10    17.78843    59.19498   -36.30511
    74  O   6.0   -0.32    1.34    1.80    17.73357    57.26998   -37.58234
    75  C   4.0    0.04    4.16    3.93    19.71995    59.44238   -32.00884
    76  O   6.0   -0.25    2.05    1.83    21.54085    57.65441   -32.70690
    77  H   1.0    0.09    1.07    1.44    16.29824    55.33628   -34.08760
    78  H   1.0    0.07    1.06    1.44    15.94077    60.70984   -32.98602
    79  H   1.0    0.05    1.01    1.43    20.42760    61.37577   -32.25322
    80  H   1.0    0.06    1.02    1.43    19.32705    59.14793   -30.00305
    81  H   1.0    0.15    1.05    1.44    22.26115    58.14682   -34.32416
    82  N   5.0   -0.13    3.49    2.07    18.32497    61.47415   -37.25942
    83  C   4.0    0.04    4.39    4.37    19.63308    61.72615   -39.64825
    84  C   4.0    0.16    3.40    3.08    22.46904    61.15802   -39.18204
    85  O   6.0   -0.30    1.29    1.80    23.14461    60.10501   -37.24411
    86  C   4.0    0.03    4.14    3.89    19.13792    64.35715   -40.74714
    87  O   6.0   -0.23    2.07    1.83    20.38068    66.12982   -39.18803
    88  H   1.0    0.09    1.07    1.44    18.53618    62.96198   -36.08013
    89  H   1.0    0.05    1.05    1.44    18.90654    60.26882   -40.92641
    90  H   1.0    0.04    1.01    1.43    19.82292    64.47106   -42.69808
    91  H   1.0    0.05    1.01    1.43    17.09270    64.70796   -40.73848
    92  H   1.0    0.13    1.02    1.43    20.20126    67.79399   -39.89712
    93  N   5.0   -0.14    3.49    2.07    23.99952    61.64957   -41.13518
    94  C   4.0    0.04    4.43    4.44    26.73662    61.46621   -40.97332
    95  C   4.0    0.16    3.54    3.13    27.71956    64.19488   -41.04174
    96  O   6.0   -0.29    1.26    1.80    26.91222    65.58162   -42.72401
    97  C   4.0   -0.04    4.25    4.11    27.70924    60.01049   -43.28559
    98  C   4.0   -0.03    4.17    3.94    30.50178    59.33812   -43.09407
    99  C   4.0    0.25    3.13    3.03    32.31292    61.64832   -43.08624
   100  O   6.0   -0.30    1.18    1.80    33.98036    61.68264   -41.44416
   101  O   6.0   -0.30    1.41    1.80    31.97711    63.31744   -44.74880
   102  H   1.0    0.09    1.08    1.44    23.43139    62.82622   -42.53132
   103  H   1.0    0.05    1.06    1.44    27.21536    60.50982   -39.21309
   104  H   1.0    0.04    1.03    1.43    26.60983    58.27590   -43.48508
   105  H   1.0    0.06    1.03    1.43    27.40344    61.20086   -44.93954
   106  H   1.0    0.05    1.03    1.43    30.90653    58.26970   -41.37605
   107  H   1.0    0.06    1.03    1.43    31.08075    58.15566   -44.68482
   108  N   5.0   -0.08    3.69    2.26    29.23601    64.99643   -39.20459
   109  C   4.0    0.02    4.59    4.65    30.36155    63.48276   -37.21614
   110  C   4.0    0.15    3.54    3.13    28.46833    63.15056   -35.06907
   111  O   6.0   -0.28    1.28    1.80    26.75362    64.68685   -34.74092
   112  C   4.0   -0.04    4.34    4.27    32.62203    65.03491   -36.23690
   113  C   4.0   -0.04    4.26    4.11    32.93263    67.14507   -38.18717
   114  C   4.0    0.01    4.39    4.37    30.26322    67.53820   -39.18437
   115  H   1.0    0.05    1.05    1.44    31.03500    61.69118   -37.98192
   116  H   1.0    0.05    1.03    1.43    32.20800    65.78368   -34.35875
   117  H   1.0    0.05    1.02    1.43    34.30949    63.86465   -36.11914
   118  H   1.0    0.04    1.02    1.43    33.75910    68.85432   -37.40524
   119  H   1.0    0.06    1.03    1.43    34.12755    66.46845   -39.72478
   120  H   1.0    0.06    1.02    1.43    29.13171    68.72117   -37.91765
   121  H   1.0    0.07    1.03    1.43    30.21862    68.31601   -41.09108
   122  N   5.0   -0.09    3.71    2.28    28.75698    61.14481   -33.57515
   123  C   4.0    0.04    4.61    4.67    27.14260    60.91990   -31.36166
   124  C   4.0    0.16    3.45    3.09    27.72498    63.10643   -29.56933
   125  O   6.0   -0.30    1.25    1.80    29.75974    64.18560   -29.55615
   126  C   4.0   -0.04    4.32    4.23    27.82989    58.35488   -30.17538
   127  C   4.0   -0.03    4.26    4.12    29.54667    57.09534   -32.13710
   128  C   4.0   -0.01    4.36    4.32    30.80163    59.32922   -33.45575
   129  H   1.0    0.06    1.05    1.44    25.17359    61.01430   -31.97282
   130  H   1.0    0.06    1.03    1.43    28.85412    58.62818   -28.40913
   131  H   1.0    0.05    1.02    1.43    26.14442    57.24187   -29.80560
   132  H   1.0    0.05    1.02    1.43    30.91129    55.81819   -31.29338
   133  H   1.0    0.05    1.03    1.43    28.42307    56.04205   -33.49974
   134  H   1.0    0.05    1.02    1.43    32.35348    60.10933   -32.32631
   135  H   1.0    0.04    1.02    1.43    31.54061    58.86363   -35.32047
   136  N   5.0   -0.15    3.50    2.08    25.85759    63.66698   -27.92099
   137  C   4.0    0.04    4.49    4.52    26.18629    65.65550   -26.08039
   138  C   4.0    0.14    3.46    3.10    27.07311    64.69545   -23.49511
   139  O   6.0   -0.32    1.31    1.80    27.94085    66.20861   -21.95875
   140  C   4.0   -0.02    4.19    3.98    23.83125    67.27553   -25.71168
   141  S   6.0   -0.01    2.47    3.10    21.25830    65.67780   -24.07566
   142  H   1.0    0.08    1.11    1.45    24.13340    62.86281   -28.09707
   143  H   1.0    0.07    1.07    1.44    27.68374    66.90343   -26.79568
   144  H   1.0    0.06    1.08    1.44    24.27608    68.85635   -24.46480
   145  H   1.0    0.07    1.07    1.44    23.16936    68.01240   -27.51460
   146  N   5.0   -0.14    3.55    2.12    26.76194    62.24497   -23.06862
   147  C   4.0    0.03    4.39    4.35    27.41424    60.95102   -20.75722
   148  C   4.0    0.07    3.24    3.04    28.54578    58.38868   -21.47023
   149  O   6.0   -0.31    1.16    1.80    28.37582    57.57124   -23.62744
   150  C   4.0   -0.02    4.26    4.11    25.05274    60.59242   -19.07003
   151  C   4.0   -0.06    4.12    3.84    24.12440    63.14054   -18.10271
   152  C   4.0   -0.07    4.13    3.85    22.94557    59.21300   -20.47459
   153  H   1.0    0.09    1.10    1.44    26.31628    61.07147   -24.51795
   154  H   1.0    0.05    1.05    1.44    28.82113    62.05333   -19.72097
   155  H   1.0    0.04    1.06    1.44    25.66372    59.45201   -17.46182
   156  H   1.0    0.05    1.00    1.43    22.48335    62.89301   -16.89702
   157  H   1.0    0.05    1.00    1.43    25.59691    64.07455   -17.02346
   158  H   1.0    0.06    1.02    1.43    23.59909    64.37373   -19.65733
   159  H   1.0    0.04    1.00    1.43    21.38623    58.85702   -19.18790
   160  H   1.0    0.05    1.00    1.43    22.24477    60.35549   -22.03128
   161  H   1.0    0.05    1.00    1.43    23.62903    57.42046   -21.20678
   162  N   5.0   -0.20    3.25    1.97    32.57409    66.72295   -19.72056
   163  C   4.0    0.04    4.32    4.24    34.32130    67.18347   -21.76038
   164  C   4.0    0.15    3.40    3.08    33.90723    69.69512   -23.12753
   165  O   6.0   -0.29    1.23    1.80    35.66752    70.69501   -24.23780
   166  C   4.0   -0.04    4.37    4.32    34.22783    65.06241   -23.73012
   167  C   4.0   -0.02    4.18    3.95    34.82118    62.42646   -22.68125
   168  C   4.0   -0.07    4.11    3.82    34.73749    60.55550   -24.88065
   169  C   4.0   -0.07    4.11    3.82    37.39480    62.36784   -21.38042
   170  H   1.0    0.12    1.08    1.44    30.76539    66.27987   -20.21541
   171  H   1.0    0.05    1.06    1.44    36.21431    67.29287   -20.92884
   172  H   1.0    0.06    1.03    1.43    32.35406    65.05011   -24.59799
   173  H   1.0    0.05    1.03    1.43    35.60476    65.54192   -25.18712
   174  H   1.0    0.04    1.05    1.44    33.37760    61.91332   -21.28777
   175  H   1.0    0.05    1.00    1.43    35.33128    58.69369   -24.25764
   176  H   1.0    0.06    1.00    1.43    32.83296    60.42761   -25.64130
   177  H   1.0    0.05    1.00    1.43    36.00104    61.18577   -26.36814
   178  H   1.0    0.05    1.00    1.43    37.88916    60.46279   -20.79349
   179  H   1.0    0.05    1.00    1.43    38.85445    63.08428   -22.63243
   180  H   1.0    0.05    1.00    1.43    37.39856    63.50850   -19.66845
   181  N   5.0   -0.13    3.47    2.06    31.55517    70.64890   -23.13325
   182  C   4.0    0.04    4.32    4.23    31.01672    73.13028   -24.16768
   183  C   4.0    0.09    3.21    3.04    30.21510    74.91292   -22.04212
   184  O   6.0   -0.26    1.13    1.80    28.72343    74.26666   -20.39376
   185  C   4.0   -0.03    4.26    4.12    28.91747    73.00399   -26.17329
   186  C   4.0   -0.03    4.22    4.04    29.87505    71.75615   -28.59653
   187  C   4.0    0.16    3.21    3.04    27.75687    70.73931   -30.26759
   188  O   6.0   -0.29    1.22    1.80    25.52025    70.88193   -29.72699
   189  N   5.0   -0.17    3.19    1.95    28.58520    69.65197   -32.40695
   190  H   1.0    0.11    1.07    1.44    30.12586    69.74185   -22.24103
   191  H   1.0    0.06    1.07    1.44    32.78203    73.79875   -25.01535
   192  H   1.0    0.06    1.03    1.43    27.33276    71.92833   -25.40726
   193  H   1.0    0.06    1.02    1.43    28.21575    74.90503   -26.55873
   194  H   1.0    0.05    1.03    1.43    30.99466    73.09645   -29.68917
   195  H   1.0    0.05    1.03    1.43    31.08876    70.15794   -28.10164
   196  H   1.0    0.08    1.03    1.43    30.44885    69.39979   -32.68169
   197  H   1.0    0.12    1.04    1.43    27.39559    68.58965   -33.46513
   198  N   5.0   -0.18    3.20    1.96    41.89021    68.85870   -53.16763
   199  C   4.0    0.03    4.21    4.03    40.11690    66.80465   -53.50662
   200  C   4.0    0.08    3.22    3.04    39.74103    66.22341   -56.31917
   201  O   6.0   -0.26    1.12    1.80    39.39979    67.88862   -57.89839
   202  C   4.0   -0.04    4.28    4.15    37.55657    67.44716   -52.31730
   203  C   4.0   -0.05    4.18    3.97    35.69950    65.24134   -52.41827
   204  C   4.0   -0.04    4.19    3.98    33.37179    65.85991   -50.83353
   205  C   4.0   -0.03    4.11    3.83    31.35168    63.81010   -50.94577
   206  N   5.0   -0.11    4.02    2.91    29.52008    64.19393   -48.86427
   207  H   1.0    0.10    1.03    1.43    41.26435    70.57124   -53.75414
   208  H   1.0    0.04    1.05    1.44    40.90890    65.14467   -52.56425
   209  H   1.0    0.06    1.03    1.43    37.88368    67.94121   -50.33962
   210  H   1.0    0.06    1.02    1.43    36.75310    69.10341   -53.25413
   211  H   1.0    0.05    1.02    1.43    35.15903    64.82692   -54.36723
   212  H   1.0    0.04    1.03    1.43    36.62442    63.55708   -51.65739
   213  H   1.0    0.07    1.03    1.43    33.98721    66.07447   -48.87238
   214  H   1.0    0.05    1.03    1.43    32.59454    67.65606   -51.47711
   215  H   1.0    0.04    1.02    1.43    30.37799    63.85041   -52.76571
   216  H   1.0    0.04    1.02    1.43    32.24026    61.96626   -50.69836
   217  H   1.0    0.06    1.02    1.43    27.92039    63.13240   -49.07896
   218  H   1.0    0.11    1.16    1.46    30.46027    63.71837   -47.04043
   219  H   1.0    0.07    1.03    1.43    29.02074    66.05889   -48.73265
   220  N   5.0   -0.18    3.23    1.96    43.54569    55.59606   -41.34492
   221  C   4.0    0.03    4.23    4.05    41.18698    54.24175   -41.54169
   222  C   4.0    0.09    3.22    3.04    40.89306    53.07738   -44.17238
   223  O   6.0   -0.27    1.15    1.80    41.60633    54.22120   -46.06021
   224  C   4.0   -0.03    4.33    4.26    38.90488    56.01759   -41.16986
   225  C   4.0   -0.01    3.55    3.14    38.54369    56.71012   -38.44700
   226  C   4.0   -0.04    3.46    3.10    39.64176    58.86174   -37.42443
   227  C   4.0   -0.03    3.48    3.11    37.12194    55.16513   -36.87608
   228  C   4.0   -0.03    3.44    3.09    39.33591    59.44361   -34.89882
   229  C   4.0   -0.04    3.43    3.09    36.83023    55.70349   -34.33933
   230  C   4.0    0.07    3.45    3.09    37.94229    57.85699   -33.33200
   231  O   6.0   -0.24    2.11    1.84    37.71533    58.47310   -30.84644
   232  H   1.0    0.13    1.06    1.44    43.72385    57.17312   -42.42318
   233  H   1.0    0.05    1.05    1.44    41.15905    52.75700   -40.10360
   234  H   1.0    0.06    1.03    1.43    39.18128    57.71670   -42.31762
   235  H   1.0    0.06    1.03    1.43    37.20422    55.08260   -41.88190
   236  H   1.0    0.06    1.03    1.43    40.73192    60.10056   -38.62966
   237  H   1.0    0.06    1.03    1.43    36.19936    53.52906   -37.67311
   238  H   1.0    0.06    1.03    1.43    40.16471    61.14479   -34.14329
   239  H   1.0    0.06    1.03    1.43    35.68110    54.46989   -33.18989
   240  H   1.0    0.12    1.03    1.43    36.69179    57.22663   -29.97818
   241  N   5.0   -0.18    3.27    1.97    34.41617    50.65703   -47.45722
   242  C   4.0    0.04    4.34    4.28    31.77351    51.04808   -46.81155
   243  C   4.0    0.14    3.40    3.08    31.72032    52.12838   -44.11631
   244  O   6.0   -0.31    1.25    1.80    33.10786    53.89940   -43.57149
   245  C   4.0   -0.03    4.30    4.20    30.26192    48.62344   -47.27652
   246  C   4.0    0.16    3.25    3.04    30.46347    47.99008   -50.08967
   247  O   6.0   -0.30    1.28    1.80    30.50916    49.67702   -51.67511
   248  N   5.0   -0.17    3.17    1.95    30.56083    45.54346   -50.65785
   249  H   1.0    0.13    1.05    1.44    35.17731    51.60290   -48.93994
   250  H   1.0    0.06    1.06    1.44    31.08317    52.53965   -48.06829
   251  H   1.0    0.05    1.03    1.43    31.00677    47.08638   -46.12654
   252  H   1.0    0.04    1.03    1.43    28.26899    48.94145   -46.85897
   253  H   1.0    0.11    1.02    1.43    30.71692    44.96524   -52.49678
   254  H   1.0    0.09    1.03    1.43    30.43922    44.22220   -49.29653
   255  N   5.0   -0.16    3.44    2.04    30.03685    51.14347   -42.49095
   256  C   4.0    0.04    4.32    4.24    29.75337    52.10887   -39.94973
   257  C   4.0    0.08    3.19    3.03    31.60982    50.98614   -38.01839
   258  O   6.0   -0.30    1.13    1.80    31.50544    51.65832   -35.80837
   259  C   4.0   -0.04    4.28    4.16    27.05445    51.65284   -39.00909
   260  C   4.0   -0.05    4.18    3.96    25.07749    53.07231   -40.56317
   261  C   4.0   -0.04    4.17    3.93    22.40020    52.55232   -39.59280
   262  C   4.0   -0.03    4.13    3.85    20.42969    53.28809   -41.56813
   263  N   5.0   -0.12    4.03    2.94    17.83523    53.02736   -40.52374
   264  H   1.0    0.07    1.07    1.44    29.24309    49.44769   -42.85177
   265  H   1.0    0.05    1.06    1.44    30.16576    54.14121   -40.03209
   266  H   1.0    0.05    1.03    1.43    26.70132    49.61935   -39.07069
   267  H   1.0    0.06    1.03    1.43    26.98371    52.24752   -37.03769
   268  H   1.0    0.04    1.02    1.43    25.48361    55.09356   -40.47802
   269  H   1.0    0.04    1.03    1.43    25.24484    52.49144   -42.53514
   270  H   1.0    0.04    1.03    1.43    22.24615    50.54433   -39.15716
   271  H   1.0    0.06    1.03    1.43    22.10327    53.63226   -37.86439
   272  H   1.0    0.05    1.02    1.43    20.72344    55.24931   -42.12753
   273  H   1.0    0.04    1.02    1.43    20.62782    52.08388   -43.22926
   274  H   1.0    0.06    1.02    1.43    16.50225    53.33577   -41.90275
   275  H   1.0    0.06    1.02    1.43    17.58315    51.25423   -39.76730
   276  H   1.0    0.10    1.08    1.44    17.59266    54.39912   -39.12385
   277  N   5.0   -0.17    3.26    1.97    33.69387    52.48217   -54.88999
   278  C   4.0    0.04    4.28    4.16    34.94721    54.86455   -54.47649
   279  C   4.0    0.10    3.22    3.04    37.30629    54.47719   -52.84578
   280  O   6.0   -0.27    1.18    1.80    37.51866    52.67327   -51.41470
   281  C   4.0    0.05    4.22    4.05    33.17723    56.81251   -53.23068
   282  O   6.0   -0.24    2.12    1.84    32.65258    56.02677   -50.72703
   283  C   4.0   -0.07    4.09    3.79    30.78531    57.12912   -54.80103
   284  H   1.0    0.13    1.06    1.44    32.84977    51.62070   -53.39830
   285  H   1.0    0.04    1.05    1.44    35.51507    55.60690   -56.31858
   286  H   1.0    0.04    1.03    1.43    34.22049    58.61605   -53.17106
   287  H   1.0    0.11    1.03    1.43    31.00872    56.67044   -50.27001
   288  H   1.0    0.04    1.00    1.43    29.52154    58.49192   -53.92698
   289  H   1.0    0.04    1.00    1.43    31.27345    57.79098   -56.68206
   290  H   1.0    0.05    1.00    1.43    29.80404    55.33104   -55.00220
   291  N   5.0   -0.18    3.21    1.96    42.28201    59.52519   -48.30049
   292  C   4.0    0.04    4.22    4.03    42.32763    62.03380   -47.18231
   293  C   4.0    0.09    3.22    3.04    44.26287    62.17799   -45.05648
   294  O   6.0   -0.29    1.18    1.80    44.60035    60.37674   -43.62005
   295  C   4.0   -0.03    4.25    4.10    39.72844    62.76058   -46.12600
   296  C   4.0    0.24    3.09    3.02    39.31479    65.69542   -45.96883
   297  O   6.0   -0.30    1.18    1.80    41.21367    67.07051   -46.17953
   298  O   6.0   -0.29    1.17    1.80    37.09878    66.39150   -45.65810
   299  H   1.0    0.13    1.04    1.43    42.44397    58.01806   -47.12849
   300  H   1.0    0.05    1.05    1.44    42.83654    63.38729   -48.66326
   301  H   1.0    0.05    1.02    1.43    38.23509    62.00723   -47.33787
   302  H   1.0    0.06    1.02    1.43    39.42207    61.99600   -44.22769
   303  N   5.0   -0.18    3.23    1.96    46.22116    66.50310   -38.80235
   304  C   4.0    0.03    4.30    4.20    44.81058    68.08716   -37.06128
   305  C   4.0    0.09    3.23    3.04    46.51319    68.75931   -34.81879
   306  O   6.0   -0.26    1.13    1.80    47.49049    67.12536   -33.50225
   307  C   4.0   -0.02    4.33    4.25    42.45554    66.65012   -36.11074
   308  C   4.0   -0.05    4.18    3.96    40.67821    65.98188   -38.30060
   309  C   4.0   -0.07    4.12    3.84    41.10087    68.13569   -34.03843
   310  C   4.0   -0.06    4.02    3.66    39.61540    68.25138   -39.71101
   311  H   1.0    0.10    1.02    1.43    46.57321    64.71552   -38.19324
   312  H   1.0    0.04    1.05    1.44    44.26166    69.79012   -38.09028
   313  H   1.0    0.05    1.06    1.44    43.14790    64.86450   -35.31614
   314  H   1.0    0.05    1.03    1.43    41.67524    64.78934   -39.66867
   315  H   1.0    0.04    1.03    1.43    39.09816    64.86225   -37.58166
   316  H   1.0    0.04    1.00    1.43    39.31777    67.22307   -33.58815
   317  H   1.0    0.06    1.00    1.43    42.26570    68.23372   -32.34892
   318  H   1.0    0.04    1.00    1.43    40.69807    70.05022   -34.65926
   319  H   1.0    0.07    1.00    1.43    38.29361    67.61246   -41.15446
   320  H   1.0    0.04    1.00    1.43    38.61865    69.52823   -38.45168
   321  H   1.0    0.06    1.00    1.43    41.09353    69.27904   -40.70522
   322  N   5.0   -0.18    3.21    1.96    -4.67198    66.29091   -23.36825
   323  C   4.0    0.03    4.13    3.86    -3.40080    64.43455   -24.93787
   324  C   4.0    0.08    3.20    3.04    -4.70021    61.85449   -24.82179
   325  O   6.0   -0.26    1.13    1.80    -6.16676    61.27001   -23.12252
   326  C   4.0   -0.07    4.12    3.83    -0.64289    64.16325   -24.08953
   327  H   1.0    0.11    1.03    1.43    -5.75003    65.64682   -21.92663
   328  H   1.0    0.05    1.05    1.44    -3.43785    65.14250   -26.88414
   329  H   1.0    0.04    1.01    1.43     0.30822    62.66204   -25.11884
   330  H   1.0    0.05    1.00    1.43     0.33089    65.93531   -24.43223
   331  H   1.0    0.05    1.00    1.43    -0.57625    63.72871   -22.08172
   332  H   1.0    0.10    1.08    1.44    32.45119    52.68534   -56.03325
   333  H   1.0    0.06    1.05    1.44    38.72906    55.71785   -52.93257
   334  H   1.0    0.10    1.08    1.44    40.80823    59.29446   -49.11737
   335  H   1.0    0.07    1.04    1.44    45.28141    63.75069   -44.81103
   336  H   1.0    0.10    1.07    1.44    45.35710    66.35166   -40.25941
   337  H   1.0    0.06    1.04    1.44    46.85090    70.57046   -34.39837
   338  H   1.0    0.10    1.08    1.44    -3.51721    67.30676   -22.64224
   339  H   1.0    0.06    1.05    1.44    -4.36691    60.56743   -26.16471
   340  H   1.0    0.05    1.05    1.44    13.64998    57.07034   -19.89906
   341  H   1.0    0.10    1.08    1.44    16.55791    47.29632   -22.53917
   342  H   1.0    0.05    1.04    1.44    29.44040    57.35489   -20.16563
   343  H   1.0    0.09    1.08    1.44    33.12888    65.41793   -18.78156
   344  H   1.0    0.06    1.05    1.44    30.91243    76.66768   -21.96718
   345  H   1.0    0.11    1.07    1.44    42.26708    69.01674   -51.51670
   346  H   1.0    0.06    1.05    1.44    39.76868    64.43403   -56.92613
   347  H   1.0    0.10    1.08    1.44    43.77538    56.10579   -39.73869
   348  H   1.0    0.06    1.04    1.43    40.11302    51.36719   -44.36694
   349  H   1.0    0.11    1.10    1.44    35.39412    51.09529   -46.13657
   350  H   1.0    0.06    1.04    1.43    32.89343    49.71399   -38.57071

  Z AO/shell   Hii/eV     exponent
  1     Wed Apr 25 08:07:45 CEST 2018   EN: 2.200 GM2: 0.406  GM3: 0.0800  RAES: 1.40
     1s    -10.707211    1.230000
  6     Wed Apr 25 08:07:45 CEST 2018   EN: 2.550 GM2: 0.538  GM3: 0.1500  RAES: 3.00
     2s    -13.970922    2.096432
     2p    -10.063292    1.800000
  7     Wed Apr 25 08:07:45 CEST 2018   EN: 3.040 GM2: 0.461  GM3:-0.0640  RAES: 1.90
     2s    -16.686243    2.339881
     2p    -12.523956    2.014332
  8     Wed Apr 25 08:07:45 CEST 2018   EN: 3.440 GM2: 0.452  GM3:-0.0517  RAES: 1.80
     2s    -20.229985    2.439742
     2p    -15.503117    2.137023
 16     Tue Apr 24 11:44:34 CEST 2018   EN: 2.580 GM2: 0.340  GM3:-0.0502  RAES: 3.10
     3s    -20.029654    1.981333
     3p    -11.377694    2.025643
     3d     -0.420282    1.702555
 no old-style atom pair restraining (fixing) potential

molecular fragmentation (1/2 indicates fragments):
111111111111111111111111111111111111111111111111111111111111111111111111
111111111111111111111111111111111111111111111111111111111111111111111111
111111111111111112222222222222222222222222222222222222222222222222222222
222222222222222222222222222222222222222222222222222222222222222222222222
22222222222222222222222222222222222222222222222222211122222222
# atoms in fragment 1/2:   164   186
 fragment masses (1/2) :     1235.51     1192.48
CMA distance (Bohr)    :  15.215
constraining FC (au)   :  0.0500
           ------------------------------------------------- 
          |        Self-Consistent Charge Iterations        |
           ------------------------------------------------- 

 Ncao       : 869
 Nao        : 865
 Nshell     : 519
 Nel        : 942
 T(el)      :   500.0
 intcut     :    35.0
 scfconv/Eh :  0.100E-06
   qconv/e  :  0.100E-04
 intneglect :  0.100E-08
 broydamp   :      0.400
 iter      E             dE          RMSdq      gap      omega  full diag
   1   -538.5426269 -0.538543E+03  0.476E+00    2.98       0.0  T
   2   -539.8853465 -0.134272E+01  0.223E+00    1.62       1.0  T
   3   -539.9720137 -0.866672E-01  0.127E+00    1.82       1.0  T
   4   -540.0654489 -0.934351E-01  0.293E-01    1.26       1.0  T
   5   -540.0702518 -0.480288E-02  0.152E-01    1.41       1.0  T
   6   -540.0715694 -0.131763E-02  0.769E-02    1.40       1.0  T
   7   -540.0719001 -0.330740E-03  0.445E-02    1.39       1.0  T
   8   -540.0719968 -0.966774E-04  0.258E-02    1.40       1.0  T
   9   -540.0720362 -0.393789E-04  0.147E-02    1.39       1.0  T
  10   -540.0720470 -0.107956E-04  0.723E-03    1.38       1.0  T
  11   -540.0720499 -0.290230E-05  0.352E-03    1.37       1.5  T
  12   -540.0720504 -0.511981E-06  0.146E-03    1.37       3.7  T
  13   -540.0720505 -0.135058E-06  0.756E-04    1.37       7.1  T
  14   -540.0720506 -0.467385E-07  0.300E-04    1.37      17.8  T
  15   -540.0720506 -0.685043E-08  0.154E-04    1.37      34.7  T
  16   -540.0720506 -0.147531E-08  0.634E-05    1.37      84.4  T
  17   -540.0720506 -0.222599E-09  0.293E-05    1.37     182.7  T
speedup  1.97
cpu  time for SCC   15.82 s
wall time for SCC    8.02 s

   *** convergence criteria satisfied after 17 iterations ***

          eigenvalues
 #    :         459        460        461        462        463        464        465        466
 occ. :        2.000      2.000      2.000      2.000      2.000      2.000      2.000      2.000
 eps  :       -10.442    -10.270    -10.170    -10.115     -9.983     -9.962     -9.927     -9.904
 #    :         467        468        469        470        471        472        473        474
 occ. :        2.000      2.000      2.000      2.000      2.000      0.000      0.000      0.000
 eps  :        -9.889     -9.826     -9.815     -9.784     -9.588     -8.214     -8.190     -8.129
 #    :         475        476        477        478        479        480        481        482
 occ. :        0.000      0.000      0.000      0.000      0.000      0.000      0.000      0.000
 eps  :        -8.068     -8.017     -7.924     -7.894     -7.883     -7.721     -7.592     -7.188


   #   Z            q   n(s)   n(p)   n(d)      C6AA      α(0)
   1   7 N     -0.061  1.237  3.824  0.000    22.407     7.030
   2   6 C     -0.028  1.082  2.946  0.000    21.067     6.533
   3   6 C      0.265  1.033  2.701  0.000    22.521     7.771
   4   8 O     -0.447  1.734  4.712  0.000    22.639     6.379
   5   6 C     -0.084  1.056  3.028  0.000    22.088     6.687
   6   6 C     -0.087  1.052  3.035  0.000    22.142     6.696
   7   6 C     -0.047  1.064  2.982  0.000    21.451     6.602
   8   1 H      0.278  0.722  0.000  0.000     0.781     1.385
   9   1 H      0.291  0.709  0.000  0.000     0.742     1.349
  10   1 H      0.123  0.877  0.000  0.000     1.592     1.973
  11   1 H      0.086  0.914  0.000  0.000     1.918     2.166
  12   1 H      0.092  0.908  0.000  0.000     1.861     2.133
  13   1 H      0.098  0.902  0.000  0.000     1.799     2.097
  14   1 H      0.086  0.914  0.000  0.000     1.921     2.167
  15   1 H      0.121  0.879  0.000  0.000     1.602     1.979
  16   1 H      0.118  0.882  0.000  0.000     1.631     1.997
  17   7 N     -0.150  1.232  3.917  0.000    24.238     7.312
  18   6 C     -0.004  1.067  2.937  0.000    20.621     6.461
  19   6 C      0.272  1.036  2.692  0.000    22.399     7.751
  20   8 O     -0.480  1.751  4.729  0.000    23.339     6.477
  21   6 C     -0.038  1.082  2.957  0.000    21.264     6.566
  22  16 S     -0.090  1.916  4.100  0.074   144.792    20.252
  23   1 H      0.224  0.776  0.000  0.000     0.994     1.562
  24   1 H      0.114  0.886  0.000  0.000     1.664     2.017
  25   1 H      0.086  0.914  0.000  0.000     1.920     2.167
  26   1 H      0.079  0.921  0.000  0.000     1.985     2.203
  27   7 N     -0.162  1.239  3.923  0.000    24.501     7.351
  28   6 C      0.021  1.058  2.921  0.000    20.229     6.404
  29   6 C      0.194  1.087  2.719  0.000    23.851     7.998
  30   8 O     -0.355  1.743  4.612  0.000    20.798     6.114
  31   6 C     -0.069  1.053  3.016  0.000    21.785     6.640
  32   6 C     -0.018  1.064  2.954  0.000    20.895     6.509
  33  16 S     -0.195  1.908  4.240  0.048   149.361    20.569
  34   6 C     -0.058  1.051  3.007  0.000    21.687     6.643
  35   1 H      0.245  0.755  0.000  0.000     0.904     1.489
  36   1 H      0.098  0.902  0.000  0.000     1.802     2.099
  37   1 H      0.058  0.942  0.000  0.000     2.224     2.332
  38   1 H      0.089  0.911  0.000  0.000     1.887     2.148
  39   1 H      0.077  0.923  0.000  0.000     2.007     2.215
  40   1 H      0.049  0.951  0.000  0.000     2.330     2.387
  41   1 H      0.055  0.945  0.000  0.000     2.261     2.351
  42   1 H      0.051  0.949  0.000  0.000     2.308     2.375
  43   1 H      0.048  0.952  0.000  0.000     2.343     2.394
  44   7 N     -0.392  1.320  4.072  0.000    30.160     8.156
  45   6 C      0.021  1.065  2.914  0.000    20.228     6.406
  46   6 C      0.273  1.044  2.683  0.000    22.381     7.747
  47   8 O     -0.494  1.749  4.745  0.000    23.644     6.519
  48   6 C     -0.067  1.056  3.011  0.000    21.748     6.635
  49   6 C     -0.006  1.065  2.941  0.000    20.692     6.477
  50  16 S     -0.249  1.926  4.270  0.053   151.764    20.734
  51   6 C     -0.065  1.054  3.010  0.000    21.811     6.662
  52   1 H      0.159  0.841  0.000  0.000     1.339     1.813
  53   1 H      0.054  0.946  0.000  0.000     2.275     2.359
  54   1 H      0.046  0.954  0.000  0.000     2.367     2.406
  55   1 H      0.049  0.951  0.000  0.000     2.330     2.387
  56   1 H      0.051  0.949  0.000  0.000     2.307     2.375
  57   1 H      0.046  0.954  0.000  0.000     2.371     2.408
  58   1 H      0.070  0.930  0.000  0.000     2.080     2.255
  59   1 H      0.065  0.935  0.000  0.000     2.141     2.288
  60   1 H      0.064  0.936  0.000  0.000     2.148     2.292
  61   7 N     -0.186  1.245  3.940  0.000    25.022     7.429
  62   6 C      0.018  1.061  2.921  0.000    20.290     6.415
  63   6 C      0.266  1.045  2.689  0.000    22.505     7.769
  64   8 O     -0.472  1.730  4.742  0.000    23.179     6.455
  65   6 C     -0.128  1.043  3.085  0.000    23.014     6.840
  66   1 H      0.221  0.779  0.000  0.000     1.007     1.572
  67   1 H      0.075  0.925  0.000  0.000     2.033     2.230
  68   1 H      0.079  0.921  0.000  0.000     1.991     2.206
  69   1 H      0.059  0.941  0.000  0.000     2.214     2.327
  70   1 H      0.065  0.935  0.000  0.000     2.137     2.286
  71   7 N     -0.149  1.232  3.917  0.000    24.225     7.310
  72   6 C     -0.012  1.069  2.943  0.000    20.790     6.493
  73   6 C      0.274  1.039  2.687  0.000    22.376     7.747
  74   8 O     -0.445  1.699  4.746  0.000    22.599     6.374
  75   6 C      0.064  1.041  2.895  0.000    19.719     6.362
  76   8 O     -0.459  1.708  4.750  0.000    22.021     6.335
  77   1 H      0.229  0.771  0.000  0.000     0.969     1.542
  78   1 H      0.111  0.889  0.000  0.000     1.686     2.031
  79   1 H      0.029  0.971  0.000  0.000     2.601     2.522
  80   1 H      0.074  0.926  0.000  0.000     2.047     2.238
  81   1 H      0.327  0.673  0.000  0.000     0.645     1.262
  82   7 N     -0.146  1.235  3.910  0.000    24.156     7.300
  83   6 C     -0.000  1.068  2.932  0.000    20.589     6.461
  84   6 C      0.279  1.042  2.679  0.000    22.281     7.729
  85   8 O     -0.466  1.736  4.730  0.000    23.045     6.436
  86   6 C      0.060  1.042  2.897  0.000    19.782     6.372
  87   8 O     -0.495  1.729  4.765  0.000    22.774     6.442
  88   1 H      0.211  0.789  0.000  0.000     1.052     1.607
  89   1 H      0.122  0.878  0.000  0.000     1.595     1.975
  90   1 H      0.049  0.951  0.000  0.000     2.330     2.387
  91   1 H      0.081  0.919  0.000  0.000     1.967     2.194
  92   1 H      0.343  0.657  0.000  0.000     0.604     1.221
  93   7 N     -0.174  1.251  3.923  0.000    24.776     7.393
  94   6 C      0.028  1.058  2.915  0.000    20.117     6.387
  95   6 C      0.259  1.047  2.694  0.000    22.636     7.792
  96   8 O     -0.498  1.736  4.763  0.000    23.744     6.533
  97   6 C     -0.073  1.057  3.016  0.000    21.895     6.661
  98   6 C     -0.093  1.062  3.031  0.000    22.267     6.719
  99   6 C      0.369  1.024  2.608  0.000    20.749     7.454
 100   8 O     -0.619  1.781  4.838  0.000    26.594     6.914
 101   8 O     -0.587  1.747  4.840  0.000    25.774     6.808
 102   1 H      0.222  0.778  0.000  0.000     1.000     1.567
 103   1 H      0.051  0.949  0.000  0.000     2.312     2.378
 104   1 H      0.082  0.918  0.000  0.000     1.961     2.190
 105   1 H      0.063  0.937  0.000  0.000     2.163     2.300
 106   1 H      0.017  0.983  0.000  0.000     2.776     2.605
 107   1 H      0.042  0.958  0.000  0.000     2.429     2.437
 108   7 N     -0.075  1.229  3.846  0.000    22.691     7.075
 109   6 C      0.032  1.058  2.910  0.000    20.018     6.367
 110   6 C      0.259  1.044  2.697  0.000    22.639     7.793
 111   8 O     -0.499  1.739  4.760  0.000    23.766     6.536
 112   6 C     -0.048  1.049  2.998  0.000    21.404     6.583
 113   6 C     -0.057  1.046  3.011  0.000    21.576     6.609
 114   6 C      0.005  1.048  2.948  0.000    20.521     6.454
 115   1 H      0.047  0.953  0.000  0.000     2.363     2.404
 116   1 H      0.043  0.957  0.000  0.000     2.410     2.428
 117   1 H      0.036  0.964  0.000  0.000     2.501     2.473
 118   1 H      0.049  0.951  0.000  0.000     2.330     2.387
 119   1 H      0.044  0.956  0.000  0.000     2.393     2.419
 120   1 H      0.064  0.936  0.000  0.000     2.151     2.293
 121   1 H      0.070  0.930  0.000  0.000     2.088     2.259
 122   7 N     -0.070  1.228  3.842  0.000    22.597     7.060
 123   6 C      0.013  1.068  2.919  0.000    20.337     6.416
 124   6 C      0.282  1.043  2.675  0.000    22.222     7.720
 125   8 O     -0.484  1.754  4.729  0.000    23.427     6.489
 126   6 C     -0.076  1.056  3.020  0.000    21.936     6.665
 127   6 C     -0.071  1.051  3.019  0.000    21.824     6.647
 128   6 C      0.001  1.047  2.952  0.000    20.594     6.467
 129   1 H      0.092  0.908  0.000  0.000     1.857     2.131
 130   1 H      0.060  0.940  0.000  0.000     2.204     2.322
 131   1 H      0.098  0.902  0.000  0.000     1.806     2.102
 132   1 H      0.073  0.927  0.000  0.000     2.051     2.240
 133   1 H      0.082  0.918  0.000  0.000     1.958     2.188
 134   1 H      0.051  0.949  0.000  0.000     2.314     2.379
 135   1 H      0.042  0.958  0.000  0.000     2.425     2.435
 136   7 N     -0.197  1.244  3.954  0.000    25.288     7.469
 137   6 C      0.031  1.052  2.917  0.000    20.036     6.371
 138   6 C      0.270  1.040  2.691  0.000    22.446     7.758
 139   8 O     -0.485  1.745  4.740  0.000    23.461     6.494
 140   6 C     -0.023  1.071  2.952  0.000    20.982     6.522
 141  16 S     -0.121  1.942  4.081  0.097   146.125    20.345
 142   1 H      0.216  0.784  0.000  0.000     1.028     1.588
 143   1 H      0.070  0.930  0.000  0.000     2.089     2.260
 144   1 H      0.061  0.939  0.000  0.000     2.184     2.311
 145   1 H      0.088  0.912  0.000  0.000     1.895     2.153
 146   7 N     -0.147  1.225  3.922  0.000    24.189     7.305
 147   6 C      0.023  1.062  2.915  0.000    20.198     6.400
 148   6 C      0.194  1.086  2.719  0.000    23.853     7.999
 149   8 O     -0.351  1.747  4.604  0.000    20.717     6.102
 150   6 C     -0.016  1.064  2.952  0.000    20.818     6.490
 151   6 C     -0.115  1.038  3.077  0.000    22.751     6.801
 152   6 C     -0.124  1.039  3.085  0.000    22.929     6.828
 153   1 H      0.216  0.784  0.000  0.000     1.026     1.587
 154   1 H      0.083  0.917  0.000  0.000     1.945     2.181
 155   1 H      0.058  0.942  0.000  0.000     2.217     2.329
 156   1 H      0.062  0.938  0.000  0.000     2.176     2.307
 157   1 H      0.042  0.958  0.000  0.000     2.421     2.433
 158   1 H      0.044  0.956  0.000  0.000     2.393     2.419
 159   1 H      0.063  0.937  0.000  0.000     2.159     2.298
 160   1 H      0.057  0.943  0.000  0.000     2.234     2.337
 161   1 H      0.050  0.950  0.000  0.000     2.322     2.383
 162   7 N     -0.418  1.327  4.091  0.000    30.890     8.254
 163   6 C      0.035  1.056  2.909  0.000    20.001     6.370
 164   6 C      0.269  1.050  2.680  0.000    22.450     7.759
 165   8 O     -0.513  1.752  4.761  0.000    24.076     6.579
 166   6 C     -0.058  1.055  3.003  0.000    21.610     6.617
 167   6 C     -0.005  1.056  2.948  0.000    20.626     6.460
 168   6 C     -0.112  1.040  3.072  0.000    22.703     6.793
 169   6 C     -0.113  1.038  3.074  0.000    22.717     6.796
 170   1 H      0.185  0.815  0.000  0.000     1.184     1.705
 171   1 H      0.044  0.956  0.000  0.000     2.396     2.420
 172   1 H      0.022  0.978  0.000  0.000     2.708     2.574
 173   1 H      0.027  0.973  0.000  0.000     2.629     2.536
 174   1 H      0.024  0.976  0.000  0.000     2.678     2.559
 175   1 H      0.049  0.951  0.000  0.000     2.332     2.388
 176   1 H      0.032  0.968  0.000  0.000     2.565     2.505
 177   1 H      0.042  0.958  0.000  0.000     2.427     2.436
 178   1 H      0.047  0.953  0.000  0.000     2.359     2.402
 179   1 H      0.036  0.964  0.000  0.000     2.503     2.474
 180   1 H      0.033  0.967  0.000  0.000     2.540     2.493
 181   7 N     -0.170  1.239  3.931  0.000    24.673     7.377
 182   6 C      0.022  1.059  2.919  0.000    20.214     6.403
 183   6 C      0.197  1.088  2.715  0.000    23.794     7.989
 184   8 O     -0.352  1.754  4.598  0.000    20.738     6.106
 185   6 C     -0.058  1.050  3.008  0.000    21.617     6.619
 186   6 C     -0.097  1.057  3.040  0.000    22.348     6.730
 187   6 C      0.290  1.038  2.672  0.000    22.076     7.693
 188   8 O     -0.479  1.736  4.743  0.000    23.329     6.476
 189   7 N     -0.277  1.264  4.013  0.000    27.152     7.739
 190   1 H      0.220  0.780  0.000  0.000     1.008     1.573
 191   1 H      0.089  0.911  0.000  0.000     1.893     2.152
 192   1 H      0.068  0.932  0.000  0.000     2.109     2.271
 193   1 H      0.069  0.931  0.000  0.000     2.097     2.264
 194   1 H      0.076  0.924  0.000  0.000     2.025     2.226
 195   1 H      0.060  0.940  0.000  0.000     2.200     2.320
 196   1 H      0.195  0.805  0.000  0.000     1.131     1.666
 197   1 H      0.226  0.774  0.000  0.000     0.982     1.552
 198   7 N     -0.382  1.319  4.064  0.000    29.888     8.119
 199   6 C      0.046  1.052  2.901  0.000    19.814     6.341
 200   6 C      0.200  1.090  2.711  0.000    23.748     7.981
 201   8 O     -0.360  1.753  4.607  0.000    20.890     6.128
 202   6 C     -0.060  1.056  3.005  0.000    21.652     6.624
 203   6 C     -0.059  1.049  3.010  0.000    21.632     6.622
 204   6 C     -0.082  1.051  3.031  0.000    22.057     6.686
 205   6 C     -0.024  1.052  2.973  0.000    21.104     6.557
 206   7 N     -0.189  1.256  3.933  0.000    25.085     7.439
 207   1 H      0.170  0.830  0.000  0.000     1.272     1.767
 208   1 H      0.033  0.967  0.000  0.000     2.544     2.494
 209   1 H      0.037  0.963  0.000  0.000     2.484     2.465
 210   1 H      0.050  0.950  0.000  0.000     2.318     2.381
 211   1 H      0.050  0.950  0.000  0.000     2.324     2.384
 212   1 H      0.020  0.980  0.000  0.000     2.732     2.585
 213   1 H      0.068  0.932  0.000  0.000     2.112     2.273
 214   1 H      0.066  0.934  0.000  0.000     2.133     2.284
 215   1 H      0.109  0.891  0.000  0.000     1.707     2.043
 216   1 H      0.079  0.921  0.000  0.000     1.990     2.206
 217   1 H      0.273  0.727  0.000  0.000     0.800     1.401
 218   1 H      0.304  0.696  0.000  0.000     0.699     1.309
 219   1 H      0.270  0.730  0.000  0.000     0.812     1.411
 220   7 N     -0.392  1.315  4.078  0.000    30.160     8.156
 221   6 C      0.047  1.057  2.897  0.000    19.808     6.340
 222   6 C      0.201  1.087  2.712  0.000    23.730     7.978
 223   8 O     -0.372  1.758  4.614  0.000    21.123     6.162
 224   6 C     -0.047  1.050  2.997  0.000    21.405     6.585
 225   6 C      0.005  1.078  2.917  0.000    27.911     8.666
 226   6 C     -0.031  1.079  2.953  0.000    28.782     8.798
 227   6 C     -0.040  1.080  2.960  0.000    29.003     8.832
 228   6 C     -0.059  1.072  2.987  0.000    29.468     8.902
 229   6 C     -0.076  1.078  2.998  0.000    29.903     8.967
 230   6 C      0.143  1.044  2.813  0.000    24.877     8.174
 231   8 O     -0.423  1.717  4.706  0.000    21.292     6.229
 232   1 H      0.173  0.827  0.000  0.000     1.252     1.753
 233   1 H      0.056  0.944  0.000  0.000     2.244     2.343
 234   1 H      0.018  0.982  0.000  0.000     2.766     2.601
 235   1 H      0.044  0.956  0.000  0.000     2.394     2.420
 236   1 H      0.008  0.992  0.000  0.000     2.927     2.676
 237   1 H      0.039  0.961  0.000  0.000     2.460     2.453
 238   1 H      0.036  0.964  0.000  0.000     2.504     2.475
 239   1 H      0.067  0.933  0.000  0.000     2.119     2.276
 240   1 H      0.345  0.655  0.000  0.000     0.601     1.218
 241   7 N     -0.384  1.300  4.083  0.000    29.919     8.124
 242   6 C      0.039  1.054  2.907  0.000    19.926     6.358
 243   6 C      0.266  1.050  2.684  0.000    22.520     7.771
 244   8 O     -0.517  1.769  4.749  0.000    24.172     6.592
 245   6 C     -0.120  1.069  3.052  0.000    22.794     6.797
 246   6 C      0.296  1.034  2.670  0.000    21.977     7.676
 247   8 O     -0.494  1.746  4.749  0.000    23.662     6.522
 248   7 N     -0.282  1.267  4.015  0.000    27.274     7.756
 249   1 H      0.168  0.832  0.000  0.000     1.286     1.776
 250   1 H      0.069  0.931  0.000  0.000     2.092     2.262
 251   1 H      0.072  0.928  0.000  0.000     2.058     2.244
 252   1 H      0.093  0.907  0.000  0.000     1.846     2.125
 253   1 H      0.233  0.767  0.000  0.000     0.953     1.529
 254   1 H      0.235  0.765  0.000  0.000     0.945     1.523
 255   7 N     -0.184  1.246  3.937  0.000    24.980     7.423
 256   6 C      0.026  1.058  2.917  0.000    20.154     6.393
 257   6 C      0.196  1.087  2.718  0.000    23.825     7.994
 258   8 O     -0.354  1.752  4.601  0.000    20.780     6.112
 259   6 C     -0.081  1.058  3.023  0.000    22.033     6.682
 260   6 C     -0.076  1.051  3.025  0.000    21.952     6.670
 261   6 C     -0.097  1.055  3.042  0.000    22.353     6.731
 262   6 C     -0.049  1.057  2.992  0.000    21.550     6.626
 263   7 N     -0.161  1.233  3.929  0.000    24.479     7.348
 264   1 H      0.225  0.775  0.000  0.000     0.987     1.556
 265   1 H      0.086  0.914  0.000  0.000     1.922     2.168
 266   1 H      0.073  0.927  0.000  0.000     2.051     2.239
 267   1 H      0.080  0.920  0.000  0.000     1.974     2.197
 268   1 H      0.048  0.952  0.000  0.000     2.347     2.396
 269   1 H      0.062  0.938  0.000  0.000     2.180     2.309
 270   1 H      0.084  0.916  0.000  0.000     1.943     2.180
 271   1 H      0.084  0.916  0.000  0.000     1.942     2.179
 272   1 H      0.107  0.893  0.000  0.000     1.724     2.053
 273   1 H      0.117  0.883  0.000  0.000     1.641     2.003
 274   1 H      0.300  0.700  0.000  0.000     0.714     1.324
 275   1 H      0.292  0.708  0.000  0.000     0.738     1.346
 276   1 H      0.308  0.692  0.000  0.000     0.691     1.302
 277   7 N     -0.395  1.316  4.079  0.000    30.226     8.165
 278   6 C      0.036  1.057  2.908  0.000    19.994     6.369
 279   6 C      0.203  1.083  2.715  0.000    23.692     7.971
 280   8 O     -0.360  1.753  4.607  0.000    20.894     6.128
 281   6 C      0.121  1.045  2.834  0.000    18.698     6.174
 282   8 O     -0.491  1.740  4.751  0.000    22.696     6.431
 283   6 C     -0.141  1.046  3.095  0.000    23.273     6.879
 284   1 H      0.192  0.808  0.000  0.000     1.148     1.678
 285   1 H      0.058  0.942  0.000  0.000     2.228     2.334
 286   1 H      0.003  0.997  0.000  0.000     3.008     2.712
 287   1 H      0.327  0.673  0.000  0.000     0.644     1.261
 288   1 H      0.070  0.930  0.000  0.000     2.087     2.259
 289   1 H      0.061  0.939  0.000  0.000     2.184     2.311
 290   1 H      0.074  0.926  0.000  0.000     2.043     2.235
 291   7 N     -0.386  1.317  4.069  0.000    29.982     8.132
 292   6 C      0.058  1.051  2.892  0.000    19.632     6.312
 293   6 C      0.208  1.087  2.705  0.000    23.586     7.954
 294   8 O     -0.381  1.745  4.636  0.000    21.309     6.189
 295   6 C     -0.069  1.070  2.999  0.000    21.817     6.650
 296   6 C      0.371  1.022  2.607  0.000    20.713     7.448
 297   8 O     -0.642  1.771  4.871  0.000    27.162     6.987
 298   8 O     -0.609  1.762  4.847  0.000    26.334     6.880
 299   1 H      0.174  0.826  0.000  0.000     1.251     1.752
 300   1 H      0.045  0.955  0.000  0.000     2.390     2.417
 301   1 H      0.024  0.976  0.000  0.000     2.670     2.555
 302   1 H     -0.003  1.003  0.000  0.000     3.107     2.756
 303   7 N     -0.374  1.314  4.060  0.000    29.659     8.088
 304   6 C      0.037  1.059  2.904  0.000    19.971     6.366
 305   6 C      0.205  1.089  2.706  0.000    23.647     7.964
 306   8 O     -0.364  1.754  4.610  0.000    20.975     6.140
 307   6 C     -0.013  1.067  2.946  0.000    20.778     6.483
 308   6 C     -0.034  1.043  2.991  0.000    21.186     6.553
 309   6 C     -0.116  1.039  3.077  0.000    22.787     6.807
 310   6 C     -0.093  1.031  3.062  0.000    22.338     6.740
 311   1 H      0.158  0.842  0.000  0.000     1.350     1.820
 312   1 H      0.051  0.949  0.000  0.000     2.304     2.374
 313   1 H      0.033  0.967  0.000  0.000     2.538     2.492
 314   1 H      0.001  0.999  0.000  0.000     3.040     2.727
 315   1 H      0.029  0.971  0.000  0.000     2.598     2.521
 316   1 H      0.050  0.950  0.000  0.000     2.322     2.383
 317   1 H      0.042  0.958  0.000  0.000     2.423     2.434
 318   1 H      0.049  0.951  0.000  0.000     2.329     2.387
 319   1 H      0.023  0.977  0.000  0.000     2.687     2.563
 320   1 H      0.047  0.953  0.000  0.000     2.357     2.401
 321   1 H      0.026  0.974  0.000  0.000     2.639     2.540
 322   7 N     -0.390  1.316  4.074  0.000    30.098     8.148
 323   6 C      0.037  1.057  2.906  0.000    19.974     6.367
 324   6 C      0.198  1.087  2.715  0.000    23.784     7.987
 325   8 O     -0.400  1.768  4.633  0.000    21.691     6.244
 326   6 C     -0.123  1.045  3.077  0.000    22.905     6.824
 327   1 H      0.153  0.847  0.000  0.000     1.383     1.843
 328   1 H      0.081  0.919  0.000  0.000     1.970     2.195
 329   1 H      0.069  0.931  0.000  0.000     2.100     2.266
 330   1 H      0.079  0.921  0.000  0.000     1.993     2.208
 331   1 H      0.044  0.956  0.000  0.000     2.392     2.419
 332   1 H      0.189  0.811  0.000  0.000     1.161     1.688
 333   1 H      0.049  0.951  0.000  0.000     2.334     2.389
 334   1 H      0.171  0.829  0.000  0.000     1.267     1.763
 335   1 H      0.056  0.944  0.000  0.000     2.245     2.343
 336   1 H      0.165  0.835  0.000  0.000     1.302     1.787
 337   1 H      0.076  0.924  0.000  0.000     2.019     2.222
 338   1 H      0.188  0.812  0.000  0.000     1.170     1.695
 339   1 H      0.069  0.931  0.000  0.000     2.094     2.263
 340   1 H      0.083  0.917  0.000  0.000     1.947     2.182
 341   1 H      0.176  0.824  0.000  0.000     1.238     1.743
 342   1 H      0.085  0.915  0.000  0.000     1.930     2.172
 343   1 H      0.175  0.825  0.000  0.000     1.241     1.745
 344   1 H      0.083  0.917  0.000  0.000     1.947     2.182
 345   1 H      0.171  0.829  0.000  0.000     1.264     1.761
 346   1 H      0.073  0.927  0.000  0.000     2.049     2.238
 347   1 H      0.177  0.823  0.000  0.000     1.232     1.739
 348   1 H      0.071  0.929  0.000  0.000     2.075     2.253
 349   1 H      0.148  0.852  0.000  0.000     1.411     1.861
 350   1 H      0.065  0.935  0.000  0.000     2.143     2.289

 Mol. C6AA /au·bohr⁶  :    1141941.415864
 Mol. C8AA /au·bohr⁸  :   26210246.688519
 Mol. α(0) /au        :       1603.068030

 
molecular dipole:
                 x           y           z       tot (Debye)
 q only:      -21.828      51.388     -35.264
   full:      -20.506      52.171     -34.495     167.301
molecular quadrupole (traceless):
                xx          xy          yy          xz          yz          zz
 q only:    -3772.050   -2548.629    2905.514    1471.199   -2614.617     866.535
  q+dip:    -3781.782   -2386.164    3030.151    1441.707   -2598.321     751.630
   full:    -3769.883   -2388.094    3021.277    1441.158   -2599.335     748.607
speedup  1.98
cpu  time for grad   20.61 s
wall time for grad   10.42 s

SCC energy    :    -540.0922758
rep           :       6.3865394
ES            :       1.7302402
AES           :      -0.0963004
AXC           :       0.1969482
disp          :      -0.4250844
XB            :       0.0000000
fix           :       0.0000000
Gborn         :       0.0000000
Gsasa         :       0.0000000
Ghb           :       0.0000000
Gshift        :       0.0000000
Gsolv         :      -0.5119418     -321.25
Etot ala COSMO:    -540.0922758
grad norm     :       0.6910204
total E       :    -533.6707554
atomizationE  :      94.8383317    59511.95
(atE without considering molecular charge,
 total energy contains solvation terms)
H-L gap (eV)  :          1.3738

------------------------------------------------------------------------
 * finished run on 2019/05/10 at 16:39:18.789     
------------------------------------------------------------------------
 total:
 * wall-time:     0 d,  0 h,  0 min, 10.869 sec
 *  cpu-time:     0 d,  0 h,  0 min, 21.444 sec
 * ratio c/w:     1.973 speedup
 SCF:
 * wall-time:     0 d,  0 h,  0 min, 10.717 sec
 *  cpu-time:     0 d,  0 h,  0 min, 21.199 sec
 * ratio c/w:     1.978 speedup

