      -----------------------------------------------------------      
     |                   =====================                   |     
     |                           x T B                           |     
     |                   =====================                   |     
     |                         S. Grimme                         |     
     |          Mulliken Center for Theoretical Chemistry        |     
     |                    University of Bonn                     |     
     |                 Version 6.0.1 (SAW181210)                 |     
      -----------------------------------------------------------      

   This program is distributed in the hope that it will be useful,
   but WITHOUT ANY WARRANTY; without even the implied warranty of
   MERCHANTABILITY or FITNESS FOR A PARTICULAR PURPOSE.
   
   FOR NON-COMMERCIAL, ACADEMIA USE ONLY.
   
   Cite this work as:
   S. Grimme, C. Bannwarth, P. Shushkov, J. Comput. Theory Chem., 2017,
   13, 1989-2009.
   C. Bannwarth, S. Ehlert and S. Grimme., ChemRxiv, 2018, preprint.
   http://doi.org/10.26434/chemrxiv.7246238.v1
   
   for sTDA-xTB:
   S. Grimme and C. Bannwarth, J. Chem. Phys., 2016, 145, 054103.
   
   in the mass-spec context:
   V. Asgeirsson, C. Bauer and S. Grimme, Chem. Sci., 2017, 8, 4879.
   
   if GBSA is used:
   P. Shushkov, F. März and S. Grimme, unpublished.
   
   for ANC optimizer:
   S. Grimme, unpublished.
   Rational Function algorithm used in ANCopt:
   F. Eckert, P. Pulay, H.-J. Werner, J. Comput. Chem., 1997, 18, 1473.
   
   with help from (in alphabetical order)
   C. Bannwarth, F. Bohle, G. Brandenburg, E. Caldeweyher, M. Checinski,
   S. Dohm, S. Ehlert, S. Ehrlich, F. März, H. Neugebauer, J. Pisarek,
   P. Pracht, P. Shushkov, and S. Spicher.
   
 * started run on 2019/05/08 at 09:27:20.014     
========================================================================
 # omp threads = 2
========================================================================
number of atoms            : 385
number of electrons        : 1018
charge                     : 1
spin                       : .0
first test random number   : .5243

########################################################################
# WARNING! Please study the warnings concerning your input carefully
#  - Process number higher than OMP_NUM_THREADS, I hope you know what you are doing.
########################################################################

           ------------------------------------------------- 
          |                 G F N 2 - x T B                 |
          | Geometry, Frequencies, Noncovalent interactions |
          |            JCTC 2018 parametrisation            |
           ------------------------------------------------- 
 
      method parameters     
 k(s)        :  1.8500
 k(p)        :  2.2300
 k(d)        :  2.2300
 k(f)        :  2.0000
 kEN (H0ij)  : -2.0000
 D4 a1       :  0.5200
 D4 a2       :  5.0000
 D4 s6       :  1.0000
 D4 s8       :  2.7000
 D4 s9       :  5.0000
 alphaj      :  2.0000

 Solvent             : h2o
 Using internal parameter file: .param_gbsa2_h2o
 Gsolv ref. state (COSMO-RS): gsolv [1 M gas/solution]
 temperature (mdtemp)       :    298.150000000000     
 dielectric constant        :    80.2000000000000     
 rho                        :    1.00000000000000     
 mass                       :    18.0000000000000     
 surface tension            :    15.5689454083859     
 probe radius               :   0.975313790000000     
 vdW radii scaling          :    1.00000000000000     
 Gshift (Eh)                :   1.857443126794793E-003
 c1                         :    1.55243817000000     
 soset                      :   0.130326360000000     
 HB correction              :  T

            Z     q(EN)     CN     RAES       Cart. coordinates
     1  N   5.0   -0.11    4.04    2.97    12.75709   183.86467    -8.62398
     2  C   4.0    0.01    4.34    4.28    10.81377   182.00397    -7.83574
     3  C   4.0    0.16    3.45    3.10     9.78463   182.41933    -5.11106
     4  O   6.0   -0.31    1.22    1.80    10.84057   181.66432    -3.21270
     5  C   4.0    0.04    4.17    3.94    11.53526   179.19440    -7.78042
     6  O   6.0   -0.26    2.13    1.84     9.28668   177.97661    -7.01670
     7  H   1.0    0.07    1.02    1.43    13.53654   183.32662   -10.33227
     8  H   1.0    0.08    1.02    1.43    11.91443   185.61132    -8.85794
     9  H   1.0    0.07    1.02    1.43    14.19808   183.96730    -7.30738
    10  H   1.0    0.06    1.06    1.44     9.22972   182.19537    -9.14936
    11  H   1.0    0.05    1.00    1.43    12.22667   178.50050    -9.60023
    12  H   1.0    0.06    1.01    1.43    12.93992   178.82403    -6.31104
    13  H   1.0    0.15    1.05    1.44     8.27665   177.56518    -8.50393
    14  N   5.0   -0.15    3.56    2.12     7.53401   183.50466    -5.26799
    15  C   4.0    0.04    4.35    4.30     5.90316   184.14936    -3.19239
    16  C   4.0    0.14    3.36    3.07     4.53354   181.89197    -1.95747
    17  O   6.0   -0.30    1.21    1.80     3.30676   182.22417    -0.02214
    18  C   4.0   -0.04    4.23    4.07     3.94944   186.12175    -4.13206
    19  C   4.0   -0.03    4.18    3.95     3.06810   185.81283    -6.89450
    20  C   4.0    0.25    3.10    3.02     4.67503   187.33032    -8.86860
    21  O   6.0   -0.26    1.16    1.80     3.55262   189.01258   -10.04401
    22  O   6.0   -0.30    1.27    1.80     6.97836   186.73295    -9.12215
    23  H   1.0    0.11    1.21    1.47     7.19404   184.56053    -6.90144
    24  H   1.0    0.05    1.05    1.44     6.98389   185.00843    -1.64102
    25  H   1.0    0.06    1.03    1.43     2.31741   186.04127    -2.87319
    26  H   1.0    0.06    1.03    1.43     4.77339   188.00481    -3.94987
    27  H   1.0    0.05    1.02    1.43     3.01747   183.82267    -7.44253
    28  H   1.0    0.06    1.03    1.43     1.15447   186.55889    -7.06556
    29  N   5.0   -0.14    3.43    2.04     4.82222   179.64165    -3.12248
    30  C   4.0    0.03    4.27    4.13     3.32040   177.37976    -2.51065
    31  C   4.0    0.15    3.35    3.07     4.86572   175.48336    -0.85234
    32  O   6.0   -0.31    1.29    1.80     4.40695   175.10050     1.38822
    33  C   4.0   -0.07    4.08    3.76     2.31262   176.23544    -4.98933
    34  H   1.0    0.09    1.08    1.44     5.92428   179.53543    -4.68178
    35  H   1.0    0.06    1.06    1.44     1.74989   178.03320    -1.32689
    36  H   1.0    0.04    1.00    1.43     1.31826   174.48347    -4.59795
    37  H   1.0    0.05    1.00    1.43     0.99148   177.54976    -5.85729
    38  H   1.0    0.05    1.00    1.43     3.81960   175.87346    -6.33731
    39  N   5.0   -0.15    3.47    2.06     6.78458   174.39497    -2.06109
    40  C   4.0    0.03    4.33    4.26     8.90746   173.01430    -0.95325
    41  C   4.0    0.16    3.47    3.10     9.35931   173.97636     1.77835
    42  O   6.0   -0.30    1.33    1.80     9.18785   172.57026     3.60958
    43  C   4.0   -0.05    4.29    4.18    11.20805   173.39292    -2.74258
    44  C   4.0   -0.02    4.12    3.84    11.54443   171.44531    -4.93067
    45  C   4.0   -0.08    4.09    3.78     9.07240   170.60330    -6.18238
    46  C   4.0   -0.07    4.08    3.77    13.33453   172.56475    -6.94519
    47  H   1.0    0.08    1.08    1.44     7.02000   174.81539    -3.91150
    48  H   1.0    0.05    1.05    1.44     8.44770   171.00065    -0.79386
    49  H   1.0    0.06    1.03    1.43    11.06354   175.26960    -3.58301
    50  H   1.0    0.05    1.03    1.43    12.93051   173.33205    -1.61264
    51  H   1.0    0.04    1.05    1.44    12.42823   169.75213    -4.13695
    52  H   1.0    0.04    1.00    1.43     9.48934   169.28441    -7.70186
    53  H   1.0    0.04    1.00    1.43     7.83791   169.66494    -4.84071
    54  H   1.0    0.04    1.00    1.43     8.10460   172.22509    -6.99514
    55  H   1.0    0.05    1.00    1.43    13.74002   171.17142    -8.40185
    56  H   1.0    0.05    1.00    1.43    12.43698   174.16319    -7.86118
    57  H   1.0    0.05    1.00    1.43    15.11013   173.16792    -6.11351
    58  N   5.0   -0.14    3.47    2.06     9.96001   176.42704     1.95120
    59  C   4.0    0.03    4.35    4.28     9.79029   177.94981     4.24714
    60  C   4.0    0.17    3.50    3.12     8.88181   176.26417     6.46525
    61  O   6.0   -0.29    1.22    1.80    10.24061   175.63389     8.22530
    62  C   4.0   -0.04    4.27    4.14     8.00026   180.21554     3.70599
    63  C   4.0   -0.05    4.17    3.95     8.92634   182.78945     4.59658
    64  C   4.0   -0.04    4.17    3.94    11.10330   183.73551     2.94944
    65  C   4.0   -0.03    4.13    3.86    11.51956   186.53871     3.45894
    66  N   5.0   -0.12    4.00    2.86    13.80479   187.53723     2.13063
    67  H   1.0    0.09    1.07    1.44    10.10438   177.43556     0.32981
    68  H   1.0    0.05    1.05    1.44    11.69597   178.60770     4.72219
    69  H   1.0    0.06    1.04    1.43     7.71959   180.32448     1.66383
    70  H   1.0    0.05    1.04    1.43     6.14569   179.85365     4.50719
    71  H   1.0    0.05    1.03    1.43     7.33710   184.09537     4.47788
    72  H   1.0    0.04    1.02    1.43     9.50328   182.66756     6.57097
    73  H   1.0    0.05    1.03    1.43    12.80405   182.67245     3.42132
    74  H   1.0    0.06    1.03    1.43    10.66916   183.39455     0.96376
    75  H   1.0    0.05    1.02    1.43     9.86945   187.61930     2.86600
    76  H   1.0    0.05    1.02    1.43    11.77982   186.81308     5.48743
    77  H   1.0    0.06    1.02    1.43    14.04416   189.42731     2.53287
    78  H   1.0    0.06    1.02    1.43    15.38695   186.56866     2.73217
    79  H   1.0    0.06    1.02    1.43    13.63246   187.30526     0.20611
    80  N   5.0   -0.14    3.59    2.15     6.41145   175.72621     6.35974
    81  C   4.0    0.04    4.50    4.54     5.18797   174.48830     8.42820
    82  C   4.0    0.14    3.59    3.16     4.20209   171.83201     7.95334
    83  O   6.0   -0.31    1.40    1.80     3.64475   170.58683     9.84205
    84  C   4.0   -0.02    4.31    4.21     3.01012   176.14375     9.49516
    85  C   4.0   -0.04    4.20    3.99     0.43588   175.35267     8.34592
    86  C   4.0   -0.07    4.12    3.85     3.62422   178.96559     9.05791
    87  C   4.0   -0.07    4.01    3.63    -1.14133   173.49845     9.90549
    88  H   1.0    0.11    1.10    1.44     5.43279   175.96194     4.73454
    89  H   1.0    0.07    1.08    1.44     6.64799   174.28537     9.88949
    90  H   1.0    0.06    1.08    1.44     2.92097   175.79592    11.52216
    91  H   1.0    0.04    1.03    1.43    -0.70062   177.06095     8.09123
    92  H   1.0    0.05    1.03    1.43     0.73773   174.56539     6.46118
    93  H   1.0    0.04    1.00    1.43     2.40117   180.11071    10.24627
    94  H   1.0    0.05    1.00    1.43     5.57445   179.35054     9.56168
    95  H   1.0    0.05    1.00    1.43     3.28563   179.49487     7.10579
    96  H   1.0    0.04    1.00    1.43    -2.82894   172.98476     8.84626
    97  H   1.0    0.07    1.02    1.43    -0.10698   171.78656    10.34273
    98  H   1.0    0.05    1.00    1.43    -1.73021   174.34829    11.67949
    99  N   5.0   -0.14    3.45    2.05     3.96293   170.87838     5.60108
   100  C   4.0    0.03    4.39    4.36     3.60903   168.13784     5.39691
   101  C   4.0    0.15    3.45    3.09     5.78531   166.85621     6.82668
   102  O   6.0   -0.29    1.22    1.80     5.52249   164.72152     7.66541
   103  C   4.0   -0.05    4.24    4.09     3.20451   166.98342     2.73232
   104  C   4.0   -0.02    4.15    3.90     2.10815   164.24418     2.69290
   105  C   4.0   -0.08    4.10    3.81    -0.74997   164.08790     3.04177
   106  C   4.0   -0.08    4.13    3.86     2.66813   163.02280     0.15235
   107  H   1.0    0.11    1.06    1.44     4.50512   171.89088     4.07380
   108  H   1.0    0.05    1.06    1.44     1.91532   167.67277     6.50186
   109  H   1.0    0.04    1.02    1.43     1.91183   168.21618     1.70256
   110  H   1.0    0.04    1.03    1.43     5.01240   166.94312     1.73583
   111  H   1.0    0.06    1.05    1.44     3.04055   163.15619     4.18720
   112  H   1.0    0.04    1.00    1.43    -1.34634   162.13039     3.22703
   113  H   1.0    0.04    1.00    1.43    -1.36226   165.11882     4.70626
   114  H   1.0    0.04    1.00    1.43    -1.69313   164.88676     1.39883
   115  H   1.0    0.04    1.00    1.43     2.01056   161.07822     0.14481
   116  H   1.0    0.04    1.00    1.43     1.71443   164.03192    -1.36038
   117  H   1.0    0.04    1.00    1.43     4.68456   163.00445    -0.25823
   118  N   5.0   -0.14    3.53    2.10     7.87085   168.30809     7.24166
   119  C   4.0    0.04    4.41    4.40    10.00184   167.42818     8.71630
   120  C   4.0    0.16    3.47    3.10     9.74370   167.90369    11.54377
   121  O   6.0   -0.28    1.29    1.80    11.18582   166.82731    13.02715
   122  C   4.0   -0.03    4.30    4.20    12.49874   168.61587     7.83911
   123  C   4.0    0.16    3.25    3.04    14.68131   166.94756     8.74135
   124  O   6.0   -0.29    1.20    1.80    15.14795   164.91035     7.75561
   125  N   5.0   -0.16    3.18    1.95    16.01360   167.81913    10.71530
   126  H   1.0    0.11    1.10    1.44     8.18296   169.83386     6.12673
   127  H   1.0    0.07    1.06    1.44    10.14691   165.35967     8.51592
   128  H   1.0    0.06    1.03    1.43    12.52438   168.60191     5.77900
   129  H   1.0    0.06    1.02    1.43    12.65024   170.55770     8.50919
   130  H   1.0    0.11    1.03    1.43    17.53157   166.80448    11.25869
   131  H   1.0    0.09    1.03    1.43    15.76883   169.58128    11.38947
   132  N   5.0   -0.13    3.45    2.05     8.03326   169.57219    12.34767
   133  C   4.0    0.05    4.49    4.53     7.80054   169.87473    15.03271
   134  C   4.0    0.11    3.33    3.06     5.43105   168.67978    16.22320
   135  O   6.0   -0.30    1.24    1.80     3.29947   169.46618    15.86916
   136  C   4.0   -0.03    4.35    4.28     7.82374   172.62070    15.90597
   137  C   4.0    0.16    3.40    3.08     7.66469   172.22294    18.73428
   138  O   6.0   -0.29    1.27    1.80     5.66659   172.29464    19.88313
   139  N   5.0   -0.18    3.22    1.96     9.81639   171.40738    19.80483
   140  H   1.0    0.12    1.14    1.45     6.49057   170.04551    11.28424
   141  H   1.0    0.07    1.10    1.44     9.46283   168.92359    15.82482
   142  H   1.0    0.05    1.02    1.43     9.55454   173.55436    15.30757
   143  H   1.0    0.07    1.05    1.44     6.17212   173.64392    15.22625
   144  H   1.0    0.11    1.03    1.43     9.88950   171.20321    21.70240
   145  H   1.0    0.09    1.03    1.43    11.47843   171.66430    18.91221
   146  N   5.0   -0.19    3.28    1.98     0.07499   172.37586    19.90174
   147  C   4.0    0.03    4.32    4.24    -1.19774   173.93744    18.03173
   148  C   4.0    0.15    3.41    3.08    -3.01716   172.17263    16.61708
   149  O   6.0   -0.32    1.30    1.80    -5.12200   172.77277    15.89750
   150  C   4.0    0.06    4.15    3.91     0.60775   175.60624    16.39578
   151  O   6.0   -0.26    2.17    1.85     2.42735   174.29726    14.97922
   152  C   4.0   -0.06    4.06    3.73     2.03546   177.57093    17.98758
   153  H   1.0    0.13    1.05    1.44     1.99514   172.37115    19.92616
   154  H   1.0    0.05    1.06    1.44    -2.42884   175.27469    19.03953
   155  H   1.0    0.04    1.04    1.43    -0.64559   176.62479    15.07565
   156  H   1.0    0.16    1.07    1.44     2.17709   172.48355    14.99171
   157  H   1.0    0.05    1.00    1.43     3.15968   178.73376    16.72644
   158  H   1.0    0.05    1.00    1.43     0.72232   178.76063    19.01789
   159  H   1.0    0.06    1.00    1.43     3.29612   176.61753    19.29646
   160  N   5.0   -0.14    3.54    2.10    -2.09506   169.84419    16.33994
   161  C   4.0    0.04    4.32    4.23    -3.57267   167.95652    15.05364
   162  C   4.0    0.09    3.18    3.03    -5.62091   166.87428    16.85912
   163  O   6.0   -0.30    1.31    1.80    -7.82431   167.07326    16.10623
   164  C   4.0   -0.04    4.27    4.13    -1.72986   166.19687    13.61105
   165  C   4.0   -0.02    4.12    3.85    -2.72448   164.71551    11.27985
   166  C   4.0   -0.08    4.08    3.76    -4.51199   166.18316     9.52131
   167  C   4.0   -0.06    4.10    3.81    -0.44999   163.73625     9.77801
   168  H   1.0    0.11    1.10    1.44    -0.30466   169.37340    16.81662
   169  H   1.0    0.06    1.08    1.44    -4.69870   168.96499    13.64126
   170  H   1.0    0.06    1.04    1.43    -0.21549   167.42882    12.93932
   171  H   1.0    0.05    1.02    1.43    -0.90502   164.84571    14.93100
   172  H   1.0    0.05    1.05    1.44    -3.78523   163.07397    11.97095
   173  H   1.0    0.04    1.00    1.43    -4.83897   165.07294     7.82615
   174  H   1.0    0.05    1.00    1.43    -6.31990   166.47410    10.43677
   175  H   1.0    0.04    1.00    1.43    -3.70185   167.99334     8.98980
   176  H   1.0    0.04    1.00    1.43    -1.07096   162.65196     8.15547
   177  H   1.0    0.06    1.00    1.43     0.74299   165.27695     9.14849
   178  H   1.0    0.06    1.00    1.43     0.71269   162.49085    10.93127
   179  N   5.0   -0.17    3.37    2.01    -9.75932   171.40053    16.18187
   180  C   4.0    0.05    4.37    4.34   -10.83898   171.50746    13.69523
   181  C   4.0    0.11    3.28    3.05   -12.97146   169.63853    13.89346
   182  O   6.0   -0.24    1.13    1.80   -15.08625   170.36579    14.44480
   183  C   4.0   -0.05    4.30    4.20    -8.94120   171.00935    11.59873
   184  C   4.0   -0.04    4.24    4.08    -9.80555   172.38873     9.22293
   185  C   4.0    0.15    3.36    3.07   -10.72643   174.97181    10.11087
   186  O   6.0   -0.26    1.20    1.80   -12.95559   175.57807    10.10339
   187  N   5.0   -0.18    3.21    1.96    -8.89824   176.49161    11.00386
   188  H   1.0    0.14    1.19    1.46    -8.62075   169.88591    16.48008
   189  H   1.0    0.08    1.12    1.45   -11.73185   173.35604    13.55004
   190  H   1.0    0.06    1.04    1.43    -7.11861   171.73993    12.22072
   191  H   1.0    0.05    1.03    1.43    -8.77784   169.00915    11.18021
   192  H   1.0    0.04    1.02    1.43    -8.28214   172.59914     7.85344
   193  H   1.0    0.06    1.03    1.43   -11.38657   171.42155     8.32424
   194  H   1.0    0.08    1.03    1.43    -7.11887   175.86097    11.23856
   195  H   1.0    0.11    1.03    1.43    -9.39437   178.11218    11.87040
   196  N   5.0   -0.20    3.28    1.98   -12.45850   171.10000   -10.83384
   197  C   4.0    0.03    4.19    3.98   -10.62018   171.66465   -12.76439
   198  C   4.0    0.08    3.13    3.03    -8.58710   169.48362   -12.95676
   199  O   6.0   -0.28    1.10    1.80    -7.44634   168.83112   -14.85644
   200  C   4.0   -0.02    4.29    4.17    -9.62085   174.36811   -11.91290
   201  C   4.0   -0.05    4.17    3.95    -7.65081   174.24497    -9.76763
   202  C   4.0   -0.07    4.15    3.89   -11.76267   176.16104   -11.08021
   203  C   4.0   -0.07    4.00    3.63    -6.49511   176.77740    -8.98043
   204  H   1.0    0.08    1.07    1.44   -12.08807   172.11997    -9.26220
   205  H   1.0    0.05    1.04    1.43   -11.51634   171.81534   -14.62233
   206  H   1.0    0.05    1.05    1.44    -8.68093   175.18010   -13.56635
   207  H   1.0    0.04    1.03    1.43    -8.48071   173.36604    -8.10810
   208  H   1.0    0.05    1.03    1.43    -6.09838   173.05630   -10.44369
   209  H   1.0    0.05    1.00    1.43   -11.13635   178.09218   -11.39187
   210  H   1.0    0.05    1.00    1.43   -13.47273   175.86639   -12.17665
   211  H   1.0    0.04    1.00    1.43   -12.16968   176.01213    -9.07363
   212  H   1.0    0.04    1.00    1.43    -4.97572   176.42802    -7.64656
   213  H   1.0    0.05    1.00    1.43    -5.69527   177.73445   -10.61844
   214  H   1.0    0.04    1.00    1.43    -7.84788   178.02963    -8.07794
   215  N   5.0   -0.21    3.36    2.00    -1.19057   163.42483   -23.59737
   216  C   4.0    0.03    4.38    4.35    -0.60844   165.71029   -22.28070
   217  C   4.0    0.16    3.50    3.11     0.74414   165.11622   -19.79784
   218  O   6.0   -0.32    1.29    1.80     1.95242   166.59466   -18.49516
   219  C   4.0    0.06    4.25    4.11    -3.14791   167.05748   -21.74141
   220  O   6.0   -0.23    2.14    1.85    -4.30630   165.80363   -19.69920
   221  C   4.0   -0.07    4.06    3.73    -4.83723   167.30645   -24.10025
   222  H   1.0    0.08    1.04    1.43    -3.00092   162.80865   -23.42250
   223  H   1.0    0.04    1.05    1.44     0.58677   166.91239   -23.45784
   224  H   1.0    0.06    1.04    1.43    -2.69451   168.94741   -21.02393
   225  H   1.0    0.12    1.03    1.43    -5.17762   164.33765   -20.35093
   226  H   1.0    0.06    1.00    1.43    -6.34046   168.63820   -23.67968
   227  H   1.0    0.04    1.00    1.43    -3.73373   168.02863   -25.66995
   228  H   1.0    0.05    1.00    1.43    -5.68165   165.50816   -24.61599
   229  N   5.0   -0.14    3.61    2.17     0.49451   162.74032   -19.10776
   230  C   4.0    0.03    4.52    4.57     2.11146   161.81148   -17.16094
   231  C   4.0    0.08    3.29    3.05     4.60756   161.08700   -18.30027
   232  O   6.0   -0.31    1.25    1.80     6.56831   162.08831   -17.58717
   233  C   4.0   -0.05    4.36    4.31     0.80412   159.74636   -15.66269
   234  C   4.0   -0.02    4.24    4.08    -0.16354   161.06659   -13.30936
   235  C   4.0   -0.06    4.14    3.89    -2.00097   163.19081   -14.08186
   236  C   4.0   -0.07    4.07    3.75    -1.22441   159.22148   -11.35848
   237  H   1.0    0.08    1.10    1.44    -0.31546   161.40967   -20.19687
   238  H   1.0    0.06    1.11    1.44     2.56550   163.39938   -15.91609
   239  H   1.0    0.04    1.03    1.43    -0.74444   158.94373   -16.73884
   240  H   1.0    0.04    1.03    1.43     2.13895   158.25963   -15.16104
   241  H   1.0    0.04    1.06    1.44     1.46390   161.97439   -12.39980
   242  H   1.0    0.05    1.00    1.43    -2.63791   164.08427   -12.34921
   243  H   1.0    0.06    1.01    1.43    -1.11292   164.64641   -15.20804
   244  H   1.0    0.05    1.00    1.43    -3.64320   162.47687   -15.08979
   245  H   1.0    0.04    1.00    1.43    -1.76410   160.23992    -9.66061
   246  H   1.0    0.05    1.00    1.43    -2.89312   158.25588   -12.07736
   247  H   1.0    0.04    1.00    1.43     0.19700   157.82126   -10.88660
   248  N   5.0   -0.19    3.24    1.96     6.75535   163.50138   -22.34814
   249  C   4.0    0.03    4.19    3.98     7.60956   166.09380   -22.82058
   250  C   4.0    0.15    3.39    3.08     8.74871   167.56074   -20.53105
   251  O   6.0   -0.30    1.25    1.80    10.88467   168.46705   -20.67907
   252  C   4.0   -0.07    4.11    3.82     5.47364   167.64198   -23.98751
   253  H   1.0    0.08    1.03    1.43     5.05945   163.08535   -23.14701
   254  H   1.0    0.04    1.06    1.44     9.16667   166.03613   -24.18811
   255  H   1.0    0.05    1.00    1.43     6.24517   169.39338   -24.73693
   256  H   1.0    0.04    1.00    1.43     4.60557   166.59336   -25.52279
   257  H   1.0    0.06    1.00    1.43     4.08784   168.12984   -22.55464
   258  N   5.0   -0.14    3.49    2.07     7.35839   167.85395   -18.42646
   259  C   4.0    0.04    4.42    4.42     8.50489   169.17472   -16.31887
   260  C   4.0    0.15    3.37    3.07    10.63368   167.54847   -15.14668
   261  O   6.0   -0.32    1.23    1.80    12.42905   168.45181   -13.99456
   262  C   4.0   -0.05    4.19    3.98     6.47416   169.96428   -14.42771
   263  C   4.0   -0.04    4.13    3.87     7.28756   172.19247   -12.68496
   264  C   4.0    0.15    3.13    3.03     6.51380   175.02385   -13.12276
   265  O   6.0   -0.31    1.21    1.80     6.36787   176.53629   -11.32772
   266  N   5.0   -0.18    3.15    1.95     6.03734   175.67484   -15.53734
   267  H   1.0    0.11    1.08    1.44     5.52667   167.27748   -18.31864
   268  H   1.0    0.07    1.06    1.44     9.47961   170.85600   -17.06118
   269  H   1.0    0.05    1.03    1.43     4.76001   170.45996   -15.46574
   270  H   1.0    0.05    1.03    1.43     6.01541   168.36148   -13.22001
   271  H   1.0    0.04    1.03    1.43     6.62359   171.77550   -10.78018
   272  H   1.0    0.06    1.03    1.43     9.35247   172.23240   -12.60136
   273  H   1.0    0.09    1.03    1.43     6.40082   174.46288   -16.95417
   274  H   1.0    0.11    1.03    1.43     5.70779   177.50113   -15.96822
   275  N   5.0   -0.14    3.47    2.06    10.35420   165.05664   -15.54111
   276  C   4.0    0.03    4.27    4.15    12.09806   163.04107   -14.75448
   277  C   4.0    0.15    3.45    3.09    14.54005   162.80006   -16.36199
   278  O   6.0   -0.28    1.23    1.80    16.44757   161.96398   -15.34717
   279  C   4.0   -0.06    4.11    3.83    10.83534   160.42721   -14.76296
   280  H   1.0    0.11    1.13    1.45     8.80917   164.41233   -16.48306
   281  H   1.0    0.05    1.05    1.44    12.75373   163.49912   -12.84261
   282  H   1.0    0.05    1.00    1.43    12.15039   159.06183   -13.97784
   283  H   1.0    0.05    1.00    1.43     9.11109   160.43911   -13.65427
   284  H   1.0    0.06    1.01    1.43    10.39816   159.92737   -16.69816
   285  N   5.0   -0.14    3.47    2.06    14.38720   163.43294   -18.80580
   286  C   4.0    0.04    4.30    4.21    16.52182   163.76638   -20.46795
   287  C   4.0    0.16    3.45    3.09    18.52031   165.50841   -19.17544
   288  O   6.0   -0.26    1.19    1.80    20.73961   165.62154   -19.90016
   289  C   4.0   -0.04    4.19    3.98    15.86764   165.21290   -22.96950
   290  C   4.0   -0.04    4.10    3.79    14.01233   164.23512   -25.04305
   291  C   4.0   -0.01    4.09    3.79    14.66751   161.92397   -26.73477
   292  N   5.0   -0.14    3.36    2.00    13.40132   159.64123   -25.69578
   293  C   4.0    0.10    3.30    3.05    13.39531   157.25357   -26.54751
   294  N   5.0   -0.18    3.22    1.96    14.05813   156.73925   -28.93156
   295  N   5.0   -0.18    3.21    1.96    12.70384   155.39568   -24.94033
   296  H   1.0    0.09    1.07    1.44    12.66884   163.88327   -19.52412
   297  H   1.0    0.06    1.04    1.43    17.45365   161.96027   -20.89087
   298  H   1.0    0.06    1.03    1.43    15.06191   167.01646   -22.36710
   299  H   1.0    0.06    1.03    1.43    17.68995   165.62097   -23.84907
   300  H   1.0    0.04    1.04    1.43    12.22731   163.83347   -24.10845
   301  H   1.0    0.05    1.03    1.43    13.72726   165.86591   -26.26474
   302  H   1.0    0.05    1.02    1.43    13.98720   162.27935   -28.64659
   303  H   1.0    0.05    1.02    1.43    16.71213   161.64101   -26.77837
   304  H   1.0    0.08    1.08    1.44    12.87119   159.89504   -23.86517
   305  H   1.0    0.09    1.03    1.43    14.59455   158.15396   -30.08656
   306  H   1.0    0.09    1.03    1.43    13.97062   154.97916   -29.64794
   307  H   1.0    0.09    1.03    1.43    12.16551   155.78853   -23.16074
   308  H   1.0    0.09    1.03    1.43    12.39890   153.63934   -25.61329
   309  N   5.0   -0.13    3.56    2.12    17.54537   166.90056   -17.26351
   310  C   4.0    0.04    4.37    4.32    19.07403   168.75206   -15.94842
   311  C   4.0    0.16    3.38    3.07    20.86304   167.25542   -14.15328
   312  O   6.0   -0.25    1.21    1.80    23.13413   167.15340   -14.63343
   313  C   4.0   -0.04    4.12    3.85    17.39625   170.95819   -15.00998
   314  C   4.0   -0.02    4.09    3.78    16.30762   172.40796   -17.34322
   315  C   4.0    0.26    3.00    3.02    15.03859   175.20623   -17.38680
   316  O   6.0   -0.26    1.16    1.80    14.34440   175.84527   -19.55276
   317  O   6.0   -0.27    1.13    1.80    14.78213   176.51247   -15.44563
   318  H   1.0    0.10    1.10    1.44    15.66378   167.04981   -17.01908
   319  H   1.0    0.07    1.07    1.44    20.42026   169.55288   -17.32496
   320  H   1.0    0.07    1.04    1.43    15.84787   170.28831   -13.84419
   321  H   1.0    0.06    1.02    1.43    18.54932   172.26135   -13.90244
   322  H   1.0    0.06    1.03    1.43    17.81467   172.62003   -18.74619
   323  H   1.0    0.07    1.02    1.43    14.83580   171.26355   -18.23270
   324  N   5.0   -0.12    3.43    2.03    19.78819   166.05513   -12.15932
   325  C   4.0    0.04    4.27    4.14    21.27495   165.72613    -9.86318
   326  C   4.0    0.10    3.15    3.03    22.39781   163.05195    -9.67546
   327  O   6.0   -0.28    1.15    1.80    21.17684   161.11670    -9.81909
   328  C   4.0    0.03    4.15    3.89    19.65038   166.82442    -7.71692
   329  O   6.0   -0.25    2.04    1.83    20.94886   166.91196    -5.43359
   330  H   1.0    0.08    1.07    1.44    17.90571   166.26163   -11.95876
   331  H   1.0    0.06    1.07    1.44    22.92326   166.98517   -10.02937
   332  H   1.0    0.05    1.02    1.43    19.20297   168.78274    -8.22004
   333  H   1.0    0.04    1.02    1.43    17.88875   165.76831    -7.54425
   334  H   1.0    0.12    1.02    1.43    21.09532   165.18621    -4.80010
   335  N   5.0   -0.20    3.27    1.97    19.04468   158.89096    -1.22423
   336  C   4.0    0.03    4.33    4.25    16.47785   158.29722    -1.85579
   337  C   4.0    0.09    3.30    3.05    15.70432   156.07972    -0.34172
   338  O   6.0   -0.31    1.21    1.80    13.86391   156.04416     1.05119
   339  C   4.0   -0.05    4.42    4.41    16.28632   157.56196    -4.60245
   340  C   4.0   -0.02    4.22    4.03    16.94246   159.76685    -6.34216
   341  C   4.0   -0.05    4.11    3.82    16.26597   159.19051    -9.09255
   342  C   4.0   -0.08    4.16    3.92    15.62564   162.15076    -5.39548
   343  H   1.0    0.09    1.03    1.43    20.37131   157.96985    -2.24075
   344  H   1.0    0.04    1.07    1.44    15.28223   159.89916    -1.34630
   345  H   1.0    0.05    1.03    1.43    17.52293   155.95113    -4.92665
   346  H   1.0    0.04    1.03    1.43    14.33747   156.94753    -4.93231
   347  H   1.0    0.06    1.07    1.44    18.97223   160.07936    -6.23978
   348  H   1.0    0.07    1.01    1.43    16.78084   160.76631   -10.28805
   349  H   1.0    0.06    1.00    1.43    17.29869   157.52704    -9.70280
   350  H   1.0    0.04    1.00    1.43    14.24640   158.82451    -9.25228
   351  H   1.0    0.04    1.01    1.43    15.36539   163.47703    -6.93868
   352  H   1.0    0.04    1.00    1.43    13.74034   161.72883    -4.67890
   353  H   1.0    0.04    1.00    1.43    16.72014   163.04286    -3.90906
   354  N   5.0   -0.19    3.19    1.95    12.99356   157.98756     5.73904
   355  C   4.0    0.04    4.18    3.96    10.55697   159.18309     5.99039
   356  C   4.0    0.09    3.15    3.03     8.15800   157.49247     5.90134
   357  O   6.0   -0.26    1.11    1.80     6.40437   157.89847     7.35222
   358  C   4.0   -0.03    4.34    4.27    10.27623   161.44837     4.21735
   359  C   4.0   -0.04    3.97    3.57     9.90543   161.09584     1.37854
   360  S   6.0   -0.06    2.42    3.10    10.14405   164.36999    -0.01695
   361  C   4.0   -0.06    3.84    3.38    13.53807   165.27040     0.22344
   362  H   1.0    0.13    1.09    1.44    13.53091   157.22620     4.07449
   363  H   1.0    0.07    1.06    1.44    10.56795   159.94583     7.92252
   364  H   1.0    0.06    1.04    1.43     8.65590   162.51843     4.93315
   365  H   1.0    0.06    1.05    1.44    11.99399   162.56079     4.52864
   366  H   1.0    0.05    1.05    1.44    11.35418   159.91653     0.51891
   367  H   1.0    0.04    1.05    1.44     8.03499   160.39955     0.89544
   368  H   1.0    0.04    1.04    1.43    14.15357   165.85851    -1.63547
   369  H   1.0    0.05    1.03    1.43    13.71409   166.79901     1.57661
   370  H   1.0    0.05    1.03    1.43    14.62087   163.65879     0.88583
   371  H   1.0    0.07    1.05    1.44     5.59839   167.17583    17.35511
   372  H   1.0    0.10    1.07    1.44    -0.38136   172.87380    21.46263
   373  H   1.0    0.06    1.04    1.43    -5.11309   166.08628    18.49992
   374  H   1.0    0.12    1.10    1.44    -8.81942   172.79180    16.45302
   375  H   1.0    0.07    1.05    1.44   -12.65258   167.80365    13.57316
   376  H   1.0    0.10    1.07    1.44   -14.01423   171.48961   -11.39995
   377  H   1.0    0.06    1.05    1.44    -8.12513   168.48438   -11.42081
   378  H   1.0    0.09    1.08    1.44    -0.91720   163.64310   -25.26175
   379  H   1.0    0.05    1.05    1.44     4.68134   159.77358   -19.65694
   380  H   1.0    0.09    1.07    1.44     7.89210   162.40513   -22.97948
   381  H   1.0    0.07    1.05    1.44    24.25579   162.82330    -9.41726
   382  H   1.0    0.09    1.08    1.44    19.31963   160.55162    -1.46752
   383  H   1.0    0.06    1.05    1.44    16.71138   154.48272    -0.42239
   384  H   1.0    0.11    1.08    1.44    14.21822   159.11768     6.07906
   385  H   1.0    0.06    1.04    1.43     8.04786   156.07323     4.65848

  Z AO/shell   Hii/eV     exponent
  1     Wed Apr 25 08:07:45 CEST 2018   EN: 2.200 GM2: 0.406  GM3: 0.0800  RAES: 1.40
     1s    -10.707211    1.230000
  6     Wed Apr 25 08:07:45 CEST 2018   EN: 2.550 GM2: 0.538  GM3: 0.1500  RAES: 3.00
     2s    -13.970922    2.096432
     2p    -10.063292    1.800000
  7     Wed Apr 25 08:07:45 CEST 2018   EN: 3.040 GM2: 0.461  GM3:-0.0640  RAES: 1.90
     2s    -16.686243    2.339881
     2p    -12.523956    2.014332
  8     Wed Apr 25 08:07:45 CEST 2018   EN: 3.440 GM2: 0.452  GM3:-0.0517  RAES: 1.80
     2s    -20.229985    2.439742
     2p    -15.503117    2.137023
 16     Tue Apr 24 11:44:34 CEST 2018   EN: 2.580 GM2: 0.340  GM3:-0.0502  RAES: 3.10
     3s    -20.029654    1.981333
     3p    -11.377694    2.025643
     3d     -0.420282    1.702555
 no old-style atom pair restraining (fixing) potential

molecular fragmentation (1/2 indicates fragments):
111111111111111111111111111111111111111111111111111111111111111111111111
111111111111111111111111111111111111111111111111111111111111111111111111
122222222222222222222222222222222222222222222222222222222222222222222222
222222222222222222222222222222222222222222222222222222222222222222222222
222222222222222222222222222222222222222222222222222222222222222222222222
2222222222122222222222222
# atoms in fragment 1/2:   146   239
 fragment masses (1/2) :      986.15     1570.95
CMA distance (Bohr)    :  13.739
constraining FC (au)   :  0.0500
           ------------------------------------------------- 
          |        Self-Consistent Charge Iterations        |
           ------------------------------------------------- 

 Ncao       : 922
 Nao        : 921
 Nshell     : 563
 Nel        : 1018
 T(el)      :   500.0
 intcut     :    35.0
 scfconv/Eh :  0.100E-06
   qconv/e  :  0.100E-04
 intneglect :  0.100E-08
 broydamp   :      0.400
 iter      E             dE          RMSdq      gap      omega  full diag
   1   -582.6886502 -0.582689E+03  0.460E+00    2.94       0.0  T
   2   -584.1118693 -0.142322E+01  0.212E+00    1.60       1.0  T
   3   -584.2043381 -0.924688E-01  0.124E+00    1.81       1.0  T
   4   -584.3032097 -0.988716E-01  0.253E-01    1.25       1.0  T
   5   -584.3084344 -0.522468E-02  0.125E-01    1.50       1.0  T
   6   -584.3095474 -0.111293E-02  0.525E-02    1.46       1.0  T
   7   -584.3098071 -0.259711E-03  0.213E-02    1.46       1.0  T
   8   -584.3098331 -0.260210E-04  0.954E-03    1.46       1.0  T
   9   -584.3098399 -0.682605E-05  0.424E-03    1.46       1.2  T
  10   -584.3098412 -0.129173E-05  0.191E-03    1.46       2.7  T
  11   -584.3098415 -0.244625E-06  0.892E-04    1.46       5.7  T
  12   -584.3098415 -0.404723E-07  0.405E-04    1.46      12.6  T
  13   -584.3098415 -0.859654E-08  0.208E-04    1.46      24.5  T
  14   -584.3098415 -0.221996E-08  0.857E-05    1.46      59.5  T
  15   -584.3098415 -0.348336E-09  0.351E-05    1.46     145.3  T
speedup  2.00
cpu  time for SCC   15.67 s
wall time for SCC    7.84 s

   *** convergence criteria satisfied after 15 iterations ***

          eigenvalues
 #    :         497        498        499        500        501        502        503        504
 occ. :        2.000      2.000      2.000      2.000      2.000      2.000      2.000      2.000
 eps  :       -10.668    -10.570    -10.409    -10.374    -10.297    -10.119    -10.108     -9.911
 #    :         505        506        507        508        509        510        511        512
 occ. :        2.000      2.000      2.000      2.000      2.000      0.000      0.000      0.000
 eps  :        -9.865     -9.809     -9.766     -9.643     -9.592     -8.129     -8.018     -8.000
 #    :         513        514        515        516        517        518        519        520
 occ. :        0.000      0.000      0.000      0.000      0.000      0.000      0.000      0.000
 eps  :        -7.961     -7.768     -7.649     -7.581     -7.233     -6.672     -6.672     -6.565


   #   Z            q   n(s)   n(p)   n(d)      C6AA      α(0)
   1   7 N     -0.151  1.232  3.919  0.000    24.256     7.315
   2   6 C     -0.038  1.079  2.959  0.000    21.261     6.567
   3   6 C      0.271  1.030  2.699  0.000    22.428     7.756
   4   8 O     -0.440  1.726  4.714  0.000    22.501     6.360
   5   6 C      0.063  1.038  2.899  0.000    19.703     6.353
   6   8 O     -0.462  1.702  4.760  0.000    22.092     6.345
   7   1 H      0.301  0.699  0.000  0.000     0.711     1.321
   8   1 H      0.306  0.694  0.000  0.000     0.696     1.307
   9   1 H      0.317  0.683  0.000  0.000     0.665     1.277
  10   1 H      0.106  0.894  0.000  0.000     1.730     2.057
  11   1 H      0.049  0.951  0.000  0.000     2.329     2.386
  12   1 H      0.101  0.899  0.000  0.000     1.780     2.087
  13   1 H      0.328  0.672  0.000  0.000     0.644     1.261
  14   7 N     -0.212  1.281  3.931  0.000    25.625     7.518
  15   6 C      0.015  1.064  2.920  0.000    20.331     6.422
  16   6 C      0.271  1.044  2.685  0.000    22.425     7.754
  17   8 O     -0.476  1.752  4.723  0.000    23.250     6.465
  18   6 C     -0.063  1.056  3.007  0.000    21.708     6.633
  19   6 C     -0.106  1.070  3.036  0.000    22.522     6.758
  20   6 C      0.364  1.029  2.607  0.000    20.825     7.468
  21   8 O     -0.622  1.784  4.838  0.000    26.677     6.925
  22   8 O     -0.610  1.755  4.855  0.000    26.356     6.883
  23   1 H      0.249  0.751  0.000  0.000     0.886     1.475
  24   1 H      0.088  0.912  0.000  0.000     1.899     2.155
  25   1 H      0.057  0.943  0.000  0.000     2.237     2.339
  26   1 H      0.052  0.948  0.000  0.000     2.298     2.370
  27   1 H      0.036  0.964  0.000  0.000     2.505     2.475
  28   1 H      0.027  0.973  0.000  0.000     2.633     2.538
  29   7 N     -0.183  1.247  3.935  0.000    24.957     7.420
  30   6 C      0.010  1.073  2.917  0.000    20.426     6.438
  31   6 C      0.266  1.049  2.685  0.000    22.509     7.768
  32   8 O     -0.489  1.741  4.748  0.000    23.550     6.506
  33   6 C     -0.136  1.045  3.091  0.000    23.180     6.866
  34   1 H      0.210  0.790  0.000  0.000     1.057     1.610
  35   1 H      0.086  0.914  0.000  0.000     1.917     2.165
  36   1 H      0.072  0.928  0.000  0.000     2.067     2.248
  37   1 H      0.065  0.935  0.000  0.000     2.147     2.291
  38   1 H      0.069  0.931  0.000  0.000     2.093     2.262
  39   7 N     -0.166  1.250  3.916  0.000    24.589     7.365
  40   6 C      0.008  1.074  2.918  0.000    20.469     6.445
  41   6 C      0.278  1.043  2.679  0.000    22.299     7.732
  42   8 O     -0.488  1.747  4.742  0.000    23.525     6.503
  43   6 C     -0.096  1.070  3.026  0.000    22.328     6.728
  44   6 C     -0.015  1.063  2.951  0.000    20.811     6.489
  45   6 C     -0.125  1.043  3.082  0.000    22.956     6.832
  46   6 C     -0.121  1.043  3.078  0.000    22.874     6.820
  47   1 H      0.227  0.773  0.000  0.000     0.979     1.550
  48   1 H      0.081  0.919  0.000  0.000     1.970     2.195
  49   1 H      0.082  0.918  0.000  0.000     1.963     2.191
  50   1 H      0.066  0.934  0.000  0.000     2.129     2.282
  51   1 H      0.041  0.959  0.000  0.000     2.433     2.439
  52   1 H      0.046  0.954  0.000  0.000     2.367     2.406
  53   1 H      0.049  0.951  0.000  0.000     2.338     2.391
  54   1 H      0.044  0.956  0.000  0.000     2.402     2.424
  55   1 H      0.033  0.967  0.000  0.000     2.545     2.495
  56   1 H      0.049  0.951  0.000  0.000     2.330     2.387
  57   1 H      0.046  0.954  0.000  0.000     2.372     2.409
  58   7 N     -0.176  1.253  3.923  0.000    24.800     7.396
  59   6 C      0.003  1.078  2.919  0.000    20.550     6.457
  60   6 C      0.289  1.040  2.671  0.000    22.098     7.698
  61   8 O     -0.489  1.747  4.742  0.000    23.550     6.506
  62   6 C     -0.082  1.059  3.023  0.000    22.066     6.688
  63   6 C     -0.077  1.051  3.026  0.000    21.963     6.672
  64   6 C     -0.100  1.056  3.045  0.000    22.413     6.740
  65   6 C     -0.052  1.061  2.991  0.000    21.597     6.633
  66   7 N     -0.149  1.231  3.918  0.000    24.219     7.309
  67   1 H      0.220  0.780  0.000  0.000     1.011     1.575
  68   1 H      0.094  0.906  0.000  0.000     1.845     2.124
  69   1 H      0.057  0.943  0.000  0.000     2.240     2.340
  70   1 H      0.057  0.943  0.000  0.000     2.238     2.339
  71   1 H      0.064  0.936  0.000  0.000     2.149     2.293
  72   1 H      0.060  0.940  0.000  0.000     2.200     2.319
  73   1 H      0.081  0.919  0.000  0.000     1.966     2.193
  74   1 H      0.084  0.916  0.000  0.000     1.937     2.177
  75   1 H      0.111  0.889  0.000  0.000     1.687     2.031
  76   1 H      0.119  0.881  0.000  0.000     1.620     1.991
  77   1 H      0.303  0.697  0.000  0.000     0.705     1.316
  78   1 H      0.302  0.698  0.000  0.000     0.708     1.318
  79   1 H      0.297  0.703  0.000  0.000     0.721     1.330
  80   7 N     -0.178  1.237  3.941  0.000    24.852     7.404
  81   6 C      0.015  1.061  2.924  0.000    20.331     6.420
  82   6 C      0.273  1.052  2.675  0.000    22.377     7.747
  83   8 O     -0.491  1.746  4.745  0.000    23.593     6.512
  84   6 C     -0.039  1.074  2.965  0.000    21.235     6.554
  85   6 C     -0.067  1.054  3.013  0.000    21.780     6.645
  86   6 C     -0.121  1.045  3.077  0.000    22.884     6.822
  87   6 C     -0.106  1.036  3.070  0.000    22.592     6.779
  88   1 H      0.215  0.785  0.000  0.000     1.032     1.591
  89   1 H      0.086  0.914  0.000  0.000     1.914     2.163
  90   1 H      0.085  0.915  0.000  0.000     1.929     2.172
  91   1 H      0.046  0.954  0.000  0.000     2.372     2.409
  92   1 H      0.029  0.971  0.000  0.000     2.597     2.520
  93   1 H      0.052  0.948  0.000  0.000     2.290     2.366
  94   1 H      0.052  0.948  0.000  0.000     2.298     2.371
  95   1 H      0.048  0.952  0.000  0.000     2.342     2.393
  96   1 H      0.028  0.972  0.000  0.000     2.612     2.527
  97   1 H      0.047  0.953  0.000  0.000     2.358     2.401
  98   1 H      0.027  0.973  0.000  0.000     2.626     2.534
  99   7 N     -0.182  1.253  3.930  0.000    24.954     7.419
 100   6 C      0.022  1.066  2.912  0.000    20.207     6.401
 101   6 C      0.281  1.046  2.672  0.000    22.236     7.722
 102   8 O     -0.479  1.755  4.725  0.000    23.332     6.476
 103   6 C     -0.076  1.063  3.013  0.000    21.947     6.671
 104   6 C     -0.008  1.056  2.952  0.000    20.693     6.471
 105   6 C     -0.118  1.042  3.076  0.000    22.807     6.808
 106   6 C     -0.115  1.043  3.073  0.000    22.752     6.799
 107   1 H      0.214  0.786  0.000  0.000     1.037     1.595
 108   1 H      0.082  0.918  0.000  0.000     1.960     2.189
 109   1 H      0.068  0.932  0.000  0.000     2.105     2.269
 110   1 H      0.052  0.948  0.000  0.000     2.293     2.368
 111   1 H      0.034  0.966  0.000  0.000     2.533     2.489
 112   1 H      0.038  0.962  0.000  0.000     2.476     2.461
 113   1 H      0.043  0.957  0.000  0.000     2.409     2.427
 114   1 H      0.049  0.951  0.000  0.000     2.332     2.388
 115   1 H      0.041  0.959  0.000  0.000     2.434     2.440
 116   1 H      0.052  0.948  0.000  0.000     2.293     2.368
 117   1 H      0.036  0.964  0.000  0.000     2.497     2.471
 118   7 N     -0.210  1.255  3.954  0.000    25.564     7.509
 119   6 C      0.042  1.052  2.906  0.000    19.879     6.349
 120   6 C      0.268  1.046  2.686  0.000    22.469     7.764
 121   8 O     -0.495  1.750  4.744  0.000    23.664     6.522
 122   6 C     -0.097  1.062  3.035  0.000    22.340     6.728
 123   6 C      0.294  1.036  2.670  0.000    22.021     7.684
 124   8 O     -0.498  1.748  4.750  0.000    23.731     6.531
 125   7 N     -0.280  1.272  4.008  0.000    27.229     7.750
 126   1 H      0.224  0.776  0.000  0.000     0.992     1.561
 127   1 H      0.069  0.931  0.000  0.000     2.094     2.263
 128   1 H      0.082  0.918  0.000  0.000     1.959     2.189
 129   1 H      0.074  0.926  0.000  0.000     2.041     2.234
 130   1 H      0.239  0.761  0.000  0.000     0.927     1.509
 131   1 H      0.232  0.768  0.000  0.000     0.958     1.533
 132   7 N     -0.179  1.259  3.920  0.000    24.881     7.408
 133   6 C      0.027  1.051  2.922  0.000    20.079     6.373
 134   6 C      0.203  1.091  2.706  0.000    23.692     7.972
 135   8 O     -0.324  1.731  4.593  0.000    20.223     6.029
 136   6 C     -0.119  1.063  3.056  0.000    22.770     6.791
 137   6 C      0.290  1.039  2.671  0.000    22.080     7.697
 138   8 O     -0.486  1.744  4.742  0.000    23.481     6.497
 139   7 N     -0.295  1.281  4.014  0.000    27.600     7.802
 140   1 H      0.229  0.771  0.000  0.000     0.967     1.541
 141   1 H      0.094  0.906  0.000  0.000     1.837     2.120
 142   1 H      0.086  0.914  0.000  0.000     1.916     2.165
 143   1 H      0.118  0.882  0.000  0.000     1.629     1.996
 144   1 H      0.236  0.764  0.000  0.000     0.940     1.519
 145   1 H      0.234  0.766  0.000  0.000     0.947     1.524
 146   7 N     -0.408  1.317  4.091  0.000    30.610     8.217
 147   6 C      0.013  1.070  2.917  0.000    20.377     6.430
 148   6 C      0.266  1.048  2.687  0.000    22.518     7.771
 149   8 O     -0.496  1.741  4.754  0.000    23.685     6.525
 150   6 C      0.120  1.047  2.833  0.000    18.729     6.182
 151   8 O     -0.469  1.698  4.771  0.000    22.236     6.366
 152   6 C     -0.124  1.043  3.081  0.000    22.940     6.830
 153   1 H      0.186  0.814  0.000  0.000     1.180     1.702
 154   1 H      0.032  0.968  0.000  0.000     2.564     2.504
 155   1 H      0.013  0.987  0.000  0.000     2.836     2.634
 156   1 H      0.331  0.669  0.000  0.000     0.636     1.253
 157   1 H      0.065  0.935  0.000  0.000     2.142     2.289
 158   1 H      0.041  0.959  0.000  0.000     2.440     2.443
 159   1 H      0.057  0.943  0.000  0.000     2.229     2.335
 160   7 N     -0.175  1.249  3.926  0.000    24.778     7.393
 161   6 C      0.016  1.064  2.920  0.000    20.308     6.417
 162   6 C      0.184  1.087  2.728  0.000    24.042     8.030
 163   8 O     -0.356  1.761  4.595  0.000    20.820     6.118
 164   6 C     -0.078  1.066  3.011  0.000    21.983     6.675
 165   6 C     -0.011  1.061  2.950  0.000    20.749     6.480
 166   6 C     -0.119  1.042  3.077  0.000    22.838     6.815
 167   6 C     -0.111  1.041  3.070  0.000    22.671     6.789
 168   1 H      0.233  0.767  0.000  0.000     0.954     1.530
 169   1 H      0.093  0.907  0.000  0.000     1.854     2.129
 170   1 H      0.069  0.931  0.000  0.000     2.098     2.265
 171   1 H      0.049  0.951  0.000  0.000     2.328     2.386
 172   1 H      0.031  0.969  0.000  0.000     2.572     2.508
 173   1 H      0.051  0.949  0.000  0.000     2.304     2.374
 174   1 H      0.040  0.960  0.000  0.000     2.454     2.450
 175   1 H      0.045  0.955  0.000  0.000     2.387     2.416
 176   1 H      0.050  0.950  0.000  0.000     2.316     2.380
 177   1 H      0.041  0.959  0.000  0.000     2.432     2.439
 178   1 H      0.031  0.969  0.000  0.000     2.568     2.506
 179   7 N     -0.404  1.332  4.072  0.000    30.476     8.199
 180   6 C      0.041  1.049  2.909  0.000    19.889     6.351
 181   6 C      0.211  1.083  2.706  0.000    23.529     7.946
 182   8 O     -0.392  1.756  4.636  0.000    21.523     6.220
 183   6 C     -0.079  1.057  3.022  0.000    21.999     6.676
 184   6 C     -0.103  1.060  3.043  0.000    22.450     6.744
 185   6 C      0.296  1.040  2.664  0.000    21.984     7.678
 186   8 O     -0.516  1.760  4.756  0.000    24.140     6.587
 187   7 N     -0.285  1.264  4.021  0.000    27.356     7.768
 188   1 H      0.204  0.796  0.000  0.000     1.083     1.630
 189   1 H      0.060  0.940  0.000  0.000     2.194     2.316
 190   1 H      0.071  0.929  0.000  0.000     2.072     2.251
 191   1 H      0.057  0.943  0.000  0.000     2.236     2.338
 192   1 H      0.072  0.928  0.000  0.000     2.065     2.247
 193   1 H      0.057  0.943  0.000  0.000     2.233     2.337
 194   1 H      0.221  0.779  0.000  0.000     1.006     1.571
 195   1 H      0.224  0.776  0.000  0.000     0.993     1.561
 196   7 N     -0.393  1.321  4.072  0.000    30.185     8.160
 197   6 C      0.029  1.071  2.901  0.000    20.129     6.394
 198   6 C      0.195  1.100  2.706  0.000    23.843     7.996
 199   8 O     -0.371  1.760  4.611  0.000    21.115     6.161
 200   6 C     -0.021  1.078  2.943  0.000    20.921     6.506
 201   6 C     -0.061  1.052  3.010  0.000    21.681     6.629
 202   6 C     -0.111  1.039  3.072  0.000    22.683     6.792
 203   6 C     -0.110  1.038  3.073  0.000    22.674     6.791
 204   1 H      0.174  0.826  0.000  0.000     1.247     1.749
 205   1 H      0.046  0.954  0.000  0.000     2.369     2.407
 206   1 H      0.032  0.968  0.000  0.000     2.560     2.502
 207   1 H      0.043  0.957  0.000  0.000     2.403     2.424
 208   1 H      0.031  0.969  0.000  0.000     2.577     2.510
 209   1 H      0.048  0.952  0.000  0.000     2.346     2.395
 210   1 H      0.042  0.958  0.000  0.000     2.427     2.436
 211   1 H      0.047  0.953  0.000  0.000     2.352     2.398
 212   1 H      0.045  0.955  0.000  0.000     2.386     2.416
 213   1 H      0.035  0.965  0.000  0.000     2.517     2.481
 214   1 H      0.043  0.957  0.000  0.000     2.409     2.427
 215   7 N     -0.387  1.303  4.084  0.000    30.003     8.135
 216   6 C      0.009  1.061  2.930  0.000    20.439     6.438
 217   6 C      0.277  1.040  2.683  0.000    22.316     7.737
 218   8 O     -0.504  1.742  4.763  0.000    23.882     6.552
 219   6 C      0.113  1.048  2.839  0.000    18.823     6.193
 220   8 O     -0.477  1.736  4.742  0.000    22.413     6.391
 221   6 C     -0.132  1.045  3.087  0.000    23.105     6.855
 222   1 H      0.163  0.837  0.000  0.000     1.314     1.796
 223   1 H      0.046  0.954  0.000  0.000     2.369     2.407
 224   1 H      0.029  0.971  0.000  0.000     2.596     2.520
 225   1 H      0.325  0.675  0.000  0.000     0.651     1.267
 226   1 H      0.053  0.947  0.000  0.000     2.289     2.366
 227   1 H      0.055  0.945  0.000  0.000     2.262     2.352
 228   1 H      0.057  0.943  0.000  0.000     2.230     2.335
 229   7 N     -0.148  1.242  3.906  0.000    24.199     7.306
 230   6 C      0.012  1.054  2.934  0.000    20.349     6.418
 231   6 C      0.190  1.089  2.721  0.000    23.933     8.012
 232   8 O     -0.346  1.740  4.606  0.000    20.637     6.091
 233   6 C     -0.083  1.058  3.024  0.000    22.067     6.686
 234   6 C     -0.015  1.062  2.953  0.000    20.793     6.485
 235   6 C     -0.120  1.041  3.079  0.000    22.854     6.817
 236   6 C     -0.119  1.041  3.078  0.000    22.837     6.815
 237   1 H      0.226  0.774  0.000  0.000     0.984     1.554
 238   1 H      0.102  0.898  0.000  0.000     1.770     2.081
 239   1 H      0.075  0.925  0.000  0.000     2.030     2.228
 240   1 H      0.065  0.935  0.000  0.000     2.143     2.289
 241   1 H      0.038  0.962  0.000  0.000     2.469     2.457
 242   1 H      0.033  0.967  0.000  0.000     2.540     2.492
 243   1 H      0.048  0.952  0.000  0.000     2.343     2.393
 244   1 H      0.043  0.957  0.000  0.000     2.412     2.429
 245   1 H      0.041  0.959  0.000  0.000     2.440     2.443
 246   1 H      0.041  0.959  0.000  0.000     2.431     2.438
 247   1 H      0.045  0.955  0.000  0.000     2.377     2.411
 248   7 N     -0.389  1.323  4.066  0.000    30.073     8.144
 249   6 C      0.022  1.062  2.916  0.000    20.220     6.406
 250   6 C      0.260  1.057  2.683  0.000    22.616     7.788
 251   8 O     -0.517  1.765  4.752  0.000    24.157     6.590
 252   6 C     -0.124  1.043  3.080  0.000    22.928     6.828
 253   1 H      0.165  0.835  0.000  0.000     1.300     1.786
 254   1 H      0.046  0.954  0.000  0.000     2.374     2.409
 255   1 H      0.041  0.959  0.000  0.000     2.440     2.443
 256   1 H      0.066  0.934  0.000  0.000     2.135     2.285
 257   1 H      0.051  0.949  0.000  0.000     2.306     2.375
 258   7 N     -0.187  1.254  3.933  0.000    25.052     7.434
 259   6 C      0.027  1.060  2.912  0.000    20.115     6.385
 260   6 C      0.272  1.047  2.681  0.000    22.400     7.750
 261   8 O     -0.501  1.751  4.751  0.000    23.816     6.543
 262   6 C     -0.078  1.057  3.021  0.000    21.997     6.678
 263   6 C     -0.107  1.064  3.043  0.000    22.545     6.762
 264   6 C      0.280  1.055  2.664  0.000    22.254     7.723
 265   8 O     -0.500  1.745  4.755  0.000    23.779     6.538
 266   7 N     -0.274  1.264  4.010  0.000    27.097     7.731
 267   1 H      0.233  0.767  0.000  0.000     0.950     1.527
 268   1 H      0.055  0.945  0.000  0.000     2.258     2.350
 269   1 H      0.076  0.924  0.000  0.000     2.025     2.225
 270   1 H      0.078  0.922  0.000  0.000     2.002     2.213
 271   1 H      0.091  0.909  0.000  0.000     1.866     2.136
 272   1 H      0.077  0.923  0.000  0.000     2.006     2.215
 273   1 H      0.217  0.783  0.000  0.000     1.024     1.585
 274   1 H      0.228  0.772  0.000  0.000     0.973     1.545
 275   7 N     -0.203  1.256  3.947  0.000    25.402     7.485
 276   6 C      0.017  1.067  2.916  0.000    20.309     6.420
 277   6 C      0.267  1.048  2.685  0.000    22.485     7.765
 278   8 O     -0.478  1.758  4.721  0.000    23.310     6.473
 279   6 C     -0.138  1.046  3.092  0.000    23.207     6.869
 280   1 H      0.244  0.756  0.000  0.000     0.909     1.493
 281   1 H      0.075  0.925  0.000  0.000     2.036     2.232
 282   1 H      0.077  0.923  0.000  0.000     2.008     2.216
 283   1 H      0.084  0.916  0.000  0.000     1.937     2.176
 284   1 H      0.081  0.919  0.000  0.000     1.972     2.196
 285   7 N     -0.178  1.232  3.946  0.000    24.865     7.406
 286   6 C      0.014  1.070  2.916  0.000    20.353     6.426
 287   6 C      0.276  1.049  2.675  0.000    22.325     7.737
 288   8 O     -0.495  1.765  4.731  0.000    23.678     6.524
 289   6 C     -0.078  1.059  3.019  0.000    21.993     6.677
 290   6 C     -0.079  1.059  3.020  0.000    22.010     6.681
 291   6 C     -0.029  1.063  2.966  0.000    21.192     6.572
 292   7 N     -0.148  1.223  3.925  0.000    24.208     7.307
 293   6 C      0.230  1.025  2.745  0.000    23.171     7.881
 294   7 N     -0.240  1.227  4.013  0.000    26.283     7.614
 295   7 N     -0.259  1.241  4.018  0.000    26.723     7.677
 296   1 H      0.206  0.794  0.000  0.000     1.077     1.626
 297   1 H      0.091  0.909  0.000  0.000     1.874     2.141
 298   1 H      0.054  0.946  0.000  0.000     2.266     2.354
 299   1 H      0.063  0.937  0.000  0.000     2.163     2.300
 300   1 H      0.069  0.931  0.000  0.000     2.101     2.267
 301   1 H      0.078  0.922  0.000  0.000     1.999     2.211
 302   1 H      0.099  0.901  0.000  0.000     1.791     2.093
 303   1 H      0.090  0.910  0.000  0.000     1.880     2.144
 304   1 H      0.215  0.785  0.000  0.000     1.032     1.591
 305   1 H      0.249  0.751  0.000  0.000     0.888     1.476
 306   1 H      0.259  0.741  0.000  0.000     0.848     1.442
 307   1 H      0.251  0.749  0.000  0.000     0.879     1.469
 308   1 H      0.258  0.742  0.000  0.000     0.851     1.445
 309   7 N     -0.182  1.249  3.933  0.000    24.952     7.419
 310   6 C      0.024  1.070  2.906  0.000    20.187     6.399
 311   6 C      0.274  1.053  2.673  0.000    22.360     7.743
 312   8 O     -0.468  1.756  4.712  0.000    23.087     6.442
 313   6 C     -0.068  1.059  3.009  0.000    21.799     6.648
 314   6 C     -0.095  1.080  3.015  0.000    22.338     6.733
 315   6 C      0.368  1.036  2.596  0.000    20.756     7.455
 316   8 O     -0.648  1.779  4.869  0.000    27.316     7.007
 317   8 O     -0.617  1.759  4.858  0.000    26.539     6.907
 318   1 H      0.202  0.798  0.000  0.000     1.093     1.638
 319   1 H      0.056  0.944  0.000  0.000     2.244     2.342
 320   1 H      0.076  0.924  0.000  0.000     2.026     2.226
 321   1 H      0.042  0.958  0.000  0.000     2.421     2.433
 322   1 H      0.003  0.997  0.000  0.000     3.013     2.714
 323   1 H      0.017  0.983  0.000  0.000     2.777     2.606
 324   7 N     -0.173  1.259  3.914  0.000    24.752     7.389
 325   6 C      0.014  1.066  2.920  0.000    20.344     6.423
 326   6 C      0.199  1.080  2.720  0.000    23.753     7.981
 327   8 O     -0.323  1.743  4.580  0.000    20.207     6.027
 328   6 C      0.071  1.039  2.890  0.000    19.595     6.339
 329   8 O     -0.447  1.714  4.733  0.000    21.781     6.300
 330   1 H      0.203  0.797  0.000  0.000     1.093     1.637
 331   1 H      0.077  0.923  0.000  0.000     2.008     2.216
 332   1 H      0.069  0.931  0.000  0.000     2.092     2.262
 333   1 H      0.063  0.937  0.000  0.000     2.168     2.303
 334   1 H      0.329  0.671  0.000  0.000     0.640     1.257
 335   7 N     -0.391  1.317  4.074  0.000    30.123     8.151
 336   6 C      0.045  1.042  2.913  0.000    19.837     6.343
 337   6 C      0.201  1.083  2.716  0.000    23.721     7.978
 338   8 O     -0.390  1.751  4.638  0.000    21.476     6.213
 339   6 C     -0.071  1.058  3.013  0.000    21.831     6.648
 340   6 C     -0.009  1.054  2.955  0.000    20.694     6.470
 341   6 C     -0.118  1.043  3.074  0.000    22.807     6.810
 342   6 C     -0.117  1.041  3.075  0.000    22.784     6.806
 343   1 H      0.167  0.833  0.000  0.000     1.291     1.780
 344   1 H      0.060  0.940  0.000  0.000     2.197     2.318
 345   1 H      0.043  0.957  0.000  0.000     2.412     2.429
 346   1 H      0.041  0.959  0.000  0.000     2.431     2.439
 347   1 H      0.036  0.964  0.000  0.000     2.499     2.472
 348   1 H      0.057  0.943  0.000  0.000     2.233     2.337
 349   1 H      0.041  0.959  0.000  0.000     2.437     2.441
 350   1 H      0.041  0.959  0.000  0.000     2.441     2.443
 351   1 H      0.044  0.956  0.000  0.000     2.398     2.422
 352   1 H      0.051  0.949  0.000  0.000     2.310     2.377
 353   1 H      0.034  0.966  0.000  0.000     2.529     2.487
 354   7 N     -0.403  1.318  4.085  0.000    30.454     8.196
 355   6 C      0.043  1.058  2.899  0.000    19.881     6.352
 356   6 C      0.200  1.089  2.711  0.000    23.746     7.980
 357   8 O     -0.373  1.761  4.612  0.000    21.152     6.166
 358   6 C     -0.054  1.051  3.002  0.000    21.499     6.595
 359   6 C     -0.012  1.075  2.937  0.000    20.809     6.498
 360  16 S     -0.225  1.922  4.259  0.044   150.667    20.659
 361   6 C     -0.061  1.059  3.002  0.000    21.759     6.656
 362   1 H      0.187  0.813  0.000  0.000     1.172     1.696
 363   1 H      0.053  0.947  0.000  0.000     2.279     2.361
 364   1 H      0.036  0.964  0.000  0.000     2.498     2.472
 365   1 H      0.055  0.945  0.000  0.000     2.259     2.351
 366   1 H      0.058  0.942  0.000  0.000     2.224     2.332
 367   1 H      0.048  0.952  0.000  0.000     2.351     2.398
 368   1 H      0.078  0.922  0.000  0.000     2.002     2.213
 369   1 H      0.052  0.948  0.000  0.000     2.292     2.368
 370   1 H      0.055  0.945  0.000  0.000     2.261     2.351
 371   1 H      0.080  0.920  0.000  0.000     1.978     2.199
 372   1 H      0.175  0.825  0.000  0.000     1.245     1.748
 373   1 H      0.079  0.921  0.000  0.000     1.994     2.208
 374   1 H      0.203  0.797  0.000  0.000     1.090     1.635
 375   1 H      0.065  0.935  0.000  0.000     2.138     2.286
 376   1 H      0.182  0.818  0.000  0.000     1.202     1.717
 377   1 H      0.077  0.923  0.000  0.000     2.008     2.216
 378   1 H      0.188  0.812  0.000  0.000     1.167     1.692
 379   1 H      0.095  0.905  0.000  0.000     1.827     2.114
 380   1 H      0.189  0.811  0.000  0.000     1.161     1.688
 381   1 H      0.079  0.921  0.000  0.000     1.985     2.203
 382   1 H      0.183  0.817  0.000  0.000     1.199     1.715
 383   1 H      0.066  0.934  0.000  0.000     2.133     2.284
 384   1 H      0.183  0.817  0.000  0.000     1.198     1.715
 385   1 H      0.072  0.928  0.000  0.000     2.066     2.248

 Mol. C6AA /au·bohr⁶  :    1286636.536528
 Mol. C8AA /au·bohr⁸  :   28360634.847544
 Mol. α(0) /au        :       1688.858990

 
molecular dipole:
                 x           y           z       tot (Debye)
 q only:       19.282     167.145     -18.986
   full:       19.450     168.061     -22.186     433.710
molecular quadrupole (traceless):
                xx          xy          yy          xz          yz          zz
 q only:   -14337.722    5121.347   28010.881     146.306   -3956.920  -13673.159
  q+dip:   -14541.974    5170.065   28303.765     164.827   -4786.624  -13761.791
   full:   -14543.012    5173.686   28303.846     164.656   -4785.754  -13760.834
speedup  2.00
cpu  time for grad   21.32 s
wall time for grad   10.67 s

SCC energy    :    -584.3290613
rep           :       6.8184103
ES            :       1.8674273
AES           :      -0.0648273
AXC           :       0.1989286
disp          :      -0.4651339
XB            :       0.0000000
fix           :       0.0000000
Gborn         :       0.0000000
Gsasa         :       0.0000000
Ghb           :       0.0000000
Gshift        :       0.0000000
Gsolv         :      -0.5041026     -316.33
Etot ala COSMO:    -584.3290613
grad norm     :       0.6120062
total E       :    -577.4765050
atomizationE  :     103.7169891    65083.39
(atE without considering molecular charge,
 total energy contains solvation terms)
H-L gap (eV)  :          1.4630

------------------------------------------------------------------------
 * finished run on 2019/05/08 at 09:27:31.196     
------------------------------------------------------------------------
 total:
 * wall-time:     0 d,  0 h,  0 min, 11.180 sec
 *  cpu-time:     0 d,  0 h,  0 min, 22.259 sec
 * ratio c/w:     1.991 speedup
 SCF:
 * wall-time:     0 d,  0 h,  0 min, 10.997 sec
 *  cpu-time:     0 d,  0 h,  0 min, 21.981 sec
 * ratio c/w:     1.999 speedup

