      -----------------------------------------------------------      
     |                   =====================                   |     
     |                           x T B                           |     
     |                   =====================                   |     
     |                         S. Grimme                         |     
     |          Mulliken Center for Theoretical Chemistry        |     
     |                    University of Bonn                     |     
     |                 Version 6.0.1 (SAW181210)                 |     
      -----------------------------------------------------------      

   This program is distributed in the hope that it will be useful,
   but WITHOUT ANY WARRANTY; without even the implied warranty of
   MERCHANTABILITY or FITNESS FOR A PARTICULAR PURPOSE.
   
   FOR NON-COMMERCIAL, ACADEMIA USE ONLY.
   
   Cite this work as:
   S. Grimme, C. Bannwarth, P. Shushkov, J. Comput. Theory Chem., 2017,
   13, 1989-2009.
   C. Bannwarth, S. Ehlert and S. Grimme., ChemRxiv, 2018, preprint.
   http://doi.org/10.26434/chemrxiv.7246238.v1
   
   for sTDA-xTB:
   S. Grimme and C. Bannwarth, J. Chem. Phys., 2016, 145, 054103.
   
   in the mass-spec context:
   V. Asgeirsson, C. Bauer and S. Grimme, Chem. Sci., 2017, 8, 4879.
   
   if GBSA is used:
   P. Shushkov, F. März and S. Grimme, unpublished.
   
   for ANC optimizer:
   S. Grimme, unpublished.
   Rational Function algorithm used in ANCopt:
   F. Eckert, P. Pulay, H.-J. Werner, J. Comput. Chem., 1997, 18, 1473.
   
   with help from (in alphabetical order)
   C. Bannwarth, F. Bohle, G. Brandenburg, E. Caldeweyher, M. Checinski,
   S. Dohm, S. Ehlert, S. Ehrlich, F. März, H. Neugebauer, J. Pisarek,
   P. Pracht, P. Shushkov, and S. Spicher.
   
 * started run on 2019/05/12 at 03:17:20.774     
========================================================================
 # omp threads = 2
========================================================================
number of atoms            : 832
number of electrons        : 2264
charge                     : -1
spin                       : .0
first test random number   : .5020

########################################################################
# WARNING! Please study the warnings concerning your input carefully
#  - Process number higher than OMP_NUM_THREADS, I hope you know what you are doing.
########################################################################

           ------------------------------------------------- 
          |                 G F N 2 - x T B                 |
          | Geometry, Frequencies, Noncovalent interactions |
          |            JCTC 2018 parametrisation            |
           ------------------------------------------------- 
 
      method parameters     
 k(s)        :  1.8500
 k(p)        :  2.2300
 k(d)        :  2.2300
 k(f)        :  2.0000
 kEN (H0ij)  : -2.0000
 D4 a1       :  0.5200
 D4 a2       :  5.0000
 D4 s6       :  1.0000
 D4 s8       :  2.7000
 D4 s9       :  5.0000
 alphaj      :  2.0000

 Solvent             : h2o
 Using internal parameter file: .param_gbsa2_h2o
 Gsolv ref. state (COSMO-RS): gsolv [1 M gas/solution]
 temperature (mdtemp)       :    298.150000000000     
 dielectric constant        :    80.2000000000000     
 rho                        :    1.00000000000000     
 mass                       :    18.0000000000000     
 surface tension            :    15.5689454083859     
 probe radius               :   0.975313790000000     
 vdW radii scaling          :    1.00000000000000     
 Gshift (Eh)                :   1.857443126794793E-003
 c1                         :    1.55243817000000     
 soset                      :   0.130326360000000     
 HB correction              :  T

            Z     q(EN)     CN     RAES       Cart. coordinates
     1  N   5.0   -0.19    3.25    1.97    68.12785    44.17647   163.41460
     2  C   4.0    0.03    4.41    4.40    65.67610    44.41796   162.22066
     3  C   4.0    0.16    3.42    3.08    65.97815    46.31426   160.05669
     4  O   6.0   -0.28    1.23    1.80    67.27217    48.20812   160.32021
     5  C   4.0   -0.04    4.37    4.32    63.69672    45.33823   164.08971
     6  C   4.0   -0.04    4.07    3.75    62.72868    43.12406   165.65065
     7  S   6.0   -0.06    2.58    3.10    61.08350    40.89693   163.64627
     8  C   4.0   -0.06    3.91    3.47    58.47633    42.90123   162.59943
     9  H   1.0    0.09    1.03    1.43    68.46149    45.32937   164.89471
    10  H   1.0    0.04    1.09    1.44    65.12737    42.56622   161.47244
    11  H   1.0    0.05    1.03    1.43    64.52302    46.77454   165.32110
    12  H   1.0    0.06    1.04    1.43    62.13546    46.23398   163.08781
    13  H   1.0    0.04    1.07    1.44    64.27551    42.06894   166.50723
    14  H   1.0    0.04    1.06    1.44    61.43121    43.74236   167.12744
    15  H   1.0    0.04    1.05    1.44    56.95106    41.63267   162.09184
    16  H   1.0    0.05    1.04    1.43    57.87845    44.07673   164.16714
    17  H   1.0    0.06    1.04    1.43    59.02797    44.09284   161.02865
    18  N   5.0   -0.14    3.54    2.11    64.84185    45.64675   157.92071
    19  C   4.0    0.03    4.55    4.61    65.16372    46.95469   155.54143
    20  C   4.0    0.16    3.47    3.10    63.29531    49.12841   155.25699
    21  O   6.0   -0.30    1.32    1.80    62.01391    49.81389   157.03870
    22  C   4.0   -0.03    4.42    4.42    64.73468    44.92356   153.55612
    23  C   4.0   -0.05    4.16    3.93    66.03062    45.48042   151.04236
    24  C   4.0   -0.07    4.17    3.94    61.89167    44.31915   153.54027
    25  C   4.0   -0.08    4.06    3.72    68.77669    46.23882   151.50774
    26  H   1.0    0.07    1.09    1.44    63.79313    44.05529   157.86619
    27  H   1.0    0.05    1.07    1.44    67.07042    47.74593   155.55360
    28  H   1.0    0.04    1.08    1.44    65.71166    43.25436   154.27865
    29  H   1.0    0.04    1.03    1.43    66.01673    43.74695   149.93592
    30  H   1.0    0.04    1.02    1.43    65.04969    46.88507   149.89582
    31  H   1.0    0.04    1.00    1.43    61.62968    42.28310   153.57220
    32  H   1.0    0.06    1.02    1.43    60.98603    45.10041   155.21311
    33  H   1.0    0.08    1.03    1.43    60.95245    45.15458   151.93147
    34  H   1.0    0.04    1.00    1.43    69.86700    46.06739   149.77204
    35  H   1.0    0.04    1.00    1.43    68.93906    48.18125   152.15043
    36  H   1.0    0.04    1.00    1.43    69.60934    44.99126   152.91039
    37  N   5.0   -0.14    3.39    2.02    63.16953    50.30592   153.00010
    38  C   4.0    0.02    4.26    4.11    61.01576    51.87680   152.40187
    39  C   4.0    0.15    3.30    3.05    59.21942    50.40718   150.66816
    40  O   6.0   -0.31    1.28    1.80    59.13184    48.10777   150.67370
    41  H   1.0    0.07    1.08    1.44    64.18441    49.63439   151.53926
    42  H   1.0    0.07    1.04    1.43    60.07745    52.28032   154.20034
    43  H   1.0    0.04    1.02    1.43    61.63347    53.63511   151.51954
    44  N   5.0   -0.14    3.48    2.07    57.81352    51.82571   149.10520
    45  C   4.0    0.04    4.26    4.13    56.51659    50.86531   146.87720
    46  C   4.0    0.07    3.23    3.04    55.70786    53.26680   145.46752
    47  O   6.0   -0.29    1.19    1.80    55.33900    55.22457   146.66987
    48  C   4.0    0.04    4.10    3.81    54.27576    49.09725   147.53684
    49  O   6.0   -0.26    2.04    1.83    53.87887    47.36676   145.54724
    50  H   1.0    0.10    1.10    1.44    57.74754    53.73411   149.28010
    51  H   1.0    0.05    1.05    1.44    57.85081    49.75329   145.74888
    52  H   1.0    0.06    1.02    1.43    54.79550    48.09896   149.27081
    53  H   1.0    0.05    1.01    1.43    52.56531    50.21827   147.88540
    54  H   1.0    0.12    1.02    1.43    52.96822    45.91608   146.15922
    55  N   5.0   -0.19    3.19    1.95    52.11812    58.25103   143.61508
    56  C   4.0    0.03    4.14    3.89    50.96001    60.53937   144.64872
    57  C   4.0    0.08    3.18    3.03    50.38627    62.32391   142.40459
    58  O   6.0   -0.27    1.12    1.80    51.73199    64.06441   141.73327
    59  C   4.0    0.05    4.10    3.80    52.45967    61.74025   146.85969
    60  O   6.0   -0.22    2.02    1.83    54.61538    63.12871   146.21381
    61  H   1.0    0.08    1.03    1.43    50.87751    56.85706   143.23903
    62  H   1.0    0.04    1.06    1.44    49.14655    59.95559   145.45115
    63  H   1.0    0.05    1.02    1.43    51.20206    63.04263   147.85088
    64  H   1.0    0.06    1.01    1.43    52.99177    60.20053   148.14291
    65  H   1.0    0.13    1.02    1.43    55.73548    61.99711   145.26717
    66  N   5.0   -0.14    3.41    2.02    45.70101    72.58305   143.70990
    67  C   4.0    0.04    4.42    4.42    43.38101    73.55586   144.81671
    68  C   4.0    0.09    3.21    3.04    41.55397    74.72769   142.99071
    69  O   6.0   -0.28    1.12    1.80    42.19991    76.16126   141.28075
    70  C   4.0   -0.03    4.37    4.34    44.30791    75.61592   146.62830
    71  C   4.0   -0.05    4.26    4.12    46.65518    74.37348   147.74082
    72  C   4.0   -0.01    4.38    4.35    47.80680    73.03369   145.45119
    73  H   1.0    0.05    1.05    1.44    42.40321    72.05187   145.86185
    74  H   1.0    0.06    1.03    1.43    44.83669    77.29365   145.55369
    75  H   1.0    0.05    1.02    1.43    42.89087    76.09136   148.04039
    76  H   1.0    0.04    1.02    1.43    47.94862    75.74200   148.55891
    77  H   1.0    0.04    1.02    1.43    46.08419    73.02293   149.18639
    78  H   1.0    0.05    1.02    1.43    49.17413    74.28538   144.55092
    79  H   1.0    0.04    1.02    1.43    48.68452    71.25071   146.00459
    80  N   5.0   -0.20    3.22    1.96    26.83383    65.70657   150.94099
    81  C   4.0    0.03    4.39    4.36    28.39091    64.09019   152.52127
    82  C   4.0    0.14    3.46    3.10    31.00620    63.84464   151.26314
    83  O   6.0   -0.30    1.24    1.80    31.17118    63.00123   149.10931
    84  C   4.0   -0.02    4.28    4.17    27.26283    61.41113   152.68516
    85  C   4.0   -0.08    4.15    3.90    29.13457    59.69957   154.04118
    86  C   4.0   -0.08    4.09    3.79    24.67578    61.35605   153.95184
    87  H   1.0    0.09    1.02    1.43    26.51630    65.06738   149.15869
    88  H   1.0    0.05    1.05    1.44    28.56455    64.97443   154.37984
    89  H   1.0    0.05    1.06    1.44    27.05619    60.74786   150.73468
    90  H   1.0    0.03    1.00    1.43    28.34854    57.81714   154.25809
    91  H   1.0    0.05    1.01    1.43    30.89253    59.56297   152.99508
    92  H   1.0    0.04    1.00    1.43    29.55421    60.44890   155.91180
    93  H   1.0    0.04    1.00    1.43    24.02072    59.41604   154.08288
    94  H   1.0    0.04    1.00    1.43    24.78286    62.14253   155.84774
    95  H   1.0    0.04    1.00    1.43    23.31806    62.43590   152.85884
    96  N   5.0   -0.14    3.44    2.04    33.02481    64.48409   152.66570
    97  C   4.0    0.03    4.36    4.31    35.59969    64.15302   151.76988
    98  C   4.0    0.15    3.46    3.10    37.20045    62.87387   153.80832
    99  O   6.0   -0.31    1.30    1.80    37.15530    63.57109   156.01332
   100  C   4.0   -0.03    4.24    4.08    37.01404    66.63641   151.08861
   101  C   4.0   -0.02    4.16    3.93    35.36519    68.99441   150.95146
   102  C   4.0    0.25    3.08    3.02    36.76905    71.23604   149.60026
   103  O   6.0   -0.29    1.17    1.80    37.80636    70.77426   147.52291
   104  O   6.0   -0.28    1.16    1.80    36.71174    73.33116   150.66561
   105  H   1.0    0.11    1.09    1.44    32.76355    65.31435   154.37119
   106  H   1.0    0.06    1.06    1.44    35.42690    62.96297   150.08712
   107  H   1.0    0.06    1.04    1.43    38.50146    66.97689   152.48321
   108  H   1.0    0.06    1.03    1.43    37.91942    66.41324   149.24834
   109  H   1.0    0.06    1.02    1.43    33.67925    68.60601   149.82144
   110  H   1.0    0.06    1.02    1.43    34.76461    69.63889   152.81599
   111  N   5.0   -0.14    3.47    2.06    38.69704    60.96511   153.07738
   112  C   4.0    0.04    4.45    4.47    40.50372    59.85033   154.84172
   113  C   4.0    0.16    3.52    3.12    42.24549    61.95176   155.78234
   114  O   6.0   -0.29    1.26    1.80    42.98201    63.65527   154.40655
   115  C   4.0   -0.04    4.28    4.15    42.01147    57.75934   153.53589
   116  C   4.0   -0.04    4.19    3.99    43.93833    56.55245   155.27928
   117  C   4.0   -0.00    4.19    3.98    44.96629    54.03169   154.28969
   118  N   5.0   -0.13    3.38    2.01    46.25053    54.15738   151.87581
   119  C   4.0    0.10    3.33    3.06    48.48356    55.23872   151.39372
   120  N   5.0   -0.16    3.26    1.97    49.65824    56.62897   153.11355
   121  N   5.0   -0.18    3.23    1.96    49.54988    54.95880   149.11645
   122  H   1.0    0.07    1.07    1.44    39.03725    60.72439   151.21574
   123  H   1.0    0.06    1.06    1.44    39.45886    59.09292   156.45496
   124  H   1.0    0.05    1.04    1.43    40.69898    56.32120   152.87677
   125  H   1.0    0.05    1.03    1.43    42.98030    58.59330   151.91333
   126  H   1.0    0.06    1.03    1.43    45.42881    57.92604   155.64577
   127  H   1.0    0.05    1.03    1.43    43.02562    56.15365   157.09052
   128  H   1.0    0.05    1.03    1.43    46.24674    53.22361   155.69090
   129  H   1.0    0.07    1.04    1.43    43.39002    52.72031   154.06003
   130  H   1.0    0.08    1.07    1.44    45.50295    53.03869   150.52461
   131  H   1.0    0.10    1.04    1.43    48.95972    56.89051   154.85809
   132  H   1.0    0.11    1.03    1.43    51.35414    57.42815   152.77397
   133  H   1.0    0.08    1.03    1.43    48.68494    53.99325   147.72313
   134  H   1.0    0.10    1.03    1.43    51.19464    55.83482   148.69686
   135  N   5.0   -0.14    3.53    2.10    42.90349    61.71971   158.20752
   136  C   4.0    0.03    4.47    4.50    44.70170    63.43477   159.35853
   137  C   4.0    0.15    3.63    3.19    47.02963    63.36135   157.68855
   138  O   6.0   -0.31    1.32    1.80    47.93200    61.31132   157.02254
   139  C   4.0   -0.03    4.34    4.27    45.32198    62.51427   162.02201
   140  C   4.0   -0.02    3.53    3.13    47.43410    63.86692   163.36579
   141  C   4.0   -0.04    3.46    3.10    47.41021    66.44651   163.89746
   142  C   4.0   -0.04    3.48    3.11    49.36127    62.42433   164.40534
   143  C   4.0   -0.02    3.45    3.09    49.27317    67.56648   165.34930
   144  C   4.0   -0.05    3.46    3.10    51.12825    63.48777   166.00934
   145  C   4.0    0.07    3.45    3.09    51.09738    66.06858   166.50938
   146  O   6.0   -0.24    2.11    1.84    52.86236    67.13626   168.06192
   147  H   1.0    0.10    1.11    1.45    42.06669    60.42098   159.33881
   148  H   1.0    0.04    1.07    1.44    43.91981    65.33492   159.37725
   149  H   1.0    0.05    1.03    1.43    43.61738    62.68778   163.17335
   150  H   1.0    0.05    1.04    1.43    45.79441    60.51180   161.89262
   151  H   1.0    0.06    1.03    1.43    45.85495    67.61386   163.28188
   152  H   1.0    0.05    1.03    1.43    49.41236    60.41202   164.09033
   153  H   1.0    0.07    1.03    1.43    49.23647    69.56216   165.73594
   154  H   1.0    0.05    1.03    1.43    52.48148    62.27331   166.94307
   155  H   1.0    0.12    1.04    1.43    53.71693    65.81947   169.00120
   156  N   5.0   -0.10    3.69    2.26    48.02100    65.58211   157.05714
   157  C   4.0    0.04    4.58    4.65    50.12704    65.68666   155.28616
   158  C   4.0    0.16    3.42    3.08    52.22381    63.80548   155.96671
   159  O   6.0   -0.29    1.20    1.80    53.32323    62.65926   154.30160
   160  C   4.0   -0.05    4.32    4.23    51.02590    68.44935   155.35055
   161  C   4.0   -0.05    4.26    4.11    49.56300    69.65959   157.53400
   162  C   4.0   -0.01    4.37    4.34    47.13635    68.12201   157.64174
   163  H   1.0    0.06    1.05    1.44    49.46160    65.14915   153.40123
   164  H   1.0    0.04    1.02    1.43    53.05982    68.57898   155.61364
   165  H   1.0    0.04    1.02    1.43    50.54158    69.37158   153.57782
   166  H   1.0    0.04    1.02    1.43    50.57151    69.45347   159.31875
   167  H   1.0    0.04    1.02    1.43    49.19183    71.65283   157.21500
   168  H   1.0    0.04    1.03    1.43    46.25865    68.24240   159.49014
   169  H   1.0    0.05    1.02    1.43    45.77664    68.71764   156.19848
   170  N   5.0   -0.14    3.47    2.06    52.78285    63.67470   158.46384
   171  C   4.0    0.03    4.37    4.32    54.87017    62.28635   159.55269
   172  C   4.0    0.16    3.46    3.10    54.36463    59.50578   160.21902
   173  O   6.0   -0.30    1.28    1.80    56.03102    58.20193   161.14982
   174  C   4.0   -0.05    4.33    4.25    55.73521    63.52003   162.01514
   175  C   4.0   -0.05    4.14    3.89    57.73832    65.58805   161.78115
   176  C   4.0   -0.01    4.23    4.07    59.71591    65.15096   163.86606
   177  N   5.0   -0.14    3.39    2.02    61.29835    67.32929   164.33606
   178  C   4.0    0.09    3.34    3.06    60.72068    69.22528   165.88543
   179  N   5.0   -0.18    3.26    1.97    58.58072    69.22684   167.20233
   180  N   5.0   -0.19    3.24    1.97    62.34974    71.12568   166.15737
   181  H   1.0    0.08    1.08    1.44    51.63148    64.58080   159.68698
   182  H   1.0    0.06    1.06    1.44    56.39368    62.25309   158.14744
   183  H   1.0    0.04    1.06    1.44    54.07087    64.23193   162.99135
   184  H   1.0    0.06    1.07    1.44    56.52528    61.99391   163.15702
   185  H   1.0    0.04    1.03    1.43    58.64937    65.50919   159.93780
   186  H   1.0    0.05    1.02    1.43    56.88282    67.45038   161.98403
   187  H   1.0    0.04    1.03    1.43    58.77278    64.62443   165.62316
   188  H   1.0    0.04    1.03    1.43    60.93286    63.58033   163.32174
   189  H   1.0    0.08    1.07    1.44    62.85752    67.49784   163.24779
   190  H   1.0    0.09    1.03    1.43    57.13785    68.05176   166.80187
   191  H   1.0    0.09    1.03    1.43    58.17836    70.64957   168.40088
   192  H   1.0    0.08    1.03    1.43    64.06238    71.08380   165.32804
   193  H   1.0    0.08    1.03    1.43    61.98227    72.54732   167.36727
   194  N   5.0   -0.13    3.51    2.09    52.03480    58.62748   159.87945
   195  C   4.0    0.04    4.44    4.45    51.42806    56.11023   160.76651
   196  C   4.0    0.16    3.46    3.10    52.93648    54.16742   159.23811
   197  O   6.0   -0.28    1.26    1.80    53.60495    54.63210   157.09874
   198  C   4.0   -0.04    4.30    4.19    48.55809    55.82720   160.58404
   199  C   4.0   -0.04    4.21    4.02    47.60772    53.12453   160.49584
   200  C   4.0    0.23    3.15    3.03    47.98281    51.78788   163.03456
   201  O   6.0   -0.34    1.32    1.80    48.32641    49.45406   162.94304
   202  O   6.0   -0.33    1.28    1.80    47.92932    53.08621   165.01815
   203  H   1.0    0.11    1.09    1.44    50.70622    59.63439   158.93596
   204  H   1.0    0.05    1.05    1.44    52.03382    55.95436   162.74839
   205  H   1.0    0.05    1.03    1.43    47.71782    56.73367   162.24011
   206  H   1.0    0.05    1.04    1.43    47.91218    56.85114   158.91699
   207  H   1.0    0.04    1.03    1.43    45.56881    53.16405   160.15150
   208  H   1.0    0.06    1.03    1.43    48.51393    52.02305   159.00582
   209  N   5.0   -0.15    3.47    2.06    53.37541    51.93273   160.36336
   210  C   4.0    0.04    4.42    4.41    55.13178    50.10043   159.35928
   211  C   4.0    0.16    3.43    3.09    54.37088    47.32517   159.60697
   212  O   6.0   -0.31    1.30    1.80    55.70436    45.68625   158.66452
   213  C   4.0    0.06    4.24    4.08    57.84526    50.33855   160.52197
   214  O   6.0   -0.25    2.12    1.84    58.22742    48.74507   162.64305
   215  C   4.0   -0.05    4.10    3.80    58.52690    53.08990   161.02357
   216  H   1.0    0.09    1.07    1.44    52.91601    51.76879   162.20786
   217  H   1.0    0.07    1.07    1.44    55.29645    50.52849   157.34272
   218  H   1.0    0.08    1.09    1.44    59.13782    49.57492   159.11569
   219  H   1.0    0.12    1.02    1.43    57.65540    49.60381   164.14847
   220  H   1.0    0.06    1.00    1.43    60.53092    53.22587   161.44229
   221  H   1.0    0.07    1.00    1.43    58.11809    54.23997   159.37980
   222  H   1.0    0.06    1.00    1.43    57.46824    53.85824   162.61130
   223  N   5.0   -0.14    3.50    2.08    52.29963    46.73997   160.91406
   224  C   4.0    0.04    4.45    4.46    51.35994    44.17533   160.96224
   225  C   4.0    0.16    3.47    3.10    49.03398    43.88715   159.27614
   226  O   6.0   -0.29    1.24    1.80    48.68753    41.99251   157.99339
   227  C   4.0   -0.03    4.31    4.22    50.68502    43.32249   163.65330
   228  C   4.0   -0.01    3.56    3.14    49.61286    40.67793   163.73219
   229  C   4.0   -0.04    3.47    3.10    50.99158    38.61606   162.85825
   230  C   4.0   -0.04    3.46    3.10    47.21449    40.24157   164.70676
   231  C   4.0   -0.04    3.37    3.07    49.98196    36.19957   162.91061
   232  C   4.0   -0.04    3.37    3.07    46.22925    37.81768   164.83039
   233  C   4.0   -0.03    3.37    3.07    47.59704    35.78784   163.91248
   234  H   1.0    0.11    1.12    1.45    51.15653    48.06845   161.68979
   235  H   1.0    0.06    1.07    1.44    52.85621    42.97359   160.20378
   236  H   1.0    0.04    1.03    1.43    52.40081    43.41956   164.79940
   237  H   1.0    0.05    1.03    1.43    49.32170    44.65424   164.44538
   238  H   1.0    0.05    1.03    1.43    52.87806    38.89921   162.14054
   239  H   1.0    0.05    1.03    1.43    46.10467    41.81281   165.40088
   240  H   1.0    0.05    1.03    1.43    51.03956    34.62932   162.15014
   241  H   1.0    0.05    1.03    1.43    44.37660    37.52136   165.63967
   242  H   1.0    0.06    1.03    1.43    46.80209    33.91145   163.98414
   243  N   5.0   -0.13    3.53    2.10    47.42306    45.81251   159.33499
   244  C   4.0    0.04    4.49    4.52    45.07663    45.57733   157.97748
   245  C   4.0    0.16    3.53    3.13    45.48295    46.09333   155.16451
   246  O   6.0   -0.28    1.24    1.80    47.02695    47.65261   154.39543
   247  C   4.0   -0.04    4.38    4.35    43.16079    47.50487   158.95815
   248  C   4.0   -0.02    4.18    3.96    42.27408    47.00397   161.66896
   249  C   4.0   -0.07    4.11    3.83    41.33456    49.46321   162.83496
   250  C   4.0   -0.08    4.11    3.82    40.18614    45.02460   161.66892
   251  H   1.0    0.11    1.12    1.45    47.67398    47.32739   160.48845
   252  H   1.0    0.05    1.07    1.44    44.42247    43.63660   158.25037
   253  H   1.0    0.05    1.04    1.43    44.05273    49.36040   158.85188
   254  H   1.0    0.05    1.03    1.43    41.52608    47.54700   157.70093
   255  H   1.0    0.05    1.05    1.44    43.86957    46.31316   162.79307
   256  H   1.0    0.04    1.00    1.43    40.58652    49.13589   164.71559
   257  H   1.0    0.05    1.00    1.43    42.85699    50.83803   162.99879
   258  H   1.0    0.04    1.00    1.43    39.85149    50.28240   161.67683
   259  H   1.0    0.04    1.00    1.43    39.55199    44.63497   163.58663
   260  H   1.0    0.04    1.00    1.43    38.56845    45.70085   160.59366
   261  H   1.0    0.04    1.00    1.43    40.84234    43.26141   160.84912
   262  N   5.0   -0.09    3.67    2.23    43.96257    44.80903   153.61738
   263  C   4.0    0.03    4.61    4.67    43.73679    45.57230   150.96921
   264  C   4.0    0.15    3.50    3.12    42.40980    48.12811   150.73087
   265  O   6.0   -0.30    1.26    1.80    41.50386    49.26948   152.51369
   266  C   4.0   -0.05    4.33    4.25    42.05260    43.56192   149.72260
   267  C   4.0   -0.04    4.25    4.11    40.45448    42.61536   151.95398
   268  C   4.0   -0.02    4.35    4.28    42.20283    42.80160   154.26464
   269  H   1.0    0.05    1.05    1.44    45.63725    45.69534   150.16954
   270  H   1.0    0.05    1.03    1.43    40.88773    44.35883   148.23162
   271  H   1.0    0.04    1.02    1.43    43.20517    42.03705   148.96353
   272  H   1.0    0.05    1.03    1.43    38.82995    43.85110   152.23540
   273  H   1.0    0.03    1.02    1.43    39.79727    40.69522   151.65532
   274  H   1.0    0.03    1.02    1.43    41.10678    43.25585   155.94634
   275  H   1.0    0.04    1.02    1.43    43.26848    41.05632   154.56505
   276  N   5.0   -0.09    3.77    2.37    42.21952    48.97616   148.34406
   277  C   4.0    0.03    4.63    4.69    40.68475    51.17041   147.75857
   278  C   4.0    0.15    3.42    3.08    38.26922    50.18820   146.48698
   279  O   6.0   -0.30    1.24    1.80    37.93200    47.96171   145.98028
   280  C   4.0   -0.05    4.27    4.15    42.37589    52.85112   146.08451
   281  C   4.0   -0.04    4.26    4.12    44.62638    51.11426   145.43927
   282  C   4.0   -0.01    4.39    4.37    43.71081    48.43788   146.12739
   283  H   1.0    0.06    1.08    1.44    40.12297    52.03052   149.54797
   284  H   1.0    0.05    1.02    1.43    41.36888    53.39784   144.37521
   285  H   1.0    0.04    1.02    1.43    42.95266    54.55060   147.08439
   286  H   1.0    0.04    1.02    1.43    45.15687    51.23790   143.45740
   287  H   1.0    0.04    1.03    1.43    46.26771    51.53102   146.60615
   288  H   1.0    0.05    1.02    1.43    42.50297    47.64596   144.65048
   289  H   1.0    0.04    1.02    1.43    45.24457    47.12938   146.50088
   290  N   5.0   -0.14    3.46    2.05    36.50924    52.00176   146.19562
   291  C   4.0    0.03    4.33    4.25    33.97054    51.41316   145.41421
   292  C   4.0    0.08    3.23    3.04    33.56039    51.86952   142.61962
   293  O   6.0   -0.28    1.12    1.80    34.57760    53.54758   141.39896
   294  C   4.0   -0.05    4.38    4.34    32.01723    53.00053   146.83511
   295  C   4.0   -0.02    4.18    3.96    31.34665    51.92566   149.43316
   296  C   4.0   -0.08    4.12    3.84    30.00887    53.98899   150.93095
   297  C   4.0   -0.08    4.10    3.81    29.65082    49.60730   149.19399
   298  H   1.0    0.08    1.06    1.44    37.00999    53.83602   146.30703
   299  H   1.0    0.05    1.07    1.44    33.72052    49.39556   145.79941
   300  H   1.0    0.05    1.03    1.43    32.75970    54.91771   147.00780
   301  H   1.0    0.04    1.04    1.43    30.30207    53.14308   145.70281
   302  H   1.0    0.05    1.05    1.44    33.09107    51.37905   150.40629
   303  H   1.0    0.03    1.00    1.43    29.52350    53.31950   152.80895
   304  H   1.0    0.04    1.00    1.43    31.23851    55.61875   151.13620
   305  H   1.0    0.04    1.00    1.43    28.30077    54.58502   149.96165
   306  H   1.0    0.03    1.00    1.43    29.24545    48.80876   151.04226
   307  H   1.0    0.04    1.00    1.43    27.87431    50.12635   148.30184
   308  H   1.0    0.04    1.00    1.43    30.52590    48.12760   148.06507
   309  N   5.0   -0.20    3.24    1.97    28.80042    40.46092   151.42352
   310  C   4.0    0.02    4.31    4.21    31.40646    39.72650   151.79398
   311  C   4.0    0.14    3.38    3.07    31.56461    36.86218   152.30768
   312  O   6.0   -0.29    1.23    1.80    29.74176    35.53163   152.75092
   313  C   4.0   -0.05    4.33    4.25    32.59495    41.29247   153.91775
   314  C   4.0   -0.05    4.06    3.72    32.43148    44.11686   153.36426
   315  S   6.0   -0.05    2.47    3.10    34.54648    45.90288   155.46766
   316  C   4.0   -0.07    3.88    3.43    32.38470    47.91298   157.18764
   317  H   1.0    0.09    1.03    1.43    27.65124    40.10225   152.91218
   318  H   1.0    0.04    1.05    1.44    32.36865    40.09803   149.99357
   319  H   1.0    0.05    1.03    1.43    31.60227    40.86304   155.67468
   320  H   1.0    0.04    1.04    1.43    34.57565    40.76828   154.14281
   321  H   1.0    0.04    1.07    1.44    33.05580    44.50603   151.44013
   322  H   1.0    0.04    1.06    1.44    30.51754    44.82451   153.61193
   323  H   1.0    0.04    1.05    1.44    33.48738    48.88659   158.61594
   324  H   1.0    0.04    1.04    1.43    31.56250    49.28537   155.90988
   325  H   1.0    0.04    1.04    1.43    30.94604    46.75561   158.07402
   326  N   5.0   -0.14    3.46    2.05    33.91239    35.87867   152.08616
   327  C   4.0    0.04    4.38    4.35    34.26900    33.23617   151.39909
   328  C   4.0    0.08    3.22    3.04    34.69913    31.67739   153.79501
   329  O   6.0   -0.33    1.26    1.80    36.32274    32.32251   155.30807
   330  C   4.0   -0.02    4.25    4.09    36.45020    33.03706   149.45933
   331  C   4.0   -0.07    4.11    3.83    39.04545    33.62406   150.58074
   332  C   4.0   -0.08    4.10    3.81    36.48472    30.44290   148.20224
   333  H   1.0    0.07    1.07    1.44    35.38360    37.04767   151.76806
   334  H   1.0    0.05    1.06    1.44    32.50375    32.62281   150.50270
   335  H   1.0    0.04    1.06    1.44    36.02207    34.45066   148.00763
   336  H   1.0    0.04    1.00    1.43    40.40239    33.84627   149.05556
   337  H   1.0    0.04    1.00    1.43    39.03281    35.35006   151.69373
   338  H   1.0    0.05    1.00    1.43    39.67606    32.09008   151.79129
   339  H   1.0    0.04    1.00    1.43    37.92147    30.41703   146.73383
   340  H   1.0    0.04    1.00    1.43    36.94072    28.97568   149.55956
   341  H   1.0    0.04    1.00    1.43    34.67495    30.01814   147.32630
   342  N   5.0   -0.20    3.21    1.96    32.84312    31.37734   159.38049
   343  C   4.0    0.04    4.19    3.98    33.91164    33.10525   161.24101
   344  C   4.0    0.09    3.18    3.03    31.97589    33.57534   163.37507
   345  O   6.0   -0.28    1.14    1.80    30.81652    35.56116   163.53772
   346  C   4.0   -0.03    4.25    4.10    34.66424    35.60786   159.94035
   347  C   4.0   -0.05    4.14    3.88    37.26552    36.63700   160.65979
   348  C   4.0   -0.01    4.16    3.93    39.52337    35.20093   159.52928
   349  N   5.0   -0.14    3.40    2.02    40.25431    32.96551   160.94828
   350  C   4.0    0.10    3.35    3.06    40.53223    30.59636   160.16123
   351  N   5.0   -0.18    3.26    1.97    40.22462    29.95622   157.73255
   352  N   5.0   -0.18    3.27    1.97    41.38530    28.87650   161.78612
   353  H   1.0    0.10    1.03    1.43    31.56521    32.15790   158.19457
   354  H   1.0    0.06    1.05    1.44    35.54488    32.14777   162.07135
   355  H   1.0    0.06    1.04    1.43    34.60807    35.34089   157.90065
   356  H   1.0    0.06    1.04    1.43    33.23516    37.01049   160.43750
   357  H   1.0    0.04    1.03    1.43    37.38050    38.57109   159.95979
   358  H   1.0    0.04    1.03    1.43    37.42907    36.70607   162.70954
   359  H   1.0    0.06    1.04    1.43    39.07089    34.66569   157.59758
   360  H   1.0    0.04    1.02    1.43    41.15493    36.47222   159.50936
   361  H   1.0    0.10    1.11    1.45    40.74221    33.24432   162.77888
   362  H   1.0    0.11    1.09    1.44    39.01705    31.02369   156.68241
   363  H   1.0    0.08    1.04    1.43    40.14238    28.08821   157.36643
   364  H   1.0    0.13    1.11    1.44    41.41387    29.35960   163.66649
   365  H   1.0    0.09    1.03    1.43    41.28648    27.03513   161.33229
   366  N   5.0   -0.20    3.25    1.97    35.71699    34.10205   172.21369
   367  C   4.0    0.03    4.32    4.23    37.58247    36.10100   172.00711
   368  C   4.0    0.15    3.45    3.09    36.01732    38.46113   171.39597
   369  O   6.0   -0.29    1.24    1.80    34.60276    38.56938   169.56425
   370  C   4.0   -0.04    4.21    4.02    39.61476    35.59275   169.98607
   371  C   4.0   -0.03    4.16    3.93    38.53986    34.97483   167.35723
   372  C   4.0    0.24    3.11    3.02    38.71919    32.12479   166.62452
   373  O   6.0   -0.32    1.31    1.80    40.90219    31.37364   166.09212
   374  O   6.0   -0.30    1.15    1.80    36.76503    30.81157   166.47565
   375  H   1.0    0.11    1.04    1.43    34.25990    34.29815   170.99435
   376  H   1.0    0.04    1.05    1.44    38.52575    36.27812   173.83857
   377  H   1.0    0.04    1.03    1.43    40.80999    37.27067   169.88135
   378  H   1.0    0.05    1.03    1.43    40.79586    34.02462   170.63276
   379  H   1.0    0.07    1.03    1.43    36.59320    35.62870   167.18699
   380  H   1.0    0.04    1.03    1.43    39.69628    35.96970   165.96678
   381  N   5.0   -0.14    3.45    2.05    36.16203    40.23162   173.20582
   382  C   4.0    0.04    4.36    4.31    34.72926    42.53937   173.09270
   383  C   4.0    0.15    3.45    3.09    36.21572    44.65981   171.83090
   384  O   6.0   -0.30    1.23    1.80    38.51118    44.71911   171.60040
   385  C   4.0   -0.07    4.12    3.84    33.94983    43.45116   175.71575
   386  H   1.0    0.08    1.07    1.44    37.55980    40.12205   174.49404
   387  H   1.0    0.06    1.07    1.44    33.08747    42.11659   171.90712
   388  H   1.0    0.05    1.00    1.43    32.77336    45.12670   175.57854
   389  H   1.0    0.05    1.00    1.43    32.92652    41.97535   176.71211
   390  H   1.0    0.05    1.00    1.43    35.61873    43.93175   176.81742
   391  N   5.0   -0.14    3.57    2.13    34.70980    46.53474   171.06581
   392  C   4.0    0.04    4.49    4.52    35.80469    48.92937   170.47408
   393  C   4.0    0.15    3.46    3.10    33.86691    50.89835   171.24808
   394  O   6.0   -0.30    1.27    1.80    31.63441    50.33584   171.42741
   395  C   4.0   -0.03    4.32    4.23    36.56844    49.00346   167.66162
   396  C   4.0   -0.01    3.58    3.15    34.32966    48.81377   165.91271
   397  C   4.0   -0.04    3.47    3.10    33.39535    46.47799   165.16850
   398  C   4.0   -0.03    3.48    3.11    33.09659    50.99633   165.13529
   399  C   4.0   -0.04    3.38    3.07    31.20912    46.33772   163.75205
   400  C   4.0   -0.04    3.37    3.07    30.89003    50.85691   163.75531
   401  C   4.0   -0.04    3.39    3.07    29.93362    48.52171   163.08780
   402  H   1.0    0.10    1.09    1.44    32.81411    46.54239   171.33024
   403  H   1.0    0.06    1.06    1.44    37.52779    49.16773   171.60091
   404  H   1.0    0.05    1.03    1.43    37.58237    50.76553   167.31854
   405  H   1.0    0.05    1.03    1.43    37.83994    47.40538   167.37775
   406  H   1.0    0.06    1.03    1.43    34.36795    44.77236   165.72623
   407  H   1.0    0.06    1.03    1.43    33.84228    52.79971   165.73820
   408  H   1.0    0.05    1.03    1.43    30.53115    44.51755   163.13271
   409  H   1.0    0.05    1.03    1.43    29.91789    52.56047   163.20357
   410  H   1.0    0.05    1.03    1.43    28.18816    48.40007   162.04434
   411  N   5.0   -0.14    3.54    2.11    34.86253    53.12615   171.84145
   412  C   4.0    0.04    4.44    4.45    33.35156    55.27898   172.50790
   413  C   4.0    0.15    3.44    3.09    32.66539    56.76756   170.14992
   414  O   6.0   -0.31    1.26    1.80    34.11712    56.97698   168.34668
   415  C   4.0   -0.04    4.36    4.31    34.94706    57.05612   174.13766
   416  C   4.0   -0.02    3.58    3.15    36.34928    55.63611   176.17025
   417  C   4.0   -0.05    3.45    3.10    35.28357    55.16383   178.53733
   418  C   4.0   -0.04    3.47    3.10    38.79356    54.79651   175.71107
   419  C   4.0   -0.05    3.45    3.10    36.62346    53.92564   180.40308
   420  C   4.0   -0.04    3.44    3.09    40.15109    53.57997   177.58834
   421  C   4.0    0.07    3.44    3.09    39.08674    53.12245   179.94543
   422  O   6.0   -0.26    2.15    1.85    40.36566    51.91196   181.78422
   423  H   1.0    0.10    1.10    1.44    36.66930    53.49398   171.32376
   424  H   1.0    0.05    1.05    1.44    31.66941    54.59656   173.49232
   425  H   1.0    0.05    1.04    1.43    36.32129    57.98810   172.90946
   426  H   1.0    0.04    1.03    1.43    33.73330    58.50216   174.96966
   427  H   1.0    0.05    1.03    1.43    33.38782    55.81135   178.92202
   428  H   1.0    0.07    1.03    1.43    39.68045    55.13151   173.90470
   429  H   1.0    0.05    1.03    1.43    35.78503    53.54831   182.22188
   430  H   1.0    0.07    1.03    1.43    42.04433    52.90348   177.20954
   431  H   1.0    0.15    1.07    1.44    42.02024    51.29281   181.22692
   432  N   5.0   -0.14    3.53    2.10    30.40404    57.87000   170.19780
   433  C   4.0    0.03    4.43    4.42    29.53581    59.60080   168.21094
   434  C   4.0    0.14    3.42    3.08    29.35309    62.11394   169.62868
   435  O   6.0   -0.31    1.25    1.80    28.24839    62.16938   171.66665
   436  C   4.0   -0.04    4.36    4.30    27.04022    58.54330   167.24277
   437  C   4.0   -0.02    4.18    3.96    25.90459    59.93946   165.01777
   438  C   4.0   -0.08    4.12    3.84    27.78036    60.25720   162.83571
   439  C   4.0   -0.08    4.12    3.84    23.61935    58.46343   164.03215
   440  H   1.0    0.09    1.07    1.44    29.30743    57.82957   171.75762
   441  H   1.0    0.06    1.06    1.44    30.98434    59.66998   166.75302
   442  H   1.0    0.04    1.03    1.43    27.39753    56.58096   166.70593
   443  H   1.0    0.05    1.03    1.43    25.69605    58.54376   168.81094
   444  H   1.0    0.05    1.05    1.44    25.29478    61.82345   165.62148
   445  H   1.0    0.04    1.00    1.43    26.81223    61.06793   161.21333
   446  H   1.0    0.06    1.01    1.43    29.34144    61.49431   163.33023
   447  H   1.0    0.04    1.00    1.43    28.52615    58.42366   162.28480
   448  H   1.0    0.04    1.00    1.43    22.71919    59.51644   162.51977
   449  H   1.0    0.04    1.00    1.43    24.23394    56.64394   163.30317
   450  H   1.0    0.04    1.00    1.43    22.25322    58.14330   165.52882
   451  N   5.0   -0.14    3.46    2.05    30.65961    64.05784   168.69439
   452  C   4.0    0.03    4.31    4.22    30.98557    66.45273   170.00260
   453  C   4.0    0.07    3.25    3.04    30.04855    68.58850   168.31837
   454  O   6.0   -0.32    1.20    1.80    30.86196    68.83375   166.13825
   455  C   4.0   -0.04    4.40    4.38    33.78593    67.03244   170.43333
   456  C   4.0   -0.02    4.19    3.98    35.08213    65.17711   172.21136
   457  C   4.0   -0.07    4.11    3.82    37.65216    64.41674   171.17892
   458  C   4.0   -0.08    4.12    3.84    35.34895    66.37951   174.81844
   459  H   1.0    0.11    1.11    1.45    31.56506    63.90209   167.01339
   460  H   1.0    0.05    1.05    1.44    29.93444    66.36948   171.77817
   461  H   1.0    0.06    1.04    1.43    34.70774    66.97957   168.58321
   462  H   1.0    0.04    1.03    1.43    33.97664    68.96018   171.15273
   463  H   1.0    0.05    1.06    1.44    33.91753    63.47216   172.37463
   464  H   1.0    0.04    1.00    1.43    38.60084    63.12303   172.46519
   465  H   1.0    0.05    1.00    1.43    37.47869    63.50258   169.34498
   466  H   1.0    0.07    1.00    1.43    38.89827    66.03839   170.94647
   467  H   1.0    0.03    1.00    1.43    36.13146    65.03493   176.15160
   468  H   1.0    0.04    1.00    1.43    36.61964    67.99582   174.72739
   469  H   1.0    0.04    1.00    1.43    33.51780    67.02217   175.49077
   470  N   5.0   -0.21    3.17    1.95    35.11150    73.19194   165.98494
   471  C   4.0    0.04    4.27    4.15    37.46374    72.30155   167.04958
   472  C   4.0    0.07    3.25    3.04    38.13230    73.55612   169.56979
   473  O   6.0   -0.29    1.19    1.80    40.30657    73.55513   170.33631
   474  C   4.0   -0.02    4.35    4.30    39.74193    72.71040   165.34148
   475  C   4.0    0.17    3.31    3.06    41.78885    70.89178   166.24289
   476  O   6.0   -0.29    1.23    1.80    41.27216    68.65519   166.50469
   477  N   5.0   -0.18    3.19    1.95    44.12954    71.81884   166.45182
   478  H   1.0    0.10    1.03    1.43    33.70970    71.94565   165.62632
   479  H   1.0    0.06    1.07    1.44    37.30163    70.26828   167.40882
   480  H   1.0    0.06    1.04    1.43    39.24644    72.21105   163.40187
   481  H   1.0    0.05    1.03    1.43    40.36503    74.66695   165.41728
   482  H   1.0    0.14    1.13    1.45    45.28143    70.72191   167.61860
   483  H   1.0    0.09    1.04    1.43    44.32325    73.70391   166.61267
   484  N   5.0   -0.19    3.23    1.96    29.87374    70.39122   178.59969
   485  C   4.0    0.03    4.23    4.07    28.63555    68.02636   179.29827
   486  C   4.0    0.08    3.24    3.04    25.98705    68.71135   180.22414
   487  O   6.0   -0.29    1.14    1.80    25.66783    70.55888   181.57698
   488  C   4.0   -0.04    4.39    4.36    29.96197    66.72725   181.47824
   489  C   4.0   -0.03    4.19    3.97    32.50936    65.56897   180.77420
   490  C   4.0   -0.08    4.11    3.82    34.04921    65.14651   183.18519
   491  C   4.0   -0.08    4.12    3.84    32.12887    63.07482   179.40276
   492  H   1.0    0.09    1.02    1.43    30.64973    71.35154   180.07322
   493  H   1.0    0.04    1.05    1.44    28.54067    66.83535   177.61031
   494  H   1.0    0.05    1.04    1.43    30.23604    68.14025   182.95938
   495  H   1.0    0.04    1.04    1.43    28.73275    65.24963   182.23159
   496  H   1.0    0.03    1.06    1.44    33.53976    66.91054   179.58887
   497  H   1.0    0.03    1.00    1.43    35.95344    64.55241   182.71480
   498  H   1.0    0.04    1.00    1.43    34.19371    66.88496   184.27501
   499  H   1.0    0.04    1.00    1.43    33.16071    63.71540   184.36474
   500  H   1.0    0.03    1.00    1.43    33.92946    62.19182   178.96944
   501  H   1.0    0.05    1.03    1.43    31.05349    61.79608   180.58916
   502  H   1.0    0.04    1.00    1.43    31.11691    63.34406   177.63300
   503  N   5.0   -0.19    3.26    1.97    28.01471    70.78848   158.23754
   504  C   4.0    0.03    4.37    4.32    28.66092    69.04438   160.22138
   505  C   4.0    0.15    3.50    3.12    31.07785    67.71646   159.50059
   506  O   6.0   -0.32    1.31    1.80    31.39943    66.96326   157.33367
   507  C   4.0   -0.04    4.47    4.49    26.70207    66.94259   160.45773
   508  C   4.0   -0.05    4.10    3.81    24.10335    67.99324   160.95897
   509  S   6.0   -0.05    2.58    3.10    22.19839    65.32038   161.79927
   510  C   4.0   -0.07    3.89    3.45    19.20437    66.94636   162.14586
   511  H   1.0    0.09    1.03    1.43    27.98802    70.04783   156.46158
   512  H   1.0    0.05    1.05    1.44    28.87428    70.06985   162.00032
   513  H   1.0    0.04    1.04    1.43    26.68419    65.85633   158.70105
   514  H   1.0    0.05    1.05    1.44    27.27765    65.69369   161.99714
   515  H   1.0    0.04    1.06    1.44    24.13025    69.34784   162.51755
   516  H   1.0    0.04    1.06    1.44    23.33036    68.90623   159.27803
   517  H   1.0    0.04    1.05    1.44    17.87996    65.62079   162.96720
   518  H   1.0    0.04    1.04    1.43    19.45787    68.54243   163.41012
   519  H   1.0    0.04    1.04    1.43    18.55657    67.57185   160.30292
   520  N   5.0   -0.13    3.53    2.10    32.70633    67.32168   161.36927
   521  C   4.0    0.04    4.53    4.58    34.92997    65.83019   160.91272
   522  C   4.0    0.14    3.50    3.12    34.59378    63.34162   162.23387
   523  O   6.0   -0.32    1.35    1.80    33.19106    63.17064   164.07936
   524  C   4.0    0.06    4.26    4.12    37.30726    67.23145   161.80147
   525  O   6.0   -0.25    2.13    1.84    37.50741    69.56743   160.55168
   526  C   4.0   -0.06    4.14    3.88    39.64648    65.64542   161.36023
   527  H   1.0    0.11    1.11    1.44    32.31253    67.83010   163.16662
   528  H   1.0    0.08    1.09    1.44    35.07437    65.53583   158.86813
   529  H   1.0    0.06    1.04    1.43    37.15154    67.69463   163.81296
   530  H   1.0    0.13    1.03    1.43    37.65119    69.27582   158.75794
   531  H   1.0    0.05    1.01    1.43    41.26355    66.78664   161.90317
   532  H   1.0    0.05    1.01    1.43    39.63571    63.97260   162.54450
   533  H   1.0    0.06    1.01    1.43    39.73921    65.11797   159.37863
   534  N   5.0   -0.14    3.50    2.08    35.85492    61.37511   161.30009
   535  C   4.0    0.04    4.49    4.53    35.94733    59.11875   162.82768
   536  C   4.0    0.14    3.41    3.08    38.66723    58.27351   163.22964
   537  O   6.0   -0.33    1.30    1.80    40.29451    58.55056   161.60929
   538  C   4.0   -0.03    4.34    4.27    34.25553    57.05184   161.73890
   539  C   4.0   -0.01    3.60    3.17    35.24133    56.03397   159.30536
   540  C   4.0   -0.04    3.50    3.11    34.93416    57.45435   157.12468
   541  C   4.0   -0.05    3.46    3.10    36.40615    53.67993   159.19419
   542  C   4.0   -0.05    3.48    3.10    35.72732    56.52141   154.82807
   543  C   4.0   -0.04    3.42    3.09    37.25281    52.74777   156.91346
   544  C   4.0    0.06    3.48    3.11    36.89009    54.17191   154.72532
   545  O   6.0   -0.24    2.14    1.85    37.62040    53.20951   152.44870
   546  H   1.0    0.10    1.07    1.44    36.95365    61.56387   159.75095
   547  H   1.0    0.07    1.09    1.44    35.17314    59.64019   164.67801
   548  H   1.0    0.04    1.04    1.43    34.09120    55.55868   163.14277
   549  H   1.0    0.04    1.04    1.43    32.39418    57.88779   161.44616
   550  H   1.0    0.06    1.03    1.43    34.00852    59.26925   157.21819
   551  H   1.0    0.05    1.03    1.43    36.58448    52.59051   160.91085
   552  H   1.0    0.05    1.03    1.43    35.39922    57.59589   153.12465
   553  H   1.0    0.06    1.03    1.43    38.15560    50.92897   156.74955
   554  H   1.0    0.11    1.05    1.44    36.80218    54.18439   151.13437
   555  N   5.0   -0.14    3.46    2.06    39.13879    57.26244   165.49840
   556  C   4.0    0.04    4.34    4.28    41.69087    56.74851   166.36992
   557  C   4.0    0.14    3.47    3.10    41.68478    54.46272   168.08013
   558  O   6.0   -0.32    1.32    1.80    39.87083    54.10621   169.46630
   559  C   4.0   -0.06    4.13    3.87    42.67514    58.90952   168.02726
   560  H   1.0    0.11    1.08    1.44    37.73248    57.08374   166.79396
   561  H   1.0    0.05    1.06    1.44    42.89089    56.49037   164.70922
   562  H   1.0    0.06    1.00    1.43    44.62397    58.57336   168.58593
   563  H   1.0    0.05    1.00    1.43    42.59822    60.70800   167.03472
   564  H   1.0    0.05    1.00    1.43    41.52620    59.08428   169.72318
   565  N   5.0   -0.15    3.46    2.05    43.73607    53.00557   168.11223
   566  C   4.0    0.04    4.40    4.37    43.88130    50.97619   169.94129
   567  C   4.0    0.16    3.39    3.08    45.10103    51.71415   172.50230
   568  O   6.0   -0.29    1.23    1.80    45.01518    50.26891   174.27409
   569  C   4.0    0.04    4.15    3.91    45.27914    48.65310   168.90701
   570  O   6.0   -0.24    2.06    1.83    47.91164    48.98999   168.96819
   571  H   1.0    0.11    1.11    1.45    45.25224    53.29218   166.94035
   572  H   1.0    0.06    1.07    1.44    41.93949    50.41658   170.40211
   573  H   1.0    0.06    1.02    1.43    44.85696    47.04331   170.12822
   574  H   1.0    0.04    1.01    1.43    44.62236    48.25208   166.98688
   575  H   1.0    0.15    1.04    1.44    48.34312    50.16854   167.61644
   576  N   5.0   -0.13    3.57    2.13    46.19651    53.98015   172.61515
   577  C   4.0    0.04    4.42    4.42    47.32320    55.06457   174.82486
   578  C   4.0    0.14    3.50    3.11    47.95513    57.77292   174.10777
   579  O   6.0   -0.31    1.34    1.80    48.07476    58.32032   171.86524
   580  C   4.0   -0.03    4.32    4.23    49.68804    53.61429   175.64023
   581  C   4.0   -0.02    4.26    4.13    51.46665    53.05295   173.47221
   582  C   4.0    0.15    3.25    3.04    53.70830    51.63359   174.54663
   583  O   6.0   -0.29    1.20    1.80    55.47145    52.68783   175.59046
   584  N   5.0   -0.19    3.19    1.95    53.55110    49.11161   174.31349
   585  H   1.0    0.10    1.12    1.45    46.37790    55.09272   171.06040
   586  H   1.0    0.05    1.05    1.44    45.96955    55.05729   176.39698
   587  H   1.0    0.06    1.03    1.43    50.65763    54.72771   177.08234
   588  H   1.0    0.06    1.03    1.43    49.06129    51.83583   176.48338
   589  H   1.0    0.06    1.03    1.43    50.51588    51.92105   172.03508
   590  H   1.0    0.06    1.03    1.43    52.11898    54.81423   172.61850
   591  H   1.0    0.09    1.03    1.43    52.11318    48.30897   173.36222
   592  H   1.0    0.09    1.03    1.43    54.97792    48.02869   174.96272
   593  N   5.0   -0.14    3.45    2.05    48.35301    59.45328   175.91838
   594  C   4.0    0.04    4.46    4.48    48.89214    62.06058   175.27763
   595  C   4.0    0.15    3.45    3.09    49.09778    63.64962   177.65689
   596  O   6.0   -0.32    1.31    1.80    47.57504    63.39518   179.37801
   597  C   4.0   -0.03    4.32    4.24    46.75671    63.28261   173.73564
   598  C   4.0   -0.03    4.21    4.02    47.76005    65.58050   172.36461
   599  C   4.0    0.26    3.09    3.02    45.71971    67.17430   170.95134
   600  O   6.0   -0.30    1.18    1.80    43.47349    66.57400   171.15701
   601  O   6.0   -0.30    1.32    1.80    46.65496    68.98954   169.74409
   602  H   1.0    0.12    1.11    1.45    48.24588    58.98462   177.78871
   603  H   1.0    0.05    1.05    1.44    50.64369    62.11340   174.17535
   604  H   1.0    0.07    1.04    1.43    46.02250    61.94713   172.35347
   605  H   1.0    0.06    1.03    1.43    45.20143    63.82399   174.97869
   606  H   1.0    0.06    1.03    1.43    48.64854    66.91616   173.66540
   607  H   1.0    0.06    1.03    1.43    49.14630    65.01252   170.95030
   608  N   5.0   -0.13    3.51    2.08    50.96868    65.33590   177.70569
   609  C   4.0    0.03    4.46    4.47    51.48811    67.07584   179.74930
   610  C   4.0    0.14    3.43    3.09    50.90063    69.75939   178.88038
   611  O   6.0   -0.29    1.25    1.80    51.21338    70.33536   176.65292
   612  C   4.0    0.06    4.25    4.10    54.32335    66.79309   180.39913
   613  O   6.0   -0.24    2.11    1.84    54.91303    64.24381   180.87826
   614  C   4.0   -0.07    4.08    3.77    55.06837    68.53327   182.55183
   615  H   1.0    0.09    1.07    1.44    52.02289    65.59932   176.14116
   616  H   1.0    0.05    1.06    1.44    50.29562    66.56227   181.35184
   617  H   1.0    0.06    1.04    1.43    55.38513    67.26867   178.67960
   618  H   1.0    0.14    1.04    1.43    54.31550    63.76586   182.55136
   619  H   1.0    0.05    1.00    1.43    57.03427    68.19770   183.04165
   620  H   1.0    0.06    1.00    1.43    54.82504    70.49587   182.00652
   621  H   1.0    0.05    1.00    1.43    53.87400    68.13264   184.17583
   622  N   5.0   -0.14    3.48    2.06    50.13955    71.37614   180.64749
   623  C   4.0    0.04    4.36    4.32    49.44077    73.95695   180.08206
   624  C   4.0    0.25    3.15    3.03    51.09341    75.86531   181.66545
   625  O   6.0   -0.29    1.17    1.80    50.26054    78.00171   182.09698
   626  C   4.0   -0.03    4.32    4.23    46.60876    74.42060   180.53281
   627  C   4.0   -0.01    3.57    3.15    45.01587    72.49191   179.20956
   628  C   4.0   -0.03    3.46    3.10    44.17332    72.84201   176.75260
   629  C   4.0   -0.03    3.49    3.11    44.40907    70.23620   180.40256
   630  C   4.0   -0.02    3.38    3.07    42.81775    70.97595   175.51588
   631  C   4.0   -0.04    3.38    3.07    43.04899    68.36775   179.17722
   632  C   4.0   -0.03    3.37    3.07    42.26105    68.72017   176.71697
   633  O   6.0   -0.28    1.19    1.80    53.18878    75.00857   182.40014
   634  H   1.0    0.08    1.06    1.44    49.88109    70.74823   182.43530
   635  H   1.0    0.07    1.06    1.44    49.88240    74.26433   178.07912
   636  H   1.0    0.05    1.03    1.43    46.23823    74.33944   182.56380
   637  H   1.0    0.05    1.03    1.43    46.18690    76.32622   179.87631
   638  H   1.0    0.06    1.03    1.43    44.61418    74.57549   175.75939
   639  H   1.0    0.05    1.03    1.43    45.00736    69.93065   182.33164
   640  H   1.0    0.08    1.03    1.43    42.23241    71.26035   173.57856
   641  H   1.0    0.05    1.03    1.43    42.62462    66.62956   180.15560
   642  H   1.0    0.06    1.03    1.43    41.25445    67.27046   175.69312
   643  N   5.0   -0.21    3.23    1.96    55.81991    27.60065   166.50957
   644  C   4.0    0.03    4.31    4.22    55.09111    29.19862   164.38983
   645  C   4.0    0.14    3.51    3.12    55.08202    27.48837   162.05124
   646  O   6.0   -0.30    1.27    1.80    56.94318    27.30296   160.68234
   647  C   4.0   -0.03    4.34    4.27    57.02805    31.31687   163.99325
   648  C   4.0   -0.02    3.52    3.13    57.44236    33.11509   166.16860
   649  C   4.0   -0.04    3.46    3.10    55.73854    35.04979   166.70023
   650  C   4.0   -0.04    3.46    3.10    59.70275    33.05034   167.50440
   651  C   4.0   -0.04    3.37    3.07    56.32914    36.92572   168.42408
   652  C   4.0   -0.04    3.37    3.07    60.29792    34.93170   169.22959
   653  C   4.0   -0.04    3.36    3.07    58.62935    36.89761   169.67409
   654  H   1.0    0.09    1.02    1.43    57.52854    26.74088   166.35630
   655  H   1.0    0.04    1.05    1.44    53.20682    29.93001   164.81166
   656  H   1.0    0.05    1.04    1.43    58.81105    30.40440   163.50081
   657  H   1.0    0.04    1.03    1.43    56.38110    32.38796   162.35290
   658  H   1.0    0.05    1.03    1.43    53.96093    35.12742   165.70381
   659  H   1.0    0.05    1.03    1.43    61.04016    31.56042   167.11747
   660  H   1.0    0.05    1.03    1.43    54.99141    38.42796   168.76451
   661  H   1.0    0.05    1.03    1.43    62.12974    34.90459   170.12914
   662  H   1.0    0.05    1.03    1.43    59.10830    38.39971   170.96619
   663  N   5.0   -0.10    3.70    2.27    53.03461    26.06746   161.62030
   664  C   4.0    0.04    4.63    4.70    53.32241    23.75747   160.15423
   665  C   4.0    0.15    3.40    3.08    53.35735    24.10067   157.31626
   666  O   6.0   -0.29    1.22    1.80    54.06517    22.39775   155.90855
   667  C   4.0   -0.04    4.36    4.30    51.06213    22.14337   160.96120
   668  C   4.0   -0.04    4.27    4.14    49.05480    24.11859   161.56671
   669  C   4.0   -0.01    4.35    4.30    50.58435    26.20617   162.85477
   670  H   1.0    0.06    1.06    1.44    55.09310    22.82716   160.66671
   671  H   1.0    0.05    1.02    1.43    50.50240    20.81329   159.49824
   672  H   1.0    0.04    1.03    1.43    51.57375    21.09903   162.66084
   673  H   1.0    0.05    1.02    1.43    48.18865    24.82727   159.83505
   674  H   1.0    0.04    1.02    1.43    47.58196    23.38505   162.79515
   675  H   1.0    0.05    1.02    1.43    49.75019    28.07294   162.56905
   676  H   1.0    0.04    1.02    1.43    50.73491    25.82550   164.87659
   677  N   5.0   -0.14    3.56    2.13    52.55068    26.33750   156.49587
   678  C   4.0    0.04    4.37    4.33    52.06359    26.99039   153.89530
   679  C   4.0    0.15    3.35    3.06    54.12344    28.72766   152.72378
   680  O   6.0   -0.30    1.22    1.80    53.69448    30.02379   150.86014
   681  C   4.0   -0.03    4.30    4.20    49.42587    28.19629   153.69703
   682  C   4.0    0.15    3.23    3.04    48.87908    30.28354   155.62566
   683  O   6.0   -0.31    1.26    1.80    49.83884    30.44042   157.73350
   684  N   5.0   -0.19    3.19    1.95    47.15820    31.94934   154.82319
   685  H   1.0    0.11    1.13    1.45    51.93420    27.65559   157.76327
   686  H   1.0    0.06    1.06    1.44    52.09190    25.23862   152.78289
   687  H   1.0    0.05    1.03    1.43    49.21634    28.94480   151.78776
   688  H   1.0    0.04    1.03    1.43    47.99906    26.73235   153.98832
   689  H   1.0    0.10    1.03    1.43    46.55320    33.32554   155.99380
   690  H   1.0    0.08    1.03    1.43    46.38037    31.81322   153.09532
   691  N   5.0   -0.12    3.51    2.08    56.36643    28.64641   153.89544
   692  C   4.0    0.03    4.29    4.18    58.51387    30.20741   153.22758
   693  C   4.0    0.08    3.20    3.04    60.77986    28.51082   152.57621
   694  O   6.0   -0.27    1.13    1.80    60.90377    26.30302   153.24476
   695  C   4.0   -0.05    4.24    4.08    59.23641    31.91037   155.47116
   696  C   4.0   -0.04    4.17    3.94    57.05085    33.56855   156.38875
   697  C   4.0   -0.05    4.14    3.87    56.84039    36.18102   155.13982
   698  C   4.0   -0.04    4.10    3.80    57.96931    38.28820   156.79061
   699  N   5.0   -0.12    4.02    2.90    56.60333    40.71320   156.35262
   700  H   1.0    0.11    1.08    1.44    56.61883    27.51049   155.41245
   701  H   1.0    0.05    1.05    1.44    57.97510    31.32129   151.57061
   702  H   1.0    0.06    1.03    1.43    59.80087    30.65307   157.00614
   703  H   1.0    0.04    1.03    1.43    60.85945    33.05723   154.93136
   704  H   1.0    0.06    1.04    1.43    55.29393    32.53045   156.10049
   705  H   1.0    0.04    1.03    1.43    57.25747    33.81063   158.42271
   706  H   1.0    0.04    1.02    1.43    57.75307    36.13453   153.29484
   707  H   1.0    0.05    1.03    1.43    54.83896    36.56908   154.83916
   708  H   1.0    0.04    1.02    1.43    57.79319    37.79776   158.78510
   709  H   1.0    0.04    1.02    1.43    59.96817    38.56799   156.36926
   710  H   1.0    0.08    1.03    1.43    57.15389    42.16649   157.55344
   711  H   1.0    0.06    1.02    1.43    56.88143    41.34261   154.53252
   712  H   1.0    0.07    1.02    1.43    54.68717    40.44879   156.59779
   713  N   5.0   -0.19    3.29    1.98    28.57733    56.75491   190.53504
   714  C   4.0    0.03    4.24    4.09    31.19722    56.52279   189.86859
   715  C   4.0    0.07    3.24    3.04    32.82945    56.67284   192.22657
   716  O   6.0   -0.28    1.13    1.80    32.28495    58.03478   194.02981
   717  C   4.0   -0.04    4.36    4.31    31.93852    58.79310   188.23883
   718  C   4.0   -0.02    3.58    3.16    30.00764    59.29745   186.20624
   719  C   4.0   -0.05    3.45    3.10    30.13149    58.13838   183.83916
   720  C   4.0   -0.05    3.47    3.10    28.05839    60.99447   186.66542
   721  C   4.0   -0.04    3.45    3.10    28.38924    58.67967   181.97341
   722  C   4.0   -0.05    3.44    3.09    26.32607    61.56185   184.78815
   723  C   4.0    0.07    3.44    3.09    26.46202    60.41133   182.43106
   724  O   6.0   -0.24    2.11    1.84    24.77425    60.91366   180.59227
   725  H   1.0    0.09    1.03    1.43    27.99249    58.50354   191.05273
   726  H   1.0    0.03    1.05    1.44    31.44730    54.72479   188.88417
   727  H   1.0    0.05    1.04    1.43    32.05852    60.44921   189.46703
   728  H   1.0    0.03    1.03    1.43    33.79770    58.46498   187.40683
   729  H   1.0    0.04    1.03    1.43    31.64013    56.82038   183.45447
   730  H   1.0    0.05    1.03    1.43    27.90507    61.93003   188.47179
   731  H   1.0    0.06    1.03    1.43    28.48168    57.76489   180.15461
   732  H   1.0    0.05    1.03    1.43    24.79359    62.86320   185.16695
   733  H   1.0    0.11    1.02    1.43    23.41076    62.03700   181.14957
   734  N   5.0   -0.21    3.22    1.96    47.75498    65.44521   187.62858
   735  C   4.0    0.04    4.25    4.11    49.12046    63.51283   186.22042
   736  C   4.0    0.15    3.37    3.07    47.37535    61.17426   185.91614
   737  O   6.0   -0.31    1.23    1.80    47.17252    59.60210   187.62182
   738  C   4.0    0.04    4.14    3.89    51.59515    63.01515   187.67899
   739  O   6.0   -0.26    2.06    1.83    53.62216    62.46583   186.07023
   740  H   1.0    0.09    1.03    1.43    47.09248    64.89518   189.33235
   741  H   1.0    0.05    1.05    1.44    49.56026    64.27774   184.35457
   742  H   1.0    0.04    1.02    1.43    52.00731    64.73099   188.77483
   743  H   1.0    0.05    1.01    1.43    51.26657    61.47556   189.02489
   744  H   1.0    0.12    1.02    1.43    55.05594    62.00466   187.10524
   745  N   5.0   -0.13    3.47    2.06    46.02371    61.06703   183.77680
   746  C   4.0    0.03    4.42    4.42    44.59478    58.81230   183.07822
   747  C   4.0    0.15    3.47    3.10    46.51225    56.86112   182.15235
   748  O   6.0   -0.31    1.33    1.80    48.27187    57.50844   180.79951
   749  C   4.0   -0.04    4.39    4.37    42.80650    59.31145   180.89825
   750  C   4.0   -0.02    4.19    3.97    40.52971    60.93841   181.60229
   751  C   4.0   -0.08    4.11    3.83    39.39393    62.06074   179.19131
   752  C   4.0   -0.08    4.12    3.83    38.55996    59.36183   182.97373
   753  H   1.0    0.11    1.12    1.45    46.46738    62.21921   182.30327
   754  H   1.0    0.05    1.05    1.44    43.61077    58.13462   184.76618
   755  H   1.0    0.06    1.04    1.43    43.89316    60.25530   179.41711
   756  H   1.0    0.04    1.04    1.43    42.14147    57.50811   180.14490
   757  H   1.0    0.04    1.05    1.44    41.17634    62.50156   182.78762
   758  H   1.0    0.03    1.00    1.43    37.92731    63.41280   179.66169
   759  H   1.0    0.04    1.00    1.43    40.82722    63.05510   178.10148
   760  H   1.0    0.04    1.00    1.43    38.59880    60.57572   178.01175
   761  H   1.0    0.03    1.00    1.43    36.89497    60.47968   183.40705
   762  H   1.0    0.04    1.03    1.43    37.99023    57.79115   181.78733
   763  H   1.0    0.04    1.00    1.43    39.29911    58.62007   184.74349
   764  N   5.0   -0.14    3.49    2.07    46.17899    54.47447   182.89990
   765  C   4.0    0.03    4.51    4.55    48.21814    52.65795   182.83407
   766  C   4.0    0.15    3.53    3.13    47.28508    50.23321   181.66996
   767  O   6.0   -0.31    1.35    1.80    45.04622    49.82050   181.24603
   768  C   4.0   -0.02    4.28    4.15    49.22760    52.08769   185.52311
   769  C   4.0   -0.06    4.10    3.80    50.36469    54.42571   186.77700
   770  C   4.0   -0.06    4.14    3.88    47.15519    50.96218   187.17057
   771  H   1.0    0.08    1.07    1.44    44.69002    54.02235   184.00696
   772  H   1.0    0.06    1.06    1.44    49.71665    53.48624   181.67282
   773  H   1.0    0.04    1.06    1.44    50.73188    50.68666   185.31184
   774  H   1.0    0.04    1.00    1.43    51.19528    53.90809   188.57841
   775  H   1.0    0.05    1.00    1.43    51.84044    55.23303   185.59347
   776  H   1.0    0.07    1.01    1.43    48.94660    55.87278   187.10608
   777  H   1.0    0.04    1.00    1.43    47.95901    50.38369   188.97070
   778  H   1.0    0.05    1.00    1.43    45.68228    52.34065   187.57183
   779  H   1.0    0.06    1.00    1.43    46.30239    49.31642   186.27895
   780  N   5.0   -0.15    3.48    2.06    49.07354    48.52738   181.14140
   781  C   4.0    0.05    4.47    4.49    48.17797    46.14299   180.17692
   782  C   4.0    0.17    3.48    3.11    46.74238    44.77060   182.29593
   783  O   6.0   -0.29    1.23    1.80    47.74213    44.32208   184.33395
   784  C   4.0    0.03    4.15    3.90    50.31942    44.46394   179.23296
   785  O   6.0   -0.25    2.07    1.83    49.18211    42.19256   178.40128
   786  H   1.0    0.08    1.06    1.44    50.88907    48.74290   181.66934
   787  H   1.0    0.06    1.06    1.44    46.88313    46.54069   178.60726
   788  H   1.0    0.04    1.01    1.43    51.30073    45.43287   177.69454
   789  H   1.0    0.05    1.01    1.43    51.65257    44.08263   180.77690
   790  H   1.0    0.12    1.02    1.43    50.31350    41.34263   177.25205
   791  N   5.0   -0.14    3.44    2.04    44.38934    44.06168   181.69833
   792  C   4.0    0.04    4.33    4.26    42.87810    42.49433   183.34460
   793  C   4.0    0.09    3.17    3.03    43.72540    39.69660   183.25065
   794  O   6.0   -0.28    1.12    1.80    42.67366    38.11463   184.56991
   795  C   4.0   -0.04    4.28    4.17    40.04277    42.93122   182.87501
   796  C   4.0   -0.04    4.02    3.66    39.20577    45.65853   183.37443
   797  S   6.0   -0.03    2.47    3.10    39.64225    46.59169   186.70441
   798  C   4.0   -0.07    3.86    3.41    38.32423    49.77885   186.85066
   799  H   1.0    0.08    1.07    1.44    43.69811    44.44487   179.96091
   800  H   1.0    0.06    1.08    1.44    43.29596    43.08743   185.29424
   801  H   1.0    0.04    1.03    1.43    39.62278    42.49077   180.90429
   802  H   1.0    0.05    1.03    1.43    38.95956    41.65698   184.07509
   803  H   1.0    0.06    1.06    1.44    40.27504    47.00767   182.24530
   804  H   1.0    0.04    1.06    1.44    37.19651    45.84108   182.96740
   805  H   1.0    0.04    1.04    1.44    38.95483    50.58146   188.62731
   806  H   1.0    0.06    1.06    1.44    39.05195    50.87677   185.28502
   807  H   1.0    0.04    1.03    1.43    36.27466    49.67644   186.79238
   808  H   1.0    0.09    1.07    1.44    68.31920    42.59225   164.00300
   809  H   1.0    0.05    1.04    1.43    55.48546    53.23143   143.59126
   810  H   1.0    0.10    1.08    1.44    52.90977    58.62435   142.15683
   811  H   1.0    0.05    1.05    1.44    48.81126    62.08686   141.38764
   812  H   1.0    0.09    1.22    1.47    45.82294    70.91552   144.02137
   813  H   1.0    0.07    1.05    1.44    39.70691    74.35395   143.13125
   814  H   1.0    0.09    1.07    1.44    25.30406    65.89888   151.65889
   815  H   1.0    0.05    1.05    1.44    32.38706    50.75605   141.64262
   816  H   1.0    0.08    1.08    1.44    28.71832    42.13419   151.13033
   817  H   1.0    0.05    1.04    1.43    33.65449    30.13655   154.12001
   818  H   1.0    0.11    1.09    1.44    34.08894    30.74872   158.40821
   819  H   1.0    0.07    1.04    1.44    31.64834    32.23456   164.66584
   820  H   1.0    0.10    1.08    1.44    36.45347    32.60288   171.89330
   821  H   1.0    0.05    1.04    1.43    28.76324    69.81105   168.96984
   822  H   1.0    0.09    1.08    1.44    34.40431    74.32460   167.03828
   823  H   1.0    0.05    1.05    1.44    36.78219    74.38433   170.60047
   824  H   1.0    0.08    1.07    1.44    31.13261    70.07027   177.50205
   825  H   1.0    0.05    1.04    1.43    24.50701    67.64793   179.72448
   826  H   1.0    0.09    1.08    1.44    26.45967    71.41727   158.51865
   827  H   1.0    0.09    1.07    1.44    55.88340    28.53492   167.92932
   828  H   1.0    0.05    1.05    1.44    62.22182    29.20488   151.57118
   829  H   1.0    0.09    1.08    1.44    27.61218    56.30975   189.20731
   830  H   1.0    0.05    1.05    1.44    34.40829    55.64176   192.35001
   831  H   1.0    0.09    1.08    1.44    48.78118    66.77104   187.91438
   832  H   1.0    0.06    1.04    1.43    45.13773    39.17492   182.10862

  Z AO/shell   Hii/eV     exponent
  1     Wed Apr 25 08:07:45 CEST 2018   EN: 2.200 GM2: 0.406  GM3: 0.0800  RAES: 1.40
     1s    -10.707211    1.230000
  6     Wed Apr 25 08:07:45 CEST 2018   EN: 2.550 GM2: 0.538  GM3: 0.1500  RAES: 3.00
     2s    -13.970922    2.096432
     2p    -10.063292    1.800000
  7     Wed Apr 25 08:07:45 CEST 2018   EN: 3.040 GM2: 0.461  GM3:-0.0640  RAES: 1.90
     2s    -16.686243    2.339881
     2p    -12.523956    2.014332
  8     Wed Apr 25 08:07:45 CEST 2018   EN: 3.440 GM2: 0.452  GM3:-0.0517  RAES: 1.80
     2s    -20.229985    2.439742
     2p    -15.503117    2.137023
 16     Tue Apr 24 11:44:34 CEST 2018   EN: 2.580 GM2: 0.340  GM3:-0.0502  RAES: 3.10
     3s    -20.029654    1.981333
     3p    -11.377694    2.025643
     3d     -0.420282    1.702555
 no old-style atom pair restraining (fixing) potential

molecular fragmentation (1/2 indicates fragments):
111111111111111111111111111111111111111111111111111111222222222222222222
222222222222222222222222222222222222222222222222222222222222222222222222
222222222222222222222222222222222222222222222222222222222222222222222222
222222222222222222222222222222222222222222222222222222222222222222222222
222222222222222222222222222222222222222222222222222222222222222222222222
222222222222222222222222222222222222222222222222222222222222222222222222
222222222222222222222222222222222222222222222222222222222222222222222222
222222222222222222222222222222222222222222222222222222222222222222222222
222222222222222222222222222222222222222222222222222222222222222222222222
222222222222222222222222222222222222222222222222222222222222222222222222
222222222222222222222222222222222222222222222222222222222222222222222222
2222222222222221122222222222222222222222
# atoms in fragment 1/2:    56   776
 fragment masses (1/2) :      390.50     5399.41
CMA distance (Bohr)    :  22.529
constraining FC (au)   :  0.0500
           ------------------------------------------------- 
          |        Self-Consistent Charge Iterations        |
           ------------------------------------------------- 

 Ncao       : 2071
 Nao        : 2067
 Nshell     : 1241
 Nel        : 2264
 T(el)      :   500.0
 intcut     :    35.0
 scfconv/Eh :  0.100E-06
   qconv/e  :  0.100E-04
 intneglect :  0.100E-08
 broydamp   :      0.400
 iter      E             dE          RMSdq      gap      omega  full diag
   1  -1292.0379458 -0.129204E+04  0.462E+00    2.87       0.0  T
   2  -1295.0362836 -0.299834E+01  0.218E+00    1.25       1.0  T
   3  -1295.2118501 -0.175567E+00  0.120E+00    1.34       1.0  T
   4  -1295.4065197 -0.194670E+00  0.263E-01    0.59       1.0  T
   5  -1295.4176853 -0.111656E-01  0.135E-01    0.77       1.0  T
   6  -1295.4202604 -0.257505E-02  0.620E-02    0.69       1.0  T
   7  -1295.4210602 -0.799853E-03  0.315E-02    0.67       1.0  T
   8  -1295.4212009 -0.140639E-03  0.172E-02    0.65       1.0  T
   9  -1295.4212658 -0.648930E-04  0.857E-03    0.64       1.0  T
  10  -1295.4212801 -0.143352E-04  0.427E-03    0.63       1.0  T
  11  -1295.4212841 -0.401779E-05  0.202E-03    0.63       1.7  T
  12  -1295.4212849 -0.741564E-06  0.994E-04    0.63       3.5  T
  13  -1295.4212851 -0.243642E-06  0.494E-04    0.63       7.0  T
  14  -1295.4212852 -0.466862E-07  0.230E-04    0.63      15.1  T
  15  -1295.4212852 -0.116117E-07  0.123E-04    0.63      28.3  T
  16  -1295.4212852 -0.299451E-08  0.622E-05    0.63      55.8  T
  17  -1295.4212852 -0.780574E-09  0.306E-05    0.63     113.3  T
speedup  1.93
cpu  time for SCC    2 m 19.2 s
wall time for SCC    1 m 12.1 s

   *** convergence criteria satisfied after 17 iterations ***

          eigenvalues
 #    :        1120       1121       1122       1123       1124       1125       1126       1127
 occ. :        2.000      2.000      2.000      2.000      2.000      2.000      2.000      2.000
 eps  :       -10.046    -10.009     -9.969     -9.935     -9.929     -9.915     -9.878     -9.820
 #    :        1128       1129       1130       1131       1132       1133       1134       1135
 occ. :        2.000      2.000      2.000      2.000      1.999      0.002      0.000      0.000
 eps  :        -9.721     -9.690     -9.608     -9.559     -9.483     -8.856     -8.217     -8.068
 #    :        1136       1137       1138       1139       1140       1141       1142       1143
 occ. :        0.000      0.000      0.000      0.000      0.000      0.000      0.000      0.000
 eps  :        -8.013     -7.895     -7.894     -7.787     -7.741     -7.633     -7.627     -7.610


   #   Z            q   n(s)   n(p)   n(d)      C6AA      α(0)
   1   7 N     -0.389  1.319  4.070  0.000    30.069     8.144
   2   6 C      0.028  1.059  2.913  0.000    20.111     6.386
   3   6 C      0.276  1.041  2.683  0.000    22.327     7.738
   4   8 O     -0.508  1.756  4.752  0.000    23.952     6.562
   5   6 C     -0.062  1.050  3.013  0.000    21.663     6.620
   6   6 C     -0.003  1.062  2.941  0.000    20.635     6.468
   7  16 S     -0.209  1.908  4.254  0.047   149.958    20.611
   8   6 C     -0.073  1.061  3.011  0.000    21.963     6.685
   9   1 H      0.149  0.851  0.000  0.000     1.409     1.860
  10   1 H      0.055  0.945  0.000  0.000     2.254     2.348
  11   1 H      0.028  0.972  0.000  0.000     2.611     2.527
  12   1 H      0.056  0.944  0.000  0.000     2.244     2.343
  13   1 H      0.039  0.961  0.000  0.000     2.466     2.456
  14   1 H      0.028  0.972  0.000  0.000     2.611     2.527
  15   1 H      0.078  0.922  0.000  0.000     1.998     2.210
  16   1 H      0.048  0.952  0.000  0.000     2.339     2.392
  17   1 H      0.080  0.920  0.000  0.000     1.984     2.203
  18   7 N     -0.172  1.241  3.931  0.000    24.730     7.386
  19   6 C      0.015  1.059  2.926  0.000    20.319     6.418
  20   6 C      0.282  1.042  2.676  0.000    22.234     7.722
  21   8 O     -0.481  1.746  4.735  0.000    23.371     6.482
  22   6 C     -0.039  1.069  2.970  0.000    21.231     6.552
  23   6 C     -0.070  1.051  3.020  0.000    21.848     6.655
  24   6 C     -0.158  1.046  3.112  0.000    23.615     6.929
  25   6 C     -0.119  1.039  3.080  0.000    22.833     6.814
  26   1 H      0.214  0.786  0.000  0.000     1.039     1.597
  27   1 H      0.074  0.926  0.000  0.000     2.042     2.235
  28   1 H      0.062  0.938  0.000  0.000     2.177     2.307
  29   1 H      0.067  0.933  0.000  0.000     2.114     2.274
  30   1 H      0.043  0.957  0.000  0.000     2.413     2.429
  31   1 H      0.065  0.935  0.000  0.000     2.145     2.291
  32   1 H      0.045  0.955  0.000  0.000     2.390     2.417
  33   1 H      0.099  0.901  0.000  0.000     1.798     2.097
  34   1 H      0.047  0.953  0.000  0.000     2.356     2.400
  35   1 H      0.030  0.970  0.000  0.000     2.593     2.518
  36   1 H      0.044  0.956  0.000  0.000     2.397     2.421
  37   7 N     -0.173  1.243  3.930  0.000    24.752     7.389
  38   6 C     -0.040  1.054  2.986  0.000    21.354     6.591
  39   6 C      0.267  1.043  2.690  0.000    22.500     7.767
  40   8 O     -0.449  1.729  4.720  0.000    22.677     6.385
  41   1 H      0.208  0.792  0.000  0.000     1.064     1.616
  42   1 H      0.097  0.903  0.000  0.000     1.813     2.105
  43   1 H      0.077  0.923  0.000  0.000     2.009     2.217
  44   7 N     -0.186  1.242  3.944  0.000    25.030     7.430
  45   6 C      0.015  1.067  2.918  0.000    20.342     6.424
  46   6 C      0.187  1.093  2.721  0.000    23.999     8.023
  47   8 O     -0.340  1.753  4.587  0.000    20.516     6.073
  48   6 C      0.070  1.041  2.889  0.000    19.630     6.350
  49   8 O     -0.480  1.719  4.761  0.000    22.467     6.399
  50   1 H      0.219  0.781  0.000  0.000     1.015     1.578
  51   1 H      0.109  0.891  0.000  0.000     1.709     2.044
  52   1 H      0.077  0.923  0.000  0.000     2.015     2.220
  53   1 H      0.049  0.951  0.000  0.000     2.335     2.390
  54   1 H      0.360  0.640  0.000  0.000     0.566     1.182
  55   7 N     -0.350  1.318  4.032  0.000    29.017     8.000
  56   6 C      0.008  1.068  2.925  0.000    20.473     6.447
  57   6 C      0.191  1.086  2.723  0.000    23.911     8.008
  58   8 O     -0.379  1.765  4.613  0.000    21.257     6.181
  59   6 C      0.073  1.038  2.889  0.000    19.581     6.342
  60   8 O     -0.476  1.734  4.742  0.000    22.383     6.387
  61   1 H      0.185  0.815  0.000  0.000     1.185     1.705
  62   1 H      0.066  0.934  0.000  0.000     2.133     2.284
  63   1 H      0.040  0.960  0.000  0.000     2.444     2.445
  64   1 H      0.059  0.941  0.000  0.000     2.212     2.326
  65   1 H      0.341  0.659  0.000  0.000     0.611     1.228
  66   7 N     -0.314  1.367  3.948  0.000    28.085     7.871
  67   6 C      0.049  1.050  2.902  0.000    19.737     6.321
  68   6 C      0.208  1.082  2.710  0.000    23.587     7.954
  69   8 O     -0.372  1.748  4.624  0.000    21.137     6.164
  70   6 C     -0.048  1.053  2.995  0.000    21.406     6.582
  71   6 C     -0.065  1.052  3.013  0.000    21.715     6.630
  72   6 C      0.005  1.051  2.944  0.000    20.509     6.450
  73   1 H      0.018  0.982  0.000  0.000     2.760     2.598
  74   1 H      0.057  0.943  0.000  0.000     2.236     2.339
  75   1 H      0.026  0.974  0.000  0.000     2.648     2.545
  76   1 H      0.058  0.942  0.000  0.000     2.222     2.331
  77   1 H      0.033  0.967  0.000  0.000     2.538     2.491
  78   1 H      0.058  0.942  0.000  0.000     2.226     2.333
  79   1 H      0.037  0.963  0.000  0.000     2.483     2.464
  80   7 N     -0.402  1.331  4.071  0.000    30.436     8.194
  81   6 C      0.035  1.062  2.903  0.000    19.996     6.369
  82   6 C      0.277  1.052  2.671  0.000    22.309     7.735
  83   8 O     -0.497  1.742  4.756  0.000    23.723     6.530
  84   6 C     -0.018  1.062  2.955  0.000    20.853     6.495
  85   6 C     -0.110  1.040  3.070  0.000    22.654     6.786
  86   6 C     -0.111  1.039  3.073  0.000    22.683     6.791
  87   1 H      0.160  0.840  0.000  0.000     1.337     1.811
  88   1 H      0.031  0.969  0.000  0.000     2.572     2.508
  89   1 H      0.040  0.960  0.000  0.000     2.445     2.445
  90   1 H      0.063  0.937  0.000  0.000     2.168     2.303
  91   1 H      0.027  0.973  0.000  0.000     2.631     2.537
  92   1 H      0.025  0.975  0.000  0.000     2.664     2.552
  93   1 H      0.058  0.942  0.000  0.000     2.217     2.328
  94   1 H      0.033  0.967  0.000  0.000     2.545     2.495
  95   1 H      0.040  0.960  0.000  0.000     2.444     2.445
  96   7 N     -0.185  1.248  3.937  0.000    24.999     7.426
  97   6 C      0.025  1.062  2.913  0.000    20.159     6.394
  98   6 C      0.277  1.046  2.677  0.000    22.310     7.735
  99   8 O     -0.501  1.743  4.758  0.000    23.817     6.543
 100   6 C     -0.043  1.051  2.993  0.000    21.349     6.578
 101   6 C     -0.083  1.063  3.020  0.000    22.087     6.692
 102   6 C      0.368  1.028  2.604  0.000    20.766     7.457
 103   8 O     -0.640  1.767  4.873  0.000    27.117     6.982
 104   8 O     -0.644  1.775  4.870  0.000    27.231     6.996
 105   1 H      0.210  0.790  0.000  0.000     1.054     1.608
 106   1 H      0.070  0.930  0.000  0.000     2.082     2.256
 107   1 H      0.021  0.979  0.000  0.000     2.711     2.575
 108   1 H      0.052  0.948  0.000  0.000     2.300     2.371
 109   1 H      0.018  0.982  0.000  0.000     2.766     2.601
 110   1 H      0.010  0.990  0.000  0.000     2.887     2.657
 111   7 N     -0.177  1.255  3.922  0.000    24.837     7.402
 112   6 C      0.017  1.064  2.919  0.000    20.293     6.414
 113   6 C      0.284  1.037  2.679  0.000    22.188     7.714
 114   8 O     -0.500  1.749  4.751  0.000    23.784     6.539
 115   6 C     -0.090  1.056  3.033  0.000    22.206     6.708
 116   6 C     -0.082  1.049  3.033  0.000    22.067     6.688
 117   6 C     -0.028  1.050  2.978  0.000    21.158     6.564
 118   7 N     -0.136  1.205  3.932  0.000    23.957     7.269
 119   6 C      0.226  1.021  2.753  0.000    23.253     7.895
 120   7 N     -0.213  1.212  4.001  0.000    25.655     7.523
 121   7 N     -0.236  1.220  4.017  0.000    26.187     7.600
 122   1 H      0.220  0.780  0.000  0.000     1.010     1.574
 123   1 H      0.066  0.934  0.000  0.000     2.127     2.281
 124   1 H      0.092  0.908  0.000  0.000     1.863     2.135
 125   1 H      0.075  0.925  0.000  0.000     2.033     2.230
 126   1 H      0.060  0.940  0.000  0.000     2.197     2.318
 127   1 H      0.051  0.949  0.000  0.000     2.310     2.377
 128   1 H      0.071  0.929  0.000  0.000     2.070     2.250
 129   1 H      0.113  0.887  0.000  0.000     1.673     2.023
 130   1 H      0.230  0.770  0.000  0.000     0.964     1.538
 131   1 H      0.217  0.783  0.000  0.000     1.022     1.584
[...]
 546   1 H      0.214  0.786  0.000  0.000     1.039     1.596
 547   1 H      0.078  0.922  0.000  0.000     2.001     2.212
 548   1 H      0.063  0.937  0.000  0.000     2.159     2.298
 549   1 H      0.062  0.938  0.000  0.000     2.174     2.306
 550   1 H      0.023  0.977  0.000  0.000     2.688     2.564
 551   1 H      0.031  0.969  0.000  0.000     2.566     2.505
 552   1 H      0.038  0.962  0.000  0.000     2.474     2.460
 553   1 H      0.078  0.922  0.000  0.000     2.000     2.212
 554   1 H      0.325  0.675  0.000  0.000     0.649     1.266
 555   7 N     -0.173  1.246  3.927  0.000    24.744     7.388
 556   6 C      0.035  1.051  2.914  0.000    19.997     6.368
 557   6 C      0.274  1.038  2.688  0.000    22.365     7.746
 558   8 O     -0.492  1.732  4.761  0.000    23.616     6.515
 559   6 C     -0.105  1.037  3.068  0.000    22.545     6.768
 560   1 H      0.222  0.778  0.000  0.000     1.001     1.567
 561   1 H      0.070  0.930  0.000  0.000     2.086     2.259
 562   1 H      0.060  0.940  0.000  0.000     2.199     2.319
 563   1 H      0.047  0.953  0.000  0.000     2.354     2.400
 564   1 H      0.044  0.956  0.000  0.000     2.393     2.419
 565   7 N     -0.198  1.260  3.938  0.000    25.304     7.471
 566   6 C      0.015  1.062  2.923  0.000    20.330     6.420
 567   6 C      0.282  1.038  2.680  0.000    22.228     7.720
 568   8 O     -0.466  1.731  4.735  0.000    23.054     6.438
 569   6 C      0.080  1.034  2.886  0.000    19.454     6.318
 570   8 O     -0.467  1.711  4.756  0.000    22.195     6.360
 571   1 H      0.232  0.768  0.000  0.000     0.959     1.534
 572   1 H      0.073  0.927  0.000  0.000     2.056     2.243
 573   1 H      0.068  0.932  0.000  0.000     2.105     2.269
 574   1 H      0.045  0.955  0.000  0.000     2.381     2.413
 575   1 H      0.326  0.674  0.000  0.000     0.649     1.265
 576   7 N     -0.175  1.231  3.944  0.000    24.789     7.395
 577   6 C      0.035  1.051  2.914  0.000    19.984     6.366
 578   6 C      0.272  1.038  2.690  0.000    22.404     7.752
 579   8 O     -0.493  1.740  4.753  0.000    23.632     6.518
 580   6 C     -0.058  1.048  3.010  0.000    21.605     6.616
 581   6 C     -0.095  1.051  3.044  0.000    22.311     6.724
 582   6 C      0.291  1.035  2.674  0.000    22.074     7.693
 583   8 O     -0.493  1.750  4.743  0.000    23.621     6.516
 584   7 N     -0.287  1.265  4.022  0.000    27.405     7.775
 585   1 H      0.204  0.796  0.000  0.000     1.087     1.633
 586   1 H      0.048  0.952  0.000  0.000     2.343     2.394
 587   1 H      0.057  0.943  0.000  0.000     2.240     2.340
 588   1 H      0.062  0.938  0.000  0.000     2.173     2.305
 589   1 H      0.066  0.934  0.000  0.000     2.133     2.284
 590   1 H      0.059  0.941  0.000  0.000     2.206     2.322
 591   1 H      0.225  0.775  0.000  0.000     0.987     1.556
 592   1 H      0.238  0.762  0.000  0.000     0.929     1.510
 593   7 N     -0.182  1.248  3.933  0.000    24.939     7.417
 594   6 C      0.034  1.058  2.907  0.000    19.992     6.365
 595   6 C      0.277  1.040  2.683  0.000    22.314     7.736
 596   8 O     -0.478  1.725  4.753  0.000    23.292     6.471
 597   6 C     -0.039  1.042  2.996  0.000    21.252     6.562
 598   6 C     -0.091  1.063  3.028  0.000    22.241     6.714
 599   6 C      0.371  1.022  2.607  0.000    20.705     7.446
 600   8 O     -0.602  1.767  4.835  0.000    26.175     6.859
 601   8 O     -0.608  1.756  4.851  0.000    26.303     6.876
 602   1 H      0.232  0.768  0.000  0.000     0.957     1.532
 603   1 H      0.054  0.946  0.000  0.000     2.269     2.355
 604   1 H      0.054  0.946  0.000  0.000     2.275     2.359
 605   1 H      0.025  0.975  0.000  0.000     2.658     2.550
 606   1 H      0.016  0.984  0.000  0.000     2.791     2.613
 607   1 H      0.029  0.971  0.000  0.000     2.603     2.523
 608   7 N     -0.160  1.239  3.922  0.000    24.470     7.347
 609   6 C      0.015  1.066  2.919  0.000    20.333     6.421
 610   6 C      0.272  1.039  2.689  0.000    22.402     7.751
 611   8 O     -0.507  1.749  4.758  0.000    23.940     6.560
 612   6 C      0.115  1.046  2.839  0.000    18.789     6.187
 613   8 O     -0.466  1.714  4.751  0.000    22.165     6.355
 614   6 C     -0.138  1.043  3.095  0.000    23.221     6.872
 615   1 H      0.207  0.793  0.000  0.000     1.069     1.619
 616   1 H      0.059  0.941  0.000  0.000     2.211     2.325
 617   1 H      0.051  0.949  0.000  0.000     2.309     2.377
 618   1 H      0.332  0.668  0.000  0.000     0.634     1.250
 619   1 H      0.083  0.917  0.000  0.000     1.945     2.181
 620   1 H      0.054  0.946  0.000  0.000     2.271     2.357
 621   1 H      0.048  0.952  0.000  0.000     2.348     2.396
 622   7 N     -0.161  1.246  3.915  0.000    24.480     7.348
 623   6 C      0.019  1.074  2.907  0.000    20.273     6.413
 624   6 C      0.365  1.026  2.609  0.000    20.811     7.465
 625   8 O     -0.611  1.765  4.846  0.000    26.402     6.889
 626   6 C     -0.063  1.051  3.012  0.000    21.710     6.632
 627   6 C      0.012  1.082  2.905  0.000    27.737     8.639
 628   6 C     -0.036  1.079  2.958  0.000    28.903     8.817
 629   6 C     -0.047  1.080  2.967  0.000    29.167     8.857
 630   6 C     -0.022  1.080  2.942  0.000    28.556     8.763
 631   6 C     -0.035  1.079  2.956  0.000    28.861     8.810
 632   6 C     -0.029  1.076  2.953  0.000    28.724     8.789
 633   8 O     -0.635  1.770  4.865  0.000    26.996     6.966
 634   1 H      0.192  0.808  0.000  0.000     1.150     1.680
 635   1 H      0.039  0.961  0.000  0.000     2.465     2.455
 636   1 H      0.041  0.959  0.000  0.000     2.440     2.443
 637   1 H      0.050  0.950  0.000  0.000     2.315     2.379
 638   1 H      0.018  0.982  0.000  0.000     2.761     2.598
 639   1 H      0.035  0.965  0.000  0.000     2.517     2.481
 640   1 H      0.019  0.981  0.000  0.000     2.755     2.596
 641   1 H      0.044  0.956  0.000  0.000     2.393     2.419
 642   1 H      0.027  0.973  0.000  0.000     2.626     2.534
 643   7 N     -0.389  1.319  4.069  0.000    30.058     8.143
 644   6 C      0.033  1.060  2.907  0.000    20.040     6.377
 645   6 C      0.262  1.050  2.688  0.000    22.590     7.784
 646   8 O     -0.504  1.751  4.753  0.000    23.874     6.551
 647   6 C     -0.076  1.054  3.022  0.000    21.936     6.667
 648   6 C      0.012  1.085  2.904  0.000    27.751     8.641
 649   6 C     -0.044  1.082  2.962  0.000    29.101     8.847
 650   6 C     -0.040  1.081  2.959  0.000    28.995     8.831
 651   6 C     -0.032  1.080  2.952  0.000    28.799     8.800
 652   6 C     -0.033  1.080  2.953  0.000    28.817     8.803
 653   6 C     -0.034  1.077  2.957  0.000    28.839     8.806
 654   1 H      0.148  0.852  0.000  0.000     1.414     1.863
 655   1 H      0.051  0.949  0.000  0.000     2.313     2.379
 656   1 H      0.054  0.946  0.000  0.000     2.275     2.359
 657   1 H      0.057  0.943  0.000  0.000     2.237     2.339
 658   1 H      0.049  0.951  0.000  0.000     2.336     2.390
 659   1 H      0.028  0.972  0.000  0.000     2.614     2.528
 660   1 H      0.029  0.971  0.000  0.000     2.601     2.522
 661   1 H      0.023  0.977  0.000  0.000     2.693     2.566
 662   1 H      0.020  0.980  0.000  0.000     2.730     2.584
 663   7 N     -0.093  1.235  3.858  0.000    23.050     7.131
 664   6 C      0.022  1.061  2.917  0.000    20.172     6.389
 665   6 C      0.279  1.036  2.684  0.000    22.274     7.728
 666   8 O     -0.521  1.759  4.762  0.000    24.257     6.603
 667   6 C     -0.068  1.053  3.015  0.000    21.774     6.639
 668   6 C     -0.076  1.053  3.023  0.000    21.921     6.661
 669   6 C     -0.019  1.055  2.964  0.000    20.941     6.522
 670   1 H      0.059  0.941  0.000  0.000     2.215     2.327
 671   1 H      0.060  0.940  0.000  0.000     2.196     2.318
 672   1 H      0.061  0.939  0.000  0.000     2.193     2.316
 673   1 H      0.065  0.935  0.000  0.000     2.139     2.287
 674   1 H      0.073  0.927  0.000  0.000     2.058     2.243
 675   1 H      0.079  0.921  0.000  0.000     1.988     2.205
 676   1 H      0.070  0.930  0.000  0.000     2.090     2.261
 677   7 N     -0.189  1.245  3.944  0.000    25.095     7.440
 678   6 C      0.021  1.060  2.919  0.000    20.228     6.406
 679   6 C      0.266  1.045  2.688  0.000    22.503     7.767
 680   8 O     -0.471  1.739  4.731  0.000    23.143     6.450
 681   6 C     -0.117  1.063  3.054  0.000    22.728     6.786
 682   6 C      0.283  1.039  2.679  0.000    22.213     7.717
 683   8 O     -0.484  1.748  4.736  0.000    23.437     6.491
 684   7 N     -0.269  1.260  4.009  0.000    26.973     7.713
 685   1 H      0.235  0.765  0.000  0.000     0.943     1.521
 686   1 H      0.077  0.923  0.000  0.000     2.012     2.218
 687   1 H      0.102  0.898  0.000  0.000     1.771     2.081
 688   1 H      0.092  0.908  0.000  0.000     1.861     2.134
 689   1 H      0.239  0.761  0.000  0.000     0.925     1.507
 690   1 H      0.237  0.763  0.000  0.000     0.933     1.513
 691   7 N     -0.152  1.227  3.925  0.000    24.298     7.321
 692   6 C      0.018  1.064  2.918  0.000    20.292     6.416
 693   6 C      0.197  1.087  2.717  0.000    23.803     7.990
 694   8 O     -0.379  1.767  4.611  0.000    21.258     6.182
 695   6 C     -0.080  1.059  3.021  0.000    22.021     6.681
 696   6 C     -0.072  1.050  3.023  0.000    21.883     6.660
 697   6 C     -0.100  1.058  3.042  0.000    22.418     6.741
 698   6 C     -0.052  1.065  2.987  0.000    21.611     6.636
 699   7 N     -0.133  1.225  3.909  0.000    23.882     7.258
 700   1 H      0.194  0.806  0.000  0.000     1.138     1.671
 701   1 H      0.113  0.887  0.000  0.000     1.668     2.020
 702   1 H      0.059  0.941  0.000  0.000     2.215     2.327
 703   1 H      0.085  0.915  0.000  0.000     1.924     2.169
 704   1 H      0.055  0.945  0.000  0.000     2.264     2.353
 705   1 H      0.064  0.936  0.000  0.000     2.148     2.292
 706   1 H      0.093  0.907  0.000  0.000     1.850     2.127
 707   1 H      0.088  0.912  0.000  0.000     1.896     2.153
 708   1 H      0.112  0.888  0.000  0.000     1.683     2.029
 709   1 H      0.123  0.877  0.000  0.000     1.592     1.973
 710   1 H      0.283  0.717  0.000  0.000     0.766     1.371
 711   1 H      0.295  0.705  0.000  0.000     0.728     1.336
 712   1 H      0.276  0.724  0.000  0.000     0.789     1.392
 713   7 N     -0.379  1.310  4.068  0.000    29.782     8.105
 714   6 C      0.045  1.052  2.903  0.000    19.839     6.344
 715   6 C      0.199  1.086  2.715  0.000    23.766     7.985
 716   8 O     -0.377  1.761  4.616  0.000    21.227     6.177
 717   6 C     -0.068  1.054  3.013  0.000    21.781     6.642
 718   6 C      0.002  1.077  2.921  0.000    27.982     8.677
 719   6 C     -0.042  1.083  2.959  0.000    29.049     8.839
 720   6 C     -0.039  1.082  2.957  0.000    28.966     8.826
 721   6 C     -0.058  1.073  2.985  0.000    29.444     8.898
 722   6 C     -0.077  1.078  2.999  0.000    29.934     8.972
 723   6 C      0.148  1.041  2.811  0.000    24.782     8.158
 724   8 O     -0.423  1.713  4.710  0.000    21.298     6.230
 725   1 H      0.163  0.837  0.000  0.000     1.319     1.799
 726   1 H      0.060  0.940  0.000  0.000     2.197     2.318
 727   1 H      0.047  0.953  0.000  0.000     2.356     2.401
 728   1 H      0.049  0.951  0.000  0.000     2.336     2.390
 729   1 H      0.051  0.949  0.000  0.000     2.306     2.375
 730   1 H      0.040  0.960  0.000  0.000     2.446     2.446
 731   1 H      0.049  0.951  0.000  0.000     2.326     2.385
 732   1 H      0.036  0.964  0.000  0.000     2.501     2.473
 733   1 H      0.340  0.660  0.000  0.000     0.612     1.229
 734   7 N     -0.398  1.326  4.071  0.000    30.311     8.177
 735   6 C      0.027  1.065  2.908  0.000    20.139     6.393
 736   6 C      0.271  1.050  2.679  0.000    22.427     7.754
 737   8 O     -0.491  1.742  4.749  0.000    23.581     6.511
 738   6 C      0.078  1.040  2.882  0.000    19.496     6.325
 739   8 O     -0.494  1.724  4.770  0.000    22.758     6.440
 740   1 H      0.170  0.830  0.000  0.000     1.275     1.769
 741   1 H      0.037  0.963  0.000  0.000     2.486     2.465
 742   1 H      0.026  0.974  0.000  0.000     2.639     2.540
 743   1 H      0.039  0.961  0.000  0.000     2.467     2.456
 744   1 H      0.358  0.642  0.000  0.000     0.569     1.185
 745   7 N     -0.181  1.263  3.918  0.000    24.923     7.415
 746   6 C      0.027  1.058  2.914  0.000    20.119     6.387
 747   6 C      0.274  1.046  2.681  0.000    22.370     7.746
 748   8 O     -0.488  1.739  4.750  0.000    23.530     6.504
 749   6 C     -0.069  1.054  3.015  0.000    21.802     6.645
 750   6 C     -0.011  1.055  2.956  0.000    20.737     6.477
 751   6 C     -0.105  1.039  3.066  0.000    22.557     6.771
 752   6 C     -0.126  1.039  3.087  0.000    22.974     6.834
 753   1 H      0.230  0.770  0.000  0.000     0.966     1.539
 754   1 H      0.071  0.929  0.000  0.000     2.074     2.252
 755   1 H      0.046  0.954  0.000  0.000     2.367     2.406
 756   1 H      0.045  0.955  0.000  0.000     2.389     2.417
 757   1 H      0.036  0.964  0.000  0.000     2.509     2.477
 758   1 H      0.049  0.951  0.000  0.000     2.331     2.387
 759   1 H      0.019  0.981  0.000  0.000     2.749     2.593
 760   1 H      0.034  0.966  0.000  0.000     2.535     2.490
 761   1 H      0.056  0.944  0.000  0.000     2.246     2.344
 762   1 H      0.052  0.948  0.000  0.000     2.292     2.368
 763   1 H      0.040  0.960  0.000  0.000     2.449     2.447
 764   7 N     -0.161  1.239  3.922  0.000    24.474     7.347
 765   6 C      0.012  1.061  2.927  0.000    20.372     6.426
 766   6 C      0.274  1.038  2.688  0.000    22.374     7.748
 767   8 O     -0.471  1.732  4.739  0.000    23.153     6.451
 768   6 C     -0.020  1.066  2.954  0.000    20.900     6.502
 769   6 C     -0.119  1.038  3.081  0.000    22.837     6.814
 770   6 C     -0.117  1.037  3.080  0.000    22.786     6.806
 771   1 H      0.213  0.787  0.000  0.000     1.041     1.598
 772   1 H      0.079  0.921  0.000  0.000     1.991     2.207
 773   1 H      0.053  0.947  0.000  0.000     2.285     2.364
 774   1 H      0.061  0.939  0.000  0.000     2.188     2.313
 775   1 H      0.036  0.964  0.000  0.000     2.503     2.474
 776   1 H      0.052  0.948  0.000  0.000     2.296     2.370
 777   1 H      0.063  0.937  0.000  0.000     2.164     2.300
 778   1 H      0.047  0.953  0.000  0.000     2.357     2.401
 779   1 H      0.044  0.956  0.000  0.000     2.394     2.420
 780   7 N     -0.175  1.242  3.933  0.000    24.798     7.396
 781   6 C      0.019  1.061  2.920  0.000    20.251     6.405
 782   6 C      0.282  1.039  2.679  0.000    22.225     7.720
 783   8 O     -0.478  1.746  4.732  0.000    23.306     6.473
 784   6 C      0.069  1.039  2.891  0.000    19.628     6.346
 785   8 O     -0.489  1.728  4.761  0.000    22.649     6.424
 786   1 H      0.214  0.786  0.000  0.000     1.038     1.596
 787   1 H      0.080  0.920  0.000  0.000     1.978     2.199
 788   1 H      0.052  0.948  0.000  0.000     2.290     2.367
 789   1 H      0.055  0.945  0.000  0.000     2.264     2.353
 790   1 H      0.363  0.637  0.000  0.000     0.559     1.174
 791   7 N     -0.163  1.239  3.923  0.000    24.517     7.354
 792   6 C      0.024  1.060  2.916  0.000    20.186     6.399
 793   6 C      0.200  1.089  2.711  0.000    23.739     7.979
 794   8 O     -0.357  1.754  4.603  0.000    20.840     6.120
 795   6 C     -0.069  1.054  3.015  0.000    21.797     6.644
 796   6 C     -0.016  1.068  2.948  0.000    20.868     6.506
 797  16 S     -0.240  1.921  4.269  0.050   151.359    20.707
 798   6 C     -0.068  1.056  3.012  0.000    21.880     6.673
 799   1 H      0.211  0.789  0.000  0.000     1.053     1.608
 800   1 H      0.116  0.884  0.000  0.000     1.645     2.006
 801   1 H      0.063  0.937  0.000  0.000     2.161     2.299
 802   1 H      0.089  0.911  0.000  0.000     1.890     2.150
 803   1 H      0.058  0.942  0.000  0.000     2.223     2.332
 804   1 H      0.062  0.938  0.000  0.000     2.173     2.305
 805   1 H      0.062  0.938  0.000  0.000     2.180     2.309
 806   1 H      0.079  0.921  0.000  0.000     1.988     2.205
 807   1 H      0.054  0.946  0.000  0.000     2.269     2.355
 808   1 H      0.182  0.818  0.000  0.000     1.203     1.718
 809   1 H      0.102  0.898  0.000  0.000     1.770     2.081
 810   1 H      0.179  0.821  0.000  0.000     1.220     1.730
 811   1 H      0.064  0.936  0.000  0.000     2.151     2.293
 812   1 H      0.203  0.797  0.000  0.000     1.087     1.632
 813   1 H      0.046  0.954  0.000  0.000     2.371     2.408
 814   1 H      0.186  0.814  0.000  0.000     1.180     1.702
 815   1 H      0.077  0.923  0.000  0.000     2.010     2.217
 816   1 H      0.180  0.820  0.000  0.000     1.214     1.726
 817   1 H      0.077  0.923  0.000  0.000     2.013     2.218
 818   1 H      0.203  0.797  0.000  0.000     1.091     1.636
 819   1 H      0.058  0.942  0.000  0.000     2.225     2.332
 820   1 H      0.181  0.819  0.000  0.000     1.209     1.722
 821   1 H      0.100  0.900  0.000  0.000     1.783     2.088
 822   1 H      0.187  0.813  0.000  0.000     1.176     1.699
 823   1 H      0.067  0.933  0.000  0.000     2.115     2.274
 824   1 H      0.169  0.831  0.000  0.000     1.278     1.771
 825   1 H      0.068  0.932  0.000  0.000     2.108     2.270
 826   1 H      0.188  0.812  0.000  0.000     1.170     1.694
 827   1 H      0.182  0.818  0.000  0.000     1.204     1.718
 828   1 H      0.087  0.913  0.000  0.000     1.910     2.161
 829   1 H      0.182  0.818  0.000  0.000     1.203     1.718
 830   1 H      0.066  0.934  0.000  0.000     2.125     2.279
 831   1 H      0.182  0.818  0.000  0.000     1.203     1.718
 832   1 H      0.084  0.916  0.000  0.000     1.938     2.177

 Mol. C6AA /au·bohr⁶  :    6629007.432915
 Mol. C8AA /au·bohr⁸  :  150615547.116709
 Mol. α(0) /au        :       3877.839548

 
molecular dipole:
                 x           y           z       tot (Debye)
 q only:      -20.966     -99.521    -195.983
   full:      -23.910     -94.664    -192.506     548.650
molecular quadrupole (traceless):
                xx          xy          yy          xz          yz          zz
 q only:    23451.022   -4517.860   10210.048   -7665.796  -26732.151  -33661.070
  q+dip:    22418.822   -4470.764   10261.185   -8042.515  -25248.127  -32680.007
   full:    22425.023   -4466.784   10259.525   -8043.574  -25245.487  -32684.547
speedup  1.94
cpu  time for grad    2 m 49.2 s
wall time for grad    1 m 27.4 s

SCC energy    :   -1295.4561374
rep           :      15.8693029
ES            :       3.6614078
AES           :      -0.1330155
AXC           :       0.4288462
disp          :      -1.1352688
XB            :       0.0000000
fix           :       0.0000000
Gborn         :       0.0000000
Gsasa         :       0.0000000
Ghb           :       0.0000000
Gshift        :       0.0000000
Gsolv         :      -0.8450148     -530.25
Etot ala COSMO:   -1295.4561374
grad norm     :       0.8047547
total E       :   -1279.4676626
atomizationE  :     235.3812012   147703.93
(atE without considering molecular charge,
 total energy contains solvation terms)
H-L gap (eV)  :          0.6267

------------------------------------------------------------------------
 * finished run on 2019/05/12 at 03:18:52.888     
------------------------------------------------------------------------
 total:
 * wall-time:     0 d,  0 h,  1 min, 32.112 sec
 *  cpu-time:     0 d,  0 h,  2 min, 55.248 sec
 * ratio c/w:     1.903 speedup
 SCF:
 * wall-time:     0 d,  0 h,  1 min, 30.807 sec
 *  cpu-time:     0 d,  0 h,  2 min, 54.186 sec
 * ratio c/w:     1.918 speedup

