      -----------------------------------------------------------      
     |                   =====================                   |     
     |                           x T B                           |     
     |                   =====================                   |     
     |                         S. Grimme                         |     
     |          Mulliken Center for Theoretical Chemistry        |     
     |                    University of Bonn                     |     
     |                 Version 6.0.1 (SAW181210)                 |     
      -----------------------------------------------------------      

   This program is distributed in the hope that it will be useful,
   but WITHOUT ANY WARRANTY; without even the implied warranty of
   MERCHANTABILITY or FITNESS FOR A PARTICULAR PURPOSE.
   
   FOR NON-COMMERCIAL, ACADEMIA USE ONLY.
   
   Cite this work as:
   S. Grimme, C. Bannwarth, P. Shushkov, J. Comput. Theory Chem., 2017,
   13, 1989-2009.
   C. Bannwarth, S. Ehlert and S. Grimme., ChemRxiv, 2018, preprint.
   http://doi.org/10.26434/chemrxiv.7246238.v1
   
   for sTDA-xTB:
   S. Grimme and C. Bannwarth, J. Chem. Phys., 2016, 145, 054103.
   
   in the mass-spec context:
   V. Asgeirsson, C. Bauer and S. Grimme, Chem. Sci., 2017, 8, 4879.
   
   if GBSA is used:
   P. Shushkov, F. März and S. Grimme, unpublished.
   
   for ANC optimizer:
   S. Grimme, unpublished.
   Rational Function algorithm used in ANCopt:
   F. Eckert, P. Pulay, H.-J. Werner, J. Comput. Chem., 1997, 18, 1473.
   
   with help from (in alphabetical order)
   C. Bannwarth, F. Bohle, G. Brandenburg, E. Caldeweyher, M. Checinski,
   S. Dohm, S. Ehlert, S. Ehrlich, F. März, H. Neugebauer, J. Pisarek,
   P. Pracht, P. Shushkov, and S. Spicher.
   
 * started run on 2019/05/06 at 00:41:39.662     
========================================================================
 # omp threads = 2
========================================================================
number of atoms            : 790
number of electrons        : 2098
charge                     : 4
spin                       : .0
first test random number   : .5810

########################################################################
# WARNING! Please study the warnings concerning your input carefully
#  - Process number higher than OMP_NUM_THREADS, I hope you know what you are doing.
########################################################################

           ------------------------------------------------- 
          |                 G F N 2 - x T B                 |
          | Geometry, Frequencies, Noncovalent interactions |
          |            JCTC 2018 parametrisation            |
           ------------------------------------------------- 
 
      method parameters     
 k(s)        :  1.8500
 k(p)        :  2.2300
 k(d)        :  2.2300
 k(f)        :  2.0000
 kEN (H0ij)  : -2.0000
 D4 a1       :  0.5200
 D4 a2       :  5.0000
 D4 s6       :  1.0000
 D4 s8       :  2.7000
 D4 s9       :  5.0000
 alphaj      :  2.0000

 Solvent             : h2o
 Using internal parameter file: .param_gbsa2_h2o
 Gsolv ref. state (COSMO-RS): gsolv [1 M gas/solution]
 temperature (mdtemp)       :    298.150000000000     
 dielectric constant        :    80.2000000000000     
 rho                        :    1.00000000000000     
 mass                       :    18.0000000000000     
 surface tension            :    15.5689454083859     
 probe radius               :   0.975313790000000     
 vdW radii scaling          :    1.00000000000000     
 Gshift (Eh)                :   1.857443126794793E-003
 c1                         :    1.55243817000000     
 soset                      :   0.130326360000000     
 HB correction              :  T

            Z     q(EN)     CN     RAES       Cart. coordinates
     1  N   5.0   -0.21    3.22    1.96   131.37186   100.74696   398.85690
     2  C   4.0    0.03    4.26    4.11   130.29471   101.85812   401.16047
     3  C   4.0    0.15    3.42    3.08   127.81350   103.17337   400.58600
     4  O   6.0   -0.32    1.26    1.80   126.04661   103.06943   402.07321
     5  C   4.0   -0.06    4.11    3.82   132.13342   103.71194   402.36423
     6  H   1.0    0.09    1.03    1.43   132.86474   101.74096   398.15203
     7  H   1.0    0.04    1.06    1.44   129.96212   100.35012   402.52297
     8  H   1.0    0.05    1.00    1.43   131.27548   104.49807   404.06309
     9  H   1.0    0.05    1.00    1.43   133.87008   102.71416   402.84989
    10  H   1.0    0.06    1.00    1.43   132.54160   105.21994   401.02063
    11  N   5.0   -0.14    3.50    2.08   127.70579   104.43193   398.42226
    12  C   4.0    0.03    4.51    4.54   125.41355   105.76229   397.62669
    13  C   4.0    0.15    3.50    3.11   123.34619   103.86123   397.05977
    14  O   6.0   -0.32    1.28    1.80   121.13710   104.32232   397.63991
    15  C   4.0   -0.03    4.29    4.17   125.86142   107.44604   395.28909
    16  C   4.0   -0.07    4.15    3.90   123.40288   108.51184   394.28943
    17  C   4.0   -0.07    4.11    3.83   127.64532   109.61922   395.89192
    18  H   1.0    0.08    1.06    1.44   129.16466   104.57365   397.16937
    19  H   1.0    0.06    1.06    1.44   124.86175   106.99250   399.18382
    20  H   1.0    0.04    1.06    1.44   126.71746   106.25740   393.83967
    21  H   1.0    0.04    1.00    1.43   123.79973   109.68536   392.64348
    22  H   1.0    0.05    1.01    1.43   122.16322   106.95471   393.75842
    23  H   1.0    0.05    1.00    1.43   122.51471   109.64568   395.76342
    24  H   1.0    0.05    1.00    1.43   127.91177   110.75873   394.19683
    25  H   1.0    0.05    1.00    1.43   126.81951   110.77007   397.38858
    26  H   1.0    0.05    1.00    1.43   129.45190   108.85010   396.51364
    27  N   5.0   -0.15    3.47    2.06   124.05106   101.71261   395.96751
    28  C   4.0    0.03    4.49    4.52   122.21992    99.65659   395.64247
    29  C   4.0    0.16    3.46    3.10   121.09175    98.88936   398.21061
    30  O   6.0   -0.32    1.28    1.80   118.77872    98.62669   398.41848
    31  C   4.0   -0.03    4.32    4.24   123.35375    97.31900   394.30266
    32  C   4.0   -0.05    4.20    4.00   124.13421    97.95961   391.58712
    33  C   4.0   -0.07    4.15    3.90   121.42056    95.18739   394.25352
    34  C   4.0   -0.07    4.01    3.63   125.67433    95.93950   390.24542
    35  H   1.0    0.07    1.06    1.44   125.81984   101.33655   395.30232
    36  H   1.0    0.05    1.06    1.44   120.73648   100.39736   394.42171
    37  H   1.0    0.04    1.06    1.44   125.02427    96.73318   395.35335
    38  H   1.0    0.04    1.03    1.43   122.42779    98.27142   390.47596
    39  H   1.0    0.04    1.03    1.43   125.27182    99.67548   391.62492
    40  H   1.0    0.05    1.00    1.43   122.24448    93.55655   393.30488
    41  H   1.0    0.05    1.01    1.43   120.91789    94.69417   396.18860
    42  H   1.0    0.04    1.00    1.43   119.74815    95.82233   393.23307
    43  H   1.0    0.05    1.00    1.43   126.12031    96.58956   388.34246
    44  H   1.0    0.05    1.00    1.43   127.41288    95.60879   391.30177
    45  H   1.0    0.05    1.00    1.43   124.56884    94.20473   390.15282
    46  N   5.0   -0.14    3.43    2.04   122.73014    98.53409   400.11923
    47  C   4.0    0.04    4.38    4.35   121.88165    97.89914   402.68926
    48  C   4.0    0.16    3.46    3.10   119.93713    99.81343   403.63790
    49  O   6.0   -0.30    1.27    1.80   117.93213    99.11613   404.59599
    50  C   4.0   -0.05    4.26    4.11   124.07941    97.73852   404.57899
    51  C   4.0   -0.05    4.13    3.87   125.14710    95.10991   405.02307
    52  C   4.0   -0.05    4.11    3.81   127.09730    95.02298   407.22460
    53  C   4.0   -0.03    4.07    3.74   129.08907    92.88570   407.03752
    54  N   5.0   -0.11    3.97    2.78   130.71612    92.93294   404.68670
    55  H   1.0    0.08    1.06    1.44   124.64443    98.67204   399.94727
    56  H   1.0    0.05    1.06    1.44   121.03317    96.02453   402.58722
    57  H   1.0    0.05    1.04    1.43   125.61953    98.91393   403.87979
    58  H   1.0    0.05    1.04    1.43   123.42178    98.44716   406.39690
    59  H   1.0    0.05    1.03    1.43   123.60319    93.82867   405.49173
    60  H   1.0    0.04    1.03    1.43   126.09574    94.47307   403.30909
    61  H   1.0    0.04    1.03    1.43   128.11775    96.81255   407.26429
    62  H   1.0    0.05    1.02    1.43   126.07496    94.75653   408.99339
    63  H   1.0    0.06    1.02    1.43   130.35141    93.02743   408.65891
    64  H   1.0    0.05    1.02    1.43   128.10641    91.07534   407.06587
    65  H   1.0    0.07    1.01    1.43   131.99169    91.43817   404.72072
    66  H   1.0    0.06    1.01    1.43   129.58796    92.77232   403.08610
    67  H   1.0    0.06    1.01    1.43   131.71579    94.62236   404.59599
    68  N   5.0   -0.14    3.54    2.10   120.53239   102.22473   403.33744
    69  C   4.0    0.04    4.56    4.62   119.03951   104.19571   404.51663
    70  C   4.0    0.15    3.54    3.13   116.42035   104.28453   403.34878
    71  O   6.0   -0.31    1.26    1.80   114.44936   104.47161   404.64324
    72  C   4.0   -0.02    4.33    4.25   120.33586   106.74306   404.17081
    73  C   4.0   -0.06    4.14    3.87   118.56141   108.92569   404.84166
    74  C   4.0   -0.06    4.13    3.86   122.70935   106.81676   405.76951
    75  H   1.0    0.11    1.08    1.44   122.02338   102.86723   402.29809
    76  H   1.0    0.06    1.06    1.44   118.87321   103.77052   406.52541
    77  H   1.0    0.06    1.06    1.44   120.85175   106.98306   402.19037
    78  H   1.0    0.05    1.00    1.43   119.55729   110.70771   404.56954
    79  H   1.0    0.05    1.01    1.43   116.90979   108.85010   403.61145
    80  H   1.0    0.06    1.00    1.43   117.98126   108.73861   406.80886
    81  H   1.0    0.06    1.00    1.43   123.63154   108.64034   405.51629
    82  H   1.0    0.06    1.00    1.43   122.19346   106.55787   407.74617
    83  H   1.0    0.06    1.01    1.43   123.96980   105.30309   405.16858
    84  N   5.0   -0.14    3.60    2.16   116.46192   104.17681   400.86001
    85  C   4.0    0.04    4.61    4.68   114.20559   104.25051   399.41626
    86  C   4.0    0.16    3.56    3.14   112.61255   101.96394   399.96617
    87  O   6.0   -0.33    1.32    1.80   110.33921   102.17181   400.23451
    88  C   4.0   -0.02    4.42    4.41   114.86699   104.42626   396.63269
    89  C   4.0   -0.05    4.24    4.08   115.51895   107.17203   396.07711
    90  C   4.0   -0.08    4.17    3.94   112.70515   103.47194   394.98863
    91  C   4.0   -0.08    4.04    3.68   116.36554   107.60289   393.39748
    92  H   1.0    0.11    1.10    1.44   118.06630   104.03697   399.79987
    93  H   1.0    0.05    1.07    1.44   113.11522   105.91725   399.94160
    94  H   1.0    0.06    1.06    1.44   116.48271   103.22439   396.19616
    95  H   1.0    0.03    1.03    1.43   113.85032   108.33421   396.40970
    96  H   1.0    0.05    1.03    1.43   117.04774   107.75973   397.32622
    97  H   1.0    0.03    1.00    1.43   113.24939   103.62690   393.00820
    98  H   1.0    0.05    1.01    1.43   112.32153   101.50285   395.46106
    99  H   1.0    0.04    1.00    1.43   111.03274   104.61901   395.34768
   100  H   1.0    0.03    1.00    1.43   116.79640   109.60033   393.14426
   101  H   1.0    0.04    1.00    1.43   118.04740   106.46905   393.03465
   102  H   1.0    0.03    1.00    1.43   114.85187   107.04353   392.11813
   103  N   5.0   -0.14    3.53    2.10   113.82197    99.78887   400.13813
   104  C   4.0    0.04    4.39    4.37   112.49728    97.47017   400.75607
   105  C   4.0    0.16    3.40    3.08   111.21226    97.64214   403.39035
   106  O   6.0   -0.30    1.22    1.80   109.13545    96.61413   403.81176
   107  C   4.0    0.04    4.16    3.93   114.34543    95.26109   400.57844
   108  O   6.0   -0.25    2.08    1.84   113.00561    92.98586   400.55009
   109  H   1.0    0.11    1.11    1.44   115.71548    99.56399   399.86223
   110  H   1.0    0.05    1.06    1.44   110.98927    97.11869   399.39736
   111  H   1.0    0.05    1.02    1.43   115.44147    95.42738   398.84178
   112  H   1.0    0.06    1.02    1.43   115.60210    95.29132   402.21116
   113  H   1.0    0.12    1.01    1.43   114.18102    91.55911   400.43482
   114  N   5.0   -0.13    3.48    2.07   112.45570    98.97818   405.12134
   115  C   4.0    0.05    4.39    4.37   111.40123    99.51297   407.60822
   116  C   4.0    0.18    3.48    3.11   109.08632   101.20616   407.43058
   117  O   6.0   -0.30    1.27    1.80   107.14746   100.73940   408.64379
   118  C   4.0    0.05    4.15    3.90   113.40623   100.70539   409.34110
   119  O   6.0   -0.23    2.06    1.83   112.34421   102.58944   410.91902
   120  H   1.0    0.11    1.09    1.44   114.21315    99.72273   404.85678
   121  H   1.0    0.06    1.06    1.44   110.82298    97.72529   408.45104
   122  H   1.0    0.05    1.01    1.43   114.22449    99.23140   410.52407
   123  H   1.0    0.07    1.02    1.43   114.86888   101.56332   408.17325
   124  H   1.0    0.13    1.01    1.43   113.65568   103.31888   412.00372
   125  N   5.0   -0.13    3.51    2.09   109.31687   103.20171   405.95093
   126  C   4.0    0.04    4.39    4.35   107.24384   104.97995   405.66558
   127  C   4.0    0.16    3.46    3.10   104.92703   103.71194   404.55253
   128  O   6.0   -0.33    1.34    1.80   102.83133   104.21083   405.37834
   129  C   4.0   -0.07    4.13    3.86   108.02996   107.17581   404.03097
   130  H   1.0    0.11    1.09    1.44   110.89290   103.64202   404.93237
   131  H   1.0    0.06    1.06    1.44   106.76007   105.70749   407.53074
   132  H   1.0    0.04    1.00    1.43   106.44448   108.47783   403.84766
   133  H   1.0    0.05    1.00    1.43   109.62489   108.13201   404.91536
   134  H   1.0    0.05    1.00    1.43   108.57609   106.46905   402.17526
   135  N   5.0   -0.14    3.53    2.10   105.29175   102.03764   402.71950
   136  C   4.0    0.03    4.59    4.65   103.14880   100.74885   401.52708
   137  C   4.0    0.15    3.54    3.13   101.80332    98.94794   403.31287
   138  O   6.0   -0.31    1.67    1.81    99.50541    98.91582   403.45649
   139  C   4.0   -0.04    4.13    3.86   103.97650    99.34100   399.17248
   140  S   6.0   -0.07    2.39    3.10   105.20860   101.51608   396.86324
   141  H   1.0    0.11    1.09    1.44   107.01518   101.53120   402.02030
   142  H   1.0    0.05    1.09    1.44   101.80710   102.21150   400.97528
   143  H   1.0    0.05    1.07    1.44   105.45427    97.98985   399.66003
   144  H   1.0    0.04    1.09    1.44   102.36268    98.35646   398.35423
   145  H   1.0    0.07    1.00    1.43   107.13990   102.69338   397.82322
   146  N   5.0   -0.13    3.47    2.06   103.22250    97.48151   404.74717
   147  C   4.0    0.04    4.41    4.40   102.03008    95.81477   406.61422
   148  C   4.0    0.17    3.40    3.08   100.33122    97.28876   408.44915
   149  O   6.0   -0.25    1.20    1.80    98.24307    96.40059   409.10110
   150  C   4.0   -0.04    4.18    3.97   103.98028    94.02331   407.89546
   151  C   4.0   -0.04    4.17    3.95   104.14658    91.48541   406.48950
   152  C   4.0   -0.04    4.11    3.82   106.73361    90.61047   405.49928
   153  C   4.0   -0.02    4.12    3.85   106.42370    89.33490   402.90658
   154  N   5.0   -0.10    3.97    2.79   108.53641    87.73242   401.94849
   155  H   1.0    0.10    1.07    1.44   105.14624    97.38892   404.68292
   156  H   1.0    0.06    1.08    1.44   100.76586    94.50897   405.64290
   157  H   1.0    0.06    1.03    1.43   105.83977    94.90771   407.87089
   158  H   1.0    0.06    1.02    1.43   103.40013    93.65671   409.83809
   159  H   1.0    0.06    1.03    1.43   103.48706    90.01710   407.77451
   160  H   1.0    0.05    1.05    1.44   102.90314    91.59691   404.85111
   161  H   1.0    0.06    1.03    1.43   107.98272    92.23374   405.29141
   162  H   1.0    0.05    1.02    1.43   107.55564    89.25176   406.81075
   163  H   1.0    0.05    1.03    1.43   104.76263    88.11981   403.00107
   164  H   1.0    0.06    1.03    1.43   106.13268    90.82023   401.50818
   165  H   1.0    0.08    1.01    1.43   108.07532    86.99353   400.18726
   166  H   1.0    0.08    1.01    1.43   110.17291    88.80767   401.78030
   167  H   1.0    0.07    1.01    1.43   108.87278    86.24898   403.19382
   168  N   5.0   -0.13    3.49    2.07   101.11546    99.60179   409.06520
   169  C   4.0    0.04    4.51    4.55    99.72084   101.19671   410.80563
   170  C   4.0    0.16    3.45    3.09    97.62324   102.67448   409.55653
   171  O   6.0   -0.26    1.25    1.80    95.48596   102.47039   410.31997
   172  C   4.0    0.05    4.27    4.15   101.45939   103.09778   412.11144
   173  O   6.0   -0.24    2.11    1.84   103.75918   101.87135   412.81819
   174  C   4.0   -0.05    4.09    3.78   100.17248   104.22028   414.40934
   175  H   1.0    0.10    1.07    1.44   102.71983   100.42004   408.38112
   176  H   1.0    0.08    1.07    1.44    98.90826    99.90603   412.19080
   177  H   1.0    0.05    1.05    1.44   101.90158   104.64735   410.82831
   178  H   1.0    0.15    1.05    1.44   104.60767   101.20049   411.31397
   179  H   1.0    0.06    1.00    1.43   101.42537   105.57332   415.32775
   180  H   1.0    0.06    1.00    1.43    98.44149   105.18593   413.84620
   181  H   1.0    0.06    1.00    1.43    99.70005   102.72928   415.75105
   182  N   5.0   -0.14    3.56    2.12    98.23551   104.20516   407.68003
   183  C   4.0    0.04    4.45    4.47    96.33823   105.77741   406.40446
   184  C   4.0    0.15    3.43    3.09    95.32534   104.55665   404.01963
   185  O   6.0   -0.29    1.26    1.80    93.62458   105.53741   402.80831
   186  C   4.0   -0.03    4.36    4.32    97.43805   108.35878   405.80164
   187  C   4.0   -0.01    3.60    3.17    98.40559   109.64946   408.12222
   188  C   4.0   -0.03    3.50    3.12    96.79932   110.97794   409.68881
   189  C   4.0   -0.04    3.51    3.12   100.90570   109.47938   408.79875
   190  C   4.0   -0.02    3.47    3.10    97.67993   112.12122   411.84309
   191  C   4.0   -0.05    3.46    3.10   101.80332   110.60755   410.97949
   192  C   4.0    0.07    3.46    3.10   100.17626   111.93036   412.50639
   193  O   6.0   -0.24    2.10    1.84   101.07010   113.10766   414.64934
   194  H   1.0    0.11    1.12    1.45   100.02319   104.41114   406.98839
   195  H   1.0    0.07    1.07    1.44    94.74708   106.07032   407.68003
   196  H   1.0    0.05    1.04    1.43    99.00463   108.13768   404.48261
   197  H   1.0    0.05    1.04    1.43    95.97351   109.54174   404.96449
   198  H   1.0    0.07    1.03    1.43    94.82078   111.11967   409.21260
   199  H   1.0    0.06    1.03    1.43   102.19638   108.44381   407.60444
   200  H   1.0    0.09    1.07    1.44    96.39681   113.17947   413.02417
   201  H   1.0    0.05    1.03    1.43   103.77619   110.44881   411.47838
   202  H   1.0    0.12    1.02    1.43   102.88235   112.78073   414.84209
   203  N   5.0   -0.13    3.56    2.12    96.34579   102.39102   403.33366
   204  C   4.0    0.05    4.58    4.64    95.48407   101.13624   401.04331
   205  C   4.0    0.17    3.48    3.10    93.26742    99.44683   401.70471
   206  O   6.0   -0.24    1.26    1.80    93.57734    97.16404   402.21872
   207  C   4.0   -0.00    4.36    4.30    97.61757    99.64525   399.84333
   208  S   6.0   -0.05    2.40    3.10    97.70072    99.85879   396.54576
   209  H   1.0    0.13    1.14    1.45    97.74041   101.47261   404.29553
   210  H   1.0    0.06    1.10    1.44    94.84535   102.56299   399.70160
   211  H   1.0    0.06    1.26    1.48    99.41092   100.35768   400.56521
   212  H   1.0    0.08    1.11    1.45    97.39837    97.65915   400.34033
   213  H   1.0    0.07    0.98    1.43    95.58990    98.99518   395.63491
   214  N   5.0   -0.12    3.38    2.01    91.02243   100.56555   401.74440
   215  C   4.0    0.03    4.27    4.13    88.74531    99.07077   402.11101
   216  C   4.0    0.17    3.37    3.07    88.61681    96.98452   400.13246
   217  O   6.0   -0.26    1.27    1.80    89.57679    97.31522   398.04432
   218  H   1.0    0.10    1.06    1.44    90.72196   102.45716   401.53275
   219  H   1.0    0.07    1.03    1.43    88.75854    98.21851   403.98561
   220  H   1.0    0.05    1.02    1.43    87.08046   100.27075   401.93148
   221  N   5.0   -0.13    3.41    2.03    87.50187    94.82645   400.81087
   222  C   4.0    0.04    4.38    4.34    87.08046    92.71751   399.02319
   223  C   4.0    0.18    3.42    3.09    89.53144    91.90493   397.70794
   224  O   6.0   -0.24    1.26    1.80    91.46463    91.60447   398.96083
   225  C   4.0   -0.04    4.30    4.20    85.01499    93.41860   397.09945
   226  C   4.0   -0.04    4.20    4.01    82.43363    93.77387   398.35612
   227  C   4.0   -0.04    4.15    3.90    80.35493    94.62803   396.57789
   228  C   4.0   -0.03    4.13    3.86    77.81702    94.52031   397.95928
   229  N   5.0   -0.10    3.98    2.81    75.60794    95.38581   396.41726
   230  H   1.0    0.09    1.05    1.44    86.86125    94.46551   402.59289
   231  H   1.0    0.06    1.06    1.44    86.49276    91.16605   400.24396
   232  H   1.0    0.06    1.03    1.43    85.52711    95.18361   396.17160
   233  H   1.0    0.05    1.04    1.43    84.85058    91.91060   395.70483
   234  H   1.0    0.05    1.03    1.43    81.84781    91.97674   399.17626
   235  H   1.0    0.05    1.03    1.43    82.61126    95.19872   399.83200
   236  H   1.0    0.05    1.03    1.43    80.70264    96.56500   395.97129
   237  H   1.0    0.05    1.03    1.43    80.27745    93.38081   394.93950
   238  H   1.0    0.06    1.02    1.43    77.45609    92.57201   398.52242
   239  H   1.0    0.06    1.02    1.43    77.92285    95.72785   399.62602
   240  H   1.0    0.08    1.01    1.43    73.95820    95.25920   397.47740
   241  H   1.0    0.07    1.01    1.43    75.86683    97.25286   395.85979
   242  H   1.0    0.08    1.01    1.43    75.42463    94.26142   394.81477
   243  N   5.0   -0.12    3.53    2.10    89.44073    91.60824   395.20217
   244  C   4.0    0.05    4.49    4.52    91.61769    91.01676   393.64125
   245  C   4.0    0.16    3.52    3.12    93.97229    92.36791   394.48029
   246  O   6.0   -0.26    1.28    1.80    93.86647    94.47496   395.40248
   247  C   4.0    0.05    4.26    4.13    91.14337    91.88603   390.90682
   248  O   6.0   -0.24    2.15    1.85    88.49965    92.41138   390.62525
   249  C   4.0   -0.06    4.06    3.73    92.02209    89.90749   389.00765
   250  H   1.0    0.09    1.11    1.45    87.81934    91.77454   394.17227
   251  H   1.0    0.05    1.06    1.44    91.89926    88.98153   393.77542
   252  H   1.0    0.05    1.05    1.44    92.22619    93.59057   390.49675
   253  H   1.0    0.13    1.01    1.43    88.14627    92.97074   388.89615
   254  H   1.0    0.06    1.00    1.43    91.66683    90.56512   387.08957
   255  H   1.0    0.05    1.00    1.43    94.04032    89.56167   389.23252
   256  H   1.0    0.06    1.00    1.43    91.00542    88.14249   389.30811
   257  N   5.0   -0.14    3.52    2.09    96.09823    91.12636   394.15148
   258  C   4.0    0.04    4.44    4.44    98.50574    92.23185   394.80344
   259  C   4.0    0.15    3.53    3.13   100.41059    91.15471   392.94961
   260  O   6.0   -0.28    1.28    1.80   100.09689    88.98531   392.13514
   261  C   4.0    0.05    4.16    3.92    99.23707    91.57990   397.51708
   262  O   6.0   -0.24    2.07    1.83   101.80143    92.16760   397.89314
   263  H   1.0    0.10    1.08    1.44    96.21540    89.34057   393.43338
   264  H   1.0    0.05    1.06    1.44    98.47551    94.28410   394.63903
   265  H   1.0    0.06    1.01    1.43    98.08434    92.68161   398.82099
   266  H   1.0    0.06    1.02    1.43    98.94038    89.56734   397.84211
   267  H   1.0    0.12    1.01    1.43   102.29653    91.75753   399.62980
   268  N   5.0   -0.08    3.66    2.22   102.38724    92.61736   392.26175
   269  C   4.0    0.04    4.53    4.58   104.10311    91.60636   390.37203
   270  C   4.0    0.09    3.22    3.04   106.41047    90.26465   391.43216
   271  O   6.0   -0.26    1.15    1.80   107.02652    90.51976   393.65448
   272  C   4.0   -0.05    4.37    4.33   104.96105    93.95717   388.93962
   273  C   4.0   -0.05    4.30    4.20   104.54153    96.11335   390.68950
   274  C   4.0   -0.01    4.33    4.26   103.22439    95.15337   393.01953
   275  H   1.0    0.06    1.06    1.44   103.05431    90.29866   389.17583
   276  H   1.0    0.04    1.03    1.43   106.95660    93.78521   388.45585
   277  H   1.0    0.04    1.03    1.43   103.83666    94.17638   387.22752
   278  H   1.0    0.04    1.03    1.43   106.36323    96.93160   391.19406
   279  H   1.0    0.03    1.03    1.43   103.37368    97.52309   389.74653
   280  H   1.0    0.06    1.02    1.43   104.52641    95.05322   394.61257
   281  H   1.0    0.04    1.02    1.43   101.61623    96.34579   393.49952
   282  N   5.0   -0.20    3.19    1.95   114.48716    94.45039   385.15449
   283  C   4.0    0.03    4.29    4.18   115.26383    96.99018   385.97841
   284  C   4.0    0.08    3.24    3.04   117.84709    97.66293   384.92395
   285  O   6.0   -0.31    1.16    1.80   118.22315    99.74918   383.97720
   286  C   4.0   -0.03    4.31    4.22   115.30352    97.17727   388.89804
   287  C   4.0   -0.05    4.18    3.96   112.58798    96.86168   389.95629
   288  C   4.0   -0.08    4.12    3.84   116.45814    99.67737   389.76165
   289  C   4.0   -0.07    4.00    3.61   112.41224    96.13981   392.72852
   290  H   1.0    0.09    1.03    1.43   114.44936    93.18050   386.60391
   291  H   1.0    0.05    1.06    1.44   113.87300    98.32055   385.24331
   292  H   1.0    0.04    1.06    1.44   116.48271    95.65604   389.62937
   293  H   1.0    0.03    1.03    1.43   111.59210    98.64936   389.72574
   294  H   1.0    0.04    1.03    1.43   111.64123    95.38392   388.87725
   295  H   1.0    0.04    1.00    1.43   116.45436    99.74163   391.81956
   296  H   1.0    0.04    1.01    1.43   118.38944    99.80210   389.05867
   297  H   1.0    0.04    1.00    1.43   115.33564   101.23073   389.00765
   298  H   1.0    0.05    1.00    1.43   110.42803    95.97351   393.25386
   299  H   1.0    0.05    1.00    1.43   113.36655    94.33701   393.01386
   300  H   1.0    0.04    1.00    1.43   113.31931    97.60246   393.86046
   301  N   5.0   -0.19    3.20    1.96   119.96169   103.07321   379.94074
   302  C   4.0    0.04    4.26    4.11   122.06874   104.74373   380.51900
   303  C   4.0    0.10    3.24    3.04   124.16066   104.63224   378.59904
   304  O   6.0   -0.25    1.12    1.80   125.18867   106.60889   377.89795
   305  C   4.0   -0.04    4.41    4.40   123.21202   104.09744   383.05879
   306  C   4.0   -0.02    4.20    4.00   121.86465   105.17459   385.35481
   307  C   4.0   -0.08    4.10    3.79   122.98336   104.10122   387.79255
   308  C   4.0   -0.08    4.12    3.84   122.05551   108.04319   385.33402
   309  H   1.0    0.12    1.06    1.44   119.57997   101.79198   381.32969
   310  H   1.0    0.05    1.07    1.44   121.27694   106.64479   380.54167
   311  H   1.0    0.05    1.04    1.43   123.21580   102.04709   383.25910
   312  H   1.0    0.05    1.04    1.44   125.14332   104.81176   383.09469
   313  H   1.0    0.05    1.06    1.44   119.87477   104.64357   385.29244
   314  H   1.0    0.03    1.00    1.43   121.98181   104.90814   389.40260
   315  H   1.0    0.04    1.00    1.43   122.76605   102.05276   387.78499
   316  H   1.0    0.04    1.00    1.43   124.98081   104.59633   387.88893
   317  H   1.0    0.03    1.00    1.43   121.08230   108.79152   386.98753
   318  H   1.0    0.05    1.00    1.43   124.04350   108.58365   385.38315
   319  H   1.0    0.04    1.00    1.43   121.17490   108.76129   383.61626
   320  N   5.0   -0.20    3.22    1.96   121.35253   120.04295   388.57301
   321  C   4.0    0.03    4.33    4.26   118.76928   119.14155   388.21018
   322  C   4.0    0.15    3.45    3.10   117.01372   119.77272   390.37392
   323  O   6.0   -0.32    1.29    1.80   114.75928   119.94280   390.02432
   324  C   4.0   -0.05    4.41    4.40   118.81652   116.29940   387.81145
   325  C   4.0   -0.02    4.24    4.08   116.30696   114.97849   387.41839
   326  C   4.0   -0.08    4.15    3.89   116.50349   112.90735   385.47764
   327  C   4.0   -0.08    4.16    3.92   115.42635   113.78229   389.84479
   328  H   1.0    0.09    1.03    1.43   122.59219   118.61054   388.93206
   329  H   1.0    0.05    1.06    1.44   118.00961   120.07697   386.53966
   330  H   1.0    0.04    1.04    1.43   119.95980   115.91768   386.14093
   331  H   1.0    0.04    1.05    1.44   119.68579   115.44525   389.47063
   332  H   1.0    0.05    1.06    1.44   114.96337   116.39956   386.77399
   333  H   1.0    0.04    1.00    1.43   114.65912   112.01540   385.26032
   334  H   1.0    0.05    1.00    1.43   117.10443   113.72371   383.68429
   335  H   1.0    0.04    1.00    1.43   117.88488   111.51840   386.11636
   336  H   1.0    0.03    1.00    1.43   113.62166   112.84499   389.51409
   337  H   1.0    0.03    1.00    1.43   116.82853   112.40657   390.46273
   338  H   1.0    0.05    1.00    1.43   115.20525   115.24872   391.27343
   339  N   5.0   -0.14    3.47    2.06   118.02283   120.05996   392.62647
   340  C   4.0    0.03    4.33    4.26   116.51105   120.95002   394.75241
   341  C   4.0    0.10    3.21    3.04   115.61343   123.70335   394.42171
   342  O   6.0   -0.28    1.12    1.80   113.64623   124.40822   395.41760
   343  C   4.0   -0.03    4.34    4.27   118.04362   120.85931   397.19961
   344  C   4.0   -0.02    3.54    3.13   119.27383   118.37621   397.86668
   345  C   4.0   -0.05    3.48    3.11   117.99638   116.10098   397.60023
   346  C   4.0   -0.04    3.48    3.10   121.71536   118.31952   398.82477
   347  C   4.0   -0.05    3.42    3.09   119.13588   113.81441   398.26919
   348  C   4.0   -0.04    3.44    3.09   122.87565   116.06886   399.47862
   349  C   4.0    0.06    3.45    3.09   121.58308   113.82575   399.21595
   350  O   6.0   -0.25    2.14    1.85   122.72636   111.60910   399.88491
   351  H   1.0    0.08    1.07    1.44   119.86721   119.70091   393.05922
   352  H   1.0    0.05    1.06    1.44   114.88211   119.69524   394.87524
   353  H   1.0    0.05    1.04    1.43   119.55162   122.25582   397.05599
   354  H   1.0    0.05    1.03    1.43   116.78317   121.34119   398.75674
   355  H   1.0    0.04    1.03    1.43   116.09342   116.09720   396.86513
   356  H   1.0    0.06    1.03    1.43   122.73203   120.07319   399.06477
   357  H   1.0    0.05    1.03    1.43   118.12299   112.05508   398.05187
   358  H   1.0    0.05    1.03    1.43   124.78805   116.07264   400.19293
   359  H   1.0    0.14    1.11    1.45   124.43656   111.94359   400.51230
   360  N   5.0   -0.18    3.20    1.95   109.72883   126.35275   382.27644
   361  C   4.0    0.03    4.27    4.13   107.61044   124.57451   382.02511
   362  C   4.0    0.10    3.20    3.04   106.19504   124.86931   379.56657
   363  O   6.0   -0.26    1.12    1.80   105.76418   122.98903   378.27022
   364  C   4.0   -0.04    4.29    4.17   105.83410   124.79183   384.26443
   365  C   4.0   -0.02    3.68    3.22   107.07943   124.11531   386.73808
   366  C   4.0   -0.01    3.62    3.18   109.37356   122.94179   387.09146
   367  C   4.0    0.01    3.88    3.44   106.06087   124.50081   389.20040
   368  N   5.0   -0.11    3.48    2.06   109.83843   122.60731   389.61992
   369  C   4.0    0.04    3.89    3.45   107.83910   123.54083   390.95784
   370  C   4.0   -0.05    3.40    3.08   103.81587   125.57040   390.10558
   371  C   4.0   -0.04    3.40    3.08   107.42903   123.61075   393.54488
   372  C   4.0   -0.04    3.36    3.07   103.40013   125.62709   392.67749
   373  C   4.0   -0.04    3.38    3.07   105.19159   124.64443   394.37258
   374  H   1.0    0.10    1.02    1.43   109.45104   127.77760   383.54445
   375  H   1.0    0.05    1.07    1.44   108.40980   122.67534   382.02511
   376  H   1.0    0.05    1.03    1.43   105.16325   126.73447   384.40049
   377  H   1.0    0.04    1.03    1.43   104.24295   123.51438   383.98286
   378  H   1.0    0.05    1.01    1.43   110.63023   122.36542   385.59102
   379  H   1.0    0.11    1.06    1.44   111.41635   121.79662   390.37581
   380  H   1.0    0.05    1.03    1.43   102.43448   126.33763   388.81300
   381  H   1.0    0.06    1.03    1.43   108.81042   122.88321   394.85824
   382  H   1.0    0.05    1.03    1.43   101.67293   126.43778   393.39937
   383  H   1.0    0.05    1.03    1.43   104.80231   124.70113   396.37569
   384  N   5.0   -0.21    3.18    1.95   104.44515   104.33366   380.63049
   385  C   4.0    0.03    4.25    4.10   104.55098   106.98683   381.38638
   386  C   4.0    0.08    3.25    3.04   102.06599   107.94871   382.43707
   387  O   6.0   -0.32    1.22    1.80   102.04709   109.44159   384.22475
   388  C   4.0   -0.03    4.34    4.28   105.36734   108.61389   379.17351
   389  C   4.0   -0.01    3.77    3.31   105.11223   111.34643   379.57980
   390  C   4.0    0.01    3.65    3.20   103.72328   112.95270   378.18519
   391  C   4.0    0.02    3.95    3.53   106.28953   112.81475   381.47709
   392  N   5.0   -0.11    3.51    2.09   103.96516   115.35643   379.06202
   393  C   4.0    0.04    3.94    3.52   105.52986   115.32431   381.10670
   394  C   4.0   -0.04    3.42    3.08   107.94682   112.26106   383.44618
   395  C   4.0   -0.05    3.41    3.08   106.33299   117.28773   382.63738
   396  C   4.0   -0.04    3.37    3.07   108.75562   114.20181   384.98631
   397  C   4.0   -0.04    3.39    3.07   107.92225   116.69247   384.58947
   398  H   1.0    0.09    1.03    1.43   104.85333   104.01619   378.77289
   399  H   1.0    0.04    1.06    1.44   105.95315   107.13990   382.88682
   400  H   1.0    0.05    1.04    1.43   107.35155   108.23027   378.77667
   401  H   1.0    0.05    1.04    1.43   104.21461   108.12067   377.53890
   402  H   1.0    0.06    1.02    1.43   102.57432   112.40846   376.58837
   403  H   1.0    0.09    1.04    1.43   103.11857   116.91923   378.31558
   404  H   1.0    0.05    1.03    1.43   108.58554   110.34866   383.75988
   405  H   1.0    0.06    1.03    1.43   105.73017   119.20958   382.30479
   406  H   1.0    0.04    1.03    1.43   110.04630   113.80308   386.51699
   407  H   1.0    0.05    1.03    1.43   108.54964   118.16834   385.85180
   408  N   5.0   -0.20    3.20    1.96    97.46262   104.53586   385.46063
   409  C   4.0    0.03    4.33    4.25    97.45317   103.57777   388.07034
   410  C   4.0    0.14    3.42    3.08    99.08778   105.13679   389.84479
   411  O   6.0   -0.30    1.19    1.80    98.22795   105.94938   391.90271
   412  C   4.0   -0.05    4.44    4.45    98.47929   100.90759   388.14782
   413  C   4.0   -0.03    4.20    4.01    96.71806    98.89314   387.13871
   414  C   4.0   -0.07    4.11    3.83    98.34134    96.65759   386.32612
   415  C   4.0   -0.07    4.09    3.79    94.74330    98.13725   389.12292
   416  H   1.0    0.08    1.03    1.43    97.83300   103.17526   384.14538
   417  H   1.0    0.05    1.06    1.44    95.49163   103.64580   388.69395
   418  H   1.0    0.04    1.04    1.44   100.20083   100.84145   387.01965
   419  H   1.0    0.04    1.04    1.43    98.90259   100.43138   390.10747
   420  H   1.0    0.05    1.06    1.44    95.64281    99.58667   385.52299
   421  H   1.0    0.05    1.00    1.43    97.11869    95.17227   385.58913
   422  H   1.0    0.04    1.00    1.43    99.65281    97.27742   384.86348
   423  H   1.0    0.04    1.00    1.43    99.38825    95.96028   387.95696
   424  H   1.0    0.05    1.00    1.43    93.51498    96.68783   388.32734
   425  H   1.0    0.05    1.00    1.43    95.71084    97.40403   390.78588
   426  H   1.0    0.05    1.00    1.43    93.63403    99.79643   389.63126
   427  N   5.0   -0.14    3.49    2.07   101.44616   105.50907   389.01143
   428  C   4.0    0.03    4.54    4.59   103.37557   106.76763   390.51754
   429  C   4.0    0.16    3.55    3.14   102.69527   109.45671   391.07501
   430  O   6.0   -0.32    1.29    1.80   102.84078   110.23716   393.24063
   431  C   4.0   -0.03    4.32    4.24   105.95126   106.74117   389.20607
   432  C   4.0   -0.08    4.15    3.90   107.78052   108.62712   390.40604
   433  C   4.0   -0.08    4.12    3.85   107.04731   104.09933   389.33268
   434  H   1.0    0.08    1.06    1.44   102.07733   104.94971   387.27855
   435  H   1.0    0.05    1.07    1.44   103.47194   105.69804   392.27498
   436  H   1.0    0.05    1.06    1.44   105.69615   107.30053   387.24075
   437  H   1.0    0.03    1.00    1.43   109.58143   108.54019   389.41205
   438  H   1.0    0.05    1.01    1.43   106.98494   110.52062   390.25486
   439  H   1.0    0.04    1.00    1.43   108.04697   108.13390   392.38837
   440  H   1.0    0.03    1.00    1.43   108.88223   104.08988   388.39726
   441  H   1.0    0.04    1.00    1.43   107.26273   103.55698   391.30744
   442  H   1.0    0.04    1.00    1.43   105.76607   102.79542   388.38215
   443  N   5.0   -0.15    3.52    2.09   101.99040   110.87400   389.13426
   444  C   4.0    0.03    4.43    4.43   101.35734   113.51773   389.51787
   445  C   4.0    0.15    3.47    3.10    99.14258   113.84654   391.32634
   446  O   6.0   -0.32    1.26    1.80    99.06888   115.70414   392.80599
   447  C   4.0   -0.04    4.34    4.28   100.78286   114.84809   387.02343
   448  C   4.0   -0.02    4.20    4.00    99.94950   117.65245   387.16705
   449  C   4.0   -0.07    4.12    3.84   101.84489   119.34753   388.47852
   450  C   4.0   -0.07    4.12    3.85    99.53187   118.68991   384.53655
   451  H   1.0    0.12    1.13    1.45   101.84111   110.26173   387.31256
   452  H   1.0    0.05    1.06    1.44   103.01841   114.41535   390.34179
   453  H   1.0    0.05    1.03    1.43   102.48551   114.78762   385.86692
   454  H   1.0    0.05    1.03    1.43    99.26163   113.81819   386.09180
   455  H   1.0    0.05    1.06    1.44    98.21095   117.67701   388.27254
   456  H   1.0    0.04    1.00    1.43   101.11924   121.27505   388.49742
   457  H   1.0    0.05    1.00    1.43   102.11890   118.68046   390.40793
   458  H   1.0    0.04    1.00    1.43   103.62879   119.27950   387.45240
   459  H   1.0    0.04    1.00    1.43    98.94794   120.66089   384.67828
   460  H   1.0    0.05    1.00    1.43   101.29120   118.55385   383.47453
   461  H   1.0    0.05    1.00    1.43    98.06166   117.58631   383.60681
   462  N   5.0   -0.13    3.39    2.02    97.34923   112.08154   391.20918
   463  C   4.0    0.02    4.27    4.14    95.20439   112.11555   392.95528
   464  C   4.0    0.17    3.34    3.06    96.03587   112.18358   395.68972
   465  O   6.0   -0.30    1.23    1.80    94.95306   113.56119   397.25252
   466  H   1.0    0.09    1.05    1.44    97.32278   110.62267   389.94873
   467  H   1.0    0.06    1.03    1.43    94.04977   113.78040   392.58490
   468  H   1.0    0.05    1.03    1.43    94.06111   110.42803   392.66427
   469  N   5.0   -0.13    3.51    2.08    97.99552   110.68314   396.19427
   470  C   4.0    0.04    4.38    4.35    99.15392   110.44692   398.67737
   471  C   4.0    0.16    3.50    3.11   100.50318   112.80152   399.44271
   472  O   6.0   -0.32    1.30    1.80   100.29720   113.62733   401.55354
   473  C   4.0   -0.07    4.14    3.89   101.01908   108.27185   398.70194
   474  H   1.0    0.11    1.08    1.44    98.85156   109.56820   394.87524
   475  H   1.0    0.06    1.06    1.44    97.64592   110.07276   400.02853
   476  H   1.0    0.05    1.00    1.43   101.86001   108.13201   400.57655
   477  H   1.0    0.05    1.00    1.43   100.02130   106.52763   398.24652
   478  H   1.0    0.06    1.01    1.43   102.48551   108.62901   397.29976
   479  N   5.0   -0.14    3.54    2.11   101.93560   113.86733   397.73062
   480  C   4.0    0.03    4.44    4.45   103.23762   116.20303   398.29376
   481  C   4.0    0.16    3.44    3.09   101.37624   118.33086   399.02130
   482  O   6.0   -0.32    1.28    1.80   101.75796   119.70658   400.87512
   483  C   4.0   -0.05    4.39    4.37   104.79664   117.01561   396.02042
   484  C   4.0   -0.03    4.21    4.02   106.78085   115.15423   395.05855
   485  C   4.0   -0.08    4.10    3.81   107.97516   116.14067   392.63403
   486  C   4.0   -0.08    4.13    3.86   108.75562   114.71392   397.06922
   487  H   1.0    0.10    1.08    1.44   102.23795   113.17947   395.95617
   488  H   1.0    0.05    1.06    1.44   104.49240   115.87044   399.89247
   489  H   1.0    0.05    1.04    1.43   103.50218   117.37277   394.45950
   490  H   1.0    0.04    1.04    1.43   105.79064   118.74849   396.52120
   491  H   1.0    0.05    1.06    1.44   105.89268   113.34576   394.62958
   492  H   1.0    0.04    1.00    1.43   109.38301   114.78573   391.98018
   493  H   1.0    0.04    1.00    1.43   106.50684   116.36932   391.20729
   494  H   1.0    0.04    1.00    1.43   108.87089   117.95480   393.01764
   495  H   1.0    0.03    1.00    1.43   110.15591   113.38167   396.35490
   496  H   1.0    0.04    1.00    1.43   109.66080   116.50727   397.52464
   497  H   1.0    0.04    1.00    1.43   107.84477   113.94103   398.74729
   498  N   5.0   -0.14    3.52    2.09    99.34478   118.57652   397.58511
   499  C   4.0    0.04    4.47    4.49    97.55521   120.60231   398.05376
   500  C   4.0    0.16    3.47    3.10    96.19272   120.18468   400.52741
   501  O   6.0   -0.28    1.24    1.80    95.81477   121.94968   402.00518
   502  C   4.0   -0.04    4.29    4.19    95.66738   120.74971   395.89381
   503  C   4.0   -0.05    4.20    3.99    96.88625   121.58308   393.43149
   504  C   4.0   -0.05    4.16    3.92    95.05510   122.18779   391.29043
   505  C   4.0   -0.03    4.12    3.84    94.58645   125.03750   390.98619
   506  N   5.0   -0.11    4.01    2.88    93.89292   125.59875   388.32545
   507  H   1.0    0.11    1.09    1.44    98.88936   117.42568   396.10735
   508  H   1.0    0.05    1.06    1.44    98.56622   122.39566   398.15203
   509  H   1.0    0.06    1.03    1.43    94.83401   118.88833   395.59901
   510  H   1.0    0.05    1.03    1.43    94.19906   122.11031   396.37569
   511  H   1.0    0.04    1.04    1.43    97.98796   123.28572   393.79432
   512  H   1.0    0.05    1.04    1.43    98.12024   120.07130   392.77198
   513  H   1.0    0.04    1.03    1.43    95.83367   121.47914   389.51976
   514  H   1.0    0.05    1.03    1.43    93.24475   121.28261   391.67783
   515  H   1.0    0.05    1.02    1.43    93.04066   125.62520   392.21451
   516  H   1.0    0.04    1.02    1.43    96.29854   126.08063   391.46051
   517  H   1.0    0.07    1.01    1.43    93.57356   127.52627   388.10625
   518  H   1.0    0.06    1.02    1.43    95.34801   125.05261   387.12170
   519  H   1.0    0.07    1.02    1.43    92.26020   124.62176   387.83602
   520  N   5.0   -0.13    3.52    2.09    95.44439   117.82819   400.94693
   521  C   4.0    0.04    4.37    4.33    94.29166   117.03829   403.32421
   522  C   4.0    0.17    3.49    3.11    95.83178   118.02472   405.53141
   523  O   6.0   -0.30    1.29    1.80    94.92282   119.30785   407.23027
   524  C   4.0   -0.06    4.13    3.86    94.15749   114.16023   403.42625
   525  H   1.0    0.11    1.09    1.44    95.60879   116.39767   399.66570
   526  H   1.0    0.07    1.05    1.44    92.37547   117.78284   403.44515
   527  H   1.0    0.05    1.00    1.43    93.29388   113.59143   405.20827
   528  H   1.0    0.07    1.00    1.43    93.01987   113.48560   401.84644
   529  H   1.0    0.06    1.00    1.43    96.06611   113.39490   403.29586
   530  N   5.0   -0.14    3.59    2.15    98.24307   117.44080   405.35378
   531  C   4.0    0.04    4.40    4.39   100.03264   117.82063   407.33421
   532  C   4.0    0.16    3.46    3.10   100.46539   120.58530   407.74617
   533  O   6.0   -0.30    1.25    1.80   100.52019   121.39977   409.89101
   534  C   4.0   -0.07    4.14    3.88   102.49496   116.50349   406.65013
   535  H   1.0    0.11    1.10    1.44    99.03865   116.66412   403.77963
   536  H   1.0    0.06    1.06    1.44    99.32211   117.00427   409.08598
   537  H   1.0    0.04    1.00    1.43   103.85745   116.79829   408.16758
   538  H   1.0    0.05    1.00    1.43   102.13402   114.48905   406.41013
   539  H   1.0    0.06    1.00    1.43   103.21683   117.30096   404.89457
   540  N   5.0   -0.13    3.44    2.04   100.79420   121.99882   405.69204
   541  C   4.0    0.04    4.26    4.12   100.99262   124.77482   405.81109
   542  C   4.0    0.10    3.17    3.03    98.67582   126.00693   407.16602
   543  O   6.0   -0.23    1.10    1.80    99.02542   127.70579   408.78174
   544  C   4.0   -0.05    4.23    4.05   101.47828   125.87842   403.15602
   545  C   4.0   -0.04    4.15    3.89   101.71450   128.74892   403.05209
   546  C   4.0    0.00    4.12    3.84   103.53431   129.77882   401.01874
   547  N   5.0   -0.13    3.29    1.98   102.57999   131.02226   398.67359
   548  C   4.0    0.10    3.29    3.05   100.52019   130.44967   397.26386
   549  N   5.0   -0.18    3.20    1.96    98.86101   128.59207   397.82322
   550  N   5.0   -0.17    3.22    1.96   100.09311   131.81972   395.17760
   551  H   1.0    0.11    1.10    1.44   100.93404   121.29584   403.90247
   552  H   1.0    0.06    1.06    1.44   102.63291   125.26993   406.95437
   553  H   1.0    0.04    1.03    1.43   103.23762   125.08852   402.43415
   554  H   1.0    0.06    1.03    1.43    99.90981   125.34363   401.93148
   555  H   1.0    0.06    1.03    1.43    99.85312   129.54260   402.66658
   556  H   1.0    0.06    1.03    1.43   102.39858   129.41221   404.87756
   557  H   1.0    0.07    1.03    1.43   104.73050   131.17911   401.94093
   558  H   1.0    0.05    1.03    1.43   104.67570   128.18956   400.37813
   559  H   1.0    0.10    1.06    1.44   103.62501   132.51325   398.04243
   560  H   1.0    0.08    1.04    1.43    99.11991   127.51115   399.39925
   561  H   1.0    0.09    1.02    1.43    97.35112   128.27082   396.67048
   562  H   1.0    0.10    1.02    1.43   101.30065   133.24269   394.69383
   563  H   1.0    0.09    1.02    1.43    98.56055   131.43989   394.07211
   564  N   5.0   -0.18    3.22    1.96    93.86458   123.06651   410.78485
   565  C   4.0    0.04    4.29    4.18    93.47718   121.94213   413.23204
   566  C   4.0    0.16    3.36    3.07    95.36880   122.67345   415.34098
   567  O   6.0   -0.26    1.26    1.80    94.67338   122.51660   417.52550
   568  C   4.0   -0.03    4.29    4.17    93.33356   119.06785   412.93536
   569  C   4.0   -0.02    4.17    3.95    92.60035   117.61087   415.30696
   570  C   4.0    0.24    3.12    3.03    92.48319   114.77440   414.82319
   571  O   6.0   -0.25    1.15    1.80    90.91283   113.88055   413.31897
   572  O   6.0   -0.26    1.15    1.80    94.16693   113.32875   416.07797
   573  H   1.0    0.13    1.09    1.44    94.20095   121.77205   409.39779
   574  H   1.0    0.07    1.07    1.44    91.68194   122.67156   413.92935
   575  H   1.0    0.07    1.03    1.43    91.92950   118.63511   411.49160
   576  H   1.0    0.06    1.03    1.43    95.18550   118.38377   412.34387
   577  H   1.0    0.07    1.03    1.43    94.00064   117.95858   416.77717
   578  H   1.0    0.07    1.03    1.43    90.74275   118.23448   415.94002
   579  N   5.0   -0.11    3.39    2.02    97.68938   123.47280   414.77406
   580  C   4.0    0.05    4.28    4.16    99.54698   124.14933   416.79229
   581  C   4.0    0.10    3.20    3.04   100.60334   126.82707   416.52395
   582  O   6.0   -0.22    1.12    1.80   100.19894   128.09507   414.59642
   583  C   4.0   -0.03    4.26    4.12   101.83166   122.36542   416.85465
   584  C   4.0   -0.02    4.22    4.04   101.27608   119.53650   416.93402
   585  C   4.0    0.16    3.22    3.04   100.15359   118.58786   419.39255
   586  O   6.0   -0.25    1.22    1.80   100.81310   119.52706   421.41456
   587  N   5.0   -0.16    3.18    1.95    98.53976   116.69058   419.25649
   588  H   1.0    0.12    1.05    1.44    98.35835   123.67878   412.97882
   589  H   1.0    0.08    1.07    1.44    98.46795   124.02460   418.54217
   590  H   1.0    0.06    1.03    1.43   102.95416   122.70935   415.16145
   591  H   1.0    0.07    1.03    1.43   102.93715   122.80762   418.53461
   592  H   1.0    0.05    1.04    1.43    99.93627   119.09242   415.43357
   593  H   1.0    0.05    1.03    1.43   103.03920   118.51605   416.62788
   594  H   1.0    0.10    1.03    1.43    98.09567   115.92524   417.54440
   595  H   1.0    0.12    1.02    1.43    97.73663   115.99138   420.86276
   596  O   6.0   -0.38    2.12    1.84   125.99370   112.38578   403.21838
   597  H   1.0    0.17    1.03    1.43   127.50359   112.86955   403.13713
   598  H   1.0    0.18    1.04    1.43   125.36064   113.07364   404.50151
   599  O   6.0   -0.33    2.02    1.83   108.62712    92.33579   398.05943
   600  H   1.0    0.16    1.04    1.43   109.90079    93.28254   398.05943
   601  H   1.0    0.16    1.02    1.43   107.35155    93.28254   398.05943
   602  N   5.0   -0.17    3.22    1.96    99.60179   101.11546   425.32062
   603  C   4.0    0.04    4.31    4.22   101.19671    99.72084   423.58018
   604  C   4.0    0.10    3.24    3.04   102.67448    97.62324   424.82929
   605  O   6.0   -0.24    1.13    1.80   102.47039    95.48596   424.06584
   606  C   4.0    0.05    4.26    4.11   103.09778   101.45939   422.27438
   607  O   6.0   -0.24    2.11    1.84   101.87135   103.75918   421.56762
   608  C   4.0   -0.05    4.09    3.78   104.22028   100.17248   419.97647
   609  H   1.0    0.10    1.03    1.43   100.42004   102.71983   426.00470
   610  H   1.0    0.07    1.06    1.44    99.90603    98.90826   422.19501
   611  H   1.0    0.05    1.05    1.44   104.64735   101.90158   423.55751
   612  H   1.0    0.13    1.02    1.43   101.20049   104.60767   423.07185
   613  H   1.0    0.06    1.00    1.43   105.57332   101.42537   419.05807
   614  H   1.0    0.06    1.00    1.43   105.18593    98.44149   420.53961
   615  H   1.0    0.06    1.00    1.43   102.72928    99.70005   418.63477
   616  N   5.0   -0.17    3.16    1.95   123.47280    97.68938   419.61176
   617  C   4.0    0.04    4.18    3.96   124.14933    99.54698   417.59353
   618  C   4.0    0.09    3.20    3.04   126.82707   100.60334   417.86187
   619  O   6.0   -0.24    1.12    1.80   128.09507   100.19894   419.78939
   620  C   4.0   -0.04    4.26    4.12   122.36542   101.83166   417.53117
   621  C   4.0   -0.03    4.22    4.04   119.53650   101.27608   417.45180
   622  C   4.0    0.15    3.22    3.04   118.58786   100.15359   414.99327
   623  O   6.0   -0.28    1.22    1.80   119.52706   100.81310   412.97126
   624  N   5.0   -0.18    3.17    1.95   116.69058    98.53976   415.12933
   625  H   1.0    0.11    1.02    1.43   123.67878    98.35835   421.40700
   626  H   1.0    0.06    1.05    1.44   124.02460    98.46795   415.84364
   627  H   1.0    0.05    1.03    1.43   122.70935   102.95416   419.22436
   628  H   1.0    0.06    1.03    1.43   122.80762   102.93715   415.85120
   629  H   1.0    0.05    1.04    1.43   119.09242    99.93627   418.95224
   630  H   1.0    0.05    1.03    1.43   118.51605   103.03920   417.75794
   631  H   1.0    0.09    1.03    1.43   115.92524    98.09567   416.84142
   632  H   1.0    0.10    1.02    1.43   115.99138    97.73663   413.52306
   633  N   5.0   -0.21    3.22    1.96   130.20023   112.29319   412.11521
   634  C   4.0    0.03    4.33    4.26   128.88876   112.02484   409.67936
   635  C   4.0    0.15    3.44    3.09   126.11275   112.60688   409.95148
   636  O   6.0   -0.32    1.28    1.80   124.96569   113.76339   408.32064
   637  C   4.0   -0.04    4.29    4.17   129.21001   109.33954   408.59843
   638  C   4.0   -0.03    4.19    3.98   131.88397   108.75751   407.67058
   639  C   4.0    0.24    3.14    3.03   132.67577   110.44503   405.50306
   640  O   6.0   -0.31    1.22    1.80   131.00903   111.17258   403.99317
   641  O   6.0   -0.27    1.17    1.80   134.93966   111.06486   405.33677
   642  H   1.0    0.09    1.03    1.43   130.87108   110.63023   412.82386
   643  H   1.0    0.05    1.06    1.44   129.74480   113.34954   408.35466
   644  H   1.0    0.04    1.03    1.43   128.74703   107.97516   410.07053
   645  H   1.0    0.06    1.03    1.43   127.92878   109.11278   407.00162
   646  H   1.0    0.06    1.03    1.43   133.21245   109.03908   409.22015
   647  H   1.0    0.05    1.03    1.43   131.96334   106.80353   407.02240
   648  N   5.0   -0.14    3.55    2.11   125.05639   111.79619   412.06230
   649  C   4.0    0.04    4.44    4.44   122.39755   112.16279   412.56119
   650  C   4.0    0.15    3.43    3.09   121.94968   114.99360   412.97504
   651  O   6.0   -0.32    1.27    1.80   120.14878   116.04807   411.99427
   652  C   4.0   -0.04    4.29    4.18   121.61142   110.55275   414.80618
   653  C   4.0   -0.03    4.23    4.05   118.79762   110.16913   415.14067
   654  C   4.0    0.15    3.21    3.04   117.52206   108.47783   413.22826
   655  O   6.0   -0.29    1.21    1.80   118.64455   106.66936   412.33253
   656  N   5.0   -0.18    3.16    1.95   115.08998   109.01451   412.66323
   657  H   1.0    0.08    1.07    1.44   125.99748   110.87400   413.47015
   658  H   1.0    0.06    1.06    1.44   121.21458   111.53918   410.99461
   659  H   1.0    0.06    1.04    1.43   122.45991   108.68759   414.59076
   660  H   1.0    0.05    1.03    1.43   122.31251   111.45226   416.52206
   661  H   1.0    0.05    1.03    1.43   118.47826   109.33387   416.99638
   662  H   1.0    0.05    1.04    1.43   117.87921   112.00973   415.02917
   663  H   1.0    0.08    1.02    1.43   114.20748   110.50172   413.51550
   664  H   1.0    0.10    1.02    1.43   114.13756   107.93359   411.38389
   665  N   5.0   -0.14    3.47    2.06   123.67689   116.24649   414.29029
   666  C   4.0    0.04    4.36    4.30   123.53894   119.01305   414.60020
   667  C   4.0    0.16    3.44    3.09   123.77705   120.45302   412.12277
   668  O   6.0   -0.28    1.24    1.80   122.44857   122.29739   411.69003
   669  C   4.0   -0.06    4.12    3.85   125.58174   119.91256   416.38411
   670  H   1.0    0.08    1.06    1.44   125.18867   115.43202   415.16523
   671  H   1.0    0.06    1.06    1.44   121.68134   119.42123   415.39389
   672  H   1.0    0.07    1.00    1.43   125.44379   121.95724   416.58442
   673  H   1.0    0.06    1.00    1.43   125.31907   119.00738   418.21525
   674  H   1.0    0.06    1.00    1.43   127.42044   119.40422   415.60743
   675  N   5.0   -0.14    3.49    2.07   125.54016   119.63666   410.53918
   676  C   4.0    0.04    4.39    4.37   125.94268   120.79506   408.05608
   677  C   4.0    0.16    3.47    3.10   123.45580   120.77050   406.56131
   678  O   6.0   -0.29    1.25    1.80   122.78872   122.58274   405.22716
   679  C   4.0   -0.05    4.28    4.17   127.99870   119.34753   406.62178
   680  C   4.0   -0.04    4.17    3.94   128.82640   120.47759   404.10467
   681  C   4.0   -0.05    4.17    3.94   130.34952   118.61999   402.50029
   682  C   4.0   -0.02    4.14    3.88   132.83451   117.86410   403.73617
   683  N   5.0   -0.10    4.00    2.87   134.36140   116.21248   402.06187
   684  H   1.0    0.08    1.06    1.44   126.73447   118.17023   410.90768
   685  H   1.0    0.07    1.05    1.44   126.58140   122.74148   408.27718
   686  H   1.0    0.05    1.03    1.43   129.66922   119.24927   407.82176
   687  H   1.0    0.05    1.04    1.43   127.29572   117.45025   406.23439
   688  H   1.0    0.06    1.03    1.43   127.15588   121.02561   403.03130
   689  H   1.0    0.05    1.03    1.43   130.00748   122.12732   404.46371
   690  H   1.0    0.05    1.03    1.43   129.23647   116.91168   402.21116
   691  H   1.0    0.05    1.03    1.43   130.78037   119.49493   400.68615
   692  H   1.0    0.06    1.02    1.43   133.93244   119.55729   404.15002
   693  H   1.0    0.05    1.02    1.43   132.44333   116.83609   405.47661
   694  H   1.0    0.09    1.01    1.43   136.04515   115.72682   402.95193
   695  H   1.0    0.08    1.02    1.43   133.36363   114.57219   401.64424
   696  H   1.0    0.07    1.02    1.43   134.77336   117.15167   400.38569
   697  N   5.0   -0.14    3.54    2.11   122.09330   118.69180   406.81453
   698  C   4.0    0.04    4.48    4.51   119.69146   118.41590   405.55598
   699  C   4.0    0.17    3.52    3.12   117.88299   120.41523   406.45737
   700  O   6.0   -0.30    1.27    1.80   116.81719   121.77961   404.93993
   701  C   4.0   -0.03    4.41    4.39   118.69936   115.76083   406.00951
   702  C   4.0   -0.01    3.64    3.19   115.93280   115.46415   405.69959
   703  C   4.0   -0.04    3.54    3.13   114.90101   115.30730   403.36578
   704  C   4.0   -0.03    3.52    3.13   114.40023   115.19391   407.75940
   705  C   4.0   -0.05    3.42    3.08   112.34988   114.93691   403.03886
   706  C   4.0   -0.04    3.41    3.08   111.83398   114.80085   407.47405
   707  C   4.0   -0.05    3.40    3.08   110.79652   114.69314   405.09488
   708  H   1.0    0.11    1.08    1.44   122.60542   117.16868   407.87845
   709  H   1.0    0.06    1.07    1.44   119.89933   118.65211   403.52074
   710  H   1.0    0.05    1.04    1.43   119.61020   114.48716   404.67158
   711  H   1.0    0.06    1.05    1.44   119.16801   115.21092   407.93892
   712  H   1.0    0.05    1.05    1.44   116.10476   115.47548   401.72739
   713  H   1.0    0.06    1.03    1.43   115.20336   115.28840   409.63400
   714  H   1.0    0.04    1.03    1.43   111.56942   114.83865   401.15669
   715  H   1.0    0.05    1.03    1.43   110.64534   114.57786   409.11811
   716  H   1.0    0.04    1.03    1.43   108.78774   114.42102   404.85111
   717  N   5.0   -0.13    3.48    2.06   117.61465   120.66278   408.93103
   718  C   4.0    0.04    4.42    4.41   115.79107   122.46747   409.95526
   719  C   4.0    0.11    3.26    3.04   116.43168   125.12820   409.19748
   720  O   6.0   -0.28    1.14    1.80   114.83487   126.39432   408.22049
   721  C   4.0   -0.03    4.34    4.26   115.48493   122.22747   412.80874
   722  C   4.0   -0.02    3.75    3.29   114.19047   119.90122   413.40968
   723  C   4.0    0.00    3.62    3.18   115.23549   117.70158   414.25438
   724  C   4.0    0.01    3.90    3.46   111.58265   119.43068   413.06575
   725  N   5.0   -0.12    3.46    2.05   113.40623   115.87044   414.53406
   726  C   4.0    0.03    3.88    3.43   111.13289   116.88522   413.79707
   727  C   4.0   -0.04    3.39    3.08   109.54741   120.92545   412.27206
   728  C   4.0   -0.05    3.37    3.07   108.70837   115.80430   413.75928
   729  C   4.0   -0.04    3.35    3.07   107.16069   119.86343   412.21537
   730  C   4.0   -0.04    3.36    3.07   106.75440   117.31797   412.95425
   731  H   1.0    0.10    1.07    1.44   118.60298   119.67068   410.25572
   732  H   1.0    0.06    1.08    1.44   113.95425   121.99504   409.15401
   733  H   1.0    0.06    1.04    1.43   117.33875   122.20669   413.70636
   734  H   1.0    0.06    1.04    1.43   114.37377   123.80918   413.52306
   735  H   1.0    0.07    1.02    1.43   117.21970   117.43324   414.64934
   736  H   1.0    0.07    1.04    1.43   113.68969   114.07520   415.17657
   737  H   1.0    0.06    1.02    1.43   109.83654   122.86809   411.71648
   738  H   1.0    0.05    1.02    1.43   108.39279   113.87300   414.33564
   739  H   1.0    0.06    1.03    1.43   105.57710   120.99159   411.59743
   740  H   1.0    0.05    1.03    1.43   104.86467   116.55074   412.88244
   741  N   5.0   -0.17    3.13    1.94   119.48737   127.01226   404.31065
   742  C   4.0    0.03    4.16    3.92   119.10376   127.15777   401.58566
   743  C   4.0    0.16    3.29    3.05   116.43546   127.87964   400.84678
   744  O   6.0   -0.25    1.21    1.80   116.10854   129.45190   399.16492
   745  H   1.0    0.13    1.04    1.43   120.03917   125.26804   404.91914
   746  H   1.0    0.07    1.03    1.43   120.38688   128.56373   400.79954
   747  H   1.0    0.05    1.03    1.43   119.52517   125.32285   400.74851
   748  N   5.0   -0.13    3.42    2.03   114.56464   126.77416   402.14691
   749  C   4.0    0.04    4.33    4.25   111.87367   127.40343   401.77274
   750  C   4.0    0.10    3.24    3.04   111.11400   130.08307   402.47005
   751  O   6.0   -0.27    1.12    1.80   109.23939   131.10163   401.49306
   752  C   4.0   -0.04    4.46    4.47   110.26362   125.73103   403.40169
   753  C   4.0   -0.02    4.24    4.08   110.20693   122.98903   402.64391
   754  C   4.0   -0.07    4.13    3.87   108.95593   121.42056   404.66403
   755  C   4.0   -0.07    4.14    3.88   108.79530   122.67156   400.17593
   756  H   1.0    0.11    1.07    1.44   114.84243   125.41922   403.49051
   757  H   1.0    0.07    1.06    1.44   111.55619   127.13131   399.75641
   758  H   1.0    0.06    1.04    1.43   110.97794   125.82362   405.33110
   759  H   1.0    0.05    1.05    1.44   108.32665   126.43022   403.33366
   760  H   1.0    0.05    1.06    1.44   112.14201   122.32763   402.39824
   761  H   1.0    0.04    1.00    1.43   108.94081   119.44958   404.06876
   762  H   1.0    0.05    1.00    1.43   110.01796   121.61520   406.41769
   763  H   1.0    0.04    1.00    1.43   107.02652   122.08763   404.93237
   764  H   1.0    0.04    1.00    1.43   108.77829   120.67601   399.66570
   765  H   1.0    0.04    1.00    1.43   106.86589   123.35186   400.41403
   766  H   1.0    0.05    1.00    1.43   109.74961   123.76193   398.71328
   767  H   1.0    0.10    1.07    1.44   131.91982    99.17154   399.18910
   768  H   1.0    0.06    1.04    1.44   107.45351    89.15325   390.31507
   769  H   1.0    0.10    1.07    1.44   112.92577    94.52372   384.48422
   770  H   1.0    0.06    1.04    1.44   119.25477    96.40433   384.99772
   771  H   1.0    0.10    1.07    1.44   118.55294   103.99668   379.70586
   772  H   1.0    0.07    1.04    1.44   124.71183   102.96621   377.89787
   773  H   1.0    0.11    1.07    1.44   121.87577   120.84702   387.16864
   774  H   1.0    0.07    1.04    1.43   116.63757   124.91404   393.39388
   775  H   1.0    0.10    1.07    1.44   111.11763   125.51305   382.78507
   776  H   1.0    0.07    1.04    1.44   105.61848   126.57988   379.00749
   777  H   1.0    0.09    1.07    1.44   105.56630   103.43808   381.54347
   778  H   1.0    0.06    1.04    1.44   100.43350   107.37219   381.67966
   779  H   1.0    0.10    1.07    1.44    95.93983   105.19841   385.09358
   780  H   1.0    0.08    1.04    1.43    96.92317   125.44038   406.74377
   781  H   1.0    0.12    1.07    1.44    92.47956   123.94714   410.33900
   782  H   1.0    0.08    1.04    1.43   101.63709   127.57887   417.91578
   783  H   1.0    0.11    1.07    1.44    98.16739   101.57612   424.53140
   784  H   1.0    0.07    1.05    1.44   103.81718    98.00912   426.28407
   785  H   1.0    0.10    1.07    1.44   121.84495    97.22886   419.43693
   786  H   1.0    0.06    1.04    1.43   127.57887   101.63709   416.47003
   787  H   1.0    0.10    1.07    1.44   131.53042   113.33699   411.93185
   788  H   1.0    0.08    1.05    1.44   118.16617   125.80881   409.51273
   789  H   1.0    0.11    1.07    1.44   120.69457   128.11711   404.77382
   790  H   1.0    0.08    1.04    1.44   112.12924   131.05447   403.73367

  Z AO/shell   Hii/eV     exponent
  1     Wed Apr 25 08:07:45 CEST 2018   EN: 2.200 GM2: 0.406  GM3: 0.0800  RAES: 1.40
     1s    -10.707211    1.230000
  6     Wed Apr 25 08:07:45 CEST 2018   EN: 2.550 GM2: 0.538  GM3: 0.1500  RAES: 3.00
     2s    -13.970922    2.096432
     2p    -10.063292    1.800000
  7     Wed Apr 25 08:07:45 CEST 2018   EN: 3.040 GM2: 0.461  GM3:-0.0640  RAES: 1.90
     2s    -16.686243    2.339881
     2p    -12.523956    2.014332
  8     Wed Apr 25 08:07:45 CEST 2018   EN: 3.440 GM2: 0.452  GM3:-0.0517  RAES: 1.80
     2s    -20.229985    2.439742
     2p    -15.503117    2.137023
 16     Tue Apr 24 11:44:34 CEST 2018   EN: 2.580 GM2: 0.340  GM3:-0.0502  RAES: 3.10
     3s    -20.029654    1.981333
     3p    -11.377694    2.025643
     3d     -0.420282    1.702555
 no old-style atom pair restraining (fixing) potential

molecular fragmentation (1/2 indicates fragments):
111111111111111111111111111111111111111111111111111111111111111111111111
111111111111111111111111111111111111111111111111111111111111111111111111
111111111111111111111111111111111111111111111111111111111111111111111111
111111111111111111111111111111111111111111111111111111111111111112222222
222222222222222222222222222222222222222222222222222222222222222222222222
222222222222222222222222222222222222222222222222222222222222222222222222
222222222222222222222222222222222222222222222222222222222222222222222222
222222222222222222222222222222222222222222222222222222222222222222222222
222222222222222222222222222222222222222222222222222222222222222222222222
222222222222222222222222222222222222222222222222222222222222222222222222
2222222222222222222222222222222222222222222222112222222222222222222222
# atoms in fragment 1/2:   283   507
 fragment masses (1/2) :     1943.36     3374.13
CMA distance (Bohr)    :  15.925
constraining FC (au)   :  0.0500
           ------------------------------------------------- 
          |        Self-Consistent Charge Iterations        |
           ------------------------------------------------- 

 Ncao       : 1921
 Nao        : 1919
 Nshell     : 1165
 Nel        : 2098
 T(el)      :   500.0
 intcut     :    35.0
 scfconv/Eh :  0.100E-06
   qconv/e  :  0.100E-04
 intneglect :  0.100E-08
 broydamp   :      0.400
 iter      E             dE          RMSdq      gap      omega  full diag
   1  -1195.8138235 -0.119581E+04  0.451E+00    2.32       0.0  T
   2  -1198.3707947 -0.255697E+01  0.217E+00    1.25       1.0  T
   3  -1198.5181287 -0.147334E+00  0.119E+00    1.97       1.0  T
   4  -1198.7130402 -0.194912E+00  0.275E-01    1.41       1.0  T
   5  -1198.7249116 -0.118714E-01  0.138E-01    1.55       1.0  T
   6  -1198.7285153 -0.360369E-02  0.649E-02    1.44       1.0  T
   7  -1198.7295172 -0.100189E-02  0.302E-02    1.41       1.0  T
   8  -1198.7296626 -0.145376E-03  0.156E-02    1.39       1.0  T
   9  -1198.7297062 -0.436008E-04  0.675E-03    1.38       1.0  T
  10  -1198.7297144 -0.823410E-05  0.340E-03    1.37       1.0  T
  11  -1198.7297160 -0.163966E-05  0.161E-03    1.37       2.2  T
  12  -1198.7297165 -0.490599E-06  0.792E-04    1.37       4.5  T
  13  -1198.7297166 -0.124656E-06  0.404E-04    1.37       8.8  T
  14  -1198.7297167 -0.287398E-07  0.237E-04    1.37      15.0  T
  15  -1198.7297167 -0.137945E-07  0.110E-04    1.37      32.3  T
  16  -1198.7297167 -0.295199E-08  0.613E-05    1.37      58.0  T
  17  -1198.7297167 -0.860609E-09  0.324E-05    1.37     109.9  T
speedup  1.96
cpu  time for SCC    1 m  2.0 s
wall time for SCC    0 m 31.5 s

   *** convergence criteria satisfied after 17 iterations ***

          eigenvalues
 #    :        1037       1038       1039       1040       1041       1042       1043       1044
 occ. :        2.000      2.000      2.000      2.000      2.000      2.000      2.000      2.000
 eps  :       -10.024     -9.977     -9.953     -9.948     -9.933     -9.859     -9.826     -9.769
 #    :        1045       1046       1047       1048       1049       1050       1051       1052
 occ. :        2.000      2.000      2.000      2.000      2.000      0.000      0.000      0.000
 eps  :        -9.674     -9.625     -9.591     -9.533     -9.301     -7.931     -7.824     -7.784
 #    :        1053       1054       1055       1056       1057       1058       1059       1060
 occ. :        0.000      0.000      0.000      0.000      0.000      0.000      0.000      0.000
 eps  :        -7.730     -7.708     -7.679     -7.637     -7.623     -7.616     -7.484     -7.457


   #   Z            q   n(s)   n(p)   n(d)      C6AA      α(0)
   1   7 N     -0.401  1.328  4.073  0.000    30.404     8.189
   2   6 C      0.024  1.058  2.919  0.000    20.190     6.400
   3   6 C      0.267  1.042  2.691  0.000    22.490     7.766
   4   8 O     -0.495  1.741  4.754  0.000    23.670     6.523
   5   6 C     -0.111  1.042  3.069  0.000    22.675     6.790
   6   1 H      0.155  0.845  0.000  0.000     1.365     1.830
   7   1 H      0.058  0.942  0.000  0.000     2.218     2.329
   8   1 H      0.038  0.962  0.000  0.000     2.480     2.463
   9   1 H      0.054  0.946  0.000  0.000     2.267     2.355
  10   1 H      0.037  0.963  0.000  0.000     2.486     2.466
  11   7 N     -0.174  1.245  3.929  0.000    24.758     7.390
  12   6 C      0.006  1.067  2.927  0.000    20.483     6.444
  13   6 C      0.276  1.040  2.684  0.000    22.333     7.739
  14   8 O     -0.484  1.741  4.744  0.000    23.436     6.491
  15   6 C     -0.020  1.061  2.960  0.000    20.902     6.502
  16   6 C     -0.121  1.042  3.080  0.000    22.878     6.819
  17   6 C     -0.127  1.045  3.082  0.000    22.988     6.836
  18   1 H      0.207  0.793  0.000  0.000     1.069     1.620
  19   1 H      0.093  0.907  0.000  0.000     1.845     2.124
  20   1 H      0.041  0.959  0.000  0.000     2.429     2.437
  21   1 H      0.052  0.948  0.000  0.000     2.290     2.366
  22   1 H      0.044  0.956  0.000  0.000     2.394     2.420
  23   1 H      0.067  0.933  0.000  0.000     2.120     2.277
  24   1 H      0.057  0.943  0.000  0.000     2.234     2.337
  25   1 H      0.059  0.941  0.000  0.000     2.215     2.327
  26   1 H      0.039  0.961  0.000  0.000     2.469     2.457
  27   7 N     -0.181  1.245  3.936  0.000    24.914     7.413
  28   6 C      0.008  1.071  2.921  0.000    20.451     6.439
  29   6 C      0.273  1.047  2.680  0.000    22.377     7.746
  30   8 O     -0.479  1.741  4.738  0.000    23.333     6.476
  31   6 C     -0.034  1.069  2.965  0.000    21.139     6.539
  32   6 C     -0.067  1.051  3.016  0.000    21.781     6.644
  33   6 C     -0.123  1.042  3.081  0.000    22.911     6.825
  34   6 C     -0.116  1.040  3.076  0.000    22.782     6.807
  35   1 H      0.211  0.789  0.000  0.000     1.051     1.606
  36   1 H      0.088  0.912  0.000  0.000     1.897     2.154
  37   1 H      0.057  0.943  0.000  0.000     2.238     2.340
  38   1 H      0.044  0.956  0.000  0.000     2.394     2.420
  39   1 H      0.040  0.960  0.000  0.000     2.451     2.448
  40   1 H      0.064  0.936  0.000  0.000     2.149     2.292
  41   1 H      0.048  0.952  0.000  0.000     2.344     2.394
  42   1 H      0.057  0.943  0.000  0.000     2.237     2.339
  43   1 H      0.038  0.962  0.000  0.000     2.476     2.461
  44   1 H      0.044  0.956  0.000  0.000     2.395     2.420
  45   1 H      0.047  0.953  0.000  0.000     2.352     2.398
  46   7 N     -0.176  1.249  3.928  0.000    24.821     7.399
  47   6 C      0.008  1.068  2.924  0.000    20.450     6.440
  48   6 C      0.277  1.038  2.685  0.000    22.308     7.735
  49   8 O     -0.504  1.746  4.757  0.000    23.862     6.549
  50   6 C     -0.085  1.055  3.030  0.000    22.120     6.695
  51   6 C     -0.087  1.057  3.030  0.000    22.159     6.703
  52   6 C     -0.094  1.060  3.034  0.000    22.300     6.725
  53   6 C     -0.056  1.067  2.989  0.000    21.685     6.649
  54   7 N     -0.144  1.235  3.909  0.000    24.105     7.292
  55   1 H      0.212  0.788  0.000  0.000     1.045     1.602
  56   1 H      0.092  0.908  0.000  0.000     1.856     2.130
  57   1 H      0.075  0.925  0.000  0.000     2.028     2.227
  58   1 H      0.063  0.937  0.000  0.000     2.167     2.302
  59   1 H      0.068  0.932  0.000  0.000     2.103     2.268
  60   1 H      0.070  0.930  0.000  0.000     2.091     2.261
  61   1 H      0.073  0.927  0.000  0.000     2.052     2.240
  62   1 H      0.083  0.917  0.000  0.000     1.950     2.184
  63   1 H      0.117  0.883  0.000  0.000     1.636     2.000
  64   1 H      0.123  0.877  0.000  0.000     1.586     1.970
  65   1 H      0.303  0.697  0.000  0.000     0.705     1.315
  66   1 H      0.294  0.706  0.000  0.000     0.732     1.340
  67   1 H      0.287  0.713  0.000  0.000     0.753     1.359
  68   7 N     -0.175  1.245  3.930  0.000    24.785     7.394
  69   6 C      0.020  1.059  2.921  0.000    20.228     6.401
  70   6 C      0.271  1.041  2.688  0.000    22.428     7.756
  71   8 O     -0.516  1.755  4.762  0.000    24.152     6.589
  72   6 C     -0.019  1.059  2.960  0.000    20.869     6.497
  73   6 C     -0.115  1.042  3.073  0.000    22.763     6.803
  74   6 C     -0.127  1.043  3.084  0.000    22.979     6.834
  75   1 H      0.224  0.776  0.000  0.000     0.992     1.560
  76   1 H      0.070  0.930  0.000  0.000     2.091     2.261
  77   1 H      0.059  0.941  0.000  0.000     2.216     2.328
  78   1 H      0.057  0.943  0.000  0.000     2.231     2.336
  79   1 H      0.039  0.961  0.000  0.000     2.461     2.453
  80   1 H      0.037  0.963  0.000  0.000     2.484     2.464
  81   1 H      0.054  0.946  0.000  0.000     2.270     2.356
  82   1 H      0.041  0.959  0.000  0.000     2.437     2.441
  83   1 H      0.063  0.937  0.000  0.000     2.166     2.302
  84   7 N     -0.174  1.243  3.931  0.000    24.760     7.390
  85   6 C      0.015  1.052  2.933  0.000    20.306     6.412
  86   6 C      0.281  1.034  2.685  0.000    22.243     7.724
  87   8 O     -0.500  1.728  4.772  0.000    23.783     6.539
  88   6 C     -0.033  1.063  2.970  0.000    21.124     6.536
  89   6 C     -0.068  1.049  3.019  0.000    21.785     6.644
  90   6 C     -0.129  1.044  3.085  0.000    23.040     6.844
  91   6 C     -0.116  1.039  3.077  0.000    22.785     6.807
  92   1 H      0.236  0.764  0.000  0.000     0.942     1.520
  93   1 H      0.073  0.927  0.000  0.000     2.055     2.242
  94   1 H      0.060  0.940  0.000  0.000     2.201     2.320
  95   1 H      0.043  0.957  0.000  0.000     2.410     2.427
  96   1 H      0.041  0.959  0.000  0.000     2.435     2.440
  97   1 H      0.075  0.925  0.000  0.000     2.034     2.231
  98   1 H      0.047  0.953  0.000  0.000     2.353     2.399
  99   1 H      0.052  0.948  0.000  0.000     2.289     2.366
 100   1 H      0.047  0.953  0.000  0.000     2.358     2.401
 101   1 H      0.038  0.962  0.000  0.000     2.473     2.459
 102   1 H      0.056  0.944  0.000  0.000     2.250     2.346
 103   7 N     -0.187  1.247  3.940  0.000    25.049     7.433
 104   6 C      0.013  1.063  2.924  0.000    20.364     6.426
 105   6 C      0.266  1.049  2.685  0.000    22.502     7.767
 106   8 O     -0.489  1.743  4.746  0.000    23.541     6.505
 107   6 C      0.063  1.038  2.900  0.000    19.733     6.362
 108   8 O     -0.464  1.709  4.756  0.000    22.139     6.352
 109   1 H      0.233  0.767  0.000  0.000     0.953     1.529
 110   1 H      0.096  0.904  0.000  0.000     1.823     2.112
 111   1 H      0.068  0.932  0.000  0.000     2.109     2.271
 112   1 H      0.045  0.955  0.000  0.000     2.386     2.416
 113   1 H      0.359  0.641  0.000  0.000     0.567     1.183
 114   7 N     -0.177  1.249  3.928  0.000    24.839     7.402
 115   6 C      0.016  1.060  2.924  0.000    20.317     6.418
 116   6 C      0.288  1.035  2.677  0.000    22.122     7.702
 117   8 O     -0.517  1.748  4.769  0.000    24.168     6.591
 118   6 C      0.074  1.040  2.886  0.000    19.555     6.335
 119   8 O     -0.475  1.726  4.749  0.000    22.359     6.383
 120   1 H      0.226  0.774  0.000  0.000     0.984     1.554
 121   1 H      0.087  0.913  0.000  0.000     1.909     2.160
 122   1 H      0.049  0.951  0.000  0.000     2.338     2.391
 123   1 H      0.066  0.934  0.000  0.000     2.130     2.282
 124   1 H      0.324  0.676  0.000  0.000     0.654     1.270
 125   7 N     -0.172  1.247  3.925  0.000    24.732     7.386
 126   6 C      0.023  1.052  2.925  0.000    20.179     6.395
 127   6 C      0.281  1.039  2.680  0.000    22.237     7.722
 128   8 O     -0.509  1.739  4.769  0.000    23.975     6.565
 129   6 C     -0.137  1.043  3.093  0.000    23.177     6.863
 130   1 H      0.245  0.755  0.000  0.000     0.904     1.490
 131   1 H      0.072  0.928  0.000  0.000     2.068     2.249
 132   1 H      0.067  0.933  0.000  0.000     2.119     2.277
 133   1 H      0.085  0.915  0.000  0.000     1.927     2.171
 134   1 H      0.083  0.917  0.000  0.000     1.948     2.183
 135   7 N     -0.184  1.247  3.937  0.000    24.991     7.425
 136   6 C      0.024  1.054  2.922  0.000    20.138     6.383
 137   6 C      0.266  1.032  2.701  0.000    22.503     7.769
 138   8 O     -0.492  1.763  4.729  0.000    23.591     6.513
 139   6 C     -0.027  1.064  2.963  0.000    21.056     6.533
 140  16 S     -0.274  1.912  4.327  0.035   152.851    20.808
 141   1 H      0.242  0.758  0.000  0.000     0.915     1.499
 142   1 H      0.071  0.929  0.000  0.000     2.078     2.254
 143   1 H      0.080  0.920  0.000  0.000     1.977     2.199
 144   1 H      0.081  0.919  0.000  0.000     1.973     2.197
 145   1 H      0.222  0.778  0.000  0.000     0.992     1.558
 146   7 N     -0.171  1.250  3.921  0.000    24.695     7.381
 147   6 C      0.010  1.072  2.918  0.000    20.410     6.433
 148   6 C      0.280  1.042  2.678  0.000    22.254     7.725
 149   8 O     -0.513  1.775  4.737  0.000    24.064     6.577
 150   6 C     -0.083  1.061  3.022  0.000    22.086     6.692
 151   6 C     -0.083  1.057  3.026  0.000    22.078     6.690
 152   6 C     -0.096  1.058  3.039  0.000    22.343     6.730
 153   6 C     -0.059  1.060  2.999  0.000    21.729     6.654
 154   7 N     -0.140  1.232  3.908  0.000    24.013     7.278
 155   1 H      0.244  0.756  0.000  0.000     0.909     1.493
 156   1 H      0.091  0.909  0.000  0.000     1.868     2.137
 157   1 H      0.087  0.913  0.000  0.000     1.912     2.162
 158   1 H      0.060  0.940  0.000  0.000     2.199     2.319
 159   1 H      0.066  0.934  0.000  0.000     2.131     2.283
 160   1 H      0.053  0.947  0.000  0.000     2.283     2.363
 161   1 H      0.093  0.907  0.000  0.000     1.854     2.129
 162   1 H      0.084  0.916  0.000  0.000     1.941     2.179
 163   1 H      0.104  0.896  0.000  0.000     1.751     2.069
 164   1 H      0.124  0.876  0.000  0.000     1.584     1.968
 165   1 H      0.308  0.692  0.000  0.000     0.690     1.302
 166   1 H      0.301  0.699  0.000  0.000     0.710     1.320
 167   1 H      0.297  0.703  0.000  0.000     0.724     1.333
 168   7 N     -0.179  1.242  3.937  0.000    24.876     7.408
 169   6 C      0.013  1.061  2.926  0.000    20.359     6.424
 170   6 C      0.284  1.032  2.684  0.000    22.193     7.715
 171   8 O     -0.512  1.748  4.764  0.000    24.046     6.575
 172   6 C      0.112  1.046  2.842  0.000    18.828     6.193
 173   8 O     -0.472  1.720  4.751  0.000    22.296     6.374
 174   6 C     -0.116  1.040  3.077  0.000    22.780     6.806
 175   1 H      0.213  0.787  0.000  0.000     1.041     1.598
 176   1 H      0.073  0.927  0.000  0.000     2.053     2.241
 177   1 H      0.028  0.972  0.000  0.000     2.611     2.527
 178   1 H      0.338  0.662  0.000  0.000     0.618     1.235
 179   1 H      0.074  0.926  0.000  0.000     2.044     2.236
 180   1 H      0.026  0.974  0.000  0.000     2.650     2.546
 181   1 H      0.060  0.940  0.000  0.000     2.199     2.319
 182   7 N     -0.214  1.258  3.956  0.000    25.653     7.522
 183   6 C      0.033  1.055  2.912  0.000    20.023     6.371
[...]
 504   6 C     -0.100  1.057  3.043  0.000    22.408     6.740
 505   6 C     -0.060  1.065  2.995  0.000    21.762     6.659
 506   7 N     -0.145  1.234  3.911  0.000    24.136     7.297
 507   1 H      0.235  0.765  0.000  0.000     0.943     1.522
 508   1 H      0.099  0.901  0.000  0.000     1.796     2.096
 509   1 H      0.057  0.943  0.000  0.000     2.232     2.336
 510   1 H      0.074  0.926  0.000  0.000     2.040     2.234
 511   1 H      0.078  0.922  0.000  0.000     1.997     2.210
 512   1 H      0.084  0.916  0.000  0.000     1.942     2.179
 513   1 H      0.088  0.912  0.000  0.000     1.901     2.156
 514   1 H      0.075  0.925  0.000  0.000     2.030     2.228
 515   1 H      0.119  0.881  0.000  0.000     1.623     1.992
 516   1 H      0.124  0.876  0.000  0.000     1.579     1.965
 517   1 H      0.305  0.695  0.000  0.000     0.699     1.310
 518   1 H      0.294  0.706  0.000  0.000     0.732     1.340
 519   1 H      0.295  0.705  0.000  0.000     0.728     1.337
 520   7 N     -0.189  1.251  3.938  0.000    25.092     7.440
 521   6 C      0.027  1.056  2.917  0.000    20.124     6.387
 522   6 C      0.290  1.032  2.679  0.000    22.092     7.697
 523   8 O     -0.516  1.753  4.763  0.000    24.131     6.586
 524   6 C     -0.124  1.044  3.080  0.000    22.939     6.829
 525   1 H      0.230  0.770  0.000  0.000     0.964     1.538
 526   1 H      0.056  0.944  0.000  0.000     2.243     2.342
 527   1 H      0.030  0.970  0.000  0.000     2.581     2.512
 528   1 H      0.080  0.920  0.000  0.000     1.977     2.199
 529   1 H      0.067  0.933  0.000  0.000     2.120     2.277
 530   7 N     -0.181  1.241  3.939  0.000    24.908     7.412
 531   6 C      0.039  1.043  2.918  0.000    19.912     6.353
 532   6 C      0.286  1.032  2.683  0.000    22.161     7.709
 533   8 O     -0.509  1.746  4.762  0.000    23.975     6.565
 534   6 C     -0.134  1.046  3.088  0.000    23.124     6.855
 535   1 H      0.234  0.766  0.000  0.000     0.947     1.525
 536   1 H      0.031  0.969  0.000  0.000     2.578     2.511
 537   1 H      0.068  0.932  0.000  0.000     2.107     2.270
 538   1 H      0.068  0.932  0.000  0.000     2.111     2.272
 539   1 H      0.086  0.914  0.000  0.000     1.916     2.164
 540   7 N     -0.187  1.251  3.935  0.000    25.043     7.432
 541   6 C      0.028  1.065  2.908  0.000    20.128     6.391
 542   6 C      0.200  1.093  2.706  0.000    23.738     7.979
 543   8 O     -0.364  1.778  4.586  0.000    20.980     6.141
 544   6 C     -0.081  1.060  3.021  0.000    22.041     6.684
 545   6 C     -0.087  1.051  3.036  0.000    22.158     6.702
 546   6 C     -0.029  1.060  2.969  0.000    21.188     6.571
 547   7 N     -0.146  1.225  3.921  0.000    24.153     7.299
 548   6 C      0.221  1.029  2.750  0.000    23.341     7.910
 549   7 N     -0.235  1.225  4.010  0.000    26.144     7.594
 550   7 N     -0.250  1.239  4.011  0.000    26.518     7.648
 551   1 H      0.245  0.755  0.000  0.000     0.903     1.489
 552   1 H      0.083  0.917  0.000  0.000     1.951     2.184
 553   1 H      0.088  0.912  0.000  0.000     1.894     2.152
 554   1 H      0.076  0.924  0.000  0.000     2.020     2.223
 555   1 H      0.075  0.925  0.000  0.000     2.031     2.228
 556   1 H      0.064  0.936  0.000  0.000     2.154     2.295
 557   1 H      0.096  0.904  0.000  0.000     1.817     2.108
 558   1 H      0.090  0.910  0.000  0.000     1.878     2.143
 559   1 H      0.237  0.763  0.000  0.000     0.937     1.516
 560   1 H      0.221  0.779  0.000  0.000     1.007     1.572
 561   1 H      0.253  0.747  0.000  0.000     0.871     1.462
 562   1 H      0.247  0.753  0.000  0.000     0.895     1.482
 563   1 H      0.266  0.734  0.000  0.000     0.823     1.421
 564   7 N     -0.411  1.320  4.091  0.000    30.695     8.228
 565   6 C      0.043  1.054  2.902  0.000    19.863     6.349
 566   6 C      0.274  1.051  2.675  0.000    22.374     7.745
 567   8 O     -0.520  1.748  4.773  0.000    24.233     6.600
 568   6 C     -0.030  1.047  2.982  0.000    21.095     6.538
 569   6 C     -0.078  1.057  3.020  0.000    21.989     6.676
 570   6 C      0.350  1.045  2.605  0.000    21.061     7.510
 571   8 O     -0.612  1.769  4.843  0.000    26.423     6.892
 572   8 O     -0.696  1.815  4.882  0.000    28.615     7.172
 573   1 H      0.189  0.811  0.000  0.000     1.162     1.689
 574   1 H      0.021  0.979  0.000  0.000     2.725     2.582
 575   1 H      0.034  0.966  0.000  0.000     2.531     2.488
 576   1 H      0.016  0.984  0.000  0.000     2.790     2.612
 577   1 H      0.023  0.977  0.000  0.000     2.684     2.562
 578   1 H      0.017  0.983  0.000  0.000     2.775     2.605
 579   7 N     -0.159  1.241  3.918  0.000    24.435     7.342
 580   6 C      0.025  1.062  2.913  0.000    20.166     6.396
 581   6 C      0.191  1.090  2.720  0.000    23.925     8.011
 582   8 O     -0.352  1.760  4.592  0.000    20.749     6.107
 583   6 C     -0.064  1.050  3.014  0.000    21.720     6.634
 584   6 C     -0.087  1.053  3.034  0.000    22.154     6.701
 585   6 C      0.291  1.035  2.673  0.000    22.058     7.690
 586   8 O     -0.516  1.746  4.770  0.000    24.144     6.588
 587   7 N     -0.265  1.261  4.003  0.000    26.858     7.697
 588   1 H      0.215  0.785  0.000  0.000     1.032     1.592
 589   1 H      0.093  0.907  0.000  0.000     1.853     2.129
 590   1 H      0.075  0.925  0.000  0.000     2.033     2.230
 591   1 H      0.083  0.917  0.000  0.000     1.951     2.184
 592   1 H      0.047  0.953  0.000  0.000     2.364     2.404
 593   1 H      0.092  0.908  0.000  0.000     1.863     2.135
 594   1 H      0.204  0.796  0.000  0.000     1.088     1.634
 595   1 H      0.221  0.779  0.000  0.000     1.007     1.572
 596   8 O     -0.607  1.650  4.956  0.000    25.344     6.795
 597   1 H      0.321  0.679  0.000  0.000     0.661     1.277
 598   1 H      0.317  0.683  0.000  0.000     0.671     1.286
 599   8 O     -0.611  1.653  4.958  0.000    25.443     6.808
 600   1 H      0.316  0.684  0.000  0.000     0.675     1.290
 601   1 H      0.294  0.706  0.000  0.000     0.738     1.349
 602   7 N     -0.389  1.328  4.061  0.000    30.061     8.143
 603   6 C      0.021  1.057  2.921  0.000    20.228     6.406
 604   6 C      0.203  1.083  2.715  0.000    23.694     7.972
 605   8 O     -0.357  1.744  4.613  0.000    20.842     6.121
 606   6 C      0.114  1.046  2.840  0.000    18.797     6.188
 607   8 O     -0.486  1.737  4.749  0.000    22.596     6.417
 608   6 C     -0.127  1.043  3.084  0.000    22.986     6.837
 609   1 H      0.163  0.837  0.000  0.000     1.316     1.797
 610   1 H      0.060  0.940  0.000  0.000     2.194     2.316
 611   1 H      0.027  0.973  0.000  0.000     2.636     2.539
 612   1 H      0.319  0.681  0.000  0.000     0.666     1.282
 613   1 H      0.076  0.924  0.000  0.000     2.024     2.225
 614   1 H      0.054  0.946  0.000  0.000     2.276     2.359
 615   1 H      0.056  0.944  0.000  0.000     2.242     2.342
 616   7 N     -0.385  1.334  4.051  0.000    29.963     8.130
 617   6 C      0.029  1.063  2.908  0.000    20.114     6.389
 618   6 C      0.193  1.089  2.718  0.000    23.874     8.002
 619   8 O     -0.384  1.772  4.612  0.000    21.363     6.197
 620   6 C     -0.065  1.049  3.016  0.000    21.734     6.636
 621   6 C     -0.094  1.055  3.039  0.000    22.279     6.719
 622   6 C      0.282  1.035  2.683  0.000    22.227     7.719
 623   8 O     -0.494  1.750  4.744  0.000    23.660     6.522
 624   7 N     -0.279  1.265  4.014  0.000    27.210     7.747
 625   1 H      0.153  0.847  0.000  0.000     1.379     1.839
 626   1 H      0.088  0.912  0.000  0.000     1.899     2.155
 627   1 H      0.046  0.954  0.000  0.000     2.368     2.407
 628   1 H      0.069  0.931  0.000  0.000     2.097     2.264
 629   1 H      0.054  0.946  0.000  0.000     2.274     2.358
 630   1 H      0.073  0.927  0.000  0.000     2.056     2.243
 631   1 H      0.223  0.777  0.000  0.000     0.997     1.564
 632   1 H      0.224  0.776  0.000  0.000     0.990     1.559
 633   7 N     -0.403  1.326  4.076  0.000    30.446     8.195
 634   6 C      0.028  1.057  2.915  0.000    20.109     6.386
 635   6 C      0.271  1.040  2.689  0.000    22.430     7.756
 636   8 O     -0.496  1.733  4.763  0.000    23.700     6.527
 637   6 C     -0.059  1.054  3.005  0.000    21.623     6.620
 638   6 C     -0.087  1.058  3.029  0.000    22.158     6.702
 639   6 C      0.362  1.022  2.616  0.000    20.857     7.474
 640   8 O     -0.629  1.755  4.874  0.000    26.844     6.946
 641   8 O     -0.656  1.773  4.883  0.000    27.535     7.035
 642   1 H      0.159  0.841  0.000  0.000     1.343     1.815
 643   1 H      0.043  0.957  0.000  0.000     2.409     2.427
 644   1 H      0.031  0.969  0.000  0.000     2.565     2.505
 645   1 H      0.059  0.941  0.000  0.000     2.210     2.325
 646   1 H      0.014  0.986  0.000  0.000     2.831     2.631
 647   1 H      0.028  0.972  0.000  0.000     2.610     2.526
 648   7 N     -0.170  1.241  3.929  0.000    24.681     7.378
 649   6 C      0.014  1.056  2.930  0.000    20.336     6.420
 650   6 C      0.271  1.040  2.689  0.000    22.415     7.753
 651   8 O     -0.477  1.740  4.737  0.000    23.280     6.469
 652   6 C     -0.076  1.050  3.026  0.000    21.943     6.668
 653   6 C     -0.099  1.051  3.048  0.000    22.390     6.736
 654   6 C      0.280  1.038  2.682  0.000    22.264     7.726
 655   8 O     -0.476  1.747  4.729  0.000    23.251     6.465
 656   7 N     -0.278  1.263  4.015  0.000    27.192     7.745
 657   1 H      0.218  0.782  0.000  0.000     1.017     1.580
 658   1 H      0.089  0.911  0.000  0.000     1.885     2.147
 659   1 H      0.083  0.917  0.000  0.000     1.952     2.185
 660   1 H      0.064  0.936  0.000  0.000     2.155     2.296
 661   1 H      0.086  0.914  0.000  0.000     1.923     2.169
 662   1 H      0.058  0.942  0.000  0.000     2.221     2.330
 663   1 H      0.203  0.797  0.000  0.000     1.089     1.635
 664   1 H      0.222  0.778  0.000  0.000     1.002     1.568
 665   7 N     -0.186  1.250  3.937  0.000    25.037     7.431
 666   6 C      0.019  1.060  2.921  0.000    20.260     6.409
 667   6 C      0.279  1.035  2.686  0.000    22.272     7.728
 668   8 O     -0.491  1.757  4.734  0.000    23.589     6.512
 669   6 C     -0.138  1.046  3.092  0.000    23.206     6.868
 670   1 H      0.218  0.782  0.000  0.000     1.017     1.580
 671   1 H      0.076  0.924  0.000  0.000     2.017     2.221
 672   1 H      0.071  0.929  0.000  0.000     2.071     2.250
 673   1 H      0.081  0.919  0.000  0.000     1.964     2.192
 674   1 H      0.071  0.929  0.000  0.000     2.073     2.252
 675   7 N     -0.179  1.244  3.935  0.000    24.874     7.407
 676   6 C      0.015  1.064  2.921  0.000    20.332     6.421
 677   6 C      0.279  1.038  2.683  0.000    22.276     7.729
 678   8 O     -0.505  1.759  4.746  0.000    23.894     6.554
 679   6 C     -0.086  1.057  3.030  0.000    22.142     6.699
 680   6 C     -0.072  1.047  3.025  0.000    21.876     6.659
 681   6 C     -0.090  1.054  3.036  0.000    22.218     6.711
 682   6 C     -0.041  1.052  2.988  0.000    21.393     6.602
 683   7 N     -0.138  1.231  3.907  0.000    23.980     7.273
 684   1 H      0.206  0.794  0.000  0.000     1.075     1.624
 685   1 H      0.076  0.924  0.000  0.000     2.026     2.226
 686   1 H      0.064  0.936  0.000  0.000     2.151     2.293
 687   1 H      0.069  0.931  0.000  0.000     2.101     2.267
 688   1 H      0.060  0.940  0.000  0.000     2.200     2.319
 689   1 H      0.061  0.939  0.000  0.000     2.185     2.311
 690   1 H      0.072  0.928  0.000  0.000     2.064     2.247
 691   1 H      0.088  0.912  0.000  0.000     1.897     2.154
 692   1 H      0.113  0.887  0.000  0.000     1.667     2.019
 693   1 H      0.095  0.905  0.000  0.000     1.828     2.115
 694   1 H      0.292  0.708  0.000  0.000     0.737     1.345
 695   1 H      0.291  0.709  0.000  0.000     0.740     1.348
 696   1 H      0.300  0.700  0.000  0.000     0.713     1.323
 697   7 N     -0.170  1.243  3.927  0.000    24.679     7.378
 698   6 C      0.029  1.051  2.920  0.000    20.076     6.378
 699   6 C      0.286  1.031  2.683  0.000    22.150     7.707
 700   8 O     -0.485  1.739  4.747  0.000    23.462     6.494
 701   6 C     -0.088  1.054  3.034  0.000    22.156     6.698
 702   6 C      0.011  1.066  2.923  0.000    27.774     8.645
 703   6 C     -0.044  1.074  2.970  0.000    29.103     8.848
 704   6 C     -0.046  1.078  2.968  0.000    29.146     8.855
 705   6 C     -0.038  1.078  2.961  0.000    28.953     8.825
 706   6 C     -0.037  1.079  2.958  0.000    28.918     8.819
 707   6 C     -0.037  1.076  2.961  0.000    28.909     8.818
 708   1 H      0.218  0.782  0.000  0.000     1.017     1.580
 709   1 H      0.076  0.924  0.000  0.000     2.022     2.224
 710   1 H      0.068  0.932  0.000  0.000     2.104     2.268
 711   1 H      0.071  0.929  0.000  0.000     2.079     2.255
 712   1 H      0.048  0.952  0.000  0.000     2.347     2.396
 713   1 H      0.033  0.967  0.000  0.000     2.548     2.496
 714   1 H      0.058  0.942  0.000  0.000     2.220     2.330
 715   1 H      0.028  0.972  0.000  0.000     2.617     2.530
 716   1 H      0.034  0.966  0.000  0.000     2.534     2.489
 717   7 N     -0.172  1.243  3.929  0.000    24.731     7.386
 718   6 C      0.033  1.055  2.913  0.000    20.018     6.369
 719   6 C      0.215  1.072  2.714  0.000    23.463     7.933
 720   8 O     -0.345  1.732  4.613  0.000    20.618     6.088
 721   6 C     -0.065  1.041  3.024  0.000    21.733     6.635
 722   6 C     -0.029  1.054  2.975  0.000    28.656     8.778
 723   6 C     -0.013  1.069  2.943  0.000    28.287     8.723
 724   6 C     -0.019  1.071  2.948  0.000    28.321     8.716
 725   7 N     -0.104  1.224  3.880  0.000    23.278     7.166
 726   6 C      0.042  1.066  2.892  0.000    26.962     8.512
 727   6 C     -0.039  1.080  2.959  0.000    28.964     8.825
 728   6 C     -0.059  1.072  2.987  0.000    29.466     8.901
 729   6 C     -0.043  1.081  2.962  0.000    29.064     8.840
 730   6 C     -0.042  1.080  2.962  0.000    29.047     8.838
 731   1 H      0.214  0.786  0.000  0.000     1.038     1.596
 732   1 H      0.081  0.919  0.000  0.000     1.972     2.196
 733   1 H      0.059  0.941  0.000  0.000     2.209     2.324
 734   1 H      0.060  0.940  0.000  0.000     2.198     2.319
 735   1 H      0.055  0.945  0.000  0.000     2.254     2.348
 736   1 H      0.180  0.820  0.000  0.000     1.212     1.725
 737   1 H      0.030  0.970  0.000  0.000     2.583     2.513
 738   1 H      0.035  0.965  0.000  0.000     2.521     2.483
 739   1 H      0.021  0.979  0.000  0.000     2.711     2.575
 740   1 H      0.019  0.981  0.000  0.000     2.748     2.592
 741   7 N     -0.392  1.322  4.071  0.000    30.157     8.156
 742   6 C     -0.004  1.044  2.960  0.000    20.732     6.497
 743   6 C      0.272  1.044  2.683  0.000    22.396     7.749
 744   8 O     -0.520  1.754  4.766  0.000    24.227     6.599
 745   1 H      0.164  0.836  0.000  0.000     1.309     1.792
 746   1 H      0.040  0.960  0.000  0.000     2.449     2.447
 747   1 H      0.048  0.952  0.000  0.000     2.341     2.393
 748   7 N     -0.171  1.248  3.923  0.000    24.704     7.382
 749   6 C      0.028  1.056  2.916  0.000    20.107     6.386
 750   6 C      0.201  1.088  2.711  0.000    23.721     7.977
 751   8 O     -0.364  1.746  4.618  0.000    20.980     6.141
 752   6 C     -0.076  1.053  3.023  0.000    21.928     6.662
 753   6 C     -0.014  1.048  2.966  0.000    20.781     6.483
 754   6 C     -0.113  1.041  3.072  0.000    22.710     6.793
 755   6 C     -0.122  1.045  3.077  0.000    22.886     6.820
 756   1 H      0.220  0.780  0.000  0.000     1.008     1.573
 757   1 H      0.106  0.894  0.000  0.000     1.729     2.056
 758   1 H      0.060  0.940  0.000  0.000     2.195     2.317
 759   1 H      0.070  0.930  0.000  0.000     2.085     2.258
 760   1 H      0.039  0.961  0.000  0.000     2.464     2.455
 761   1 H      0.051  0.949  0.000  0.000     2.301     2.372
 762   1 H      0.024  0.976  0.000  0.000     2.678     2.559
 763   1 H      0.042  0.958  0.000  0.000     2.419     2.432
 764   1 H      0.051  0.949  0.000  0.000     2.313     2.379
 765   1 H      0.048  0.952  0.000  0.000     2.347     2.396
 766   1 H      0.057  0.943  0.000  0.000     2.233     2.337
 767   1 H      0.197  0.803  0.000  0.000     1.119     1.657
 768   1 H      0.079  0.921  0.000  0.000     1.989     2.205
 769   1 H      0.183  0.817  0.000  0.000     1.194     1.712
 770   1 H      0.070  0.930  0.000  0.000     2.088     2.259
 771   1 H      0.179  0.821  0.000  0.000     1.219     1.730
 772   1 H      0.068  0.932  0.000  0.000     2.112     2.273
 773   1 H      0.177  0.823  0.000  0.000     1.230     1.737
 774   1 H      0.067  0.933  0.000  0.000     2.118     2.276
 775   1 H      0.174  0.826  0.000  0.000     1.246     1.748
 776   1 H      0.070  0.930  0.000  0.000     2.084     2.257
 777   1 H      0.191  0.809  0.000  0.000     1.155     1.683
 778   1 H      0.082  0.918  0.000  0.000     1.957     2.187
 779   1 H      0.176  0.824  0.000  0.000     1.239     1.743
 780   1 H      0.076  0.924  0.000  0.000     2.017     2.221
 781   1 H      0.183  0.817  0.000  0.000     1.199     1.715
 782   1 H      0.093  0.907  0.000  0.000     1.854     2.129
 783   1 H      0.190  0.810  0.000  0.000     1.160     1.687
 784   1 H      0.076  0.924  0.000  0.000     2.020     2.222
 785   1 H      0.185  0.815  0.000  0.000     1.187     1.707
 786   1 H      0.080  0.920  0.000  0.000     1.980     2.200
 787   1 H      0.179  0.821  0.000  0.000     1.219     1.729
 788   1 H      0.061  0.939  0.000  0.000     2.187     2.313
 789   1 H      0.174  0.826  0.000  0.000     1.249     1.751
 790   1 H      0.063  0.937  0.000  0.000     2.165     2.301

 Mol. C6AA /au·bohr⁶  :    5675395.620750
 Mol. C8AA /au·bohr⁸  :  127466149.154738
 Mol. α(0) /au        :       3583.153820

 
molecular dipole:
                 x           y           z       tot (Debye)
 q only:      450.265     406.753    1555.847
   full:      453.046     404.681    1557.638    4249.637
molecular quadrupole (traceless):
                xx          xy          yy          xz          yz          zz
 q only:  -271130.414   68666.575 -286121.100  264399.268  236335.835  557251.514
  q+dip:  -270826.456   68833.454 -287768.811  266393.503  235391.249  558595.267
   full:  -270834.077   68834.378 -287767.017  266389.103  235391.025  558601.094
speedup  1.97
cpu  time for grad    1 m 10.8 s
wall time for grad    0 m 36.0 s

SCC energy    :   -1198.7630861
rep           :      15.0564264
ES            :       3.8234026
AES           :      -0.1584149
AXC           :       0.4214778
disp          :      -1.0746915
XB            :       0.0000000
fix           :       0.0000000
Gborn         :       0.0000000
Gsasa         :       0.0000000
Ghb           :       0.0000000
Gshift        :       0.0000000
Gsolv         :      -1.2771300     -801.41
Etot ala COSMO:   -1198.7630861
grad norm     :       0.9916081
total E       :   -1183.5823027
atomizationE  :     218.6003553   137173.79
(atE without considering molecular charge,
 total energy contains solvation terms)
H-L gap (eV)  :          1.3705

------------------------------------------------------------------------
 * finished run on 2019/05/06 at 00:42:17.977     
------------------------------------------------------------------------
 total:
 * wall-time:     0 d,  0 h,  0 min, 38.313 sec
 *  cpu-time:     0 d,  0 h,  1 min, 14.106 sec
 * ratio c/w:     1.934 speedup
 SCF:
 * wall-time:     0 d,  0 h,  0 min, 37.316 sec
 *  cpu-time:     0 d,  0 h,  1 min, 13.070 sec
 * ratio c/w:     1.958 speedup

