      -----------------------------------------------------------      
     |                   =====================                   |     
     |                           x T B                           |     
     |                   =====================                   |     
     |                         S. Grimme                         |     
     |          Mulliken Center for Theoretical Chemistry        |     
     |                    University of Bonn                     |     
     |                 Version 6.0.1 (SAW181210)                 |     
      -----------------------------------------------------------      

   This program is distributed in the hope that it will be useful,
   but WITHOUT ANY WARRANTY; without even the implied warranty of
   MERCHANTABILITY or FITNESS FOR A PARTICULAR PURPOSE.
   
   FOR NON-COMMERCIAL, ACADEMIA USE ONLY.
   
   Cite this work as:
   S. Grimme, C. Bannwarth, P. Shushkov, J. Comput. Theory Chem., 2017,
   13, 1989-2009.
   C. Bannwarth, S. Ehlert and S. Grimme., ChemRxiv, 2018, preprint.
   http://doi.org/10.26434/chemrxiv.7246238.v1
   
   for sTDA-xTB:
   S. Grimme and C. Bannwarth, J. Chem. Phys., 2016, 145, 054103.
   
   in the mass-spec context:
   V. Asgeirsson, C. Bauer and S. Grimme, Chem. Sci., 2017, 8, 4879.
   
   if GBSA is used:
   P. Shushkov, F. März and S. Grimme, unpublished.
   
   for ANC optimizer:
   S. Grimme, unpublished.
   Rational Function algorithm used in ANCopt:
   F. Eckert, P. Pulay, H.-J. Werner, J. Comput. Chem., 1997, 18, 1473.
   
   with help from (in alphabetical order)
   C. Bannwarth, F. Bohle, G. Brandenburg, E. Caldeweyher, M. Checinski,
   S. Dohm, S. Ehlert, S. Ehrlich, F. März, H. Neugebauer, J. Pisarek,
   P. Pracht, P. Shushkov, and S. Spicher.
   
 * started run on 2019/05/11 at 23:19:03.178     
========================================================================
 # omp threads = 2
========================================================================
number of atoms            : 234
number of electrons        : 656
charge                     : 0
spin                       : .0
first test random number   : .9185

########################################################################
# WARNING! Please study the warnings concerning your input carefully
#  - Process number higher than OMP_NUM_THREADS, I hope you know what you are doing.
########################################################################

           ------------------------------------------------- 
          |                 G F N 2 - x T B                 |
          | Geometry, Frequencies, Noncovalent interactions |
          |            JCTC 2018 parametrisation            |
           ------------------------------------------------- 
 
      method parameters     
 k(s)        :  1.8500
 k(p)        :  2.2300
 k(d)        :  2.2300
 k(f)        :  2.0000
 kEN (H0ij)  : -2.0000
 D4 a1       :  0.5200
 D4 a2       :  5.0000
 D4 s6       :  1.0000
 D4 s8       :  2.7000
 D4 s9       :  5.0000
 alphaj      :  2.0000

 Solvent             : h2o
 Using internal parameter file: .param_gbsa2_h2o
 Gsolv ref. state (COSMO-RS): gsolv [1 M gas/solution]
 temperature (mdtemp)       :    298.150000000000     
 dielectric constant        :    80.2000000000000     
 rho                        :    1.00000000000000     
 mass                       :    18.0000000000000     
 surface tension            :    15.5689454083859     
 probe radius               :   0.975313790000000     
 vdW radii scaling          :    1.00000000000000     
 Gshift (Eh)                :   1.857443126794793E-003
 c1                         :    1.55243817000000     
 soset                      :   0.130326360000000     
 HB correction              :  T

            Z     q(EN)     CN     RAES       Cart. coordinates
     1  N   5.0   -0.22    3.21    1.96   -25.57080   141.42735    22.22537
     2  C   4.0    0.04    4.30    4.21   -26.42933   138.90282    22.77048
     3  C   4.0    0.15    3.39    3.08   -26.93342   138.35461    25.57224
     4  O   6.0   -0.29    1.24    1.80   -27.92279   136.35763    26.13928
     5  C   4.0    0.03    4.13    3.86   -25.06695   136.77642    21.42087
     6  O   6.0   -0.25    2.05    1.83   -26.83232   135.64319    19.74406
     7  H   1.0    0.08    1.02    1.43   -23.69596   141.81148    22.31421
     8  H   1.0    0.06    1.08    1.44   -28.36825   138.82447    22.00184
     9  H   1.0    0.04    1.01    1.43   -23.45565   137.55596    20.37423
    10  H   1.0    0.05    1.01    1.43   -24.38836   135.39825    22.80598
    11  H   1.0    0.12    1.02    1.43   -26.35029   133.90523    19.45945
    12  N   5.0   -0.14    3.42    2.03   -26.49424   140.21682    27.23933
    13  C   4.0    0.03    4.32    4.24   -27.93921   140.44083    29.58308
    14  C   4.0    0.15    3.53    3.13   -30.75730   140.56831    28.98073
    15  O   6.0   -0.30    1.35    1.80   -32.13181   138.69925    29.02296
    16  C   4.0   -0.07    4.14    3.89   -27.24676   142.76501    31.16725
    17  H   1.0    0.08    1.07    1.44   -25.40509   141.71092    26.75674
    18  H   1.0    0.06    1.05    1.44   -27.66583   138.69740    30.68275
    19  H   1.0    0.05    1.00    1.43   -28.64931   143.01319    32.64798
    20  H   1.0    0.05    1.00    1.43   -25.40655   142.51039    32.04409
    21  H   1.0    0.04    1.00    1.43   -27.15104   144.45030    29.99565
    22  N   5.0   -0.15    3.56    2.12   -31.64908   142.87761    28.53028
    23  C   4.0    0.04    4.40    4.38   -34.31749   143.29806    28.91628
    24  C   4.0    0.17    3.57    3.15   -35.76168   141.23550    27.52950
    25  O   6.0   -0.30    1.27    1.80   -37.57308   140.16073    28.49845
    26  C   4.0   -0.07    4.11    3.83   -35.08398   145.90220    28.01484
    27  H   1.0    0.07    1.08    1.44   -30.49128   144.39235    28.54034
    28  H   1.0    0.06    1.05    1.44   -34.74809   143.11582    30.94720
    29  H   1.0    0.05    1.00    1.43   -37.09829   146.17999    28.29337
    30  H   1.0    0.05    1.00    1.43   -34.06531   147.32217    29.09474
    31  H   1.0    0.05    1.00    1.43   -34.63843   146.12241    26.02068
    32  N   5.0   -0.14    3.51    2.08   -34.98508   140.86137    25.14795
    33  C   4.0    0.03    4.33    4.26   -36.17919   139.02692    23.47311
    34  C   4.0    0.17    3.50    3.11   -37.12395   136.71175    24.93614
    35  O   6.0   -0.31    1.28    1.80   -39.33140   135.99376    24.97307
    36  C   4.0   -0.07    4.14    3.88   -34.30660   138.12167    21.47355
    37  H   1.0    0.08    1.07    1.44   -33.35713   141.67237    24.54637
    38  H   1.0    0.05    1.05    1.44   -37.83413   139.91527    22.58605
    39  H   1.0    0.05    1.00    1.43   -35.19751   136.69601    20.29380
    40  H   1.0    0.05    1.00    1.43   -33.73750   139.70292    20.29030
    41  H   1.0    0.06    1.00    1.43   -32.63425   137.31240    22.34296
    42  N   5.0   -0.14    3.55    2.12   -35.22059   135.42823    25.97855
    43  C   4.0    0.04    4.37    4.32   -35.57052   133.14866    27.43620
    44  C   4.0    0.16    3.47    3.10   -37.56620   133.51210    29.49185
    45  O   6.0   -0.32    1.32    1.80   -39.47187   132.19426    29.44386
    46  C   4.0   -0.06    4.16    3.91   -33.03436   132.49247    28.62527
    47  H   1.0    0.11    1.10    1.44   -33.54351   136.29932    26.27308
    48  H   1.0    0.06    1.05    1.44   -36.28279   131.64831    26.19112
    49  H   1.0    0.05    1.00    1.43   -33.21709   130.91220    29.92262
    50  H   1.0    0.06    1.00    1.43   -31.67770   132.00955    27.16129
    51  H   1.0    0.07    1.01    1.43   -32.30811   134.11761    29.64644
    52  N   5.0   -0.14    3.52    2.09   -36.91329   135.27006    31.20375
    53  C   4.0    0.03    4.36    4.31   -38.32836   136.27124    33.32965
    54  C   4.0    0.15    3.44    3.09   -40.95796   137.23904    32.62132
    55  O   6.0   -0.32    1.26    1.80   -42.34075   138.15067    34.22810
    56  C   4.0   -0.03    4.29    4.17   -36.78095   138.39380    34.50951
    57  C   4.0   -0.02    4.12    3.85   -37.72191   139.35375    37.06049
    58  C   4.0    0.25    3.05    3.02   -36.16699   141.74354    38.09502
    59  O   6.0   -0.28    1.16    1.80   -34.81561   142.93788    36.55971
    60  O   6.0   -0.27    1.15    1.80   -36.42348   142.28255    40.38644
    61  H   1.0    0.10    1.10    1.44   -35.37086   136.31711    30.77016
    62  H   1.0    0.04    1.05    1.44   -38.58458   134.75469    34.73099
    63  H   1.0    0.05    1.03    1.43   -34.83374   137.73328    34.73774
    64  H   1.0    0.07    1.03    1.43   -36.73607   139.97304    33.17795
    65  H   1.0    0.07    1.03    1.43   -39.68196   139.95949    36.93637
    66  H   1.0    0.05    1.02    1.43   -37.57894   137.87492    38.48973
    67  N   5.0   -0.13    3.60    2.15   -41.70890   136.76232    30.24974
    68  C   4.0    0.04    4.57    4.63   -44.24025   137.28352    29.43770
    69  C   4.0    0.15    3.58    3.15   -45.38042   135.22415    27.79530
    70  O   6.0   -0.32    1.31    1.80   -47.67503   134.88486    27.83185
    71  C   4.0   -0.02    4.29    4.18   -44.36166   139.89133    28.26730
    72  C   4.0   -0.06    4.16    3.93   -46.82591   140.14965    26.81020
    73  C   4.0   -0.06    4.14    3.88   -44.03631   141.83380    30.37560
    74  H   1.0    0.12    1.12    1.45   -40.39637   136.63109    28.87777
    75  H   1.0    0.06    1.08    1.44   -45.42357   137.31696    31.14516
    76  H   1.0    0.06    1.06    1.44   -42.77455   140.06770    26.94842
    77  H   1.0    0.04    1.00    1.43   -47.07530   142.08466    26.16055
    78  H   1.0    0.06    1.01    1.43   -46.81475   138.91956    25.16556
    79  H   1.0    0.05    1.00    1.43   -48.42462   139.63452    27.99017
    80  H   1.0    0.04    1.00    1.43   -44.32415   143.72940    29.62425
    81  H   1.0    0.05    1.00    1.43   -45.37983   141.52683    31.89446
    82  H   1.0    0.07    1.01    1.43   -42.13872   141.75787    31.15274
    83  N   5.0   -0.14    3.52    2.09   -43.85729   133.72070    26.46572
    84  C   4.0    0.04    4.46    4.48   -44.88122   131.21683    26.00825
    85  C   4.0    0.16    3.46    3.10   -45.09118   129.79823    28.53004
    86  O   6.0   -0.31    1.26    1.80   -46.23896   127.80149    28.66083
    87  C   4.0   -0.03    4.16    3.93   -43.61528   129.61800    23.91886
    88  C   4.0   -0.03    4.13    3.86   -45.58769   128.59787    22.02568
    89  C   4.0    0.25    3.05    3.02   -44.61791   127.24099    19.53806
    90  O   6.0   -0.27    1.15    1.80   -42.98940   125.55198    19.77801
    91  O   6.0   -0.27    1.16    1.80   -45.65277   127.91979    17.52516
    92  H   1.0    0.12    1.10    1.44   -41.97547   134.00791    26.35330
    93  H   1.0    0.06    1.08    1.44   -46.85848   131.51173    25.44325
    94  H   1.0    0.06    1.02    1.43   -42.25165   130.79699    22.91714
    95  H   1.0    0.06    1.03    1.43   -42.59241   128.04016    24.75848
    96  H   1.0    0.06    1.02    1.43   -46.78668   127.21820    22.98686
    97  H   1.0    0.06    1.03    1.43   -46.78876   130.13987    21.36200
    98  N   5.0   -0.13    3.60    2.15   -44.18823   131.00361    30.57013
    99  C   4.0    0.04    4.46    4.48   -44.60147   129.92384    33.06497
   100  C   4.0    0.16    3.54    3.13   -47.33721   130.42601    33.69471
   101  O   6.0   -0.30    1.26    1.80   -48.86501   128.76564    34.16687
   102  C   4.0   -0.04    4.27    4.14   -43.00744   131.15414    35.17350
   103  C   4.0   -0.03    4.14    3.88   -40.73534   129.54717    35.93496
   104  C   4.0    0.25    3.07    3.02   -41.47850   127.02226    37.34315
   105  O   6.0   -0.27    1.16    1.80   -40.31030   126.60167    39.35035
   106  O   6.0   -0.29    1.18    1.80   -43.11424   125.63686    36.35673
   107  H   1.0    0.11    1.14    1.45   -42.65501   132.12700    30.35049
   108  H   1.0    0.08    1.07    1.44   -44.27087   127.87900    33.06125
   109  H   1.0    0.05    1.03    1.43   -42.37284   133.01758    34.54894
   110  H   1.0    0.05    1.04    1.43   -44.18731   131.41290    36.84906
   111  H   1.0    0.06    1.02    1.43   -39.65671   129.03064    34.24750
   112  H   1.0    0.05    1.02    1.43   -39.49573   130.59746    37.20704
   113  N   5.0   -0.14    3.57    2.13   -47.88735   132.90591    33.69423
   114  C   4.0    0.03    4.48    4.51   -50.26753   133.75969    34.69354
   115  C   4.0    0.16    3.58    3.16   -52.32395   132.54680    33.12079
   116  O   6.0   -0.31    1.30    1.80   -54.04091   131.28997    34.04346
   117  C   4.0   -0.05    4.30    4.19   -50.54161   136.60967    34.66146
   118  C   4.0   -0.04    4.22    4.04   -52.21104   137.36218    36.86270
   119  C   4.0   -0.01    4.20    4.00   -51.97383   140.16558    37.45040
   120  N   5.0   -0.14    3.40    2.02   -52.43746   140.63346    40.12459
   121  C   4.0    0.10    3.33    3.06   -54.28772   141.98270    41.16420
   122  N   5.0   -0.18    3.25    1.97   -56.17025   142.88593    39.77187
   123  N   5.0   -0.18    3.23    1.96   -54.28346   142.36415    43.66426
   124  H   1.0    0.08    1.08    1.44   -46.45192   134.15681    33.60089
   125  H   1.0    0.05    1.06    1.44   -50.45758   133.01522    36.62459
   126  H   1.0    0.05    1.03    1.43   -48.67072   137.45604    34.88480
   127  H   1.0    0.05    1.03    1.43   -51.34687   137.24548    32.87470
   128  H   1.0    0.05    1.02    1.43   -54.16947   136.84350    36.49532
   129  H   1.0    0.05    1.04    1.43   -51.60501   136.32063    38.53907
   130  H   1.0    0.04    1.03    1.43   -50.04104   140.78522    37.05531
   131  H   1.0    0.04    1.03    1.43   -53.22539   141.29587    36.27420
   132  H   1.0    0.08    1.07    1.44   -51.12520   139.88229    41.29165
   133  H   1.0    0.08    1.04    1.43   -56.38080   142.31081    37.96822
   134  H   1.0    0.09    1.03    1.43   -57.59829   143.89206    40.52490
   135  H   1.0    0.09    1.03    1.43   -52.76466   141.90397    44.71619
   136  H   1.0    0.09    1.03    1.43   -55.53732   143.56841    44.44269
   137  N   5.0   -0.13    3.60    2.16   -52.17572   132.87889    30.63417
   138  C   4.0    0.05    4.56    4.62   -54.32903   132.05768    29.17498
   139  C   4.0    0.15    3.34    3.06   -54.38649   129.20915    28.63033
   140  O   6.0   -0.30    1.23    1.80   -56.02112   128.30293    27.27702
   141  C   4.0    0.06    4.23    4.06   -54.66295   133.90997    26.98833
   142  O   6.0   -0.25    2.18    1.85   -54.38175   136.27552    28.21534
   143  C   4.0   -0.06    4.07    3.74   -57.24142   133.62042    25.72687
   144  H   1.0    0.11    1.08    1.44   -50.76760   133.84132    29.76665
   145  H   1.0    0.07    1.08    1.44   -56.00391   132.35037    30.38446
   146  H   1.0    0.05    1.03    1.43   -53.13029   133.66203    25.60103
   147  H   1.0    0.12    1.03    1.43   -54.69343   137.59995    27.00516
   148  H   1.0    0.05    1.00    1.43   -57.32886   134.67932    23.96973
   149  H   1.0    0.07    1.01    1.43   -57.58281   131.63955    25.32553
   150  H   1.0    0.05    1.00    1.43   -58.70286   134.31568    26.98826
   151  N   5.0   -0.13    3.51    2.08   -52.71012   127.81330    29.93725
   152  C   4.0    0.04    4.35    4.29   -52.68754   125.06633    30.12271
   153  C   4.0    0.14    3.42    3.09   -54.10194   124.10356    32.45352
   154  O   6.0   -0.33    1.26    1.80   -54.64652   121.84401    32.61935
   155  C   4.0   -0.03    4.26    4.11   -49.92870   124.11268    30.14649
   156  C   4.0   -0.04    4.13    3.87   -49.52538   121.23804    30.25017
   157  C   4.0   -0.01    4.16    3.93   -49.70801   119.96298    27.62587
   158  N   5.0   -0.14    3.36    2.00   -48.02634   117.77653    27.35332
   159  C   4.0    0.10    3.32    3.06   -45.66785   117.75041    26.43960
   160  N   5.0   -0.18    3.25    1.97   -44.45809   119.89587    25.92422
   161  N   5.0   -0.18    3.23    1.96   -44.45813   115.55478    26.11251
   162  H   1.0    0.11    1.11    1.45   -51.35990   128.67996    30.97628
   163  H   1.0    0.06    1.06    1.44   -53.69117   124.31923    28.47376
   164  H   1.0    0.07    1.05    1.44   -49.03779   124.86224    28.45109
   165  H   1.0    0.07    1.03    1.43   -48.96307   125.01589    31.72715
   166  H   1.0    0.05    1.03    1.43   -47.61325   120.93287    30.95660
   167  H   1.0    0.06    1.04    1.43   -50.89482   120.36667    31.51450
   168  H   1.0    0.04    1.02    1.43   -51.62931   119.29957    27.30352
   169  H   1.0    0.05    1.03    1.43   -49.27224   121.34917    26.16189
   170  H   1.0    0.08    1.07    1.44   -48.76682   116.10158    27.89177
   171  H   1.0    0.09    1.03    1.43   -45.27694   121.58446    26.24320
   172  H   1.0    0.10    1.03    1.43   -42.75406   119.92506    25.08303
   173  H   1.0    0.09    1.03    1.43   -45.31776   113.88060    26.38782
   174  H   1.0    0.09    1.03    1.43   -42.68240   115.54857    25.43108
   175  N   5.0   -0.14    3.48    2.06   -54.66506   125.76496    34.27305
   176  C   4.0    0.04    4.34    4.28   -56.37431   125.02992    36.27393
   177  C   4.0    0.08    3.24    3.04   -59.08083   125.53838    35.35448
   178  O   6.0   -0.28    1.14    1.80   -60.81144   124.10084    35.92185
   179  C   4.0   -0.04    4.18    3.97   -55.60849   126.04604    38.87216
   180  C   4.0   -0.04    4.16    3.92   -52.84627   125.50136    39.59922
   181  C   4.0   -0.05    4.14    3.88   -51.77239   122.86166    38.97371
   182  C   4.0   -0.02    4.13    3.86   -49.25487   123.14510    37.56809
   183  N   5.0   -0.12    4.00    2.86   -48.18137   120.64361    36.80447
   184  H   1.0    0.11    1.09    1.44   -54.11412   127.60199    34.20261
   185  H   1.0    0.06    1.08    1.44   -56.32472   122.95736    36.38825
   186  H   1.0    0.05    1.03    1.43   -55.86971   128.09106    38.90039
   187  H   1.0    0.05    1.02    1.43   -56.88808   125.24670    40.27633
   188  H   1.0    0.06    1.04    1.43   -51.65713   126.89453    38.65307
   189  H   1.0    0.04    1.03    1.43   -52.68456   125.83708    41.62530
   190  H   1.0    0.05    1.03    1.43   -51.47462   121.80938    40.71771
   191  H   1.0    0.05    1.03    1.43   -53.06508   121.77334    37.80310
   192  H   1.0    0.06    1.02    1.43   -49.50103   124.31122    35.88775
   193  H   1.0    0.06    1.02    1.43   -47.87385   124.09303    38.76929
   194  H   1.0    0.07    1.02    1.43   -46.38968   120.93043    36.09720
   195  H   1.0    0.06    1.02    1.43   -48.05951   119.49035    38.37054
   196  H   1.0    0.06    1.02    1.43   -49.31604   119.78821    35.47066
   197  N   5.0   -0.18    3.26    1.97   -60.58966   123.16267    30.64660
   198  C   4.0    0.04    4.34    4.27   -61.25573   120.59325    30.08597
   199  C   4.0    0.16    3.43    3.09   -61.74232   119.10665    32.53019
   200  O   6.0   -0.26    1.25    1.80   -63.82312   118.13187    32.81621
   201  C   4.0   -0.05    4.26    4.12   -59.27101   119.30484    28.44619
   202  C   4.0   -0.03    4.22    4.05   -60.11358   116.62218    27.73636
   203  C   4.0    0.16    3.22    3.04   -62.50993   116.59701    26.11569
   204  O   6.0   -0.26    1.19    1.80   -64.53802   115.79366    26.86255
   205  N   5.0   -0.18    3.18    1.95   -62.21937   117.55984    23.77457
   206  H   1.0    0.10    1.05    1.44   -58.96065   123.38736    31.60816
   207  H   1.0    0.07    1.06    1.44   -63.07330   120.64835    29.09556
   208  H   1.0    0.05    1.03    1.43   -59.01737   120.45046    26.75257
   209  H   1.0    0.05    1.03    1.43   -57.48231   119.22454    29.46856
   210  H   1.0    0.04    1.03    1.43   -58.61314   115.68652    26.67651
   211  H   1.0    0.06    1.03    1.43   -60.49139   115.50703    29.42896
   212  H   1.0    0.08    1.03    1.43   -60.50362   118.02386    23.10037
   213  H   1.0    0.10    1.03    1.43   -63.64740   117.35505    22.53248
   214  N   5.0   -0.14    3.38    2.01   -59.90463   118.92704    34.28176
   215  C   4.0    0.04    4.22    4.05   -60.24173   117.31446    36.51913
   216  C   4.0    0.11    3.16    3.03   -62.69961   117.98320    38.06294
   217  O   6.0   -0.26    1.10    1.80   -63.51882   116.55371    39.69013
   218  C   4.0   -0.03    4.18    3.95   -57.70314   116.92039    37.95771
   219  C   4.0   -0.03    4.17    3.94   -57.28729   118.33409    40.46035
   220  C   4.0    0.15    3.20    3.04   -55.23157   117.13082    42.10844
   221  O   6.0   -0.28    1.20    1.80   -54.85887   114.86191    42.27546
   222  N   5.0   -0.19    3.18    1.95   -53.72358   118.79931    43.31903
   223  H   1.0    0.09    1.06    1.44   -58.20354   119.76412    33.99522
   224  H   1.0    0.06    1.06    1.44   -60.78707   115.44170    35.78758
   225  H   1.0    0.07    1.03    1.43   -57.55531   114.91588    38.42000
   226  H   1.0    0.05    1.03    1.43   -56.17503   117.37397    36.65143
   227  H   1.0    0.04    1.03    1.43   -56.83755   120.31645    40.15421
   228  H   1.0    0.06    1.03    1.43   -59.03488   118.22342    41.55812
   229  H   1.0    0.08    1.02    1.43   -54.33630   120.55541    43.77670
   230  H   1.0    0.10    1.03    1.43   -52.49374   118.05587    44.57484
   231  H   1.0    0.10    1.08    1.44   -26.01648   141.84842    20.63898
   232  H   1.0    0.06    1.04    1.44   -59.44622   127.05178    34.28343
   233  H   1.0    0.10    1.08    1.44   -60.41904   124.03433    29.19620
   234  H   1.0    0.08    1.04    1.43   -63.61951   119.59827    37.72174

  Z AO/shell   Hii/eV     exponent
  1     Wed Apr 25 08:07:45 CEST 2018   EN: 2.200 GM2: 0.406  GM3: 0.0800  RAES: 1.40
     1s    -10.707211    1.230000
  6     Wed Apr 25 08:07:45 CEST 2018   EN: 2.550 GM2: 0.538  GM3: 0.1500  RAES: 3.00
     2s    -13.970922    2.096432
     2p    -10.063292    1.800000
  7     Wed Apr 25 08:07:45 CEST 2018   EN: 3.040 GM2: 0.461  GM3:-0.0640  RAES: 1.90
     2s    -16.686243    2.339881
     2p    -12.523956    2.014332
  8     Wed Apr 25 08:07:45 CEST 2018   EN: 3.440 GM2: 0.452  GM3:-0.0517  RAES: 1.80
     2s    -20.229985    2.439742
     2p    -15.503117    2.137023
 no old-style atom pair restraining (fixing) potential

molecular fragmentation (1/2 indicates fragments):
111111111111111111111111111111111111111111111111111111111111111111111111
111111111111111111111111111111111111111111111111111111111111111111111111
111111111111111111111111111111111111111111111111111122222222222222222222
222222222222221122
# atoms in fragment 1/2:   198    36
 fragment masses (1/2) :     1401.54      258.28
CMA distance (Bohr)    :  22.467
constraining FC (au)   :  0.0500
           ------------------------------------------------- 
          |        Self-Consistent Charge Iterations        |
           ------------------------------------------------- 

 Ncao       : 582
 Nao        : 582
 Nshell     : 350
 Nel        : 656
 T(el)      :   500.0
 intcut     :    35.0
 scfconv/Eh :  0.100E-06
   qconv/e  :  0.100E-04
 intneglect :  0.100E-08
 broydamp   :      0.400
 iter      E             dE          RMSdq      gap      omega  full diag
   1   -378.9278182 -0.378928E+03  0.483E+00    3.48       0.0  T
   2   -379.9401032 -0.101228E+01  0.222E+00    2.32       1.0  T
   3   -380.0087157 -0.686125E-01  0.127E+00    2.51       1.0  T
   4   -380.0700140 -0.612983E-01  0.276E-01    1.68       1.0  T
   5   -380.0734688 -0.345483E-02  0.139E-01    1.87       1.0  T
   6   -380.0740800 -0.611221E-03  0.539E-02    1.87       1.0  T
   7   -380.0742293 -0.149303E-03  0.230E-02    1.92       1.0  T
   8   -380.0742425 -0.131524E-04  0.937E-03    1.94       1.0  T
   9   -380.0742477 -0.523107E-05  0.354E-03    1.95       1.8  T
  10   -380.0742480 -0.306806E-06  0.139E-03    1.95       4.7  T
  11   -380.0742482 -0.115391E-06  0.536E-04    1.95      12.2  T
  12   -380.0742482 -0.108009E-07  0.232E-04    1.95      28.2  T
  13   -380.0742482 -0.190784E-08  0.113E-04    1.95      58.0  T
  14   -380.0742482 -0.503235E-09  0.448E-05    1.95     145.8  T
  15   -380.0742482 -0.100385E-09  0.171E-05    1.95     381.3  T
speedup  1.91
cpu  time for SCC    6.42 s
wall time for SCC    3.35 s

   *** convergence criteria satisfied after 15 iterations ***

          eigenvalues
 #    :         316        317        318        319        320        321        322        323
 occ. :        2.000      2.000      2.000      2.000      2.000      2.000      2.000      2.000
 eps  :       -10.734    -10.731    -10.694    -10.654    -10.603    -10.586    -10.327    -10.257
 #    :         324        325        326        327        328        329        330        331
 occ. :        2.000      2.000      2.000      2.000      2.000      0.000      0.000      0.000
 eps  :       -10.197     -9.910     -9.862     -9.759     -9.662     -7.714     -7.533     -7.064
 #    :         332        333        334        335        336        337        338        339
 occ. :        0.000      0.000      0.000      0.000      0.000      0.000      0.000      0.000
 eps  :        -6.944     -6.714     -6.605     -6.524     -6.500     -6.464     -6.350     -6.316


   #   Z            q   n(s)   n(p)   n(d)      C6AA      α(0)
   1   7 N     -0.394  1.312  4.082  0.000    30.219     8.164
   2   6 C      0.018  1.059  2.922  0.000    20.283     6.415
   3   6 C      0.264  1.048  2.688  0.000    22.542     7.774
   4   8 O     -0.487  1.750  4.738  0.000    23.500     6.500
   5   6 C      0.076  1.038  2.886  0.000    19.531     6.332
   6   8 O     -0.491  1.730  4.761  0.000    22.706     6.433
   7   1 H      0.167  0.833  0.000  0.000     1.294     1.782
   8   1 H      0.079  0.921  0.000  0.000     1.989     2.205
   9   1 H      0.041  0.959  0.000  0.000     2.439     2.443
  10   1 H      0.027  0.973  0.000  0.000     2.630     2.536
  11   1 H      0.339  0.661  0.000  0.000     0.615     1.232
  12   7 N     -0.187  1.245  3.942  0.000    25.051     7.434
  13   6 C      0.021  1.061  2.918  0.000    20.235     6.406
  14   6 C      0.275  1.046  2.680  0.000    22.356     7.744
  15   8 O     -0.492  1.750  4.743  0.000    23.618     6.516
  16   6 C     -0.144  1.047  3.097  0.000    23.331     6.887
  17   1 H      0.230  0.770  0.000  0.000     0.964     1.538
  18   1 H      0.077  0.923  0.000  0.000     2.015     2.220
  19   1 H      0.063  0.937  0.000  0.000     2.163     2.300
  20   1 H      0.087  0.913  0.000  0.000     1.913     2.163
  21   1 H      0.079  0.921  0.000  0.000     1.987     2.204
  22   7 N     -0.188  1.254  3.934  0.000    25.080     7.438
  23   6 C      0.031  1.054  2.915  0.000    20.048     6.373
  24   6 C      0.291  1.037  2.672  0.000    22.073     7.694
  25   8 O     -0.510  1.754  4.756  0.000    24.005     6.569
  26   6 C     -0.138  1.043  3.095  0.000    23.209     6.869
  27   1 H      0.235  0.765  0.000  0.000     0.942     1.520
  28   1 H      0.055  0.945  0.000  0.000     2.255     2.349
  29   1 H      0.070  0.930  0.000  0.000     2.090     2.261
  30   1 H      0.082  0.918  0.000  0.000     1.955     2.186
  31   1 H      0.082  0.918  0.000  0.000     1.958     2.188
  32   7 N     -0.184  1.245  3.939  0.000    24.991     7.425
  33   6 C      0.021  1.062  2.917  0.000    20.230     6.404
  34   6 C      0.286  1.041  2.673  0.000    22.157     7.708
  35   8 O     -0.502  1.745  4.757  0.000    23.840     6.546
  36   6 C     -0.137  1.045  3.092  0.000    23.180     6.864
  37   1 H      0.218  0.782  0.000  0.000     1.018     1.580
  38   1 H      0.077  0.923  0.000  0.000     2.014     2.219
  39   1 H      0.072  0.928  0.000  0.000     2.062     2.246
  40   1 H      0.087  0.913  0.000  0.000     1.907     2.159
  41   1 H      0.064  0.936  0.000  0.000     2.148     2.292
  42   7 N     -0.181  1.254  3.927  0.000    24.913     7.413
  43   6 C      0.025  1.058  2.917  0.000    20.161     6.393
  44   6 C      0.275  1.043  2.682  0.000    22.345     7.740
  45   8 O     -0.482  1.738  4.744  0.000    23.382     6.483
  46   6 C     -0.138  1.045  3.093  0.000    23.200     6.866
  47   1 H      0.227  0.773  0.000  0.000     0.978     1.549
  48   1 H      0.076  0.924  0.000  0.000     2.025     2.225
  49   1 H      0.066  0.934  0.000  0.000     2.130     2.282
  50   1 H      0.089  0.911  0.000  0.000     1.893     2.152
  51   1 H      0.071  0.929  0.000  0.000     2.079     2.255
  52   7 N     -0.187  1.254  3.933  0.000    25.064     7.435
  53   6 C      0.032  1.060  2.907  0.000    20.044     6.377
  54   6 C      0.282  1.040  2.678  0.000    22.223     7.720
  55   8 O     -0.476  1.735  4.741  0.000    23.260     6.466
  56   6 C     -0.038  1.046  2.992  0.000    21.251     6.562
  57   6 C     -0.099  1.068  3.031  0.000    22.409     6.742
  58   6 C      0.364  1.035  2.601  0.000    20.825     7.467
  59   8 O     -0.639  1.769  4.870  0.000    27.102     6.980
  60   8 O     -0.641  1.776  4.865  0.000    27.141     6.985
  61   1 H      0.216  0.784  0.000  0.000     1.030     1.590
  62   1 H      0.059  0.941  0.000  0.000     2.217     2.328
  63   1 H      0.028  0.972  0.000  0.000     2.611     2.527
  64   1 H      0.040  0.960  0.000  0.000     2.451     2.448
  65   1 H      0.047  0.953  0.000  0.000     2.362     2.403
  66   1 H      0.016  0.984  0.000  0.000     2.799     2.616
  67   7 N     -0.191  1.248  3.944  0.000    25.149     7.448
  68   6 C      0.027  1.057  2.916  0.000    20.116     6.384
  69   6 C      0.272  1.045  2.683  0.000    22.413     7.754
  70   8 O     -0.483  1.728  4.756  0.000    23.417     6.488
  71   6 C     -0.009  1.055  2.954  0.000    20.701     6.471
  72   6 C     -0.121  1.041  3.080  0.000    22.872     6.818
  73   6 C     -0.111  1.040  3.071  0.000    22.666     6.787
  74   1 H      0.201  0.799  0.000  0.000     1.099     1.642
  75   1 H      0.077  0.923  0.000  0.000     2.013     2.219
  76   1 H      0.031  0.969  0.000  0.000     2.573     2.508
  77   1 H      0.062  0.938  0.000  0.000     2.176     2.307
  78   1 H      0.035  0.965  0.000  0.000     2.518     2.481
  79   1 H      0.066  0.934  0.000  0.000     2.126     2.280
  80   1 H      0.055  0.945  0.000  0.000     2.264     2.353
  81   1 H      0.058  0.942  0.000  0.000     2.228     2.334
  82   1 H      0.026  0.974  0.000  0.000     2.643     2.542
  83   7 N     -0.194  1.258  3.936  0.000    25.215     7.458
  84   6 C      0.024  1.067  2.910  0.000    20.162     6.390
  85   6 C      0.271  1.049  2.680  0.000    22.426     7.755
  86   8 O     -0.469  1.727  4.742  0.000    23.103     6.444
  87   6 C     -0.048  1.051  2.997  0.000    21.437     6.593
  88   6 C     -0.097  1.077  3.020  0.000    22.359     6.734
  89   6 C      0.368  1.029  2.603  0.000    20.756     7.455
  90   8 O     -0.634  1.766  4.868  0.000    26.977     6.964
  91   8 O     -0.648  1.779  4.869  0.000    27.328     7.009
  92   1 H      0.213  0.787  0.000  0.000     1.041     1.598
  93   1 H      0.084  0.916  0.000  0.000     1.936     2.176
  94   1 H      0.033  0.967  0.000  0.000     2.551     2.498
  95   1 H      0.046  0.954  0.000  0.000     2.375     2.410
  96   1 H      0.033  0.967  0.000  0.000     2.548     2.496
  97   1 H      0.016  0.984  0.000  0.000     2.801     2.617
  98   7 N     -0.225  1.274  3.951  0.000    25.909     7.560
  99   6 C      0.026  1.058  2.917  0.000    20.140     6.389
 100   6 C      0.274  1.044  2.682  0.000    22.374     7.747
 101   8 O     -0.450  1.720  4.730  0.000    22.707     6.389
 102   6 C     -0.048  1.053  2.995  0.000    21.428     6.590
 103   6 C     -0.092  1.066  3.026  0.000    22.259     6.718
 104   6 C      0.363  1.029  2.608  0.000    20.841     7.471
 105   8 O     -0.642  1.779  4.864  0.000    27.182     6.990
 106   8 O     -0.603  1.748  4.856  0.000    26.205     6.863
 107   1 H      0.219  0.781  0.000  0.000     1.016     1.579
 108   1 H      0.096  0.904  0.000  0.000     1.820     2.110
 109   1 H      0.016  0.984  0.000  0.000     2.787     2.611
 110   1 H      0.040  0.960  0.000  0.000     2.454     2.450
 111   1 H      0.011  0.989  0.000  0.000     2.875     2.651
 112   1 H      0.006  0.994  0.000  0.000     2.951     2.687
 113   7 N     -0.192  1.254  3.938  0.000    25.156     7.449
 114   6 C      0.019  1.059  2.922  0.000    20.246     6.405
 115   6 C      0.274  1.039  2.686  0.000    22.362     7.746
 116   8 O     -0.475  1.727  4.748  0.000    23.235     6.463
 117   6 C     -0.081  1.054  3.027  0.000    22.046     6.683
 118   6 C     -0.087  1.054  3.032  0.000    22.141     6.698
 119   6 C     -0.027  1.054  2.973  0.000    21.139     6.561
 120   7 N     -0.141  1.209  3.933  0.000    24.057     7.285
 121   6 C      0.234  1.018  2.747  0.000    23.088     7.867
 122   7 N     -0.244  1.226  4.018  0.000    26.369     7.627
 123   7 N     -0.260  1.241  4.019  0.000    26.745     7.681
 124   1 H      0.184  0.816  0.000  0.000     1.194     1.712
 125   1 H      0.083  0.917  0.000  0.000     1.948     2.183
 126   1 H      0.056  0.944  0.000  0.000     2.249     2.345
 127   1 H      0.073  0.927  0.000  0.000     2.048     2.238
 128   1 H      0.082  0.918  0.000  0.000     1.958     2.188
 129   1 H      0.074  0.926  0.000  0.000     2.044     2.236
 130   1 H      0.080  0.920  0.000  0.000     1.983     2.202
 131   1 H      0.095  0.905  0.000  0.000     1.831     2.116
 132   1 H      0.229  0.771  0.000  0.000     0.968     1.541
 133   1 H      0.246  0.754  0.000  0.000     0.900     1.486
 134   1 H      0.259  0.741  0.000  0.000     0.851     1.445
 135   1 H      0.245  0.755  0.000  0.000     0.904     1.489
 136   1 H      0.258  0.742  0.000  0.000     0.855     1.448
 137   7 N     -0.171  1.242  3.928  0.000    24.690     7.380
 138   6 C      0.014  1.065  2.921  0.000    20.325     6.416
 139   6 C      0.267  1.045  2.687  0.000    22.483     7.764
 140   8 O     -0.485  1.742  4.743  0.000    23.447     6.492
 141   6 C      0.120  1.044  2.836  0.000    18.721     6.177
 142   8 O     -0.479  1.721  4.758  0.000    22.437     6.394
 143   6 C     -0.143  1.045  3.098  0.000    23.319     6.886
 144   1 H      0.217  0.783  0.000  0.000     1.024     1.585
 145   1 H      0.105  0.895  0.000  0.000     1.745     2.066
 146   1 H      0.011  0.989  0.000  0.000     2.877     2.653
 147   1 H      0.339  0.661  0.000  0.000     0.615     1.232
 148   1 H      0.053  0.947  0.000  0.000     2.283     2.363
 149   1 H      0.071  0.929  0.000  0.000     2.074     2.252
 150   1 H      0.069  0.931  0.000  0.000     2.098     2.265
 151   7 N     -0.182  1.241  3.941  0.000    24.941     7.417
 152   6 C      0.014  1.064  2.922  0.000    20.362     6.427
 153   6 C      0.256  1.050  2.694  0.000    22.688     7.800
 154   8 O     -0.480  1.728  4.752  0.000    23.350     6.479
 155   6 C     -0.087  1.059  3.029  0.000    22.167     6.703
 156   6 C     -0.099  1.061  3.039  0.000    22.402     6.739
 157   6 C     -0.030  1.058  2.972  0.000    21.200     6.572
 158   7 N     -0.144  1.211  3.933  0.000    24.127     7.295
 159   6 C      0.233  1.021  2.746  0.000    23.114     7.871
 160   7 N     -0.235  1.219  4.016  0.000    26.157     7.596
 161   7 N     -0.257  1.233  4.024  0.000    26.665     7.669
 162   1 H      0.196  0.804  0.000  0.000     1.127     1.663
 163   1 H      0.087  0.913  0.000  0.000     1.907     2.159
 164   1 H      0.069  0.931  0.000  0.000     2.096     2.264
 165   1 H      0.074  0.926  0.000  0.000     2.040     2.234
 166   1 H      0.082  0.918  0.000  0.000     1.955     2.186
 167   1 H      0.099  0.901  0.000  0.000     1.795     2.095
 168   1 H      0.097  0.903  0.000  0.000     1.813     2.105
 169   1 H      0.067  0.933  0.000  0.000     2.115     2.274
 170   1 H      0.252  0.748  0.000  0.000     0.876     1.466
 171   1 H      0.224  0.776  0.000  0.000     0.991     1.560
 172   1 H      0.237  0.763  0.000  0.000     0.937     1.516
 173   1 H      0.262  0.738  0.000  0.000     0.839     1.435
 174   1 H      0.249  0.751  0.000  0.000     0.889     1.477
 175   7 N     -0.161  1.240  3.921  0.000    24.483     7.349
 176   6 C      0.013  1.062  2.925  0.000    20.363     6.425
 177   6 C      0.192  1.088  2.720  0.000    23.894     8.005
 178   8 O     -0.354  1.761  4.593  0.000    20.781     6.112
 179   6 C     -0.077  1.055  3.022  0.000    21.967     6.673
 180   6 C     -0.081  1.053  3.028  0.000    22.052     6.686
 181   6 C     -0.104  1.057  3.047  0.000    22.488     6.752
 182   6 C     -0.048  1.061  2.987  0.000    21.527     6.623
 183   7 N     -0.140  1.229  3.912  0.000    24.029     7.280
 184   1 H      0.219  0.781  0.000  0.000     1.013     1.576
 185   1 H      0.108  0.892  0.000  0.000     1.713     2.047
 186   1 H      0.071  0.929  0.000  0.000     2.080     2.255
 187   1 H      0.075  0.925  0.000  0.000     2.032     2.229
 188   1 H      0.060  0.940  0.000  0.000     2.202     2.320
 189   1 H      0.076  0.924  0.000  0.000     2.024     2.225
 190   1 H      0.090  0.910  0.000  0.000     1.878     2.143
 191   1 H      0.083  0.917  0.000  0.000     1.948     2.183
 192   1 H      0.106  0.894  0.000  0.000     1.727     2.055
 193   1 H      0.103  0.897  0.000  0.000     1.756     2.072
 194   1 H      0.286  0.714  0.000  0.000     0.756     1.362
 195   1 H      0.304  0.696  0.000  0.000     0.700     1.311
 196   1 H      0.293  0.707  0.000  0.000     0.735     1.343
 197   7 N     -0.387  1.323  4.064  0.000    30.013     8.136
 198   6 C      0.037  1.054  2.909  0.000    19.966     6.364
 199   6 C      0.275  1.048  2.677  0.000    22.348     7.741
 200   8 O     -0.509  1.762  4.747  0.000    23.992     6.567
 201   6 C     -0.081  1.061  3.021  0.000    22.048     6.685
 202   6 C     -0.102  1.061  3.041  0.000    22.444     6.744
 203   6 C      0.292  1.040  2.668  0.000    22.054     7.689
 204   8 O     -0.507  1.763  4.744  0.000    23.950     6.561
 205   7 N     -0.296  1.271  4.024  0.000    27.621     7.805
 206   1 H      0.147  0.853  0.000  0.000     1.419     1.866
 207   1 H      0.043  0.957  0.000  0.000     2.409     2.427
 208   1 H      0.054  0.946  0.000  0.000     2.273     2.358
 209   1 H      0.074  0.926  0.000  0.000     2.047     2.238
 210   1 H      0.078  0.922  0.000  0.000     1.998     2.211
 211   1 H      0.055  0.945  0.000  0.000     2.255     2.348
 212   1 H      0.229  0.771  0.000  0.000     0.969     1.542
 213   1 H      0.222  0.778  0.000  0.000     1.000     1.566
 214   7 N     -0.172  1.246  3.925  0.000    24.715     7.384
 215   6 C      0.024  1.072  2.904  0.000    20.198     6.403
 216   6 C      0.215  1.089  2.696  0.000    23.453     7.930
 217   8 O     -0.375  1.758  4.617  0.000    21.193     6.172
 218   6 C     -0.071  1.055  3.016  0.000    21.869     6.659
 219   6 C     -0.106  1.059  3.048  0.000    22.530     6.758
 220   6 C      0.291  1.041  2.669  0.000    22.073     7.693
 221   8 O     -0.490  1.759  4.731  0.000    23.557     6.507
 222   7 N     -0.289  1.283  4.006  0.000    27.462     7.783
 223   1 H      0.222  0.778  0.000  0.000     1.003     1.569
 224   1 H      0.088  0.912  0.000  0.000     1.895     2.153
 225   1 H      0.084  0.916  0.000  0.000     1.935     2.176
 226   1 H      0.090  0.910  0.000  0.000     1.877     2.143
 227   1 H      0.082  0.918  0.000  0.000     1.957     2.188
 228   1 H      0.070  0.930  0.000  0.000     2.086     2.259
 229   1 H      0.225  0.775  0.000  0.000     0.987     1.556
 230   1 H      0.223  0.777  0.000  0.000     0.994     1.562
 231   1 H      0.196  0.804  0.000  0.000     1.125     1.662
 232   1 H      0.074  0.926  0.000  0.000     2.044     2.236
 233   1 H      0.182  0.818  0.000  0.000     1.200     1.716
 234   1 H      0.077  0.923  0.000  0.000     2.005     2.214

 Mol. C6AA /au·bohr⁶  :     504102.169733
 Mol. C8AA /au·bohr⁸  :   11110528.260015
 Mol. α(0) /au        :       1054.963464

 
molecular dipole:
                 x           y           z       tot (Debye)
 q only:       -8.973      -0.448       6.709
   full:       -5.304       1.744       5.204      19.400
molecular quadrupole (traceless):
                xx          xy          yy          xz          yz          zz
 q only:      535.286   -2014.948    -463.358   -1185.535    1312.512     -71.928
  q+dip:      -16.867   -1451.777     295.826    -909.512    1125.040    -278.959
   full:      -18.151   -1454.489     297.456    -909.276    1128.210    -279.305
speedup  1.93
cpu  time for grad    8.57 s
wall time for grad    4.43 s

SCC energy    :    -380.0839878
rep           :       4.2399882
ES            :       1.5603852
AES           :      -0.0834809
AXC           :       0.1011266
disp          :      -0.2932774
XB            :       0.0000000
fix           :       0.0000000
Gborn         :       0.0000000
Gsasa         :       0.0000000
Ghb           :       0.0000000
Gshift        :       0.0000000
Gsolv         :      -0.4784011     -300.20
Etot ala COSMO:    -380.0839878
grad norm     :       0.3288799
total E       :    -375.8231232
atomizationE  :      65.7781788    41276.43
(atE without considering molecular charge,
 total energy contains solvation terms)
H-L gap (eV)  :          1.9475

------------------------------------------------------------------------
 * finished run on 2019/05/11 at 23:19:07.955     
------------------------------------------------------------------------
 total:
 * wall-time:     0 d,  0 h,  0 min,  4.776 sec
 *  cpu-time:     0 d,  0 h,  0 min,  8.987 sec
 * ratio c/w:     1.882 speedup
 SCF:
 * wall-time:     0 d,  0 h,  0 min,  4.594 sec
 *  cpu-time:     0 d,  0 h,  0 min,  8.844 sec
 * ratio c/w:     1.925 speedup

