      -----------------------------------------------------------      
     |                   =====================                   |     
     |                           x T B                           |     
     |                   =====================                   |     
     |                         S. Grimme                         |     
     |          Mulliken Center for Theoretical Chemistry        |     
     |                    University of Bonn                     |     
     |                 Version 6.0.1 (SAW181210)                 |     
      -----------------------------------------------------------      

   This program is distributed in the hope that it will be useful,
   but WITHOUT ANY WARRANTY; without even the implied warranty of
   MERCHANTABILITY or FITNESS FOR A PARTICULAR PURPOSE.
   
   FOR NON-COMMERCIAL, ACADEMIA USE ONLY.
   
   Cite this work as:
   S. Grimme, C. Bannwarth, P. Shushkov, J. Comput. Theory Chem., 2017,
   13, 1989-2009.
   C. Bannwarth, S. Ehlert and S. Grimme., ChemRxiv, 2018, preprint.
   http://doi.org/10.26434/chemrxiv.7246238.v1
   
   for sTDA-xTB:
   S. Grimme and C. Bannwarth, J. Chem. Phys., 2016, 145, 054103.
   
   in the mass-spec context:
   V. Asgeirsson, C. Bauer and S. Grimme, Chem. Sci., 2017, 8, 4879.
   
   if GBSA is used:
   P. Shushkov, F. März and S. Grimme, unpublished.
   
   for ANC optimizer:
   S. Grimme, unpublished.
   Rational Function algorithm used in ANCopt:
   F. Eckert, P. Pulay, H.-J. Werner, J. Comput. Chem., 1997, 18, 1473.
   
   with help from (in alphabetical order)
   C. Bannwarth, F. Bohle, G. Brandenburg, E. Caldeweyher, M. Checinski,
   S. Dohm, S. Ehlert, S. Ehrlich, F. März, H. Neugebauer, J. Pisarek,
   P. Pracht, P. Shushkov, and S. Spicher.
   
 * started run on 2019/05/07 at 23:36:11.081     
========================================================================
 # omp threads = 2
========================================================================
number of atoms            : 587
number of electrons        : 1556
charge                     : -2
spin                       : .0
first test random number   : .9996

########################################################################
# WARNING! Please study the warnings concerning your input carefully
#  - Process number higher than OMP_NUM_THREADS, I hope you know what you are doing.
########################################################################

           ------------------------------------------------- 
          |                 G F N 2 - x T B                 |
          | Geometry, Frequencies, Noncovalent interactions |
          |            JCTC 2018 parametrisation            |
           ------------------------------------------------- 
 
      method parameters     
 k(s)        :  1.8500
 k(p)        :  2.2300
 k(d)        :  2.2300
 k(f)        :  2.0000
 kEN (H0ij)  : -2.0000
 D4 a1       :  0.5200
 D4 a2       :  5.0000
 D4 s6       :  1.0000
 D4 s8       :  2.7000
 D4 s9       :  5.0000
 alphaj      :  2.0000

 Solvent             : h2o
 Using internal parameter file: .param_gbsa2_h2o
 Gsolv ref. state (COSMO-RS): gsolv [1 M gas/solution]
 temperature (mdtemp)       :    298.150000000000     
 dielectric constant        :    80.2000000000000     
 rho                        :    1.00000000000000     
 mass                       :    18.0000000000000     
 surface tension            :    15.5689454083859     
 probe radius               :   0.975313790000000     
 vdW radii scaling          :    1.00000000000000     
 Gshift (Eh)                :   1.857443126794793E-003
 c1                         :    1.55243817000000     
 soset                      :   0.130326360000000     
 HB correction              :  T

            Z     q(EN)     CN     RAES       Cart. coordinates
     1  N   5.0   -0.20    3.28    1.98    15.73695    70.03688   149.97617
     2  C   4.0    0.03    4.36    4.32    18.04806    69.78968   151.36969
     3  C   4.0    0.07    3.32    3.06    20.25760    69.28172   149.65948
     4  O   6.0   -0.31    1.18    1.80    20.05832    67.79804   147.89815
     5  C   4.0   -0.02    4.35    4.29    17.90471    67.45657   153.04229
     6  C   4.0   -0.08    4.14    3.88    20.43647    66.96527   154.35288
     7  C   4.0   -0.08    4.15    3.90    15.76203    67.81380   154.92049
     8  H   1.0    0.13    1.08    1.44    15.11087    68.49494   149.01318
     9  H   1.0    0.03    1.05    1.44    18.35233    71.50220   152.48069
    10  H   1.0    0.05    1.06    1.44    17.46550    65.84697   151.81623
    11  H   1.0    0.03    1.00    1.43    20.20699    65.51069   155.78509
    12  H   1.0    0.04    1.01    1.43    21.87010    66.34565   153.02288
    13  H   1.0    0.03    1.00    1.43    21.11615    68.68317   155.25820
    14  H   1.0    0.04    1.00    1.43    15.38953    66.05359   155.90920
    15  H   1.0    0.04    1.00    1.43    16.27333    69.23922   156.31052
    16  H   1.0    0.04    1.02    1.43    14.06761    68.44628   153.96348
    17  N   5.0   -0.20    3.23    1.96    26.85952    65.68266   150.95963
    18  C   4.0    0.03    4.31    4.21    28.41531    64.06622   152.53615
    19  C   4.0    0.08    3.26    3.05    31.02260    63.82366   151.25083
    20  O   6.0   -0.30    1.13    1.80    31.17070    62.96040   149.10652
    21  C   4.0   -0.02    4.28    4.17    27.25464    61.40877   152.70370
    22  C   4.0   -0.08    4.14    3.89    29.12190    59.68246   154.04379
    23  C   4.0   -0.08    4.09    3.79    24.65351    61.38573   153.95161
    24  H   1.0    0.09    1.02    1.43    26.55648    65.05055   149.17115
    25  H   1.0    0.05    1.05    1.44    28.61979    64.95564   154.38765
    26  H   1.0    0.05    1.06    1.44    27.04437    60.74823   150.75156
    27  H   1.0    0.03    1.00    1.43    28.33616    57.79708   154.24070
    28  H   1.0    0.05    1.01    1.43    30.88144    59.55911   152.99738
    29  H   1.0    0.04    1.00    1.43    29.54371    60.40730   155.92352
    30  H   1.0    0.04    1.00    1.43    23.96328    59.45592   154.03716
    31  H   1.0    0.03    1.00    1.43    24.75291    62.14378   155.85807
    32  H   1.0    0.04    1.00    1.43    23.33202    62.50929   152.85663
    33  N   5.0   -0.20    3.23    1.96    17.95385    64.13154   144.36710
    34  C   4.0    0.03    4.21    4.02    15.77800    62.59512   145.00917
    35  C   4.0    0.07    3.23    3.04    13.49541    64.28959   145.68257
    36  O   6.0   -0.31    1.20    1.80    13.72743    66.10397   147.12639
    37  C   4.0   -0.04    4.37    4.32    16.18853    61.09126   147.48455
    38  C   4.0   -0.02    3.57    3.15    18.36655    59.31101   147.37014
    39  C   4.0   -0.05    3.50    3.11    20.82471    60.22620   147.28103
    40  C   4.0   -0.05    3.47    3.10    17.92472    56.73190   147.38388
    41  C   4.0   -0.05    3.38    3.07    22.83274    58.55761   147.22372
    42  C   4.0   -0.05    3.38    3.07    19.94061    55.07886   147.34578
    43  C   4.0   -0.05    3.38    3.07    22.39508    55.98023   147.28407
    44  H   1.0    0.12    1.06    1.44    18.34746    65.53911   145.61085
    45  H   1.0    0.03    1.04    1.43    15.36701    61.35727   143.41361
    46  H   1.0    0.05    1.03    1.43    16.49919    62.47158   148.99143
    47  H   1.0    0.03    1.03    1.43    14.43859    60.08023   147.90692
    48  H   1.0    0.05    1.03    1.43    21.19474    62.23190   147.34170
    49  H   1.0    0.04    1.03    1.43    16.01151    56.03060   147.45571
    50  H   1.0    0.05    1.03    1.43    24.74413    59.27107   147.15872
    51  H   1.0    0.05    1.03    1.43    19.60019    53.07002   147.39640
    52  H   1.0    0.04    1.03    1.43    23.97902    54.69680   147.29598
    53  N   5.0   -0.20    3.23    1.96     7.54767    64.52241   149.80747
    54  C   4.0    0.03    4.35    4.30     6.48826    63.27247   151.97308
    55  C   4.0    0.14    3.47    3.10     3.83202    64.26022   152.71189
    56  O   6.0   -0.29    1.25    1.80     3.33773    66.52866   152.86096
    57  C   4.0   -0.02    4.24    4.09     8.29693    63.53149   154.30389
    58  C   4.0   -0.09    4.12    3.85     9.96016    61.19329   154.59336
    59  C   4.0   -0.07    4.17    3.95    10.09829    65.76929   154.15699
    60  H   1.0    0.09    1.03    1.43     8.21731    66.30569   150.03437
    61  H   1.0    0.03    1.07    1.44     6.33654    61.28457   151.45492
    62  H   1.0    0.05    1.06    1.44     7.09935    63.74856   155.98280
    63  H   1.0    0.04    1.00    1.43    11.28564    61.46665   156.13954
    64  H   1.0    0.03    1.00    1.43     8.85556    59.51913   155.00619
    65  H   1.0    0.04    1.00    1.43    11.05151    60.89093   152.88041
    66  H   1.0    0.04    1.01    1.43    11.09199    65.90015   155.94777
    67  H   1.0    0.04    1.01    1.43    11.45342    65.47893   152.64421
    68  H   1.0    0.05    1.00    1.43     9.12425    67.53795   153.84864
    69  N   5.0   -0.10    3.60    2.16     2.04567    62.48931   153.21584
    70  C   4.0    0.03    4.46    4.48    -0.32651    63.28696   154.41647
    71  C   4.0    0.09    3.26    3.05     0.11903    65.05383   156.68112
    72  O   6.0   -0.30    1.13    1.80     1.86825    64.72408   158.16329
    73  C   4.0   -0.03    4.34    4.27    -1.53351    60.83540   155.46655
    74  C   4.0   -0.04    4.24    4.07    -0.05201    58.68338   154.25661
    75  C   4.0   -0.02    4.39    4.37     2.54437    59.84952   153.86406
    76  H   1.0    0.04    1.04    1.43    -1.52054    64.25485   153.03896
    77  H   1.0    0.06    1.03    1.43    -1.30422    60.79977   157.51513
    78  H   1.0    0.05    1.02    1.43    -3.55322    60.79700   155.11642
    79  H   1.0    0.05    1.02    1.43     0.01381    57.01643   155.45265
    80  H   1.0    0.05    1.02    1.43    -0.87471    58.13410   152.45257
    81  H   1.0    0.04    1.02    1.43     3.62821    59.79778   155.62975
    82  H   1.0    0.03    1.05    1.44     3.62464    58.90621   152.41177
    83  N   5.0   -0.20    3.33    1.99    -2.51326    64.92793   161.95264
    84  C   4.0    0.03    4.35    4.28    -2.86165    63.89226   164.45716
    85  C   4.0    0.15    3.40    3.08    -1.63424    61.31109   164.78252
    86  O   6.0   -0.29    1.23    1.80    -2.41612    59.69901   166.23785
    87  C   4.0   -0.04    4.24    4.09    -5.65630    63.90561   165.29724
    88  C   4.0   -0.04    4.21    4.01    -7.50932    63.96093   163.06308
    89  C   4.0    0.25    3.17    3.03    -6.96814    61.67096   161.31612
    90  O   6.0   -0.32    1.30    1.80    -5.64619    62.11833   159.37844
    91  O   6.0   -0.29    1.16    1.80    -7.83078    59.59374   161.96996
    92  H   1.0    0.12    1.14    1.45    -3.65273    64.15124   160.55734
    93  H   1.0    0.04    1.06    1.44    -1.77108    65.09968   165.75489
    94  H   1.0    0.06    1.04    1.43    -5.98078    62.17927   166.38102
    95  H   1.0    0.03    1.02    1.43    -6.01640    65.52218   166.52684
    96  H   1.0    0.04    1.02    1.43    -9.43316    63.79297   163.77761
    97  H   1.0    0.04    1.02    1.43    -7.33058    65.70499   161.98141
    98  N   5.0   -0.13    3.53    2.10     0.52887    61.10360   163.50512
    99  C   4.0    0.04    4.40    4.37     2.32654    59.07111   163.89510
   100  C   4.0    0.15    3.41    3.08     4.02159    59.74350   166.17150
   101  O   6.0   -0.32    1.28    1.80     5.00270    61.85180   166.31076
   102  C   4.0   -0.04    4.39    4.37     3.94914    58.89666   161.52272
   103  C   4.0   -0.02    4.18    3.95     5.47861    56.46831   161.25626
   104  C   4.0   -0.07    4.11    3.81     3.77217    54.24027   160.58843
   105  C   4.0   -0.08    4.12    3.83     7.45221    56.87068   159.18924
   106  H   1.0    0.10    1.09    1.44     0.93320    62.50522   162.26887
   107  H   1.0    0.06    1.05    1.44     1.27286    57.34232   164.28977
   108  H   1.0    0.04    1.04    1.43     2.69396    59.09582   159.89745
   109  H   1.0    0.05    1.04    1.43     5.21278    60.52806   161.53337
   110  H   1.0    0.06    1.05    1.44     6.43830    56.08097   163.04613
   111  H   1.0    0.04    1.00    1.43     4.88751    52.54846   160.25492
   112  H   1.0    0.06    1.01    1.43     2.45704    53.85978   162.11586
   113  H   1.0    0.04    1.00    1.43     2.68445    54.65511   158.89405
   114  H   1.0    0.03    1.00    1.43     8.61836    55.18885   158.99457
   115  H   1.0    0.03    1.00    1.43     6.51181    57.21312   157.39822
   116  H   1.0    0.04    1.00    1.43     8.66844    58.45999   159.64066
   117  N   5.0   -0.14    3.45    2.05     4.31302    57.93194   167.92497
   118  C   4.0    0.04    4.44    4.45     6.11559    58.12765   169.99185
   119  C   4.0    0.17    3.50    3.12     8.80377    57.70591   168.98679
   120  O   6.0   -0.32    1.31    1.80     9.26558    56.39193   167.12770
   121  C   4.0    0.06    4.23    4.05     5.73803    56.26877   172.21099
   122  O   6.0   -0.26    2.19    1.86     7.47230    54.22453   171.99358
   123  C   4.0   -0.07    4.09    3.78     3.05057    55.28816   172.44867
   124  H   1.0    0.11    1.12    1.45     3.65471    56.17882   167.46000
   125  H   1.0    0.07    1.09    1.44     6.00222    60.06023   170.70328
   126  H   1.0    0.05    1.04    1.43     6.22847    57.33344   173.93190
   127  H   1.0    0.11    1.03    1.43     6.96744    52.97506   173.23497
   128  H   1.0    0.04    1.00    1.43     2.85282    54.17597   174.16526
   129  H   1.0    0.05    1.00    1.43     1.74984    56.87410   172.54905
   130  H   1.0    0.06    1.01    1.43     2.53640    54.14090   170.83238
   131  N   5.0   -0.15    3.50    2.08    10.61800    58.82987   170.32394
   132  C   4.0    0.04    4.46    4.48    13.25779    58.57474   169.62653
   133  C   4.0    0.16    3.53    3.13    14.21795    55.89306   169.96773
   134  O   6.0   -0.33    1.33    1.80    16.14628    55.22054   168.87795
   135  C   4.0   -0.04    4.45    4.47    14.87292    60.19234   171.32903
   136  C   4.0   -0.04    4.07    3.74    15.05234    62.88547   170.44973
   137  S   6.0   -0.06    2.54    3.10    17.78950    63.41994   168.53602
   138  C   4.0   -0.07    3.93    3.50    20.09823    61.21160   169.74833
   139  H   1.0    0.10    1.08    1.44    10.10245    60.14632   171.61435
   140  H   1.0    0.05    1.05    1.44    13.52897    59.08793   167.63650
   141  H   1.0    0.05    1.04    1.43    14.00278    60.16624   173.21003
   142  H   1.0    0.05    1.08    1.44    16.72232    59.32936   171.55408
   143  H   1.0    0.05    1.08    1.44    13.41753    63.45803   169.33672
   144  H   1.0    0.04    1.07    1.44    15.19520    64.15422   172.07539
   145  H   1.0    0.04    1.06    1.44    21.87243    61.82244   168.91461
   146  H   1.0    0.04    1.05    1.44    20.21558    61.35858   171.79136
   147  H   1.0    0.05    1.03    1.43    19.69262    59.29324   169.14071
   148  N   5.0   -0.14    3.53    2.10    12.99408    54.40848   171.58778
   149  C   4.0    0.04    4.52    4.56    13.94881    51.85213   171.85861
   150  C   4.0    0.15    3.52    3.13    13.28404    50.43419   169.46398
   151  O   6.0   -0.32    1.30    1.80    14.81747    49.05208   168.43316
   152  C   4.0    0.05    4.19    3.99    13.03737    50.42030   174.26649
   153  O   6.0   -0.26    2.12    1.84    14.22085    51.41890   176.43143
   154  C   4.0   -0.07    4.10    3.79    13.70012    47.60824   174.12252
   155  H   1.0    0.10    1.08    1.44    11.38237    54.94595   172.46505
   156  H   1.0    0.06    1.06    1.44    16.01835    51.94745   171.95700
   157  H   1.0    0.04    1.03    1.43    10.97877    50.64165   174.39985
   158  H   1.0    0.15    1.06    1.44    13.31335    52.93036   176.96431
   159  H   1.0    0.04    1.00    1.43    13.15396    46.71088   175.88341
   160  H   1.0    0.04    1.00    1.43    12.72741    46.71142   172.55616
   161  H   1.0    0.05    1.00    1.43    15.72442    47.38835   173.86664
   162  N   5.0   -0.14    3.54    2.11    10.89320    50.78834   168.70850
   163  C   4.0    0.03    4.38    4.34     9.91976    49.72731   166.37396
   164  C   4.0    0.16    3.50    3.12    11.82354    50.51609   164.29438
   165  O   6.0   -0.32    1.32    1.80    12.91632    48.95832   162.96493
   166  C   4.0   -0.04    4.26    4.13     7.26229    50.73123   165.83108
   167  C   4.0   -0.04    4.18    3.96     5.13846    49.67591   167.48704
   168  C   4.0    0.14    3.21    3.04     2.66305    51.15349   167.17777
   169  O   6.0   -0.33    1.30    1.80     2.47924    53.31167   166.34711
   170  N   5.0   -0.20    3.19    1.95     0.59551    49.92157   167.94250
   171  H   1.0    0.10    1.10    1.44     9.78885    52.08092   169.58946
   172  H   1.0    0.05    1.05    1.44     9.94250    47.65858   166.47660
   173  H   1.0    0.07    1.04    1.43     7.28392    52.78440   166.03285
   174  H   1.0    0.04    1.03    1.43     6.83181    50.31301   163.85804
   175  H   1.0    0.04    1.03    1.43     4.79179    47.69622   167.04242
   176  H   1.0    0.04    1.03    1.43     5.67313    49.81074   169.47595
   177  H   1.0    0.07    1.03    1.43     0.66372    48.15677   168.64897
   178  H   1.0    0.09    1.03    1.43    -1.07913    50.82747   167.85169
   179  N   5.0   -0.14    3.50    2.08    12.27173    53.00991   164.18997
   180  C   4.0    0.04    4.50    4.54    13.96417    53.97729   162.29608
   181  C   4.0    0.16    3.56    3.14    16.46332    52.56024   162.28014
   182  O   6.0   -0.32    1.29    1.80    17.42034    51.77664   160.30548
   183  C   4.0   -0.04    4.34    4.28    14.59125    56.77130   162.55878
   184  C   4.0   -0.02    3.54    3.14    15.75485    57.75687   160.12662
   185  C   4.0   -0.05    3.47    3.10    14.83528    57.10273   157.71482
   186  C   4.0   -0.05    3.46    3.10    17.77625    59.42716   160.21710
   187  C   4.0   -0.05    3.39    3.07    15.90764    58.10577   155.56216
   188  C   4.0   -0.05    3.40    3.08    18.78391    60.49647   158.01146
   189  C   4.0   -0.05    3.37    3.07    17.87926    59.83326   155.67056
   190  H   1.0    0.11    1.10    1.44    11.23093    54.25021   165.22435
   191  H   1.0    0.04    1.07    1.44    13.09479    53.63095   160.44489
   192  H   1.0    0.04    1.04    1.43    12.82062    57.75886   162.93215
   193  H   1.0    0.05    1.03    1.43    15.87799    57.09472   164.13287
   194  H   1.0    0.04    1.03    1.43    13.23793    55.85555   157.50852
   195  H   1.0    0.04    1.03    1.43    18.55474    59.98255   162.01716
   196  H   1.0    0.04    1.03    1.43    15.18144    57.55447   153.73526
   197  H   1.0    0.04    1.04    1.43    20.32698    61.81466   158.20570
   198  H   1.0    0.04    1.03    1.43    18.64833    60.62054   153.95727
   199  N   5.0   -0.14    3.56    2.12    17.54449    52.47114   164.56123
   200  C   4.0    0.03    4.43    4.43    20.00947    51.32293   164.88593
   201  C   4.0    0.16    3.52    3.12    19.87989    48.65107   163.74105
   202  O   6.0   -0.31    1.28    1.80    21.43128    47.87987   162.19358
   203  C   4.0   -0.05    4.34    4.28    20.77983    51.38294   167.63403
   204  C   4.0   -0.03    4.17    3.94    23.64526    51.19971   168.03265
   205  C   4.0   -0.08    4.11    3.82    24.15976    51.11781   170.89307
   206  C   4.0   -0.08    4.11    3.82    24.88774    48.87020   166.84341
   207  H   1.0    0.12    1.11    1.45    16.74640    53.29881   166.09447
   208  H   1.0    0.04    1.05    1.44    21.37914    52.37848   163.72736
   209  H   1.0    0.05    1.04    1.43    20.12174    53.15759   168.44971
   210  H   1.0    0.05    1.03    1.43    19.83100    49.84828   168.63552
   211  H   1.0    0.03    1.05    1.44    24.52627    52.88998   167.23679
   212  H   1.0    0.03    1.00    1.43    26.18330    51.09189   171.25173
   213  H   1.0    0.04    1.00    1.43    23.34405    52.75610   171.82669
   214  H   1.0    0.04    1.00    1.43    23.32760    49.42882   171.71185
   215  H   1.0    0.03    1.00    1.43    26.89064    48.88077   167.30043
   216  H   1.0    0.04    1.00    1.43    24.01756    47.15962   167.58233
   217  H   1.0    0.06    1.01    1.43    24.68617    48.87723   164.80485
   218  N   5.0   -0.14    3.53    2.10    17.93219    47.24621   164.48072
   219  C   4.0    0.05    4.45    4.46    17.72948    44.68371   163.59999
   220  C   4.0    0.18    3.53    3.13    17.69007    44.50730   160.69236
   221  O   6.0   -0.27    1.23    1.80    18.81986    42.85865   159.50572
   222  C   4.0    0.03    4.17    3.95    15.32297    43.47050   164.61268
   223  O   6.0   -0.25    2.09    1.84    15.20000    41.08295   163.42803
   224  H   1.0    0.12    1.11    1.45    16.66693    47.89432   165.76833
   225  H   1.0    0.06    1.05    1.44    19.36494    43.56759   164.22630
   226  H   1.0    0.04    1.01    1.43    15.43206    43.30425   166.67564
   227  H   1.0    0.06    1.01    1.43    13.69777    44.64649   164.09296
   228  H   1.0    0.11    1.02    1.43    13.77234    40.15526   164.08541
   229  N   5.0   -0.14    3.55    2.11    16.26871    46.26601   159.60475
   230  C   4.0    0.04    4.56    4.61    16.09436    46.32752   156.87924
   231  C   4.0    0.16    3.53    3.13    18.70398    46.85645   155.77924
   232  O   6.0   -0.29    1.28    1.80    19.42458    45.80324   153.85765
   233  C   4.0   -0.02    4.34    4.28    14.15573    48.19886   155.82988
   234  C   4.0   -0.04    4.22    4.03    11.66101    48.08552   157.26545
   235  C   4.0   -0.08    4.19    3.97    13.75730    47.46758   153.09497
   236  C   4.0   -0.08    4.03    3.67     9.65424    49.81824   156.16709
   237  H   1.0    0.12    1.10    1.44    15.41197    47.60956   160.65456
   238  H   1.0    0.06    1.07    1.44    15.58157    44.41625   156.24873
   239  H   1.0    0.05    1.05    1.44    14.93750    50.10964   155.97694
   240  H   1.0    0.04    1.03    1.43    10.96694    46.14031   157.26577
   241  H   1.0    0.07    1.05    1.44    11.97318    48.61449   159.22661
   242  H   1.0    0.03    1.00    1.43    12.84739    48.98224   152.04947
   243  H   1.0    0.06    1.02    1.43    15.55100    47.04719   152.19017
   244  H   1.0    0.04    1.00    1.43    12.57679    45.78921   152.97970
   245  H   1.0    0.04    1.00    1.43     8.01660    49.88918   157.40879
   246  H   1.0    0.03    1.00    1.43    10.38657    51.72636   155.94706
   247  H   1.0    0.04    1.00    1.43     9.02378    49.14592   154.33331
   248  N   5.0   -0.13    3.49    2.07    20.17010    48.54818   156.94299
   249  C   4.0    0.04    4.43    4.44    22.66971    48.95092   155.87085
   250  C   4.0    0.10    3.31    3.06    24.23512    46.53973   156.19380
   251  O   6.0   -0.29    1.11    1.80    25.47730    45.63295   154.45839
   252  C   4.0   -0.02    4.34    4.27    24.00965    51.22381   157.09636
   253  C   4.0   -0.05    4.17    3.94    23.45245    53.69288   155.65299
   254  C   4.0   -0.08    4.16    3.93    26.85706    50.81006   157.25488
   255  C   4.0   -0.07    4.05    3.71    21.62096    55.26431   157.22984
   256  H   1.0    0.12    1.09    1.44    19.57623    49.54067   158.46612
   257  H   1.0    0.06    1.06    1.44    22.47500    49.23104   153.82691
   258  H   1.0    0.05    1.07    1.44    23.27617    51.37569   159.02058
   259  H   1.0    0.03    1.03    1.43    25.19439    54.74736   155.35429
   260  H   1.0    0.04    1.03    1.43    22.62488    53.30148   153.81148
   261  H   1.0    0.03    1.00    1.43    27.77936    52.46974   158.03852
   262  H   1.0    0.04    1.01    1.43    27.32386    49.20857   158.43703
   263  H   1.0    0.05    1.00    1.43    27.60944    50.45839   155.37617
   264  H   1.0    0.04    1.03    1.43    21.10167    56.96373   156.21738
   265  H   1.0    0.06    1.01    1.43    19.90909    54.21053   157.63405
   266  H   1.0    0.04    1.00    1.43    22.48899    55.81436   159.00568
   267  N   5.0   -0.20    3.29    1.98    30.41898    57.90567   170.28274
   268  C   4.0    0.02    4.26    4.11    29.53697    59.58971   168.24969
   269  C   4.0    0.07    3.24    3.04    29.35956    62.11310   169.63804
   270  O   6.0   -0.31    1.16    1.80    28.27667    62.16289   171.69003
   271  C   4.0   -0.05    4.37    4.33    27.04393    58.51046   167.31013
   272  C   4.0   -0.03    4.19    3.98    25.94852    59.89702   165.07477
   273  C   4.0   -0.08    4.13    3.87    27.91577    60.21206   162.97301
   274  C   4.0   -0.08    4.12    3.83    23.70776    58.40250   164.01154
   275  H   1.0    0.09    1.03    1.43    29.35189    57.90217   171.86026
   276  H   1.0    0.03    1.05    1.44    30.99323    59.62513   166.80024
   277  H   1.0    0.03    1.04    1.43    27.40038    56.54488   166.78466
   278  H   1.0    0.04    1.03    1.43    25.70410    58.52117   168.88088
   279  H   1.0    0.04    1.05    1.44    25.30244    61.77711   165.65153
   280  H   1.0    0.03    1.00    1.43    27.01549    60.97963   161.29053
   281  H   1.0    0.03    1.00    1.43    29.43421    61.48166   163.50791
   282  H   1.0    0.03    1.00    1.43    28.70085    58.37526   162.49600
   283  H   1.0    0.04    1.00    1.43    22.82886    59.45568   162.48738
   284  H   1.0    0.03    1.00    1.43    24.36367    56.59594   163.28616
   285  H   1.0    0.04    1.00    1.43    22.30957    58.05292   165.47256
   286  N   5.0   -0.20    3.24    1.96    29.91926    70.30108   178.58810
   287  C   4.0    0.02    4.34    4.27    28.64675    67.95888   179.30356
   288  C   4.0    0.14    3.45    3.10    26.02216    68.68338   180.25120
   289  O   6.0   -0.31    1.25    1.80    25.73339    70.52446   181.61614
   290  C   4.0   -0.05    4.40    4.38    29.97952    66.64522   181.45589
   291  C   4.0   -0.03    4.19    3.99    32.54187    65.55107   180.71418
   292  C   4.0   -0.08    4.12    3.83    34.09707    65.14764   183.11721
   293  C   4.0   -0.08    4.12    3.84    32.20675    63.05870   179.33631
   294  H   1.0    0.08    1.02    1.43    30.64725    71.30141   180.05569
   295  H   1.0    0.04    1.05    1.44    28.50165    66.76983   177.61853
   296  H   1.0    0.05    1.04    1.43    30.23271    68.03700   182.96208
   297  H   1.0    0.05    1.04    1.43    28.77733    65.13396   182.18267
   298  H   1.0    0.03    1.06    1.44    33.53988    66.91764   179.53191
   299  H   1.0    0.03    1.00    1.43    36.02559    64.63930   182.65409
   300  H   1.0    0.04    1.00    1.43    34.16505    66.86987   184.24047
   301  H   1.0    0.04    1.00    1.43    33.25492    63.66459   184.26742
   302  H   1.0    0.03    1.00    1.43    34.02589    62.23094   178.87117
   303  H   1.0    0.04    1.03    1.43    31.18331    61.74157   180.52677
   304  H   1.0    0.04    1.00    1.43    31.16823    63.31351   177.57941
   305  N   5.0   -0.14    3.50    2.08    24.09964    67.25132   179.47534
   306  C   4.0    0.03    4.50    4.54    21.52553    68.15125   179.54057
   307  C   4.0    0.15    3.54    3.13    19.89705    66.13031   180.70159
   308  O   6.0   -0.31    1.36    1.80    20.66868    63.99138   181.14087
   309  C   4.0   -0.02    4.27    4.14    20.50797    68.76781   176.85549
   310  C   4.0   -0.07    4.09    3.79    22.00570    70.83349   175.49522
   311  C   4.0   -0.07    4.15    3.90    20.43329    66.38919   175.25536
   312  H   1.0    0.08    1.07    1.44    24.44576    65.75325   178.34316
   313  H   1.0    0.05    1.06    1.44    21.51171    69.86222   180.70220
   314  H   1.0    0.04    1.06    1.44    18.57801    69.46446   177.10409
   315  H   1.0    0.04    1.00    1.43    21.09112    71.27512   173.71394
   316  H   1.0    0.05    1.00    1.43    22.07099    72.55038   176.62643
   317  H   1.0    0.04    1.00    1.43    23.93404    70.24871   175.11022
   318  H   1.0    0.04    1.00    1.43    19.55059    66.80230   173.44664
   319  H   1.0    0.04    1.00    1.43    22.33176    65.69749   174.86809
   320  H   1.0    0.06    1.01    1.43    19.36118    64.89543   176.17478
   321  N   5.0   -0.15    3.47    2.06    17.51337    66.79648   181.20414
   322  C   4.0    0.05    4.48    4.51    15.93810    64.79395   182.15704
   323  C   4.0    0.16    3.49    3.11    15.45117    62.87056   180.03135
   324  O   6.0   -0.32    1.24    1.80    14.53213    63.51766   178.01012
   325  C   4.0    0.03    4.15    3.90    13.40008    65.72663   183.14112
   326  O   6.0   -0.26    2.10    1.84    12.13087    63.54207   184.02244
   327  H   1.0    0.07    1.06    1.44    16.78556    68.49292   180.74659
   328  H   1.0    0.06    1.06    1.44    16.95560    63.85908   183.70280
   329  H   1.0    0.04    1.01    1.43    13.69478    67.08869   184.66312
   330  H   1.0    0.05    1.01    1.43    12.33463    66.61749   181.59884
   331  H   1.0    0.12    1.02    1.43    10.90730    64.01571   185.28750
   332  N   5.0   -0.14    3.48    2.06    16.00784    60.47594   180.63128
   333  C   4.0    0.03    4.40    4.38    15.37149    58.36019   179.02208
   334  C   4.0    0.15    3.34    3.06    12.52366    57.67438   179.14409
   335  O   6.0   -0.32    1.27    1.80    11.70094    55.92843   177.87417
   336  C   4.0   -0.04    4.29    4.17    17.16673    56.11646   179.48696
   337  C   4.0   -0.04    4.01    3.64    19.95659    56.76973   179.05807
   338  S   6.0   -0.04    2.48    3.10    20.56444    57.58472   175.70916
   339  C   4.0   -0.06    3.85    3.40    23.97374    58.16161   175.45976
   340  H   1.0    0.08    1.07    1.44    16.72126    60.09505   182.36040
   341  H   1.0    0.06    1.08    1.44    15.64340    59.00056   177.06198
   342  H   1.0    0.04    1.03    1.43    16.94435    55.49005   181.43955
   343  H   1.0    0.06    1.04    1.43    16.64174    54.57047   178.23545
   344  H   1.0    0.06    1.06    1.44    20.55454    58.38278   180.18861
   345  H   1.0    0.04    1.06    1.44    21.12420    55.13467   179.50139
   346  H   1.0    0.05    1.04    1.44    24.25558    59.12994   173.67654
   347  H   1.0    0.06    1.05    1.44    24.56616    59.34774   177.01738
   348  H   1.0    0.04    1.03    1.43    24.94937    56.35729   175.47596
   349  N   5.0   -0.14    3.45    2.05    10.98307    59.14976   180.53240
   350  C   4.0    0.03    4.34    4.28     8.25163    59.07916   180.35528
   351  C   4.0    0.15    3.43    3.09     7.03080    61.22697   178.79228
   352  O   6.0   -0.30    1.31    1.80     4.71257    61.37696   178.64557
   353  C   4.0    0.04    4.18    3.96     7.04661    59.33050   183.00694
   354  O   6.0   -0.25    2.06    1.83     4.45011    58.84911   182.98261
   355  H   1.0    0.10    1.10    1.44    11.69553    60.55793   181.62914
   356  H   1.0    0.06    1.05    1.44     7.69595    57.27113   179.51784
   357  H   1.0    0.05    1.01    1.43     7.89297    57.95245   184.29080
   358  H   1.0    0.05    1.01    1.43     7.43132    61.24448   183.72370
   359  H   1.0    0.15    1.08    1.44     3.71442    59.81481   181.59588
   360  N   5.0   -0.13    3.47    2.06     8.52700    63.00288   177.81337
   361  C   4.0    0.04    4.37    4.33     7.42647    65.22937   176.64768
   362  C   4.0    0.16    3.44    3.09     6.45265    64.58573   174.00817
   363  O   6.0   -0.31    1.29    1.80     7.32838    62.76182   172.86501
   364  C   4.0   -0.07    4.14    3.87     9.42792    67.27436   176.31758
   365  H   1.0    0.10    1.07    1.44    10.43575    62.84575   177.77646
   366  H   1.0    0.06    1.05    1.44     5.83633    65.88322   177.79960
   367  H   1.0    0.05    1.01    1.43     8.78337    68.66865   174.95987
   368  H   1.0    0.04    1.00    1.43     9.76953    68.23296   178.10288
   369  H   1.0    0.05    1.00    1.43    11.17790    66.41997   175.66764
   370  N   5.0   -0.14    3.48    2.06     4.75689    66.19417   173.06971
   371  C   4.0    0.04    4.47    4.50     3.93428    66.11651   170.47354
   372  C   4.0    0.16    3.47    3.10     5.61720    67.78134   168.82018
   373  O   6.0   -0.32    1.33    1.80     6.82651    69.56958   169.67623
   374  C   4.0    0.05    4.26    4.11     1.21640    67.15009   170.14000
   375  O   6.0   -0.26    2.15    1.85     1.11433    69.69928   170.92641
   376  C   4.0   -0.07    4.06    3.73    -0.72975    65.53227   171.52602
   377  H   1.0    0.11    1.11    1.45     4.04525    67.57468   174.22466
   378  H   1.0    0.07    1.06    1.44     4.04462    64.16461   169.80410
   379  H   1.0    0.04    1.04    1.43     0.79693    67.18180   168.11090
   380  H   1.0    0.14    1.07    1.44     1.31205    69.70974   172.76881
   381  H   1.0    0.04    1.00    1.43    -2.60461    66.32098   171.24495
   382  H   1.0    0.05    1.00    1.43    -0.70355    63.60689   170.81452
   383  H   1.0    0.06    1.00    1.43    -0.31502    65.52198   173.54054
   384  N   5.0   -0.15    3.50    2.08     5.48307    67.18628   166.37627
   385  C   4.0    0.04    4.44    4.44     6.87064    68.56930   164.47926
   386  C   4.0    0.09    3.25    3.04     5.92409    71.27138   164.38066
   387  O   6.0   -0.29    1.12    1.80     7.38742    73.02999   164.04579
   388  C   4.0   -0.04    4.38    4.34     6.69495    67.24127   161.95086
   389  C   4.0   -0.04    4.10    3.81     8.23573    64.83037   162.01807
   390  S   6.0   -0.06    2.64    3.10    11.52890    65.63165   162.57679
   391  C   4.0   -0.07    3.92    3.49    12.70941    62.45642   162.68458
   392  H   1.0    0.10    1.10    1.44     4.66376    65.53004   165.89040
   393  H   1.0    0.05    1.11    1.45     8.87799    68.68017   165.00148
   394  H   1.0    0.06    1.03    1.43     4.72783    66.81187   161.49673
   395  H   1.0    0.05    1.04    1.43     7.45706    68.48122   160.49185
   396  H   1.0    0.06    1.08    1.44     7.62458    63.59152   163.54727
   397  H   1.0    0.04    1.06    1.44     8.12153    63.83611   160.21633
   398  H   1.0    0.04    1.05    1.44    14.65245    62.53501   163.33226
   399  H   1.0    0.05    1.05    1.44    11.54774    61.40197   164.01400
   400  H   1.0    0.04    1.04    1.43    12.62752    61.62897   160.80747
   401  N   5.0   -0.19    3.24    1.97     3.80850    74.45566   169.17325
   402  C   4.0    0.03    4.30    4.20     5.27637    75.47615   171.22654
   403  C   4.0    0.15    3.42    3.09     7.97877    76.07341   170.34491
   404  O   6.0   -0.29    1.26    1.80     8.84947    78.21587   170.56693
   405  C   4.0   -0.04    4.23    4.06     5.17511    73.66113   173.49311
   406  C   4.0   -0.04    4.17    3.93     2.62957    73.83763   174.86000
   407  C   4.0    0.24    3.08    3.02     2.07499    71.78909   176.91944
   408  O   6.0   -0.32    1.26    1.80     2.24416    69.49705   176.30663
   409  O   6.0   -0.29    1.17    1.80     1.37243    72.58553   179.00474
   410  H   1.0    0.10    1.05    1.44     3.03821    72.72259   169.45117
   411  H   1.0    0.05    1.05    1.44     4.47947    77.31136   171.79636
   412  H   1.0    0.07    1.04    1.43     5.51037    71.74363   172.82347
   413  H   1.0    0.05    1.02    1.43     6.69538    74.14174   174.80792
   414  H   1.0    0.05    1.03    1.43     2.49914    75.65532   175.81026
   415  H   1.0    0.05    1.03    1.43     1.10417    73.70873   173.47344
   416  N   5.0   -0.14    3.48    2.07     9.30932    74.22651   169.28237
   417  C   4.0    0.04    4.46    4.47    11.92853    74.71537   168.63249
   418  C   4.0    0.10    3.28    3.05    12.19375    76.92138   166.77916
   419  O   6.0   -0.29    1.12    1.80    14.03487    78.33434   166.83223
   420  C   4.0   -0.02    4.34    4.28    13.21326    72.41368   167.43125
   421  C   4.0   -0.05    4.22    4.03    12.59351    69.94846   168.80978
   422  C   4.0   -0.08    4.14    3.89    16.06710    72.82580   167.44931
   423  C   4.0   -0.07    4.04    3.69    12.86587    70.10474   171.67949
   424  H   1.0    0.11    1.11    1.45     8.60943    72.44949   169.19007
   425  H   1.0    0.05    1.06    1.44    12.95891    75.27180   170.34807
   426  H   1.0    0.05    1.05    1.44    12.55020    72.23835   165.47820
   427  H   1.0    0.06    1.04    1.44    10.68296    69.33737   168.37956
   428  H   1.0    0.04    1.03    1.43    13.86395    68.49210   168.08469
   429  H   1.0    0.03    1.00    1.43    17.00537    71.20147   166.61136
   430  H   1.0    0.06    1.00    1.43    16.58744    74.49637   166.37547
   431  H   1.0    0.04    1.00    1.43    16.74258    73.06691   169.37158
   432  H   1.0    0.04    1.01    1.43    12.55014    68.23713   172.45955
   433  H   1.0    0.04    1.00    1.43    14.74849    70.71500   172.22462
   434  H   1.0    0.05    1.00    1.43    11.49203    71.38476   172.50810
   435  N   5.0   -0.20    3.26    1.97    28.05446    70.75695   158.22567
   436  C   4.0    0.02    4.26    4.13    28.64793    69.00953   160.22363
   437  C   4.0    0.07    3.28    3.05    31.06449    67.68871   159.51226
   438  O   6.0   -0.31    1.15    1.80    31.39851    66.95803   157.33536
   439  C   4.0   -0.04    4.48    4.50    26.67943    66.92032   160.45692
   440  C   4.0   -0.05    4.10    3.80    24.09000    67.97584   160.97655
   441  S   6.0   -0.06    2.62    3.10    22.22178    65.28132   161.78791
   442  C   4.0   -0.07    3.89    3.45    19.19154    66.82533   162.17391
   443  H   1.0    0.09    1.03    1.43    28.04719    70.02221   156.44817
   444  H   1.0    0.03    1.05    1.44    28.86341    70.04883   161.99419
   445  H   1.0    0.04    1.04    1.43    26.65047    65.83450   158.70058
   446  H   1.0    0.03    1.06    1.44    27.26095    65.66689   161.99282
   447  H   1.0    0.03    1.07    1.44    24.12849    69.30097   162.56071
   448  H   1.0    0.03    1.06    1.44    23.30884    68.91236   159.31407
   449  H   1.0    0.04    1.05    1.44    17.91146    65.46149   163.00521
   450  H   1.0    0.04    1.04    1.43    19.41091    68.42023   163.44525
   451  H   1.0    0.04    1.04    1.43    18.50297    67.43895   160.34172
   452  N   5.0   -0.20    3.29    1.98     6.55500    55.55915   144.18919
   453  C   4.0    0.02    4.49    4.52     6.87297    54.20166   146.53787
   454  C   4.0    0.15    3.52    3.13     4.84176    52.21802   146.99337
   455  O   6.0   -0.29    1.28    1.80     3.08245    51.97368   145.54424
   456  C   4.0   -0.03    4.45    4.47     6.57258    56.21149   148.56727
   457  C   4.0   -0.06    4.17    3.93     7.99015    55.55407   150.98178
   458  C   4.0   -0.07    4.23    4.06     3.73572    56.82226   148.69421
   459  C   4.0   -0.09    4.07    3.74    10.67727    54.73847   150.30718
   460  H   1.0    0.08    1.04    1.43     5.67444    57.24869   144.28567
   461  H   1.0    0.03    1.06    1.44     8.71761    53.28641   146.45497
   462  H   1.0    0.03    1.08    1.44     7.52427    57.89290   147.84019
   463  H   1.0    0.03    1.03    1.43     8.09592    57.25762   152.12897
   464  H   1.0    0.04    1.02    1.43     7.03375    54.14405   152.14174
   465  H   1.0    0.04    1.00    1.43     3.47294    58.85161   148.81670
   466  H   1.0    0.06    1.03    1.43     2.80558    56.19509   146.97406
   467  H   1.0    0.07    1.03    1.43     2.81176    55.84738   150.23413
   468  H   1.0    0.03    1.00    1.43    11.88759    54.86687   151.96591
   469  H   1.0    0.03    1.00    1.43    10.75579    52.79941   149.64053
   470  H   1.0    0.03    1.00    1.43    11.43547    55.98350   148.86191
   471  N   5.0   -0.15    3.37    2.01     5.03737    50.76838   149.08557
   472  C   4.0    0.01    4.27    4.14     2.89644    49.22659   149.81061
   473  C   4.0    0.15    3.28    3.05     0.93783    50.75843   151.33077
   474  O   6.0   -0.31    1.26    1.80     0.56586    52.99938   150.97795
   475  H   1.0    0.07    1.07    1.44     6.35834    51.15129   150.39826
   476  H   1.0    0.06    1.04    1.43     1.99204    48.61964   148.05313
   477  H   1.0    0.04    1.02    1.43     3.55308    47.59627   150.88189
   478  N   5.0   -0.14    3.47    2.06    -0.30596    49.36632   153.05702
   479  C   4.0    0.03    4.36    4.31    -1.77095    50.27053   155.20628
   480  C   4.0    0.14    3.57    3.15    -2.59724    47.83654   156.55846
   481  O   6.0   -0.29    1.37    1.80    -2.87802    45.87487   155.34664
   482  C   4.0    0.03    4.11    3.82    -4.04022    51.98672   154.50669
   483  O   6.0   -0.27    2.08    1.84    -4.25812    53.93107   156.32891
   484  H   1.0    0.09    1.10    1.44    -0.09626    47.46227   153.03367
   485  H   1.0    0.05    1.05    1.44    -0.53318    51.39296   156.43268
   486  H   1.0    0.06    1.02    1.43    -3.66221    52.77433   152.63374
   487  H   1.0    0.04    1.01    1.43    -5.78820    50.87278   154.43173
   488  H   1.0    0.12    1.02    1.43    -5.24731    55.29929   155.65175
   489  N   5.0   -0.10    3.68    2.24    -2.87682    47.96555   159.03936
   490  C   4.0    0.03    4.51    4.55    -3.54998    45.77950   160.56686
   491  C   4.0    0.10    3.30    3.05    -3.71440    43.35270   159.04774
   492  O   6.0   -0.28    1.13    1.80    -1.81914    42.08968   158.69240
   493  C   4.0   -0.06    4.29    4.18    -5.93661    46.61206   162.06147
   494  C   4.0   -0.04    4.27    4.13    -6.41071    49.32386   161.15500
   495  C   4.0   -0.01    4.44    4.45    -3.74365    50.17133   160.40485
   496  H   1.0    0.05    1.06    1.44    -1.96542    45.46868   161.86873
   497  H   1.0    0.03    1.01    1.43    -7.57168    45.39166   161.85409
   498  H   1.0    0.03    1.02    1.43    -5.48090    46.61921   164.06908
   499  H   1.0    0.04    1.02    1.43    -7.62504    49.37451   159.49457
   500  H   1.0    0.04    1.02    1.43    -7.22633    50.51490   162.61336
   501  H   1.0    0.06    1.06    1.44    -3.70996    51.88356   159.29045
   502  H   1.0    0.04    1.02    1.43    -2.55858    50.43228   162.07716
   503  N   5.0   -0.20    3.22    1.96    16.72909    51.58128   189.28134
   504  C   4.0    0.03    4.15    3.89    19.44057    51.47674   189.36031
   505  C   4.0    0.07    3.23    3.04    20.56722    53.79599   190.62318
   506  O   6.0   -0.29    1.12    1.80    19.51058    55.83057   190.89132
   507  C   4.0   -0.08    4.11    3.83    20.59481    51.32551   186.72626
   508  H   1.0    0.09    1.03    1.43    15.92937    52.69626   187.96204
   509  H   1.0    0.03    1.05    1.44    19.89337    49.83226   190.53054
   510  H   1.0    0.03    1.00    1.43    22.63395    51.11624   186.81520
   511  H   1.0    0.03    1.00    1.43    19.79517    49.74964   185.67771
   512  H   1.0    0.05    1.00    1.43    20.17655    53.05957   185.70205
   513  N   5.0   -0.19    3.30    1.98    28.56763    56.74565   190.52686
   514  C   4.0    0.03    4.25    4.11    31.18500    56.51909   189.87387
   515  C   4.0    0.07    3.25    3.04    32.81673    56.63933   192.21423
   516  O   6.0   -0.30    1.13    1.80    32.27229    57.93472   194.07405
   517  C   4.0   -0.04    4.37    4.33    31.92701    58.81642   188.29189
   518  C   4.0   -0.02    3.59    3.16    29.99685    59.31035   186.24881
   519  C   4.0   -0.06    3.46    3.10    30.16017    58.20484   183.85543
   520  C   4.0   -0.05    3.47    3.10    28.00282    60.94700   186.72990
   521  C   4.0   -0.05    3.45    3.10    28.42413    58.74344   181.98433
   522  C   4.0   -0.04    3.45    3.09    26.28581    61.51359   184.83812
   523  C   4.0    0.07    3.44    3.09    26.45557    60.41841   182.45461
   524  O   6.0   -0.26    2.14    1.85    24.74761    60.90248   180.63040
   525  H   1.0    0.09    1.03    1.43    27.99107    58.48820   191.07454
   526  H   1.0    0.03    1.05    1.44    31.45110    54.74028   188.86020
   527  H   1.0    0.05    1.04    1.43    32.02620    60.46190   189.53543
   528  H   1.0    0.03    1.03    1.43    33.79785    58.51370   187.47634
   529  H   1.0    0.04    1.03    1.43    31.70017    56.92943   183.45439
   530  H   1.0    0.05    1.03    1.43    27.81434    61.85629   188.54618
   531  H   1.0    0.05    1.03    1.43    28.54841    57.85558   180.15396
   532  H   1.0    0.07    1.03    1.43    24.71966    62.77135   185.22957
   533  H   1.0    0.15    1.07    1.44    23.40794    62.05486   181.18577
   534  N   5.0   -0.21    3.20    1.96    24.16235    64.48757   194.26234
   535  C   4.0    0.03    4.27    4.14    22.35218    63.53107   192.45373
   536  C   4.0    0.15    3.39    3.08    22.30181    64.95609   189.88586
   537  O   6.0   -0.29    1.23    1.80    21.10573    64.09616   188.12551
   538  C   4.0    0.03    4.15    3.91    19.65733    63.44280   193.50041
   539  O   6.0   -0.25    2.06    1.83    18.51801    65.84165   193.36966
   540  H   1.0    0.08    1.01    1.43    23.66870    65.97274   195.40310
   541  H   1.0    0.05    1.06    1.44    22.92716    61.59408   191.98900
   542  H   1.0    0.06    1.02    1.43    18.53245    62.19085   192.30532
   543  H   1.0    0.03    1.01    1.43    19.67916    62.72730   195.43778
   544  H   1.0    0.11    1.02    1.43    19.19968    66.84381   194.75261
   545  N   5.0   -0.13    3.59    2.15    23.61362    67.09067   189.75465
   546  C   4.0    0.04    4.35    4.29    24.02319    68.57449   187.53839
   547  C   4.0    0.08    3.27    3.05    26.05247    70.46923   188.26146
   548  O   6.0   -0.30    1.21    1.80    26.52163    70.75140   190.49899
   549  C   4.0   -0.03    4.32    4.24    21.58417    69.85509   186.68840
   550  C   4.0   -0.03    4.28    4.16    20.19891    71.10700   188.83722
   551  C   4.0    0.15    3.25    3.04    17.85962    72.34495   187.76141
   552  O   6.0   -0.30    1.20    1.80    17.90460    74.41762   186.75404
   553  N   5.0   -0.19    3.19    1.95    15.75184    70.94375   187.95244
   554  H   1.0    0.10    1.12    1.45    24.49892    67.80461   191.30471
   555  H   1.0    0.05    1.05    1.44    24.72294    67.38797   185.98644
   556  H   1.0    0.06    1.03    1.43    22.04454    71.23887   185.22665
   557  H   1.0    0.06    1.03    1.43    20.38998    68.39035   185.85231
   558  H   1.0    0.05    1.03    1.43    19.70204    69.71259   190.27110
   559  H   1.0    0.06    1.03    1.43    21.39864    72.55545   189.68588
   560  H   1.0    0.09    1.03    1.43    15.74650    69.30931   188.92493
   561  H   1.0    0.09    1.03    1.43    14.10673    71.66388   187.31504
   562  H   1.0    0.09    1.07    1.44    24.59108    63.24876   195.34591
   563  H   1.0    0.06    1.04    1.43    26.95922    71.44132   186.91836
   564  H   1.0    0.09    1.08    1.44    14.47381    70.44508   151.03938
   565  H   1.0    0.04    1.05    1.44    21.90454    70.15906   149.95771
   566  H   1.0    0.08    1.08    1.44    25.32492    65.86203   151.67052
   567  H   1.0    0.05    1.04    1.43    32.58233    64.36979   152.16737
   568  H   1.0    0.09    1.09    1.44    19.33976    63.14880   144.28941
   569  H   1.0    0.04    1.04    1.43    11.79536    63.92215   144.94373
   570  H   1.0    0.09    1.08    1.44     8.87010    63.62558   149.22486
   571  H   1.0    0.05    1.04    1.44    -1.03529    66.52055   156.97663
   572  H   1.0    0.09    1.07    1.44    -2.84888    66.59508   161.97594
   573  H   1.0    0.07    1.05    1.44    24.26764    45.65052   157.86092
   574  H   1.0    0.08    1.07    1.44    30.44841    56.30153   169.71845
   575  H   1.0    0.04    1.04    1.43    30.11413    63.66757   168.87297
   576  H   1.0    0.08    1.07    1.44    31.21544    69.94732   177.54535
   577  H   1.0    0.06    1.05    1.44     4.08168    71.63540   164.59062
   578  H   1.0    0.09    1.07    1.44     2.50462    75.49440   168.83637
   579  H   1.0    0.07    1.05    1.44    10.85035    77.23769   165.48831
   580  H   1.0    0.08    1.08    1.44    26.50193    71.40339   158.47936
   581  H   1.0    0.04    1.05    1.44    32.40417    67.40379   160.81424
   582  H   1.0    0.08    1.07    1.44     8.07966    55.87353   143.50426
   583  H   1.0    0.05    1.05    1.44    -5.37435    42.79159   158.34009
   584  H   1.0    0.08    1.08    1.44    16.10922    50.02483   188.98845
   585  H   1.0    0.05    1.05    1.44    22.32190    53.73282   191.32188
   586  H   1.0    0.09    1.08    1.44    27.60957    56.32981   189.18456
   587  H   1.0    0.04    1.05    1.44    34.41821    55.64000   192.30187

  Z AO/shell   Hii/eV     exponent
  1     Wed Apr 25 08:07:45 CEST 2018   EN: 2.200 GM2: 0.406  GM3: 0.0800  RAES: 1.40
     1s    -10.707211    1.230000
  6     Wed Apr 25 08:07:45 CEST 2018   EN: 2.550 GM2: 0.538  GM3: 0.1500  RAES: 3.00
     2s    -13.970922    2.096432
     2p    -10.063292    1.800000
  7     Wed Apr 25 08:07:45 CEST 2018   EN: 3.040 GM2: 0.461  GM3:-0.0640  RAES: 1.90
     2s    -16.686243    2.339881
     2p    -12.523956    2.014332
  8     Wed Apr 25 08:07:45 CEST 2018   EN: 3.440 GM2: 0.452  GM3:-0.0517  RAES: 1.80
     2s    -20.229985    2.439742
     2p    -15.503117    2.137023
 16     Tue Apr 24 11:44:34 CEST 2018   EN: 2.580 GM2: 0.340  GM3:-0.0502  RAES: 3.10
     3s    -20.029654    1.981333
     3p    -11.377694    2.025643
     3d     -0.420282    1.702555
 no old-style atom pair restraining (fixing) potential

molecular fragmentation (1/2 indicates fragments):
111111111111111122222222222222222222222222222222222222222222222222222222
222222222222222222222222222222222222222222222222222222222222222222222222
222222222222222222222222222222222222222222222222222222222222222222222222
222222222222222222222222222222222222222222222222222222222222222222222222
222222222222222222222222222222222222222222222222222222222222222222222222
222222222222222222222222222222222222222222222222222222222222222222222222
222222222222222222222222222222222222222222222222222222222222222222222222
222222222222222222222222222222222222222222222222222222222221122222222222
22222222222
# atoms in fragment 1/2:    18   569
 fragment masses (1/2) :      101.15     3853.78
CMA distance (Bohr)    :  18.559
constraining FC (au)   :  0.0500
           ------------------------------------------------- 
          |        Self-Consistent Charge Iterations        |
           ------------------------------------------------- 

 Ncao       : 1430
 Nao        : 1426
 Nshell     : 864
 Nel        : 1556
 T(el)      :   500.0
 intcut     :    35.0
 scfconv/Eh :  0.100E-06
   qconv/e  :  0.100E-04
 intneglect :  0.100E-08
 broydamp   :      0.400
 iter      E             dE          RMSdq      gap      omega  full diag
   1   -886.2998253 -0.886300E+03  0.462E+00    2.86       0.0  T
   2   -888.3732649 -0.207344E+01  0.218E+00    1.52       1.0  T
   3   -888.4933316 -0.120067E+00  0.122E+00    1.67       1.0  T
   4   -888.6428535 -0.149522E+00  0.250E-01    1.20       1.0  T
   5   -888.6497449 -0.689140E-02  0.121E-01    1.27       1.0  T
   6   -888.6510411 -0.129621E-02  0.509E-02    1.26       1.0  T
   7   -888.6514609 -0.419819E-03  0.236E-02    1.24       1.0  T
   8   -888.6515182 -0.573011E-04  0.119E-02    1.24       1.0  T
   9   -888.6515368 -0.185568E-04  0.566E-03    1.23       1.0  T
  10   -888.6515400 -0.322444E-05  0.279E-03    1.23       1.5  T
  11   -888.6515408 -0.736812E-06  0.141E-03    1.23       2.9  T
  12   -888.6515409 -0.152216E-06  0.739E-04    1.23       5.6  T
  13   -888.6515410 -0.736135E-07  0.355E-04    1.23      11.6  T
  14   -888.6515410 -0.101700E-07  0.164E-04    1.23      25.1  T
  15   -888.6515410 -0.321916E-08  0.705E-05    1.23      58.5  T
  16   -888.6515410 -0.348450E-09  0.338E-05    1.23     122.1  T
speedup  1.95
cpu  time for SCC   50.29 s
wall time for SCC   25.74 s

   *** convergence criteria satisfied after 16 iterations ***

          eigenvalues
 #    :         766        767        768        769        770        771        772        773
 occ. :        2.000      2.000      2.000      2.000      2.000      2.000      2.000      2.000
 eps  :        -9.898     -9.893     -9.863     -9.836     -9.798     -9.752     -9.729     -9.706
 #    :         774        775        776        777        778        779        780        781
 occ. :        2.000      2.000      2.000      2.000      2.000      0.000      0.000      0.000
 eps  :        -9.554     -9.547     -9.518     -9.497     -9.354     -8.128     -7.951     -7.855
 #    :         782        783        784        785        786        787        788        789
 occ. :        0.000      0.000      0.000      0.000      0.000      0.000      0.000      0.000
 eps  :        -7.771     -7.739     -7.661     -7.632     -7.582     -7.561     -7.489     -7.482


   #   Z            q   n(s)   n(p)   n(d)      C6AA      α(0)
   1   7 N     -0.408  1.320  4.088  0.000    30.594     8.215
   2   6 C      0.045  1.047  2.908  0.000    19.833     6.342
   3   6 C      0.203  1.084  2.713  0.000    23.687     7.972
   4   8 O     -0.377  1.745  4.632  0.000    21.237     6.179
   5   6 C     -0.008  1.062  2.946  0.000    20.682     6.466
   6   6 C     -0.113  1.040  3.073  0.000    22.715     6.796
   7   6 C     -0.116  1.040  3.077  0.000    22.776     6.804
   8   1 H      0.190  0.810  0.000  0.000     1.161     1.688
   9   1 H      0.043  0.957  0.000  0.000     2.415     2.430
  10   1 H      0.034  0.966  0.000  0.000     2.535     2.490
  11   1 H      0.065  0.935  0.000  0.000     2.144     2.290
  12   1 H      0.027  0.973  0.000  0.000     2.635     2.538
  13   1 H      0.039  0.961  0.000  0.000     2.468     2.457
  14   1 H      0.051  0.949  0.000  0.000     2.311     2.377
  15   1 H      0.041  0.959  0.000  0.000     2.439     2.442
  16   1 H      0.046  0.954  0.000  0.000     2.376     2.411
  17   7 N     -0.377  1.317  4.060  0.000    29.734     8.099
  18   6 C      0.035  1.061  2.903  0.000    19.995     6.369
  19   6 C      0.209  1.091  2.700  0.000    23.578     7.952
  20   8 O     -0.377  1.757  4.621  0.000    21.233     6.178
  21   6 C     -0.014  1.062  2.952  0.000    20.790     6.485
  22   6 C     -0.114  1.039  3.075  0.000    22.735     6.798
  23   6 C     -0.111  1.038  3.073  0.000    22.679     6.791
  24   1 H      0.151  0.849  0.000  0.000     1.394     1.850
  25   1 H      0.059  0.941  0.000  0.000     2.205     2.322
  26   1 H      0.035  0.965  0.000  0.000     2.522     2.484
  27   1 H      0.048  0.952  0.000  0.000     2.340     2.392
  28   1 H      0.028  0.972  0.000  0.000     2.619     2.531
  29   1 H      0.046  0.954  0.000  0.000     2.376     2.410
  30   1 H      0.052  0.948  0.000  0.000     2.293     2.368
  31   1 H      0.047  0.953  0.000  0.000     2.358     2.402
  32   1 H      0.037  0.963  0.000  0.000     2.486     2.465
  33   7 N     -0.397  1.327  4.070  0.000    30.299     8.175
  34   6 C      0.043  1.059  2.898  0.000    19.880     6.352
  35   6 C      0.195  1.094  2.710  0.000    23.831     7.995
  36   8 O     -0.365  1.750  4.615  0.000    21.002     6.144
  37   6 C     -0.059  1.053  3.005  0.000    21.609     6.615
  38   6 C      0.014  1.076  2.910  0.000    27.707     8.634
  39   6 C     -0.041  1.077  2.964  0.000    29.022     8.835
  40   6 C     -0.040  1.080  2.960  0.000    28.996     8.831
  41   6 C     -0.030  1.080  2.950  0.000    28.749     8.793
  42   6 C     -0.030  1.079  2.951  0.000    28.755     8.794
  43   6 C     -0.033  1.080  2.954  0.000    28.832     8.805
  44   1 H      0.185  0.815  0.000  0.000     1.186     1.706
  45   1 H      0.053  0.947  0.000  0.000     2.285     2.364
  46   1 H      0.050  0.950  0.000  0.000     2.321     2.382
  47   1 H      0.034  0.966  0.000  0.000     2.532     2.488
  48   1 H      0.041  0.959  0.000  0.000     2.438     2.442
  49   1 H      0.037  0.963  0.000  0.000     2.493     2.469
  50   1 H      0.033  0.967  0.000  0.000     2.548     2.496
  51   1 H      0.032  0.968  0.000  0.000     2.558     2.501
  52   1 H      0.034  0.966  0.000  0.000     2.531     2.488
  53   7 N     -0.378  1.307  4.071  0.000    29.772     8.104
  54   6 C      0.029  1.064  2.907  0.000    20.103     6.387
  55   6 C      0.263  1.058  2.678  0.000    22.558     7.777
  56   8 O     -0.506  1.762  4.744  0.000    23.922     6.558
  57   6 C     -0.015  1.063  2.952  0.000    20.814     6.489
  58   6 C     -0.116  1.044  3.072  0.000    22.767     6.802
  59   6 C     -0.105  1.036  3.069  0.000    22.555     6.770
  60   1 H      0.161  0.839  0.000  0.000     1.332     1.808
  61   1 H      0.048  0.952  0.000  0.000     2.340     2.392
  62   1 H      0.010  0.990  0.000  0.000     2.891     2.659
  63   1 H      0.047  0.953  0.000  0.000     2.357     2.401
  64   1 H      0.043  0.957  0.000  0.000     2.404     2.424
  65   1 H      0.048  0.952  0.000  0.000     2.341     2.393
  66   1 H      0.053  0.947  0.000  0.000     2.279     2.361
  67   1 H      0.052  0.948  0.000  0.000     2.296     2.370
  68   1 H      0.027  0.973  0.000  0.000     2.634     2.538
  69   7 N     -0.096  1.260  3.836  0.000    23.121     7.142
  70   6 C      0.031  1.065  2.904  0.000    20.042     6.372
  71   6 C      0.215  1.086  2.699  0.000    23.453     7.931
  72   8 O     -0.374  1.742  4.632  0.000    21.174     6.169
  73   6 C     -0.051  1.051  3.000  0.000    21.464     6.592
  74   6 C     -0.063  1.047  3.016  0.000    21.697     6.629
  75   6 C     -0.015  1.053  2.962  0.000    20.868     6.508
  76   1 H      0.061  0.939  0.000  0.000     2.184     2.311
  77   1 H      0.048  0.952  0.000  0.000     2.348     2.396
  78   1 H      0.059  0.941  0.000  0.000     2.210     2.325
  79   1 H      0.066  0.934  0.000  0.000     2.130     2.282
  80   1 H      0.070  0.930  0.000  0.000     2.082     2.257
  81   1 H      0.051  0.949  0.000  0.000     2.303     2.373
  82   1 H      0.091  0.909  0.000  0.000     1.872     2.140
  83   7 N     -0.434  1.331  4.103  0.000    31.337     8.314
  84   6 C      0.045  1.056  2.899  0.000    19.822     6.341
  85   6 C      0.271  1.046  2.683  0.000    22.424     7.754
  86   8 O     -0.510  1.745  4.765  0.000    24.013     6.570
  87   6 C     -0.055  1.052  3.004  0.000    21.568     6.612
  88   6 C     -0.085  1.063  3.021  0.000    22.117     6.696
  89   6 C      0.372  1.024  2.604  0.000    20.691     7.444
  90   8 O     -0.628  1.770  4.858  0.000    26.809     6.942
  91   8 O     -0.622  1.770  4.852  0.000    26.657     6.922
  92   1 H      0.191  0.809  0.000  0.000     1.153     1.682
  93   1 H      0.015  0.985  0.000  0.000     2.813     2.623
  94   1 H      0.035  0.965  0.000  0.000     2.522     2.483
  95   1 H      0.018  0.982  0.000  0.000     2.767     2.601
  96   1 H      0.016  0.984  0.000  0.000     2.791     2.613
  97   1 H      0.016  0.984  0.000  0.000     2.801     2.617
  98   7 N     -0.180  1.243  3.937  0.000    24.902     7.411
  99   6 C      0.026  1.062  2.912  0.000    20.139     6.391
 100   6 C      0.271  1.053  2.676  0.000    22.423     7.754
 101   8 O     -0.510  1.741  4.769  0.000    24.018     6.571
 102   6 C     -0.068  1.056  3.012  0.000    21.790     6.643
 103   6 C     -0.014  1.055  2.959  0.000    20.789     6.485
 104   6 C     -0.118  1.041  3.077  0.000    22.816     6.810
 105   6 C     -0.115  1.043  3.073  0.000    22.759     6.801
 106   1 H      0.205  0.795  0.000  0.000     1.081     1.629
 107   1 H      0.080  0.920  0.000  0.000     1.983     2.202
 108   1 H      0.051  0.949  0.000  0.000     2.304     2.374
 109   1 H      0.048  0.952  0.000  0.000     2.343     2.394
 110   1 H      0.040  0.960  0.000  0.000     2.443     2.444
 111   1 H      0.048  0.952  0.000  0.000     2.346     2.395
 112   1 H      0.049  0.951  0.000  0.000     2.332     2.388
 113   1 H      0.035  0.965  0.000  0.000     2.513     2.479
 114   1 H      0.051  0.949  0.000  0.000     2.306     2.374
 115   1 H      0.045  0.955  0.000  0.000     2.387     2.416
 116   1 H      0.041  0.959  0.000  0.000     2.435     2.440
 117   7 N     -0.190  1.266  3.924  0.000    25.111     7.442
 118   6 C      0.012  1.061  2.927  0.000    20.390     6.430
 119   6 C      0.281  1.045  2.674  0.000    22.244     7.724
 120   8 O     -0.478  1.724  4.754  0.000    23.302     6.472
 121   6 C      0.115  1.048  2.837  0.000    18.795     6.190
 122   8 O     -0.480  1.720  4.761  0.000    22.470     6.399
 123   6 C     -0.140  1.041  3.099  0.000    23.250     6.876
 124   1 H      0.245  0.755  0.000  0.000     0.902     1.488
 125   1 H      0.085  0.915  0.000  0.000     1.930     2.173
 126   1 H      0.027  0.973  0.000  0.000     2.634     2.538
 127   1 H      0.344  0.656  0.000  0.000     0.603     1.220
 128   1 H      0.076  0.924  0.000  0.000     2.016     2.220
 129   1 H      0.048  0.952  0.000  0.000     2.341     2.392
 130   1 H      0.071  0.929  0.000  0.000     2.075     2.253
 131   7 N     -0.184  1.251  3.933  0.000    24.983     7.424
 132   6 C      0.025  1.054  2.920  0.000    20.146     6.390
 133   6 C      0.271  1.040  2.689  0.000    22.420     7.756
 134   8 O     -0.476  1.730  4.746  0.000    23.257     6.466
 135   6 C     -0.066  1.045  3.021  0.000    21.727     6.628
 136   6 C     -0.009  1.054  2.956  0.000    20.746     6.485
 137  16 S     -0.207  1.905  4.252  0.050   149.859    20.604
 138   6 C     -0.061  1.053  3.008  0.000    21.740     6.651
 139   1 H      0.214  0.786  0.000  0.000     1.039     1.596
 140   1 H      0.083  0.917  0.000  0.000     1.946     2.182
 141   1 H      0.045  0.955  0.000  0.000     2.387     2.416
 142   1 H      0.090  0.910  0.000  0.000     1.878     2.143
 143   1 H      0.048  0.952  0.000  0.000     2.341     2.393
 144   1 H      0.049  0.951  0.000  0.000     2.329     2.387
 145   1 H      0.078  0.922  0.000  0.000     1.996     2.209
 146   1 H      0.061  0.939  0.000  0.000     2.186     2.312
 147   1 H      0.058  0.942  0.000  0.000     2.226     2.333
 148   7 N     -0.176  1.242  3.934  0.000    24.810     7.398
 149   6 C     -0.003  1.071  2.932  0.000    20.618     6.463
 150   6 C      0.272  1.040  2.688  0.000    22.403     7.751
 151   8 O     -0.471  1.734  4.737  0.000    23.148     6.451
 152   6 C      0.113  1.049  2.838  0.000    18.834     6.198
 153   8 O     -0.467  1.714  4.753  0.000    22.193     6.359
 154   6 C     -0.132  1.043  3.089  0.000    23.099     6.854
 155   1 H      0.211  0.789  0.000  0.000     1.053     1.608
 156   1 H      0.104  0.896  0.000  0.000     1.751     2.069
 157   1 H      0.030  0.970  0.000  0.000     2.589     2.516
 158   1 H      0.330  0.670  0.000  0.000     0.637     1.254
 159   1 H      0.080  0.920  0.000  0.000     1.976     2.198
 160   1 H      0.050  0.950  0.000  0.000     2.321     2.382
 161   1 H      0.068  0.932  0.000  0.000     2.106     2.269
 162   7 N     -0.188  1.248  3.940  0.000    25.077     7.437
 163   6 C      0.012  1.068  2.920  0.000    20.384     6.430
 164   6 C      0.272  1.045  2.683  0.000    22.398     7.750
 165   8 O     -0.481  1.744  4.737  0.000    23.366     6.481
 166   6 C     -0.078  1.050  3.028  0.000    21.991     6.676
 167   6 C     -0.110  1.061  3.049  0.000    22.607     6.769
 168   6 C      0.285  1.042  2.674  0.000    22.179     7.711
 169   8 O     -0.497  1.751  4.746  0.000    23.721     6.530
 170   7 N     -0.277  1.263  4.014  0.000    27.165     7.741
 171   1 H      0.219  0.781  0.000  0.000     1.013     1.576
 172   1 H      0.084  0.916  0.000  0.000     1.934     2.175
 173   1 H      0.081  0.919  0.000  0.000     1.965     2.192
 174   1 H      0.065  0.935  0.000  0.000     2.138     2.287
 175   1 H      0.089  0.911  0.000  0.000     1.892     2.151
 176   1 H      0.091  0.909  0.000  0.000     1.870     2.139
 177   1 H      0.243  0.757  0.000  0.000     0.911     1.495
 178   1 H      0.226  0.774  0.000  0.000     0.985     1.554
 179   7 N     -0.195  1.256  3.940  0.000    25.237     7.461
 180   6 C      0.028  1.053  2.919  0.000    20.092     6.380
 181   6 C      0.283  1.037  2.680  0.000    22.214     7.719
 182   8 O     -0.494  1.745  4.749  0.000    23.657     6.521
 183   6 C     -0.083  1.056  3.026  0.000    22.065     6.686
 184   6 C      0.006  1.086  2.908  0.000    27.892     8.663
 185   6 C     -0.040  1.079  2.961  0.000    29.000     8.831
 186   6 C     -0.042  1.085  2.956  0.000    29.031     8.836
 187   6 C     -0.031  1.079  2.952  0.000    28.771     8.796
 188   6 C     -0.030  1.084  2.947  0.000    28.754     8.794
 189   6 C     -0.032  1.078  2.954  0.000    28.797     8.800
 190   1 H      0.231  0.769  0.000  0.000     0.961     1.536
 191   1 H      0.069  0.931  0.000  0.000     2.098     2.265
 192   1 H      0.063  0.937  0.000  0.000     2.163     2.300
 193   1 H      0.061  0.939  0.000  0.000     2.183     2.311
 194   1 H      0.030  0.970  0.000  0.000     2.591     2.517
 195   1 H      0.049  0.951  0.000  0.000     2.332     2.388
 196   1 H      0.036  0.964  0.000  0.000     2.499     2.472
 197   1 H      0.058  0.942  0.000  0.000     2.227     2.334
 198   1 H      0.042  0.958  0.000  0.000     2.422     2.434
 199   7 N     -0.192  1.255  3.937  0.000    25.165     7.451
 200   6 C      0.030  1.060  2.910  0.000    20.071     6.379
 201   6 C      0.285  1.040  2.675  0.000    22.178     7.712
 202   8 O     -0.501  1.753  4.748  0.000    23.815     6.543
 203   6 C     -0.081  1.057  3.024  0.000    22.030     6.681
 204   6 C     -0.013  1.060  2.953  0.000    20.771     6.483
 205   6 C     -0.118  1.044  3.073  0.000    22.804     6.808
 206   6 C     -0.116  1.040  3.076  0.000    22.780     6.805
 207   1 H      0.229  0.771  0.000  0.000     0.971     1.543
 208   1 H      0.064  0.936  0.000  0.000     2.151     2.294
 209   1 H      0.075  0.925  0.000  0.000     2.033     2.230
 210   1 H      0.051  0.949  0.000  0.000     2.306     2.375
 211   1 H      0.041  0.959  0.000  0.000     2.432     2.439
 212   1 H      0.047  0.953  0.000  0.000     2.357     2.401
 213   1 H      0.045  0.955  0.000  0.000     2.380     2.413
 214   1 H      0.041  0.959  0.000  0.000     2.432     2.439
 215   1 H      0.048  0.952  0.000  0.000     2.346     2.395
 216   1 H      0.028  0.972  0.000  0.000     2.617     2.530
 217   1 H      0.038  0.962  0.000  0.000     2.480     2.463
 218   7 N     -0.194  1.250  3.944  0.000    25.213     7.457
 219   6 C      0.031  1.057  2.912  0.000    20.055     6.375
 220   6 C      0.294  1.036  2.670  0.000    22.006     7.682
 221   8 O     -0.514  1.757  4.757  0.000    24.107     6.583
 222   6 C      0.072  1.042  2.887  0.000    19.580     6.337
 223   8 O     -0.494  1.740  4.755  0.000    22.769     6.441
 224   1 H      0.232  0.768  0.000  0.000     0.955     1.531
 225   1 H      0.062  0.938  0.000  0.000     2.176     2.307
 226   1 H      0.049  0.951  0.000  0.000     2.331     2.388
 227   1 H      0.050  0.950  0.000  0.000     2.318     2.381
 228   1 H      0.356  0.644  0.000  0.000     0.573     1.189
 229   7 N     -0.187  1.245  3.942  0.000    25.055     7.434
 230   6 C      0.029  1.061  2.910  0.000    20.071     6.376
 231   6 C      0.285  1.041  2.675  0.000    22.181     7.713
 232   8 O     -0.515  1.748  4.767  0.000    24.119     6.585
 233   6 C     -0.016  1.059  2.957  0.000    20.827     6.491
 234   6 C     -0.069  1.049  3.020  0.000    21.824     6.650
 235   6 C     -0.119  1.039  3.081  0.000    22.827     6.810
 236   6 C     -0.107  1.036  3.071  0.000    22.613     6.781
 237   1 H      0.227  0.773  0.000  0.000     0.978     1.549
 238   1 H      0.060  0.940  0.000  0.000     2.201     2.320
 239   1 H      0.042  0.958  0.000  0.000     2.420     2.433
 240   1 H      0.036  0.964  0.000  0.000     2.497     2.471
 241   1 H      0.051  0.949  0.000  0.000     2.313     2.378
 242   1 H      0.056  0.944  0.000  0.000     2.246     2.344
 243   1 H      0.043  0.957  0.000  0.000     2.408     2.426
 244   1 H      0.047  0.953  0.000  0.000     2.353     2.399
 245   1 H      0.039  0.961  0.000  0.000     2.466     2.456
 246   1 H      0.040  0.960  0.000  0.000     2.450     2.448
 247   1 H      0.045  0.955  0.000  0.000     2.385     2.415
 248   7 N     -0.183  1.252  3.931  0.000    24.962     7.420
 249   6 C      0.037  1.063  2.901  0.000    19.955     6.359
 250   6 C      0.220  1.084  2.696  0.000    23.364     7.916
 251   8 O     -0.378  1.752  4.626  0.000    21.248     6.180
 252   6 C     -0.021  1.068  2.952  0.000    20.904     6.503
 253   6 C     -0.064  1.055  3.010  0.000    21.732     6.637
 254   6 C     -0.117  1.040  3.077  0.000    22.792     6.807
 255   6 C     -0.117  1.040  3.077  0.000    22.798     6.808
 256   1 H      0.227  0.773  0.000  0.000     0.978     1.549
 257   1 H      0.077  0.923  0.000  0.000     2.015     2.220
 258   1 H      0.062  0.938  0.000  0.000     2.176     2.307
 259   1 H      0.054  0.946  0.000  0.000     2.272     2.357
 260   1 H      0.035  0.965  0.000  0.000     2.519     2.482
 261   1 H      0.068  0.932  0.000  0.000     2.106     2.269
 262   1 H      0.035  0.965  0.000  0.000     2.518     2.481
 263   1 H      0.044  0.956  0.000  0.000     2.394     2.420
 264   1 H      0.050  0.950  0.000  0.000     2.319     2.381
 265   1 H      0.038  0.962  0.000  0.000     2.477     2.461
 266   1 H      0.043  0.957  0.000  0.000     2.415     2.430
 267   7 N     -0.393  1.325  4.068  0.000    30.186     8.160
 268   6 C      0.033  1.061  2.907  0.000    20.043     6.377
 269   6 C      0.206  1.086  2.708  0.000    23.631     7.962
 270   8 O     -0.365  1.754  4.612  0.000    21.003     6.144
 271   6 C     -0.063  1.057  3.005  0.000    21.690     6.628
 272   6 C     -0.014  1.055  2.958  0.000    20.787     6.485
 273   6 C     -0.118  1.042  3.076  0.000    22.822     6.811
 274   6 C     -0.114  1.042  3.072  0.000    22.739     6.798
 275   1 H      0.160  0.840  0.000  0.000     1.335     1.810
 276   1 H      0.061  0.939  0.000  0.000     2.188     2.313
 277   1 H      0.050  0.950  0.000  0.000     2.325     2.385
 278   1 H      0.042  0.958  0.000  0.000     2.428     2.437
 279   1 H      0.030  0.970  0.000  0.000     2.589     2.516
 280   1 H      0.047  0.953  0.000  0.000     2.357     2.401
 281   1 H      0.031  0.969  0.000  0.000     2.572     2.508
 282   1 H      0.045  0.955  0.000  0.000     2.382     2.414
 283   1 H      0.054  0.946  0.000  0.000     2.270     2.356
 284   1 H      0.035  0.965  0.000  0.000     2.523     2.484
 285   1 H      0.035  0.965  0.000  0.000     2.518     2.482
 286   7 N     -0.389  1.328  4.061  0.000    30.070     8.144
 287   6 C      0.033  1.056  2.911  0.000    20.025     6.373
 288   6 C      0.272  1.047  2.681  0.000    22.409     7.753
 289   8 O     -0.488  1.745  4.743  0.000    23.528     6.503
 290   6 C     -0.065  1.055  3.010  0.000    21.734     6.634
 291   6 C     -0.009  1.055  2.954  0.000    20.704     6.472
 292   6 C     -0.114  1.042  3.072  0.000    22.734     6.798
 293   6 C     -0.118  1.038  3.080  0.000    22.818     6.810
 294   1 H      0.159  0.841  0.000  0.000     1.339     1.813
 295   1 H      0.039  0.961  0.000  0.000     2.468     2.457
 296   1 H      0.034  0.966  0.000  0.000     2.529     2.487
 297   1 H      0.027  0.973  0.000  0.000     2.631     2.537
 298   1 H      0.031  0.969  0.000  0.000     2.579     2.511
 299   1 H      0.045  0.955  0.000  0.000     2.385     2.415
 300   1 H      0.032  0.968  0.000  0.000     2.556     2.500
 301   1 H      0.037  0.963  0.000  0.000     2.493     2.469
 302   1 H      0.043  0.957  0.000  0.000     2.405     2.425
 303   1 H      0.045  0.955  0.000  0.000     2.385     2.415
 304   1 H      0.034  0.966  0.000  0.000     2.532     2.488
 305   7 N     -0.170  1.238  3.932  0.000    24.672     7.377
 306   6 C      0.013  1.060  2.927  0.000    20.362     6.424
 307   6 C      0.275  1.040  2.685  0.000    22.346     7.743
 308   8 O     -0.467  1.730  4.737  0.000    23.066     6.439
 309   6 C     -0.021  1.065  2.956  0.000    20.913     6.504
 310   6 C     -0.118  1.039  3.079  0.000    22.811     6.810
 311   6 C     -0.112  1.035  3.077  0.000    22.685     6.791
 312   1 H      0.203  0.797  0.000  0.000     1.089     1.634
 313   1 H      0.080  0.920  0.000  0.000     1.980     2.201
 314   1 H      0.041  0.959  0.000  0.000     2.440     2.443
 315   1 H      0.059  0.941  0.000  0.000     2.209     2.324
 316   1 H      0.042  0.958  0.000  0.000     2.428     2.437
 317   1 H      0.053  0.947  0.000  0.000     2.287     2.365
 318   1 H      0.061  0.939  0.000  0.000     2.192     2.315
 319   1 H      0.052  0.948  0.000  0.000     2.291     2.367
 320   1 H      0.034  0.966  0.000  0.000     2.526     2.485
 321   7 N     -0.176  1.238  3.938  0.000    24.808     7.397
 322   6 C      0.017  1.060  2.923  0.000    20.270     6.407
 323   6 C      0.274  1.043  2.683  0.000    22.370     7.745
 324   8 O     -0.480  1.741  4.739  0.000    23.345     6.478
 325   6 C      0.065  1.040  2.895  0.000    19.691     6.356
 326   8 O     -0.480  1.714  4.765  0.000    22.456     6.397
 327   1 H      0.209  0.791  0.000  0.000     1.063     1.615
 328   1 H      0.091  0.909  0.000  0.000     1.866     2.136
 329   1 H      0.061  0.939  0.000  0.000     2.183     2.311
 330   1 H      0.046  0.954  0.000  0.000     2.368     2.407
 331   1 H      0.351  0.649  0.000  0.000     0.585     1.201
 332   7 N     -0.166  1.243  3.922  0.000    24.584     7.364
 333   6 C      0.014  1.064  2.921  0.000    20.347     6.424
 334   6 C      0.265  1.051  2.685  0.000    22.533     7.773
 335   8 O     -0.470  1.733  4.737  0.000    23.127     6.448
 336   6 C     -0.078  1.054  3.024  0.000    21.975     6.671
 337   6 C     -0.016  1.069  2.947  0.000    20.868     6.506
 338  16 S     -0.249  1.919  4.279  0.051   151.727    20.732
 339   6 C     -0.062  1.056  3.005  0.000    21.759     6.655
 340   1 H      0.221  0.779  0.000  0.000     1.007     1.572
 341   1 H      0.098  0.902  0.000  0.000     1.802     2.099
 342   1 H      0.067  0.933  0.000  0.000     2.119     2.276
 343   1 H      0.100  0.900  0.000  0.000     1.781     2.087
 344   1 H      0.059  0.941  0.000  0.000     2.212     2.326
 345   1 H      0.064  0.936  0.000  0.000     2.155     2.296
 346   1 H      0.063  0.937  0.000  0.000     2.161     2.299
 347   1 H      0.080  0.920  0.000  0.000     1.976     2.198
 348   1 H      0.052  0.948  0.000  0.000     2.299     2.371
 349   7 N     -0.181  1.241  3.940  0.000    24.926     7.415
 350   6 C      0.002  1.067  2.931  0.000    20.568     6.460
 351   6 C      0.268  1.045  2.687  0.000    22.483     7.765
 352   8 O     -0.500  1.758  4.742  0.000    23.793     6.540
 353   6 C      0.074  1.039  2.887  0.000    19.545     6.331
 354   8 O     -0.474  1.713  4.761  0.000    22.341     6.381
 355   1 H      0.214  0.786  0.000  0.000     1.037     1.595
 356   1 H      0.103  0.897  0.000  0.000     1.759     2.074
 357   1 H      0.083  0.917  0.000  0.000     1.948     2.182
 358   1 H      0.032  0.968  0.000  0.000     2.555     2.500
 359   1 H      0.333  0.667  0.000  0.000     0.629     1.245
 360   7 N     -0.163  1.240  3.923  0.000    24.524     7.355
 361   6 C      0.032  1.054  2.914  0.000    20.030     6.372
 362   6 C      0.278  1.044  2.679  0.000    22.304     7.734
 363   8 O     -0.499  1.729  4.770  0.000    23.760     6.535
 364   6 C     -0.126  1.043  3.083  0.000    22.956     6.830
 365   1 H      0.218  0.782  0.000  0.000     1.019     1.581
 366   1 H      0.063  0.937  0.000  0.000     2.169     2.303
 367   1 H      0.059  0.941  0.000  0.000     2.206     2.323
 368   1 H      0.065  0.935  0.000  0.000     2.147     2.291
 369   1 H      0.084  0.916  0.000  0.000     1.939     2.178
 370   7 N     -0.185  1.249  3.936  0.000    25.020     7.429
 371   6 C      0.019  1.060  2.921  0.000    20.258     6.408
 372   6 C      0.273  1.041  2.686  0.000    22.379     7.747
 373   8 O     -0.464  1.733  4.732  0.000    23.013     6.432
 374   6 C      0.120  1.048  2.832  0.000    18.707     6.174
 375   8 O     -0.482  1.723  4.759  0.000    22.512     6.405
 376   6 C     -0.127  1.042  3.085  0.000    23.000     6.839
 377   1 H      0.227  0.773  0.000  0.000     0.976     1.548
 378   1 H      0.070  0.930  0.000  0.000     2.087     2.259
 379   1 H      0.030  0.970  0.000  0.000     2.589     2.516
 380   1 H      0.324  0.676  0.000  0.000     0.654     1.271
 381   1 H      0.058  0.942  0.000  0.000     2.220     2.330
 382   1 H      0.046  0.954  0.000  0.000     2.367     2.406
 383   1 H      0.060  0.940  0.000  0.000     2.199     2.319
 384   7 N     -0.179  1.248  3.931  0.000    24.880     7.408
 385   6 C      0.031  1.053  2.915  0.000    20.045     6.374
 386   6 C      0.202  1.081  2.716  0.000    23.699     7.973
 387   8 O     -0.347  1.748  4.599  0.000    20.649     6.092
 388   6 C     -0.064  1.047  3.017  0.000    21.678     6.621
 389   6 C     -0.013  1.065  2.948  0.000    20.806     6.495
 390  16 S     -0.207  1.913  4.242  0.052   149.888    20.606
 391   6 C     -0.057  1.052  3.004  0.000    21.666     6.640
 392   1 H      0.222  0.778  0.000  0.000     1.002     1.568
 393   1 H      0.103  0.897  0.000  0.000     1.761     2.075
 394   1 H      0.063  0.937  0.000  0.000     2.164     2.301
 395   1 H      0.073  0.927  0.000  0.000     2.053     2.241
 396   1 H      0.056  0.944  0.000  0.000     2.250     2.346
 397   1 H      0.055  0.945  0.000  0.000     2.256     2.349
 398   1 H      0.085  0.915  0.000  0.000     1.929     2.172
 399   1 H      0.041  0.959  0.000  0.000     2.431     2.438
 400   1 H      0.061  0.939  0.000  0.000     2.186     2.312
 401   7 N     -0.397  1.312  4.084  0.000    30.278     8.172
 402   6 C      0.042  1.059  2.899  0.000    19.887     6.352
 403   6 C      0.267  1.051  2.682  0.000    22.487     7.766
 404   8 O     -0.524  1.753  4.771  0.000    24.314     6.611
 405   6 C     -0.055  1.054  3.001  0.000    21.563     6.611
 406   6 C     -0.096  1.068  3.028  0.000    22.333     6.729
 407   6 C      0.368  1.029  2.604  0.000    20.767     7.458
 408   8 O     -0.633  1.761  4.872  0.000    26.938     6.959
 409   8 O     -0.615  1.771  4.844  0.000    26.486     6.900
 410   1 H      0.163  0.837  0.000  0.000     1.313     1.795
 411   1 H      0.020  0.980  0.000  0.000     2.741     2.589
 412   1 H      0.056  0.944  0.000  0.000     2.242     2.342
 413   1 H      0.013  0.987  0.000  0.000     2.840     2.635
 414   1 H      0.020  0.980  0.000  0.000     2.731     2.584
 415   1 H      0.028  0.972  0.000  0.000     2.612     2.527
 416   7 N     -0.177  1.253  3.925  0.000    24.837     7.402
 417   6 C      0.034  1.060  2.906  0.000    19.997     6.366
 418   6 C      0.215  1.084  2.701  0.000    23.447     7.930
 419   8 O     -0.376  1.749  4.627  0.000    21.210     6.175
 420   6 C     -0.017  1.062  2.955  0.000    20.841     6.493
 421   6 C     -0.069  1.051  3.018  0.000    21.816     6.649
 422   6 C     -0.121  1.041  3.080  0.000    22.859     6.816
 423   6 C     -0.112  1.036  3.076  0.000    22.708     6.796
 424   1 H      0.236  0.764  0.000  0.000     0.938     1.517
 425   1 H      0.079  0.921  0.000  0.000     1.995     2.209
 426   1 H      0.048  0.952  0.000  0.000     2.351     2.398
 427   1 H      0.038  0.962  0.000  0.000     2.482     2.464
 428   1 H      0.064  0.936  0.000  0.000     2.158     2.297
 429   1 H      0.065  0.935  0.000  0.000     2.145     2.290
 430   1 H      0.048  0.952  0.000  0.000     2.350     2.397
 431   1 H      0.055  0.945  0.000  0.000     2.258     2.350
 432   1 H      0.042  0.958  0.000  0.000     2.422     2.434
 433   1 H      0.053  0.947  0.000  0.000     2.288     2.365
 434   1 H      0.024  0.976  0.000  0.000     2.678     2.559
 435   7 N     -0.382  1.318  4.064  0.000    29.885     8.119
 436   6 C      0.037  1.050  2.913  0.000    19.963     6.363
 437   6 C      0.200  1.084  2.716  0.000    23.743     7.981
 438   8 O     -0.369  1.755  4.614  0.000    21.070     6.154
 439   6 C     -0.059  1.051  3.008  0.000    21.571     6.600
 440   6 C     -0.003  1.056  2.947  0.000    20.630     6.467
 441  16 S     -0.202  1.909  4.241  0.052   149.636    20.588
 442   6 C     -0.060  1.054  3.006  0.000    21.730     6.650
 443   1 H      0.166  0.834  0.000  0.000     1.295     1.783
 444   1 H      0.059  0.941  0.000  0.000     2.212     2.326
 445   1 H      0.053  0.947  0.000  0.000     2.280     2.361
 446   1 H      0.057  0.943  0.000  0.000     2.239     2.340
 447   1 H      0.043  0.957  0.000  0.000     2.410     2.428
 448   1 H      0.043  0.957  0.000  0.000     2.412     2.429
 449   1 H      0.064  0.936  0.000  0.000     2.156     2.296
 450   1 H      0.049  0.951  0.000  0.000     2.332     2.388
 451   1 H      0.057  0.943  0.000  0.000     2.236     2.338
 452   7 N     -0.393  1.312  4.081  0.000    30.175     8.158
 453   6 C      0.028  1.054  2.917  0.000    20.104     6.384
 454   6 C      0.282  1.046  2.672  0.000    22.222     7.720
 455   8 O     -0.479  1.746  4.733  0.000    23.330     6.476
 456   6 C     -0.027  1.069  2.958  0.000    21.000     6.516
 457   6 C     -0.074  1.051  3.023  0.000    21.911     6.664
 458   6 C     -0.135  1.041  3.094  0.000    23.139     6.858
 459   6 C     -0.108  1.038  3.071  0.000    22.630     6.783
 460   1 H      0.160  0.840  0.000  0.000     1.336     1.811
 461   1 H      0.046  0.954  0.000  0.000     2.370     2.408
 462   1 H      0.035  0.965  0.000  0.000     2.522     2.484
 463   1 H      0.047  0.953  0.000  0.000     2.362     2.404
 464   1 H      0.033  0.967  0.000  0.000     2.545     2.495
 465   1 H      0.032  0.968  0.000  0.000     2.554     2.499
 466   1 H      0.056  0.944  0.000  0.000     2.249     2.345
 467   1 H      0.071  0.929  0.000  0.000     2.079     2.255
 468   1 H      0.048  0.952  0.000  0.000     2.340     2.392
 469   1 H      0.036  0.964  0.000  0.000     2.504     2.474
 470   1 H      0.040  0.960  0.000  0.000     2.454     2.450
 471   7 N     -0.181  1.242  3.939  0.000    24.917     7.414
 472   6 C     -0.037  1.055  2.982  0.000    21.293     6.581
 473   6 C      0.274  1.043  2.683  0.000    22.359     7.742
 474   8 O     -0.455  1.741  4.714  0.000    22.806     6.403
 475   1 H      0.196  0.804  0.000  0.000     1.125     1.662
 476   1 H      0.104  0.896  0.000  0.000     1.752     2.070
 477   1 H      0.077  0.923  0.000  0.000     2.010     2.217
 478   7 N     -0.192  1.244  3.948  0.000    25.169     7.451
 479   6 C      0.019  1.066  2.915  0.000    20.264     6.412
 480   6 C      0.263  1.041  2.696  0.000    22.566     7.780
 481   8 O     -0.472  1.754  4.719  0.000    23.179     6.455
 482   6 C      0.078  1.037  2.886  0.000    19.514     6.332
 483   8 O     -0.466  1.713  4.752  0.000    22.167     6.356
 484   1 H      0.216  0.784  0.000  0.000     1.026     1.587
 485   1 H      0.081  0.919  0.000  0.000     1.971     2.196
 486   1 H      0.065  0.935  0.000  0.000     2.139     2.287
 487   1 H      0.039  0.961  0.000  0.000     2.468     2.457
 488   1 H      0.329  0.671  0.000  0.000     0.641     1.258
 489   7 N     -0.065  1.241  3.823  0.000    22.494     7.044
 490   6 C      0.011  1.070  2.919  0.000    20.361     6.419
 491   6 C      0.220  1.073  2.707  0.000    23.368     7.917
 492   8 O     -0.383  1.752  4.631  0.000    21.351     6.195
 493   6 C     -0.082  1.059  3.023  0.000    22.046     6.681
 494   6 C     -0.068  1.053  3.015  0.000    21.776     6.639
 495   6 C     -0.032  1.059  2.972  0.000    21.137     6.546
 496   1 H      0.094  0.906  0.000  0.000     1.844     2.123
 497   1 H      0.069  0.931  0.000  0.000     2.097     2.265
 498   1 H      0.074  0.926  0.000  0.000     2.041     2.234
 499   1 H      0.051  0.949  0.000  0.000     2.307     2.375
 500   1 H      0.065  0.935  0.000  0.000     2.141     2.288
 501   1 H      0.100  0.900  0.000  0.000     1.784     2.089
 502   1 H      0.069  0.931  0.000  0.000     2.101     2.267
 503   7 N     -0.386  1.313  4.074  0.000    29.998     8.134
 504   6 C      0.042  1.049  2.908  0.000    19.879     6.351
 505   6 C      0.198  1.086  2.716  0.000    23.782     7.987
 506   8 O     -0.382  1.758  4.624  0.000    21.320     6.191
 507   6 C     -0.124  1.042  3.082  0.000    22.917     6.824
 508   1 H      0.160  0.840  0.000  0.000     1.337     1.812
 509   1 H      0.069  0.931  0.000  0.000     2.095     2.264
 510   1 H      0.056  0.944  0.000  0.000     2.245     2.343
 511   1 H      0.070  0.930  0.000  0.000     2.088     2.260
 512   1 H      0.045  0.955  0.000  0.000     2.382     2.413
 513   7 N     -0.372  1.305  4.067  0.000    29.593     8.079
 514   6 C      0.045  1.050  2.905  0.000    19.832     6.343
 515   6 C      0.198  1.085  2.717  0.000    23.790     7.989
 516   8 O     -0.381  1.763  4.619  0.000    21.312     6.189
 517   6 C     -0.067  1.055  3.012  0.000    21.760     6.638
 518   6 C      0.000  1.077  2.923  0.000    28.014     8.682
 519   6 C     -0.044  1.084  2.960  0.000    29.091     8.845
 520   6 C     -0.039  1.080  2.959  0.000    28.978     8.828
 521   6 C     -0.060  1.073  2.987  0.000    29.486     8.905
 522   6 C     -0.075  1.079  2.997  0.000    29.885     8.965
 523   6 C      0.148  1.042  2.811  0.000    24.789     8.160
 524   8 O     -0.422  1.699  4.723  0.000    21.276     6.227
 525   1 H      0.157  0.843  0.000  0.000     1.357     1.825
 526   1 H      0.062  0.938  0.000  0.000     2.171     2.304
 527   1 H      0.048  0.952  0.000  0.000     2.350     2.397
 528   1 H      0.051  0.949  0.000  0.000     2.307     2.375
 529   1 H      0.052  0.948  0.000  0.000     2.290     2.366
 530   1 H      0.030  0.970  0.000  0.000     2.591     2.517
 531   1 H      0.054  0.946  0.000  0.000     2.270     2.356
 532   1 H      0.027  0.973  0.000  0.000     2.629     2.536
 533   1 H      0.337  0.663  0.000  0.000     0.620     1.237
 534   7 N     -0.393  1.315  4.078  0.000    30.181     8.159
 535   6 C      0.016  1.063  2.921  0.000    20.323     6.422
 536   6 C      0.277  1.042  2.681  0.000    22.305     7.733
 537   8 O     -0.492  1.741  4.751  0.000    23.612     6.515
 538   6 C      0.073  1.039  2.888  0.000    19.565     6.336
 539   8 O     -0.484  1.728  4.756  0.000    22.554     6.411
 540   1 H      0.160  0.840  0.000  0.000     1.334     1.809
 541   1 H      0.053  0.947  0.000  0.000     2.278     2.360
 542   1 H      0.053  0.947  0.000  0.000     2.284     2.363
 543   1 H      0.033  0.967  0.000  0.000     2.548     2.496
 544   1 H      0.331  0.669  0.000  0.000     0.634     1.250
 545   7 N     -0.168  1.227  3.941  0.000    24.633     7.371
 546   6 C      0.037  1.049  2.913  0.000    19.958     6.362
 547   6 C      0.201  1.084  2.716  0.000    23.731     7.979
 548   8 O     -0.345  1.745  4.600  0.000    20.613     6.087
 549   6 C     -0.053  1.046  3.007  0.000    21.510     6.601
 550   6 C     -0.098  1.052  3.046  0.000    22.363     6.731
 551   6 C      0.292  1.035  2.672  0.000    22.039     7.687
 552   8 O     -0.500  1.756  4.744  0.000    23.781     6.538
 553   7 N     -0.288  1.264  4.023  0.000    27.423     7.777
 554   1 H      0.228  0.772  0.000  0.000     0.974     1.546
 555   1 H      0.076  0.924  0.000  0.000     2.016     2.220
 556   1 H      0.063  0.937  0.000  0.000     2.161     2.299
 557   1 H      0.062  0.938  0.000  0.000     2.171     2.304
 558   1 H      0.073  0.927  0.000  0.000     2.057     2.243
 559   1 H      0.068  0.932  0.000  0.000     2.103     2.268
 560   1 H      0.226  0.774  0.000  0.000     0.981     1.551
 561   1 H      0.222  0.778  0.000  0.000     0.998     1.565
 562   1 H      0.188  0.812  0.000  0.000     1.169     1.693
 563   1 H      0.086  0.914  0.000  0.000     1.922     2.168
 564   1 H      0.173  0.827  0.000  0.000     1.253     1.754
 565   1 H      0.063  0.937  0.000  0.000     2.164     2.300
 566   1 H      0.175  0.825  0.000  0.000     1.245     1.748
 567   1 H      0.068  0.932  0.000  0.000     2.107     2.270
 568   1 H      0.186  0.814  0.000  0.000     1.179     1.701
 569   1 H      0.069  0.931  0.000  0.000     2.097     2.264
 570   1 H      0.178  0.822  0.000  0.000     1.227     1.735
 571   1 H      0.055  0.945  0.000  0.000     2.252     2.346
 572   1 H      0.165  0.835  0.000  0.000     1.303     1.788
 573   1 H      0.058  0.942  0.000  0.000     2.228     2.334
 574   1 H      0.180  0.820  0.000  0.000     1.213     1.725
 575   1 H      0.065  0.935  0.000  0.000     2.141     2.288
 576   1 H      0.184  0.816  0.000  0.000     1.193     1.711
 577   1 H      0.066  0.934  0.000  0.000     2.124     2.279
 578   1 H      0.175  0.825  0.000  0.000     1.245     1.748
 579   1 H      0.062  0.938  0.000  0.000     2.171     2.304
 580   1 H      0.181  0.819  0.000  0.000     1.210     1.723
 581   1 H      0.068  0.932  0.000  0.000     2.102     2.267
 582   1 H      0.181  0.819  0.000  0.000     1.206     1.720
 583   1 H      0.072  0.928  0.000  0.000     2.065     2.247
 584   1 H      0.187  0.813  0.000  0.000     1.176     1.699
 585   1 H      0.065  0.935  0.000  0.000     2.140     2.287
 586   1 H      0.175  0.825  0.000  0.000     1.243     1.746
 587   1 H      0.069  0.931  0.000  0.000     2.101     2.267

 Mol. C6AA /au·bohr⁶  :    3165570.559458
 Mol. C8AA /au·bohr⁸  :   71485679.123360
 Mol. α(0) /au        :       2669.069155

 
molecular dipole:
                 x           y           z       tot (Debye)
 q only:       -5.653    -133.990    -322.696
   full:       -9.846    -132.597    -318.615     877.545
molecular quadrupole (traceless):
                xx          xy          yy          xz          yz          zz
 q only:    30573.539    -410.812   16983.653   -1121.762  -32959.234  -47557.193
  q+dip:    29752.795    -796.324   16497.195   -2058.373  -32225.167  -46249.990
   full:    29756.473    -799.167   16496.317   -2060.739  -32232.088  -46252.790
speedup  1.96
cpu  time for grad    1 m  5.9 s
wall time for grad    0 m 33.6 s

SCC energy    :    -888.6729568
rep           :      10.8307514
ES            :       2.3504908
AES           :      -0.0386610
AXC           :       0.3102326
disp          :      -0.7894034
XB            :       0.0000000
fix           :       0.0000000
Gborn         :       0.0000000
Gsasa         :       0.0000000
Ghb           :       0.0000000
Gshift        :       0.0000000
Gsolv         :      -0.4743895     -297.68
Etot ala COSMO:    -888.6729568
grad norm     :       0.8135061
total E       :    -877.7515757
atomizationE  :     161.2799764   101204.71
(atE without considering molecular charge,
 total energy contains solvation terms)
H-L gap (eV)  :          1.2261

------------------------------------------------------------------------
 * finished run on 2019/05/07 at 23:36:46.547     
------------------------------------------------------------------------
 total:
 * wall-time:     0 d,  0 h,  0 min, 35.465 sec
 *  cpu-time:     0 d,  0 h,  1 min,  9.159 sec
 * ratio c/w:     1.950 speedup
 SCF:
 * wall-time:     0 d,  0 h,  0 min, 34.991 sec
 *  cpu-time:     0 d,  0 h,  1 min,  8.526 sec
 * ratio c/w:     1.958 speedup

