      -----------------------------------------------------------      
     |                   =====================                   |     
     |                           x T B                           |     
     |                   =====================                   |     
     |                         S. Grimme                         |     
     |          Mulliken Center for Theoretical Chemistry        |     
     |                    University of Bonn                     |     
     |                 Version 6.0.1 (SAW181210)                 |     
      -----------------------------------------------------------      

   This program is distributed in the hope that it will be useful,
   but WITHOUT ANY WARRANTY; without even the implied warranty of
   MERCHANTABILITY or FITNESS FOR A PARTICULAR PURPOSE.
   
   FOR NON-COMMERCIAL, ACADEMIA USE ONLY.
   
   Cite this work as:
   S. Grimme, C. Bannwarth, P. Shushkov, J. Comput. Theory Chem., 2017,
   13, 1989-2009.
   C. Bannwarth, S. Ehlert and S. Grimme., ChemRxiv, 2018, preprint.
   http://doi.org/10.26434/chemrxiv.7246238.v1
   
   for sTDA-xTB:
   S. Grimme and C. Bannwarth, J. Chem. Phys., 2016, 145, 054103.
   
   in the mass-spec context:
   V. Asgeirsson, C. Bauer and S. Grimme, Chem. Sci., 2017, 8, 4879.
   
   if GBSA is used:
   P. Shushkov, F. März and S. Grimme, unpublished.
   
   for ANC optimizer:
   S. Grimme, unpublished.
   Rational Function algorithm used in ANCopt:
   F. Eckert, P. Pulay, H.-J. Werner, J. Comput. Chem., 1997, 18, 1473.
   
   with help from (in alphabetical order)
   C. Bannwarth, F. Bohle, G. Brandenburg, E. Caldeweyher, M. Checinski,
   S. Dohm, S. Ehlert, S. Ehrlich, F. März, H. Neugebauer, J. Pisarek,
   P. Pracht, P. Shushkov, and S. Spicher.
   
 * started run on 2019/05/05 at 12:29:11.948     
========================================================================
 # omp threads = 2
========================================================================
number of atoms            : 190
number of electrons        : 514
charge                     : 0
spin                       : .0
first test random number   : .3666

########################################################################
# WARNING! Please study the warnings concerning your input carefully
#  - Process number higher than OMP_NUM_THREADS, I hope you know what you are doing.
########################################################################

           ------------------------------------------------- 
          |                 G F N 2 - x T B                 |
          | Geometry, Frequencies, Noncovalent interactions |
          |            JCTC 2018 parametrisation            |
           ------------------------------------------------- 
 
      method parameters     
 k(s)        :  1.8500
 k(p)        :  2.2300
 k(d)        :  2.2300
 k(f)        :  2.0000
 kEN (H0ij)  : -2.0000
 D4 a1       :  0.5200
 D4 a2       :  5.0000
 D4 s6       :  1.0000
 D4 s8       :  2.7000
 D4 s9       :  5.0000
 alphaj      :  2.0000

 Solvent             : h2o
 Using internal parameter file: .param_gbsa2_h2o
 Gsolv ref. state (COSMO-RS): gsolv [1 M gas/solution]
 temperature (mdtemp)       :    298.150000000000     
 dielectric constant        :    80.2000000000000     
 rho                        :    1.00000000000000     
 mass                       :    18.0000000000000     
 surface tension            :    15.5689454083859     
 probe radius               :   0.975313790000000     
 vdW radii scaling          :    1.00000000000000     
 Gshift (Eh)                :   1.857443126794793E-003
 c1                         :    1.55243817000000     
 soset                      :   0.130326360000000     
 HB correction              :  T

            Z     q(EN)     CN     RAES       Cart. coordinates
     1  N   5.0   -0.21    3.26    1.97    -2.61727    87.21274   173.09323
     2  C   4.0    0.03    4.43    4.43    -0.15685    88.34658   173.05354
     3  C   4.0    0.16    3.51    3.12     1.03935    87.71352   170.54777
     4  O   6.0   -0.30    1.29    1.80     1.86138    89.39916   169.21551
     5  C   4.0   -0.04    4.12    3.84     1.49099    87.39605   175.21539
     6  S   6.0   -0.06    2.37    3.10     4.59581    88.82657   175.20405
     7  H   1.0    0.08    1.03    1.43    -2.79868    85.62537   174.17037
     8  H   1.0    0.05    1.07    1.44    -0.30992    90.38370   173.31811
     9  H   1.0    0.04    1.07    1.44     0.58015    87.84958   177.00685
    10  H   1.0    0.04    1.07    1.44     1.72343    85.35703   175.03965
    11  H   1.0    0.05    1.00    1.43     5.85290    88.82267   177.09139
    12  N   5.0   -0.15    3.44    2.04     1.09037    85.28333   169.89014
    13  C   4.0    0.03    4.31    4.22     2.39617    84.40083   167.60168
    14  C   4.0    0.09    3.27    3.05     1.63839    85.89182   165.26031
    15  O   6.0   -0.29    1.13    1.80     3.23899    86.91795   163.93373
    16  C   4.0   -0.04    4.31    4.21     1.95965    81.57569   167.14248
    17  C   4.0   -0.01    3.54    3.13     3.38072    80.51555   164.88615
    18  C   4.0   -0.03    3.48    3.10     2.47932    80.82925   162.44840
    19  C   4.0   -0.04    3.46    3.10     5.61816    79.17385   165.19984
    20  C   4.0   -0.03    3.43    3.09     3.76622    79.83903   160.38482
    21  C   4.0   -0.05    3.43    3.09     6.92207    78.17229   163.13815
    22  C   4.0    0.07    3.44    3.09     5.98287    78.51244   160.73442
    23  O   6.0   -0.23    2.09    1.84     7.26411    77.53924   158.67273
    24  H   1.0    0.07    1.06    1.44     0.24944    83.86982   170.89548
    25  H   1.0    0.05    1.06    1.44     4.40684    84.68996   167.93995
    26  H   1.0    0.04    1.03    1.43     2.57192    80.53445   168.81111
    27  H   1.0    0.04    1.03    1.43    -0.05102    81.26388   166.81745
    28  H   1.0    0.06    1.03    1.43     0.74455    81.86293   162.14605
    29  H   1.0    0.05    1.03    1.43     6.36271    78.90173   167.08012
    30  H   1.0    0.06    1.03    1.43     3.02923    80.10926   158.50076
    31  H   1.0    0.05    1.03    1.43     8.65683    77.13672   163.42539
    32  H   1.0    0.12    1.02    1.43     8.79101    76.65673   159.23587
    33  N   5.0   -0.18    3.20    1.96     4.23677    92.31878   165.36047
    34  C   4.0    0.04    4.14    3.89     6.88616    92.57956   164.65749
    35  C   4.0    0.09    3.18    3.03     7.26600    92.27910   161.79078
    36  O   6.0   -0.27    1.11    1.80     8.48298    93.86269   160.57190
    37  C   4.0   -0.07    4.10    3.80     8.49621    90.69173   166.10313
    38  H   1.0    0.13    1.06    1.44     3.78134    90.60669   166.12014
    39  H   1.0    0.06    1.06    1.44     7.51733    94.46929   165.18095
    40  H   1.0    0.05    1.00    1.43    10.46530    90.92416   165.54566
    41  H   1.0    0.05    1.00    1.43     8.29212    91.04322   168.12325
    42  H   1.0    0.05    1.00    1.43     7.85937    88.78499   165.65338
    43  N   5.0   -0.21    3.18    1.95    10.05712    70.30158   175.30988
    44  C   4.0    0.03    4.16    3.92     8.86281    72.01368   177.10701
    45  C   4.0    0.08    3.19    3.04     6.32491    71.00267   178.03864
    46  O   6.0   -0.29    1.12    1.80     5.45753    71.69431   180.06821
    47  C   4.0   -0.07    4.11    3.82     8.56046    74.63284   175.99018
    48  H   1.0    0.08    1.03    1.43    10.20074    70.99889   173.51842
    49  H   1.0    0.05    1.06    1.44    10.10247    72.21399   178.73973
    50  H   1.0    0.05    1.00    1.43     7.66473    75.85738   177.38291
    51  H   1.0    0.04    1.00    1.43    10.41995    75.37172   175.49885
    52  H   1.0    0.04    1.00    1.43     7.38505    74.51000   174.30265
    53  N   5.0   -0.21    3.21    1.96     9.37115    82.55079   187.59687
    54  C   4.0    0.02    4.44    4.45     8.25243    81.78545   185.19314
    55  C   4.0    0.15    3.45    3.09     8.89116    83.65250   183.07476
    56  O   6.0   -0.32    1.33    1.80    10.24987    83.02322   181.30220
    57  C   4.0   -0.03    4.40    4.39     5.41595    81.42451   185.46715
    58  C   4.0   -0.05    4.25    4.10     4.91518    79.23243   187.26995
    59  C   4.0   -0.07    4.21    4.01     4.26322    80.88027   182.97083
    60  C   4.0   -0.08    4.03    3.67     2.14484    78.77323   187.80852
    61  H   1.0    0.08    1.03    1.43     8.15039    82.53000   189.08787
    62  H   1.0    0.04    1.06    1.44     9.10659    79.99399   184.63945
    63  H   1.0    0.04    1.06    1.44     4.58448    83.15172   186.21926
    64  H   1.0    0.04    1.03    1.43     5.68619    77.51089   186.44414
    65  H   1.0    0.04    1.04    1.43     5.84492    79.62927   189.06519
    66  H   1.0    0.04    1.01    1.43     2.23366    80.62894   183.21082
    67  H   1.0    0.05    1.01    1.43     4.62983    82.46197   181.70282
    68  H   1.0    0.05    1.01    1.43     5.09848    79.15873   182.20738
    69  H   1.0    0.04    1.00    1.43     1.96909    77.18397   189.10677
    70  H   1.0    0.04    1.00    1.43     1.33793    80.46642   188.65890
    71  H   1.0    0.04    1.00    1.43     1.17919    78.34615   186.03974
    72  N   5.0   -0.15    3.51    2.08     7.95008    85.95985   183.31476
    73  C   4.0    0.03    4.34    4.27     8.57180    88.01210   181.58755
    74  C   4.0    0.10    3.28    3.05    11.37426    88.15761   181.00740
    75  O   6.0   -0.30    1.20    1.80    12.20763    87.75509   178.87579
    76  C   4.0   -0.05    4.36    4.30     7.82158    90.49520   182.80075
    77  C   4.0   -0.05    4.31    4.22     5.44430    90.33079   184.33710
    78  C   4.0   -0.05    4.25    4.10     4.65251    92.92160   185.13456
    79  C   4.0   -0.04    4.16    3.93     1.93886    92.95940   185.94336
    80  N   5.0   -0.12    4.02    2.91     1.16407    95.59746   186.48572
    81  H   1.0    0.07    1.10    1.44     6.72742    86.48142   184.71126
    82  H   1.0    0.05    1.06    1.44     7.56268    87.68139   179.82254
    83  H   1.0    0.05    1.04    1.43     9.33903    91.10936   184.04986
    84  H   1.0    0.05    1.04    1.43     7.51922    91.89359   181.31920
    85  H   1.0    0.04    1.04    1.43     3.94008    89.49364   183.20704
    86  H   1.0    0.04    1.04    1.43     5.77878    89.19129   186.01895
    87  H   1.0    0.04    1.03    1.43     5.81280    93.53388   186.72193
    88  H   1.0    0.04    1.04    1.43     4.87738    94.22363   183.55475
    89  H   1.0    0.04    1.03    1.43     0.75022    92.21296   184.43536
    90  H   1.0    0.04    1.02    1.43     1.70264    91.83123   187.65168
    91  H   1.0    0.05    1.01    1.43    -0.62928    95.62013   187.29074
    92  H   1.0    0.05    1.02    1.43     2.43397    96.42705   187.73482
    93  H   1.0    0.06    1.02    1.43     1.13006    96.64247   184.82276
    94  N   5.0   -0.19    3.24    1.97    16.02677    84.53500   181.86912
    95  C   4.0    0.03    4.36    4.31    16.89037    82.36182   180.45371
    96  C   4.0    0.16    3.48    3.11    16.23275    82.66228   177.68715
    97  O   6.0   -0.30    1.25    1.80    17.87492    82.57724   176.05254
    98  C   4.0   -0.04    4.39    4.36    15.66205    79.96564   181.45904
    99  C   4.0   -0.01    3.59    3.16    16.46140    77.63561   180.07577
   100  C   4.0   -0.04    3.47    3.10    18.35869    76.10115   181.02819
   101  C   4.0   -0.03    3.50    3.11    15.33702    76.99310   177.79865
   102  C   4.0   -0.04    3.38    3.07    19.11080    73.96009   179.74506
   103  C   4.0   -0.04    3.38    3.07    16.07590    74.85771   176.50418
   104  C   4.0   -0.04    3.38    3.07    17.97507    73.34215   177.47361
   105  H   1.0    0.09    1.03    1.43    15.05923    84.08525   183.47349
   106  H   1.0    0.05    1.06    1.44    18.93127    82.19930   180.67859
   107  H   1.0    0.04    1.04    1.43    16.17794    79.73321   183.43948
   108  H   1.0    0.06    1.04    1.43    13.61737    80.13950   181.27763
   109  H   1.0    0.05    1.03    1.43    19.25820    76.58681   182.79508
   110  H   1.0    0.05    1.03    1.43    13.86492    78.17985   177.02953
   111  H   1.0    0.05    1.03    1.43    20.58101    72.77146   180.51229
   112  H   1.0    0.05    1.03    1.43    15.17639    74.36828   174.73918
   113  H   1.0    0.05    1.03    1.43    18.57034    71.67542   176.45505
   114  N   5.0   -0.13    3.54    2.11    13.80445    83.00243   177.19204
   115  C   4.0    0.04    4.51    4.55    12.84069    83.27455   174.65225
   116  C   4.0    0.16    3.49    3.11    14.22397    85.29089   173.09890
   117  O   6.0   -0.30    1.29    1.80    15.46174    84.68240   171.24130
   118  C   4.0    0.05    4.31    4.22    10.07413    83.94352   174.77886
   119  O   6.0   -0.26    2.12    1.84     8.75699    81.98576   176.08844
   120  C   4.0   -0.07    4.13    3.86     9.00076    84.23264   172.15970
   121  H   1.0    0.12    1.11    1.45    12.43251    83.09881   178.54320
   122  H   1.0    0.05    1.06    1.44    13.11848    81.46798   173.70172
   123  H   1.0    0.05    1.05    1.44     9.82469    85.73120   175.77286
   124  H   1.0    0.14    1.04    1.43     8.94596    82.20875   177.91770
   125  H   1.0    0.05    1.01    1.43     7.00143    84.71452   172.26742
   126  H   1.0    0.04    1.01    1.43     9.99665    85.72742   171.15248
   127  H   1.0    0.04    1.00    1.43     9.20863    82.46953   171.11468
   128  N   5.0   -0.14    3.47    2.06    14.03499    87.68139   173.88691
   129  C   4.0    0.03    4.40    4.37    14.99875    89.82434   172.40348
   130  C   4.0    0.17    3.47    3.10    17.65760    89.36514   171.40381
   131  O   6.0   -0.28    1.25    1.80    18.21318    89.92261   169.24575
   132  C   4.0   -0.04    4.30    4.19    14.96096    92.29233   173.92093
   133  C   4.0   -0.03    4.18    3.96    12.39660    93.13892   174.89036
   134  C   4.0    0.25    3.12    3.03    12.60447    94.86424   177.20149
   135  O   6.0   -0.28    1.20    1.80    14.63026    94.87747   178.41470
   136  O   6.0   -0.28    1.16    1.80    10.74687    96.20217   177.82510
   137  H   1.0    0.11    1.10    1.44    13.22052    88.20863   175.55176
   138  H   1.0    0.05    1.06    1.44    13.71941    90.03977   170.80477
   139  H   1.0    0.07    1.04    1.43    16.18361    92.05611   175.56121
   140  H   1.0    0.06    1.03    1.43    15.68284    93.79844   172.71528
   141  H   1.0    0.05    1.03    1.43    11.42339    94.17827   173.40125
   142  H   1.0    0.05    1.03    1.43    11.29867    91.48163   175.42704
   143  N   5.0   -0.13    3.56    2.12    19.31111    88.36359   172.97229
   144  C   4.0    0.05    4.56    4.61    21.86980    87.82690   172.15592
   145  C   4.0    0.16    3.48    3.11    22.03798    85.64616   170.29076
   146  O   6.0   -0.26    1.28    1.80    23.33623    85.80490   168.39159
   147  C   4.0   -0.04    4.14    3.89    23.48551    87.22597   174.44816
   148  S   6.0   -0.04    2.41    3.10    23.68205    89.81867   176.54954
   149  H   1.0    0.09    1.07    1.44    18.94639    87.90249   174.80721
   150  H   1.0    0.07    1.07    1.44    22.57089    89.51065   171.19783
   151  H   1.0    0.05    1.08    1.44    22.65781    85.63482   175.46105
   152  H   1.0    0.05    1.08    1.44    25.39225    86.75165   173.82833
   153  H   1.0    0.05    1.00    1.43    24.28151    89.48361   178.71072
   154  N   5.0   -0.13    3.50    2.07    20.78510    83.56935   170.86335
   155  C   4.0    0.05    4.53    4.58    20.82100    81.47175   169.11158
   156  C   4.0    0.17    3.58    3.15    20.10290    82.37504   166.46785
   157  O   6.0   -0.25    1.27    1.80    21.62980    82.31646   164.71985
   158  C   4.0   -0.04    4.12    3.84    19.01253    79.39306   169.96006
   159  S   6.0   -0.05    2.35    3.10    18.83868    76.77012   167.74719
   160  H   1.0    0.11    1.07    1.44    19.76086    83.29156   172.47340
   161  H   1.0    0.06    1.06    1.44    22.72018    80.67618   169.05677
   162  H   1.0    0.05    1.07    1.44    19.65126    78.65228   171.77231
   163  H   1.0    0.06    1.07    1.44    17.12281    80.19052   170.15092
   164  H   1.0    0.05    1.00    1.43    18.06568    74.75326   168.43792
   165  N   5.0   -0.14    3.50    2.08    17.76720    83.22542   166.18439
   166  C   4.0    0.04    4.49    4.52    16.85825    84.01722   163.72964
   167  C   4.0    0.11    3.32    3.06    18.68561    85.80868   162.40872
   168  O   6.0   -0.26    1.12    1.80    19.39993    85.38349   160.23931
   169  C   4.0   -0.03    4.34    4.28    14.26932    85.21152   163.93562
   170  C   4.0   -0.06    4.19    3.97    13.48130    86.24898   161.42606
   171  C   4.0   -0.07    4.17    3.94    12.41739    83.24999   164.80678
   172  H   1.0    0.10    1.08    1.44    16.47463    83.38605   167.60546
   173  H   1.0    0.06    1.07    1.44    16.72785    82.31079   162.58257
   174  H   1.0    0.05    1.06    1.44    14.31089    86.76110   165.29244
   175  H   1.0    0.05    1.00    1.43    11.61426    87.10125   161.60936
   176  H   1.0    0.06    1.01    1.43    14.84758    87.67195   160.82891
   177  H   1.0    0.05    1.00    1.43    13.42272    84.71263   160.05412
   178  H   1.0    0.04    1.00    1.43    10.55034    84.10981   164.95607
   179  H   1.0    0.04    1.00    1.43    12.37582    81.71175   163.43673
   180  H   1.0    0.05    1.01    1.43    13.01076    82.53567   166.64548
   181  H   1.0    0.09    1.08    1.44    -3.74670    88.32833   173.70350
   182  H   1.0    0.06    1.05    1.44    -0.18455    86.04449   164.78636
   183  H   1.0    0.10    1.07    1.44     3.83819    93.49798   166.51943
   184  H   1.0    0.07    1.04    1.43     6.52603    90.79154   160.89040
   185  H   1.0    0.09    1.07    1.44    11.63649    69.94413   175.82985
   186  H   1.0    0.06    1.05    1.44     5.35757    69.76522   176.98792
   187  H   1.0    0.09    1.07    1.44    10.64867    81.49878   187.98902
   188  H   1.0    0.06    1.05    1.44    12.60153    88.59089   182.37748
   189  H   1.0    0.09    1.07    1.44    17.36393    85.47722   182.33473
   190  H   1.0    0.08    1.04    1.44    19.31535    87.34745   163.30686

  Z AO/shell   Hii/eV     exponent
  1     Wed Apr 25 08:07:45 CEST 2018   EN: 2.200 GM2: 0.406  GM3: 0.0800  RAES: 1.40
     1s    -10.707211    1.230000
  6     Wed Apr 25 08:07:45 CEST 2018   EN: 2.550 GM2: 0.538  GM3: 0.1500  RAES: 3.00
     2s    -13.970922    2.096432
     2p    -10.063292    1.800000
  7     Wed Apr 25 08:07:45 CEST 2018   EN: 3.040 GM2: 0.461  GM3:-0.0640  RAES: 1.90
     2s    -16.686243    2.339881
     2p    -12.523956    2.014332
  8     Wed Apr 25 08:07:45 CEST 2018   EN: 3.440 GM2: 0.452  GM3:-0.0517  RAES: 1.80
     2s    -20.229985    2.439742
     2p    -15.503117    2.137023
 16     Tue Apr 24 11:44:34 CEST 2018   EN: 2.580 GM2: 0.340  GM3:-0.0502  RAES: 3.10
     3s    -20.029654    1.981333
     3p    -11.377694    2.025643
     3d     -0.420282    1.702555
 no old-style atom pair restraining (fixing) potential

molecular fragmentation (1/2 indicates fragments):
111111111111111111111111111111112222222222222222222222222222222222222222
222222222222222222222222222222222222222222222222222222222222222222222222
2222222222222222222222222222222222221122222222
# atoms in fragment 1/2:    34   156
 fragment masses (1/2) :      268.33     1074.36
CMA distance (Bohr)    :  12.668
constraining FC (au)   :  0.0500
           ------------------------------------------------- 
          |        Self-Consistent Charge Iterations        |
           ------------------------------------------------- 

 Ncao       : 481
 Nao        : 478
 Nshell     : 284
 Nel        : 514
 T(el)      :   500.0
 intcut     :    35.0
 scfconv/Eh :  0.100E-06
   qconv/e  :  0.100E-04
 intneglect :  0.100E-08
 broydamp   :      0.400
 iter      E             dE          RMSdq      gap      omega  full diag
   1   -292.4167595 -0.292417E+03  0.481E+00    3.17       0.0  T
   2   -293.0765360 -0.659777E+00  0.233E+00    1.84       1.0  T
   3   -293.1104334 -0.338975E-01  0.126E+00    1.79       1.0  T
   4   -293.1631743 -0.527408E-01  0.290E-01    1.20       1.0  T
   5   -293.1658385 -0.266423E-02  0.140E-01    1.40       1.0  T
   6   -293.1664324 -0.593882E-03  0.620E-02    1.38       1.0  T
   7   -293.1665439 -0.111483E-03  0.309E-02    1.37       1.0  T
   8   -293.1665706 -0.266957E-04  0.143E-02    1.37       1.0  T
   9   -293.1665781 -0.753816E-05  0.678E-03    1.37       1.1  T
  10   -293.1665792 -0.113392E-05  0.295E-03    1.37       2.5  T
  11   -293.1665795 -0.249650E-06  0.129E-03    1.37       5.6  T
  12   -293.1665795 -0.389781E-07  0.540E-04    1.37      13.4  T
  13   -293.1665796 -0.123601E-07  0.271E-04    1.37      26.8  T
  14   -293.1665796 -0.208740E-08  0.932E-05    1.37      77.8  T
  15   -293.1665796 -0.362832E-09  0.408E-05    1.37     178.0  T
speedup  1.99
cpu  time for SCC    1.32 s
wall time for SCC    0.66 s

   *** convergence criteria satisfied after 15 iterations ***

          eigenvalues
 #    :         245        246        247        248        249        250        251        252
 occ. :        2.000      2.000      2.000      2.000      2.000      2.000      2.000      2.000
 eps  :       -10.991    -10.591    -10.471    -10.447    -10.396    -10.369    -10.331    -10.307
 #    :         253        254        255        256        257        258        259        260
 occ. :        2.000      2.000      2.000      2.000      2.000      0.000      0.000      0.000
 eps  :       -10.300    -10.100    -10.034     -9.895     -9.705     -8.334     -7.748     -7.711
 #    :         261        262        263        264        265        266        267        268
 occ. :        0.000      0.000      0.000      0.000      0.000      0.000      0.000      0.000
 eps  :        -7.704     -7.686     -6.619     -6.587     -6.496     -6.374     -6.284     -6.177


   #   Z            q   n(s)   n(p)   n(d)      C6AA      α(0)
   1   7 N     -0.392  1.329  4.063  0.000    30.154     8.155
   2   6 C      0.038  1.048  2.914  0.000    19.920     6.351
   3   6 C      0.282  1.037  2.680  0.000    22.220     7.720
   4   8 O     -0.489  1.752  4.737  0.000    23.548     6.506
   5   6 C     -0.001  1.071  2.930  0.000    20.598     6.462
   6  16 S     -0.405  1.914  4.438  0.053   158.951    21.220
   7   1 H      0.179  0.821  0.000  0.000     1.220     1.731
   8   1 H      0.059  0.941  0.000  0.000     2.207     2.323
   9   1 H      0.083  0.917  0.000  0.000     1.946     2.182
  10   1 H      0.061  0.939  0.000  0.000     2.182     2.310
  11   1 H      0.228  0.772  0.000  0.000     0.968     1.538
  12   7 N     -0.174  1.245  3.929  0.000    24.772     7.392
  13   6 C      0.030  1.058  2.912  0.000    20.073     6.381
  14   6 C      0.210  1.079  2.711  0.000    23.545     7.947
  15   8 O     -0.365  1.762  4.603  0.000    20.998     6.144
  16   6 C     -0.086  1.059  3.027  0.000    22.130     6.696
  17   6 C     -0.001  1.076  2.925  0.000    28.062     8.689
  18   6 C     -0.040  1.084  2.956  0.000    29.002     8.832
  19   6 C     -0.043  1.086  2.957  0.000    29.072     8.842
  20   6 C     -0.055  1.074  2.981  0.000    29.366     8.887
  21   6 C     -0.072  1.080  2.992  0.000    29.794     8.951
  22   6 C      0.147  1.046  2.807  0.000    24.807     8.163
  23   8 O     -0.452  1.735  4.718  0.000    21.891     6.316
  24   1 H      0.224  0.776  0.000  0.000     0.989     1.558
  25   1 H      0.072  0.928  0.000  0.000     2.060     2.244
  26   1 H      0.085  0.915  0.000  0.000     1.929     2.172
  27   1 H      0.077  0.923  0.000  0.000     2.005     2.214
  28   1 H      0.040  0.960  0.000  0.000     2.451     2.448
  29   1 H      0.053  0.947  0.000  0.000     2.277     2.360
  30   1 H      0.047  0.953  0.000  0.000     2.359     2.402
  31   1 H      0.049  0.951  0.000  0.000     2.332     2.388
  32   1 H      0.345  0.655  0.000  0.000     0.600     1.217
  33   7 N     -0.392  1.322  4.070  0.000    30.154     8.155
  34   6 C      0.046  1.051  2.903  0.000    19.823     6.342
  35   6 C      0.201  1.098  2.701  0.000    23.720     7.976
  36   8 O     -0.388  1.766  4.622  0.000    21.445     6.209
  37   6 C     -0.109  1.042  3.066  0.000    22.633     6.783
  38   1 H      0.179  0.821  0.000  0.000     1.222     1.732
  39   1 H      0.044  0.956  0.000  0.000     2.396     2.421
  40   1 H      0.034  0.966  0.000  0.000     2.526     2.485
  41   1 H      0.052  0.948  0.000  0.000     2.293     2.368
  42   1 H      0.058  0.942  0.000  0.000     2.222     2.331
  43   7 N     -0.396  1.325  4.071  0.000    30.257     8.169
  44   6 C      0.042  1.050  2.909  0.000    19.892     6.353
  45   6 C      0.201  1.092  2.707  0.000    23.718     7.976
  46   8 O     -0.383  1.756  4.628  0.000    21.354     6.196
  47   6 C     -0.114  1.044  3.071  0.000    22.745     6.800
  48   1 H      0.168  0.832  0.000  0.000     1.283     1.774
  49   1 H      0.054  0.946  0.000  0.000     2.276     2.359
  50   1 H      0.056  0.944  0.000  0.000     2.244     2.343
  51   1 H      0.058  0.942  0.000  0.000     2.220     2.330
  52   1 H      0.059  0.941  0.000  0.000     2.211     2.325
  53   7 N     -0.395  1.321  4.073  0.000    30.229     8.166
  54   6 C      0.027  1.059  2.914  0.000    20.131     6.389
  55   6 C      0.273  1.048  2.678  0.000    22.378     7.746
  56   8 O     -0.506  1.743  4.762  0.000    23.910     6.556
  57   6 C     -0.029  1.060  2.970  0.000    21.057     6.526
  58   6 C     -0.060  1.048  3.012  0.000    21.645     6.622
  59   6 C     -0.118  1.038  3.081  0.000    22.810     6.807
  60   6 C     -0.115  1.040  3.075  0.000    22.759     6.803
  61   1 H      0.175  0.825  0.000  0.000     1.244     1.747
  62   1 H      0.033  0.967  0.000  0.000     2.547     2.496
  63   1 H      0.052  0.948  0.000  0.000     2.297     2.370
  64   1 H      0.032  0.968  0.000  0.000     2.559     2.502
  65   1 H      0.035  0.965  0.000  0.000     2.517     2.481
  66   1 H      0.065  0.935  0.000  0.000     2.143     2.289
  67   1 H      0.036  0.964  0.000  0.000     2.503     2.474
  68   1 H      0.037  0.963  0.000  0.000     2.489     2.467
  69   1 H      0.038  0.962  0.000  0.000     2.475     2.460
  70   1 H      0.048  0.952  0.000  0.000     2.342     2.393
  71   1 H      0.046  0.954  0.000  0.000     2.376     2.410
  72   7 N     -0.164  1.244  3.920  0.000    24.547     7.358
  73   6 C      0.030  1.052  2.918  0.000    20.080     6.381
  74   6 C      0.211  1.086  2.703  0.000    23.533     7.945
  75   8 O     -0.375  1.754  4.621  0.000    21.188     6.171
  76   6 C     -0.081  1.049  3.032  0.000    22.029     6.679
  77   6 C     -0.082  1.046  3.036  0.000    22.050     6.684
  78   6 C     -0.093  1.046  3.047  0.000    22.266     6.716
  79   6 C     -0.053  1.057  2.996  0.000    21.616     6.634
  80   7 N     -0.149  1.235  3.915  0.000    24.223     7.310
  81   1 H      0.237  0.763  0.000  0.000     0.934     1.514
  82   1 H      0.062  0.938  0.000  0.000     2.178     2.308
  83   1 H      0.068  0.932  0.000  0.000     2.111     2.272
  84   1 H      0.065  0.935  0.000  0.000     2.137     2.286
  85   1 H      0.075  0.925  0.000  0.000     2.030     2.228
  86   1 H      0.076  0.924  0.000  0.000     2.021     2.223
  87   1 H      0.082  0.918  0.000  0.000     1.959     2.189
  88   1 H      0.075  0.925  0.000  0.000     2.031     2.229
  89   1 H      0.123  0.877  0.000  0.000     1.593     1.974
  90   1 H      0.128  0.872  0.000  0.000     1.551     1.947
  91   1 H      0.309  0.691  0.000  0.000     0.689     1.300
  92   1 H      0.298  0.702  0.000  0.000     0.720     1.329
  93   1 H      0.296  0.704  0.000  0.000     0.727     1.336
  94   7 N     -0.394  1.326  4.068  0.000    30.201     8.162
  95   6 C      0.044  1.049  2.906  0.000    19.838     6.343
  96   6 C      0.280  1.041  2.678  0.000    22.256     7.726
  97   8 O     -0.535  1.749  4.785  0.000    24.564     6.645
  98   6 C     -0.079  1.055  3.024  0.000    21.986     6.673
  99   6 C      0.006  1.082  2.912  0.000    27.888     8.662
 100   6 C     -0.041  1.080  2.961  0.000    29.016     8.834
 101   6 C     -0.041  1.079  2.962  0.000    29.028     8.836
 102   6 C     -0.034  1.081  2.953  0.000    28.838     8.806
 103   6 C     -0.034  1.078  2.957  0.000    28.858     8.809
 104   6 C     -0.038  1.080  2.957  0.000    28.938     8.822
 105   1 H      0.165  0.835  0.000  0.000     1.303     1.788
 106   1 H      0.021  0.979  0.000  0.000     2.720     2.579
 107   1 H      0.052  0.948  0.000  0.000     2.301     2.372
 108   1 H      0.068  0.932  0.000  0.000     2.105     2.269
 109   1 H      0.034  0.966  0.000  0.000     2.527     2.486
 110   1 H      0.028  0.972  0.000  0.000     2.616     2.529
 111   1 H      0.038  0.962  0.000  0.000     2.470     2.458
 112   1 H      0.036  0.964  0.000  0.000     2.499     2.472
 113   1 H      0.039  0.961  0.000  0.000     2.462     2.454
 114   7 N     -0.179  1.248  3.931  0.000    24.872     7.407
 115   6 C      0.021  1.059  2.921  0.000    20.227     6.403
 116   6 C      0.280  1.043  2.677  0.000    22.254     7.725
 117   8 O     -0.501  1.743  4.758  0.000    23.805     6.542
 118   6 C      0.112  1.042  2.846  0.000    18.821     6.191
 119   8 O     -0.462  1.716  4.746  0.000    22.085     6.344
 120   6 C     -0.118  1.038  3.080  0.000    22.820     6.811
 121   1 H      0.246  0.754  0.000  0.000     0.900     1.486
 122   1 H      0.067  0.933  0.000  0.000     2.119     2.276
 123   1 H      0.036  0.964  0.000  0.000     2.500     2.473
 124   1 H      0.320  0.680  0.000  0.000     0.665     1.281
 125   1 H      0.074  0.926  0.000  0.000     2.042     2.235
 126   1 H      0.032  0.968  0.000  0.000     2.560     2.502
 127   1 H      0.064  0.936  0.000  0.000     2.149     2.292
 128   7 N     -0.200  1.257  3.943  0.000    25.338     7.476
 129   6 C      0.027  1.063  2.910  0.000    20.134     6.390
 130   6 C      0.294  1.031  2.675  0.000    22.021     7.685
 131   8 O     -0.500  1.747  4.753  0.000    23.781     6.538
 132   6 C     -0.056  1.047  3.008  0.000    21.568     6.611
 133   6 C     -0.089  1.061  3.027  0.000    22.188     6.706
 134   6 C      0.368  1.024  2.608  0.000    20.764     7.457
 135   8 O     -0.646  1.775  4.871  0.000    27.267     7.001
 136   8 O     -0.645  1.767  4.878  0.000    27.255     6.999
 137   1 H      0.233  0.767  0.000  0.000     0.952     1.529
 138   1 H      0.060  0.940  0.000  0.000     2.200     2.320
 139   1 H      0.055  0.945  0.000  0.000     2.262     2.352
 140   1 H      0.035  0.965  0.000  0.000     2.517     2.481
 141   1 H      0.028  0.972  0.000  0.000     2.616     2.529
 142   1 H      0.036  0.964  0.000  0.000     2.500     2.473
 143   7 N     -0.170  1.235  3.935  0.000    24.676     7.378
 144   6 C      0.038  1.053  2.909  0.000    19.895     6.344
 145   6 C      0.285  1.032  2.684  0.000    22.181     7.713
 146   8 O     -0.489  1.753  4.736  0.000    23.550     6.506
 147   6 C      0.015  1.052  2.933  0.000    20.316     6.416
 148  16 S     -0.395  1.902  4.445  0.048   158.505    21.190
 149   1 H      0.201  0.799  0.000  0.000     1.099     1.642
 150   1 H      0.075  0.925  0.000  0.000     2.028     2.227
 151   1 H      0.061  0.939  0.000  0.000     2.188     2.313
 152   1 H      0.063  0.937  0.000  0.000     2.165     2.301
 153   1 H      0.282  0.718  0.000  0.000     0.764     1.367
 154   7 N     -0.175  1.244  3.931  0.000    24.784     7.394
 155   6 C      0.040  1.051  2.909  0.000    19.883     6.344
 156   6 C      0.295  1.031  2.674  0.000    22.003     7.682
 157   8 O     -0.494  1.758  4.736  0.000    23.649     6.520
 158   6 C      0.006  1.062  2.931  0.000    20.473     6.442
 159  16 S     -0.395  1.913  4.434  0.048   158.492    21.189
 160   1 H      0.225  0.775  0.000  0.000     0.986     1.555
 161   1 H      0.067  0.933  0.000  0.000     2.118     2.276
 162   1 H      0.068  0.932  0.000  0.000     2.105     2.269
 163   1 H      0.066  0.934  0.000  0.000     2.129     2.282
 164   1 H      0.290  0.710  0.000  0.000     0.740     1.345
 165   7 N     -0.174  1.244  3.930  0.000    24.758     7.390
 166   6 C      0.030  1.057  2.913  0.000    20.058     6.375
 167   6 C      0.220  1.078  2.702  0.000    23.355     7.915
 168   8 O     -0.369  1.752  4.616  0.000    21.064     6.153
 169   6 C     -0.012  1.048  2.964  0.000    20.751     6.478
 170   6 C     -0.116  1.040  3.076  0.000    22.767     6.801
 171   6 C     -0.122  1.044  3.078  0.000    22.877     6.817
 172   1 H      0.224  0.776  0.000  0.000     0.991     1.559
 173   1 H      0.086  0.914  0.000  0.000     1.920     2.167
 174   1 H      0.037  0.963  0.000  0.000     2.486     2.466
 175   1 H      0.061  0.939  0.000  0.000     2.190     2.314
 176   1 H      0.030  0.970  0.000  0.000     2.582     2.513
 177   1 H      0.062  0.938  0.000  0.000     2.173     2.305
 178   1 H      0.064  0.936  0.000  0.000     2.150     2.293
 179   1 H      0.065  0.935  0.000  0.000     2.147     2.291
 180   1 H      0.049  0.951  0.000  0.000     2.337     2.391
 181   1 H      0.199  0.801  0.000  0.000     1.109     1.650
 182   1 H      0.077  0.923  0.000  0.000     2.006     2.215
 183   1 H      0.182  0.818  0.000  0.000     1.204     1.719
 184   1 H      0.081  0.919  0.000  0.000     1.964     2.192
 185   1 H      0.177  0.823  0.000  0.000     1.228     1.736
 186   1 H      0.077  0.923  0.000  0.000     2.009     2.216
 187   1 H      0.174  0.826  0.000  0.000     1.248     1.750
 188   1 H      0.081  0.919  0.000  0.000     1.966     2.192
 189   1 H      0.180  0.820  0.000  0.000     1.214     1.726
 190   1 H      0.053  0.947  0.000  0.000     2.279     2.361

 Mol. C6AA /au·bohr⁶  :     357833.906137
 Mol. C8AA /au·bohr⁸  :    8452946.684735
 Mol. α(0) /au        :        907.805823

 
molecular dipole:
                 x           y           z       tot (Debye)
 q only:      -21.616      -3.000      22.451
   full:      -21.104      -3.098      24.924      83.385
molecular quadrupole (traceless):
                xx          xy          yy          xz          yz          zz
 q only:    -4109.979   -2985.450   -4260.007   -5385.433    2306.652    8369.986
  q+dip:    -4506.987   -2934.951   -4718.048   -5198.199    2586.641    9225.035
   full:    -4507.090   -2932.879   -4714.959   -5199.761    2584.827    9222.049
speedup  1.99
cpu  time for grad    1.75 s
wall time for grad    0.88 s

SCC energy    :    -293.1764812
rep           :       3.7201036
ES            :       0.9421023
AES           :      -0.0226062
AXC           :       0.1140599
disp          :      -0.2247182
XB            :       0.0000000
fix           :       0.0000000
Gborn         :       0.0000000
Gsasa         :       0.0000000
Ghb           :       0.0000000
Gshift        :       0.0000000
Gsolv         :      -0.2908440     -182.51
Etot ala COSMO:    -293.1764812
grad norm     :       0.5824485
total E       :    -289.4407327
atomizationE  :      52.1506441    32725.02
(atE without considering molecular charge,
 total energy contains solvation terms)
H-L gap (eV)  :          1.3711

------------------------------------------------------------------------
 * finished run on 2019/05/05 at 12:29:13.175     
------------------------------------------------------------------------
 total:
 * wall-time:     0 d,  0 h,  0 min,  1.227 sec
 *  cpu-time:     0 d,  0 h,  0 min,  2.130 sec
 * ratio c/w:     1.736 speedup
 SCF:
 * wall-time:     0 d,  0 h,  0 min,  0.964 sec
 *  cpu-time:     0 d,  0 h,  0 min,  1.921 sec
 * ratio c/w:     1.994 speedup

