      -----------------------------------------------------------      
     |                   =====================                   |     
     |                           x T B                           |     
     |                   =====================                   |     
     |                         S. Grimme                         |     
     |          Mulliken Center for Theoretical Chemistry        |     
     |                    University of Bonn                     |     
     |                 Version 6.0.1 (SAW181210)                 |     
      -----------------------------------------------------------      

   This program is distributed in the hope that it will be useful,
   but WITHOUT ANY WARRANTY; without even the implied warranty of
   MERCHANTABILITY or FITNESS FOR A PARTICULAR PURPOSE.
   
   FOR NON-COMMERCIAL, ACADEMIA USE ONLY.
   
   Cite this work as:
   S. Grimme, C. Bannwarth, P. Shushkov, J. Comput. Theory Chem., 2017,
   13, 1989-2009.
   C. Bannwarth, S. Ehlert and S. Grimme., ChemRxiv, 2018, preprint.
   http://doi.org/10.26434/chemrxiv.7246238.v1
   
   for sTDA-xTB:
   S. Grimme and C. Bannwarth, J. Chem. Phys., 2016, 145, 054103.
   
   in the mass-spec context:
   V. Asgeirsson, C. Bauer and S. Grimme, Chem. Sci., 2017, 8, 4879.
   
   if GBSA is used:
   P. Shushkov, F. März and S. Grimme, unpublished.
   
   for ANC optimizer:
   S. Grimme, unpublished.
   Rational Function algorithm used in ANCopt:
   F. Eckert, P. Pulay, H.-J. Werner, J. Comput. Chem., 1997, 18, 1473.
   
   with help from (in alphabetical order)
   C. Bannwarth, F. Bohle, G. Brandenburg, E. Caldeweyher, M. Checinski,
   S. Dohm, S. Ehlert, S. Ehrlich, F. März, H. Neugebauer, J. Pisarek,
   P. Pracht, P. Shushkov, and S. Spicher.
   
 * started run on 2019/05/11 at 08:42:22.381     
========================================================================
 # omp threads = 2
========================================================================
number of atoms            : 260
number of electrons        : 678
charge                     : 0
spin                       : .0
first test random number   : .8169

########################################################################
# WARNING! Please study the warnings concerning your input carefully
#  - Process number higher than OMP_NUM_THREADS, I hope you know what you are doing.
########################################################################

           ------------------------------------------------- 
          |                 G F N 2 - x T B                 |
          | Geometry, Frequencies, Noncovalent interactions |
          |            JCTC 2018 parametrisation            |
           ------------------------------------------------- 
 
      method parameters     
 k(s)        :  1.8500
 k(p)        :  2.2300
 k(d)        :  2.2300
 k(f)        :  2.0000
 kEN (H0ij)  : -2.0000
 D4 a1       :  0.5200
 D4 a2       :  5.0000
 D4 s6       :  1.0000
 D4 s8       :  2.7000
 D4 s9       :  5.0000
 alphaj      :  2.0000

 Solvent             : h2o
 Using internal parameter file: .param_gbsa2_h2o
 Gsolv ref. state (COSMO-RS): gsolv [1 M gas/solution]
 temperature (mdtemp)       :    298.150000000000     
 dielectric constant        :    80.2000000000000     
 rho                        :    1.00000000000000     
 mass                       :    18.0000000000000     
 surface tension            :    15.5689454083859     
 probe radius               :   0.975313790000000     
 vdW radii scaling          :    1.00000000000000     
 Gshift (Eh)                :   1.857443126794793E-003
 c1                         :    1.55243817000000     
 soset                      :   0.130326360000000     
 HB correction              :  T

            Z     q(EN)     CN     RAES       Cart. coordinates
     1  N   5.0   -0.20    3.21    1.96    61.84924   -11.59782   -40.34133
     2  C   4.0    0.03    4.23    4.06    61.33839    -9.70386   -42.28466
     3  C   4.0    0.14    3.40    3.08    63.64482    -7.94589   -42.34979
     4  O   6.0   -0.30    1.21    1.80    65.52376    -8.47042   -43.58496
     5  C   4.0   -0.08    4.13    3.86    58.83070    -8.37647   -41.76071
     6  H   1.0    0.10    1.03    1.43    63.50449   -11.46355   -39.40797
     7  H   1.0    0.05    1.05    1.44    61.26090   -10.68065   -44.11440
     8  H   1.0    0.04    1.00    1.43    58.59921    -6.78998   -43.04001
     9  H   1.0    0.04    1.00    1.43    57.30909    -9.72243   -42.04674
    10  H   1.0    0.04    1.00    1.43    58.74252    -7.73198   -39.81162
    11  N   5.0   -0.14    3.56    2.12    63.42785    -5.85045   -40.95248
    12  C   4.0    0.03    4.42    4.41    65.47380    -4.11337   -40.48533
    13  C   4.0    0.15    3.46    3.10    66.17713    -4.37762   -37.70086
    14  O   6.0   -0.30    1.28    1.80    64.82313    -5.54806   -36.22996
    15  C   4.0   -0.05    4.35    4.29    64.63791    -1.38914   -41.04332
    16  C   4.0   -0.02    4.20    4.00    63.29834    -1.14655   -43.60115
    17  C   4.0   -0.08    4.10    3.80    62.27025     1.53013   -43.92235
    18  C   4.0   -0.07    4.11    3.82    65.07028    -1.81319   -45.77618
    19  H   1.0    0.08    1.08    1.44    61.87721    -5.58665   -39.87582
    20  H   1.0    0.05    1.06    1.44    67.04547    -4.65681   -41.71006
    21  H   1.0    0.05    1.03    1.43    63.35404    -0.78377   -39.54296
    22  H   1.0    0.04    1.03    1.43    66.28674    -0.15443   -41.02691
    23  H   1.0    0.04    1.06    1.44    61.70465    -2.46707   -43.62538
    24  H   1.0    0.04    1.00    1.43    61.23522     1.68707   -45.69000
    25  H   1.0    0.04    1.00    1.43    61.00150     2.01737   -42.38091
    26  H   1.0    0.04    1.00    1.43    63.81135     2.88819   -43.95845
    27  H   1.0    0.04    1.00    1.43    64.11802    -1.53254   -47.57479
    28  H   1.0    0.05    1.00    1.43    66.74806    -0.62537   -45.74181
    29  H   1.0    0.06    1.00    1.43    65.66479    -3.77700   -45.67839
    30  N   5.0   -0.15    3.50    2.07    68.33580    -3.28491   -36.96461
    31  C   4.0    0.03    4.45    4.46    68.91020    -3.13600   -34.27294
    32  C   4.0    0.16    3.43    3.09    67.11430    -1.08886   -33.24490
    33  O   6.0   -0.28    1.22    1.80    67.42326     1.15024   -33.66723
    34  C   4.0   -0.04    4.23    4.06    71.71633    -2.62885   -33.86343
    35  C   4.0   -0.05    4.21    4.03    73.29351    -4.60946   -35.28364
    36  C   4.0   -0.05    4.15    3.91    75.76207    -5.29207   -33.94058
    37  C   4.0   -0.04    4.13    3.86    77.20292    -7.23408   -35.51654
    38  N   5.0   -0.12    4.01    2.88    79.47451    -8.20612   -34.16615
    39  H   1.0    0.08    1.06    1.44    69.33283    -2.18053   -38.15688
    40  H   1.0    0.05    1.06    1.44    68.40190    -4.96964   -33.45939
    41  H   1.0    0.06    1.02    1.43    72.15584    -0.72272   -34.50964
    42  H   1.0    0.04    1.03    1.43    72.09489    -2.72000   -31.84042
    43  H   1.0    0.04    1.03    1.43    72.16315    -6.32229   -35.48295
    44  H   1.0    0.04    1.03    1.43    73.70680    -3.89880   -37.17055
    45  H   1.0    0.04    1.02    1.43    76.88254    -3.58359   -33.68659
    46  H   1.0    0.04    1.03    1.43    75.30857    -6.07766   -32.09034
    47  H   1.0    0.04    1.02    1.43    75.96587    -8.82700   -35.94462
    48  H   1.0    0.04    1.02    1.43    77.81053    -6.36678   -37.28282
    49  H   1.0    0.05    1.02    1.43    80.43901    -9.47335   -35.28801
    50  H   1.0    0.05    1.02    1.43    80.67439    -6.73921   -33.71436
    51  H   1.0    0.05    1.02    1.43    78.94736    -9.10654   -32.52050
    52  N   5.0   -0.13    3.38    2.01    65.06807    -2.02807   -32.04990
    53  C   4.0    0.01    4.23    4.07    63.03949    -0.42409   -31.15393
    54  C   4.0    0.15    3.36    3.07    63.80130     0.84168   -28.68021
    55  O   6.0   -0.31    1.33    1.80    65.94300     1.64753   -28.37364
    56  H   1.0    0.08    1.06    1.44    64.81921    -3.91448   -31.92969
    57  H   1.0    0.06    1.03    1.43    62.77371     1.10761   -32.52665
    58  H   1.0    0.04    1.02    1.43    61.31160    -1.52264   -30.96693
    59  N   5.0   -0.16    3.43    2.03    62.03687     0.95565   -26.84760
    60  C   4.0    0.04    4.44    4.44    62.48419     2.41995   -24.57393
    61  C   4.0    0.15    3.47    3.10    64.37653     1.24781   -22.71068
    62  O   6.0   -0.29    1.27    1.80    64.78463     2.25422   -20.66896
    63  C   4.0   -0.03    4.30    4.19    60.06045     3.21159   -23.22503
    64  C   4.0    0.16    3.24    3.04    60.55632     5.59121   -21.65355
    65  O   6.0   -0.30    1.23    1.80    62.28750     7.04239   -22.12476
    66  N   5.0   -0.19    3.18    1.95    58.85336     6.01089   -19.82827
    67  H   1.0    0.07    1.06    1.44    60.29170     0.23113   -27.11183
    68  H   1.0    0.07    1.07    1.44    63.46889     4.17292   -25.13691
    69  H   1.0    0.04    1.03    1.43    58.61867     3.70498   -24.61585
    70  H   1.0    0.04    1.03    1.43    59.35987     1.70706   -22.00782
    71  H   1.0    0.10    1.03    1.43    59.07914     7.51569   -18.68368
    72  H   1.0    0.08    1.03    1.43    57.46109     4.78002   -19.42764
    73  N   5.0   -0.14    3.54    2.11    65.68792    -0.77124   -23.50981
    74  C   4.0    0.03    4.51    4.55    68.13961    -1.29002   -22.39753
    75  C   4.0    0.16    3.51    3.12    69.73083     1.13816   -22.46703
    76  O   6.0   -0.32    1.34    1.80    71.25124     1.62306   -20.78400
    77  C   4.0   -0.03    4.26    4.11    69.51681    -3.44576   -23.77894
    78  C   4.0   -0.08    4.12    3.85    71.92519    -4.13560   -22.34335
    79  C   4.0   -0.08    4.12    3.84    67.83524    -5.78218   -24.01698
    80  H   1.0    0.08    1.09    1.44    65.30076    -1.57606   -25.19110
    81  H   1.0    0.05    1.05    1.44    67.87710    -1.76853   -20.39882
    82  H   1.0    0.04    1.05    1.44    70.01930    -2.74304   -25.65938
    83  H   1.0    0.04    1.00    1.43    73.05425    -5.45412   -23.43629
    84  H   1.0    0.05    1.00    1.43    73.05382    -2.46661   -21.94913
    85  H   1.0    0.04    1.00    1.43    71.44234    -5.02077   -20.55270
    86  H   1.0    0.04    1.00    1.43    68.95509    -7.35511   -24.71203
    87  H   1.0    0.04    1.00    1.43    67.07418    -6.29597   -22.17986
    88  H   1.0    0.04    1.00    1.43    66.27196    -5.47966   -25.31085
    89  N   5.0   -0.14    3.52    2.09    69.37554     2.62326   -24.46958
    90  C   4.0    0.03    4.41    4.40    70.55800     5.08274   -24.75827
    91  C   4.0    0.16    3.53    3.13    70.98654     6.33013   -22.19496
    92  O   6.0   -0.32    1.27    1.80    73.08314     7.06747   -21.54533
    93  C   4.0   -0.04    4.37    4.32    68.86903     6.76710   -26.40550
    94  C   4.0   -0.02    4.18    3.96    69.93428     9.42670   -26.86083
    95  C   4.0   -0.08    4.10    3.80    72.35311     9.34912   -28.43448
    96  C   4.0   -0.07    4.10    3.80    67.93926    11.04728   -28.18326
    97  H   1.0    0.11    1.13    1.45    68.15018     2.14934   -25.88347
    98  H   1.0    0.05    1.05    1.44    72.42226     4.85630   -25.63562
    99  H   1.0    0.06    1.03    1.43    68.58311     5.82244   -28.21790
   100  H   1.0    0.05    1.03    1.43    67.03616     6.95149   -25.46964
   101  H   1.0    0.04    1.05    1.44    70.35194    10.28130   -25.01935
   102  H   1.0    0.04    1.00    1.43    72.90579    11.25790   -28.95412
   103  H   1.0    0.04    1.00    1.43    73.89402     8.51482   -27.36542
   104  H   1.0    0.04    1.00    1.43    72.05061     8.26267   -30.15125
   105  H   1.0    0.04    1.00    1.43    68.64888    12.95034   -28.49444
   106  H   1.0    0.04    1.00    1.43    67.44180    10.23195   -30.00210
   107  H   1.0    0.05    1.00    1.43    66.24088    11.18675   -27.03296
   108  N   5.0   -0.14    3.51    2.08    68.90740     6.68666   -20.79795
   109  C   4.0    0.04    4.46    4.48    69.00801     8.17803   -18.50652
   110  C   4.0    0.17    3.49    3.11    70.68230     6.93181   -16.51899
   111  O   6.0   -0.30    1.28    1.80    72.21929     8.12560   -15.26256
   112  C   4.0   -0.02    4.28    4.15    66.40112     8.58902   -17.38861
   113  C   4.0    0.26    3.14    3.03    66.70584    10.45986   -15.10401
   114  O   6.0   -0.27    1.16    1.80    66.34569     9.55603   -12.96364
   115  O   6.0   -0.28    1.17    1.80    67.29276    12.66839   -15.65079
   116  H   1.0    0.10    1.07    1.44    67.20380     6.00391   -21.32469
   117  H   1.0    0.06    1.06    1.44    69.85242    10.02821   -18.92869
   118  H   1.0    0.06    1.02    1.43    65.15156     9.43119   -18.79516
   119  H   1.0    0.06    1.02    1.43    65.60723     6.81149   -16.71389
   120  N   5.0   -0.13    3.54    2.10    70.32679     4.44945   -16.27054
   121  C   4.0    0.04    4.41    4.40    71.76341     2.90538   -14.51881
   122  C   4.0    0.16    3.47    3.10    74.60026     3.25038   -14.99778
   123  O   6.0   -0.31    1.25    1.80    76.12085     3.52412   -13.27043
   124  C   4.0   -0.05    4.37    4.33    70.97121     0.15107   -14.88430
   125  C   4.0   -0.02    4.18    3.96    72.28310    -1.73079   -13.11671
   126  C   4.0   -0.07    4.10    3.80    71.39331    -1.39678   -10.39281
   127  C   4.0   -0.08    4.10    3.81    71.73794    -4.41605   -14.02881
   128  H   1.0    0.10    1.08    1.44    69.05623     3.58322   -17.39946
   129  H   1.0    0.05    1.05    1.44    71.39197     3.56650   -12.58919
   130  H   1.0    0.04    1.03    1.43    68.92883     0.04106   -14.59825
   131  H   1.0    0.06    1.04    1.43    71.39028    -0.33055   -16.84541
   132  H   1.0    0.05    1.05    1.44    74.32217    -1.38716   -13.19360
   133  H   1.0    0.04    1.00    1.43    72.23039    -2.83297    -9.18734
   134  H   1.0    0.05    1.00    1.43    71.94007     0.44478    -9.66372
   135  H   1.0    0.04    1.00    1.43    69.34660    -1.55583   -10.28007
   136  H   1.0    0.04    1.00    1.43    72.64799    -5.78611   -12.80164
   137  H   1.0    0.04    1.00    1.43    69.71297    -4.76369   -14.01070
   138  H   1.0    0.04    1.00    1.43    72.44642    -4.67386   -15.93823
   139  N   5.0   -0.14    3.52    2.09    75.27300     3.10961   -17.42266
   140  C   4.0    0.04    4.34    4.28    77.87188     3.44581   -18.22371
   141  C   4.0    0.16    3.49    3.11    78.81972     6.05964   -17.43057
   142  O   6.0   -0.29    1.28    1.80    80.79793     6.32126   -16.24729
   143  C   4.0   -0.07    4.11    3.82    78.08452     3.07918   -21.06739
   144  H   1.0    0.11    1.11    1.44    73.93390     2.89003   -18.77652
   145  H   1.0    0.05    1.05    1.44    79.05748     2.06997   -17.21824
   146  H   1.0    0.04    1.00    1.43    80.03536     3.30076   -21.66908
   147  H   1.0    0.04    1.00    1.43    77.44944     1.19275   -21.57147
   148  H   1.0    0.06    1.00    1.43    76.91311     4.46417   -22.03057
   149  N   5.0   -0.14    3.52    2.09    77.38444     8.00477   -18.13064
   150  C   4.0    0.04    4.52    4.57    78.06786    10.54624   -17.37315
   151  C   4.0    0.17    3.57    3.15    78.69987    10.54803   -14.55749
   152  O   6.0   -0.27    1.25    1.80    80.60763    11.57943   -13.72646
   153  C   4.0   -0.02    4.34    4.27    75.94888    12.44972   -17.95417
   154  C   4.0   -0.05    4.19    3.98    75.62627    12.72850   -20.81935
   155  C   4.0   -0.07    4.14    3.89    76.54549    14.99423   -16.72987
   156  C   4.0   -0.07    4.01    3.65    73.32781    14.30267   -21.54899
   157  H   1.0    0.11    1.09    1.44    75.73255     7.73331   -19.06137
   158  H   1.0    0.06    1.05    1.44    79.80363    11.10382   -18.37300
   159  H   1.0    0.06    1.06    1.44    74.19872    11.70626   -17.13480
   160  H   1.0    0.04    1.03    1.43    77.31935    13.61327   -21.58829
   161  H   1.0    0.06    1.03    1.43    75.42349    10.85550   -21.65431
   162  H   1.0    0.05    1.00    1.43    74.99917    16.30619   -17.03524
   163  H   1.0    0.06    1.01    1.43    76.79309    14.78551   -14.70086
   164  H   1.0    0.05    1.00    1.43    78.26884    15.78076   -17.52697
   165  H   1.0    0.04    1.00    1.43    73.00736    14.19311   -23.57501
   166  H   1.0    0.05    1.00    1.43    71.64932    13.61239   -20.57839
   167  H   1.0    0.04    1.00    1.43    73.59311    16.27432   -21.04944
   168  N   5.0   -0.13    3.52    2.09    77.02922     9.39647   -13.07073
   169  C   4.0    0.04    4.35    4.29    77.31015     9.43195   -10.34917
   170  C   4.0    0.17    3.49    3.11    79.95856     8.55520    -9.59523
   171  O   6.0   -0.27    1.25    1.80    81.26453     9.82179    -8.15656
   172  C   4.0   -0.06    4.11    3.82    75.28691     7.79564    -9.12344
   173  H   1.0    0.12    1.10    1.44    75.38336     8.72484   -13.78210
   174  H   1.0    0.06    1.05    1.44    77.15008    11.39088    -9.66682
   175  H   1.0    0.05    1.00    1.43    75.55765     7.73498    -7.08933
   176  H   1.0    0.06    1.00    1.43    73.42800     8.57491    -9.53602
   177  H   1.0    0.07    1.01    1.43    75.38571     5.89178    -9.88635
   178  N   5.0   -0.13    3.45    2.04    80.72662     6.32352   -10.48159
   179  C   4.0    0.04    4.42    4.41    83.14595     5.34166    -9.63248
   180  C   4.0    0.10    3.25    3.04    85.33295     7.02526   -10.51206
   181  O   6.0   -0.27    1.11    1.80    87.04797     7.58712    -9.05617
   182  C   4.0   -0.02    4.24    4.08    83.53475     2.55032   -10.35675
   183  C   4.0   -0.07    4.11    3.83    84.15490     2.19056   -13.14814
   184  C   4.0   -0.07    4.11    3.82    85.61853     1.39846    -8.71799
   185  H   1.0    0.11    1.07    1.44    79.62802     5.31554   -11.67839
   186  H   1.0    0.06    1.06    1.44    83.16617     5.49057    -7.55952
   187  H   1.0    0.05    1.06    1.44    81.74299     1.59648    -9.94704
   188  H   1.0    0.04    1.00    1.43    84.21940     0.18800   -13.59248
   189  H   1.0    0.07    1.01    1.43    82.73868     3.08569   -14.33371
   190  H   1.0    0.05    1.00    1.43    85.99351     2.99280   -13.59057
   191  H   1.0    0.05    1.00    1.43    86.02561    -0.51282    -9.34811
   192  H   1.0    0.06    1.00    1.43    87.33626     2.51480    -8.87568
   193  H   1.0    0.05    1.00    1.43    85.05883     1.34605    -6.74301
   194  N   5.0   -0.21    3.20    1.96    77.02922   -13.07073    -9.39647
   195  C   4.0    0.03    4.14    3.89    77.31015   -10.34917    -9.43195
   196  C   4.0    0.08    3.20    3.04    79.95856    -9.59523    -8.55520
   197  O   6.0   -0.29    1.11    1.80    81.26453    -8.15656    -9.82179
   198  C   4.0   -0.08    4.10    3.80    75.28691    -9.12344    -7.79564
   199  H   1.0    0.08    1.03    1.43    75.38336   -13.78210    -8.72484
   200  H   1.0    0.05    1.05    1.44    77.15008    -9.66682   -11.39088
   201  H   1.0    0.04    1.00    1.43    75.55765    -7.08933    -7.73498
   202  H   1.0    0.04    1.00    1.43    73.42800    -9.53602    -8.57491
   203  H   1.0    0.04    1.00    1.43    75.38571    -9.88635    -5.89178
   204  N   5.0   -0.21    3.21    1.96    82.89465    10.63594   -37.09059
   205  C   4.0    0.03    4.30    4.20    80.28895     9.88095   -37.43482
   206  C   4.0    0.08    3.24    3.04    79.49936    10.21817   -40.18455
   207  O   6.0   -0.31    1.17    1.80    78.52519     8.49247   -41.38988
   208  C   4.0   -0.03    4.26    4.12    78.53781    11.38105   -35.66288
   209  C   4.0   -0.07    4.13    3.86    75.76800    10.93067   -36.34295
   210  C   4.0   -0.08    4.11    3.83    79.01899    10.62434   -32.92099
   211  H   1.0    0.08    1.03    1.43    83.29076    11.92623   -35.73001
   212  H   1.0    0.05    1.05    1.44    80.11673     7.84446   -37.04832
   213  H   1.0    0.04    1.05    1.44    78.98992    13.38634   -35.90124
   214  H   1.0    0.04    1.00    1.43    74.54773    11.87402   -34.98714
   215  H   1.0    0.05    1.00    1.43    75.33855    11.64515   -38.21939
   216  H   1.0    0.05    1.00    1.43    75.35487     8.91649   -36.31949
   217  H   1.0    0.04    1.00    1.43    77.77268    11.67543   -31.67208
   218  H   1.0    0.04    1.00    1.43    78.65458     8.61840   -32.66305
   219  H   1.0    0.04    1.00    1.43    80.95886    11.02646   -32.38694
   220  N   5.0   -0.21    3.21    1.96    77.53875     4.37372   -44.70572
   221  C   4.0    0.04    4.25    4.09    74.85782     3.98464   -45.05112
   222  C   4.0    0.07    3.21    3.04    74.21120     3.42961   -47.80368
   223  O   6.0   -0.30    1.13    1.80    72.63350     1.83737   -48.37159
   224  C   4.0   -0.03    4.31    4.22    73.37571     6.27858   -44.11710
   225  C   4.0    0.16    3.21    3.04    72.78748     6.08623   -41.29932
   226  O   6.0   -0.29    1.21    1.80    73.57391     4.40361   -39.94465
   227  N   5.0   -0.19    3.18    1.95    71.30934     7.96329   -40.43960
   228  H   1.0    0.12    1.07    1.44    78.06417     5.78527   -43.52118
   229  H   1.0    0.06    1.06    1.44    74.26121     2.30595   -43.97426
   230  H   1.0    0.05    1.03    1.43    74.48055     7.98507   -44.46593
   231  H   1.0    0.04    1.03    1.43    71.59864     6.42081   -45.15187
   232  H   1.0    0.09    1.03    1.43    70.70438     7.92093   -38.63427
   233  H   1.0    0.08    1.03    1.43    70.57407     9.26601   -41.60937
   234  N   5.0   -0.21    3.20    1.95    77.71394    -3.50037   -51.70719
   235  C   4.0    0.03    4.21    4.02    77.14422    -5.73983   -50.23116
   236  C   4.0    0.08    3.18    3.03    76.99817    -8.10692   -51.93066
   237  O   6.0   -0.28    1.13    1.80    75.02263    -9.20445   -52.39868
   238  C   4.0   -0.03    4.34    4.28    74.71041    -5.44645   -48.71190
   239  C   4.0   -0.04    4.07    3.75    74.98457    -3.47695   -46.64736
   240  S   6.0   -0.03    2.47    3.10    72.31459    -3.40877   -44.49201
   241  C   4.0   -0.07    3.88    3.44    73.01330    -6.26188   -42.68644
   242  H   1.0    0.09    1.02    1.43    76.25372    -2.54096   -52.48156
   243  H   1.0    0.04    1.05    1.44    78.74798    -6.00507   -48.94104
   244  H   1.0    0.06    1.03    1.43    73.16350    -4.91672   -49.97039
   245  H   1.0    0.05    1.04    1.43    74.25388    -7.28599   -47.89465
   246  H   1.0    0.04    1.07    1.44    76.68496    -3.79524   -45.52995
   247  H   1.0    0.06    1.09    1.44    75.07225    -1.59523   -47.46262
   248  H   1.0    0.05    1.04    1.43    71.51927    -6.50106   -41.30650
   249  H   1.0    0.05    1.03    1.43    73.02581    -7.89052   -43.93188
   250  H   1.0    0.04    1.04    1.43    74.82529    -6.03272   -41.75709
   251  H   1.0    0.09    1.08    1.44    60.64527   -11.52026   -39.14258
   252  H   1.0    0.07    1.04    1.44    85.37030     7.67569   -12.28593
   253  H   1.0    0.09    1.07    1.44    77.16636   -13.67632   -10.97983
   254  H   1.0    0.06    1.04    1.44    80.64597   -10.27601    -6.93191
   255  H   1.0    0.09    1.07    1.44    83.83202     9.27451   -36.69011
   256  H   1.0    0.05    1.05    1.44    79.77139    11.87634   -41.04916
   257  H   1.0    0.10    1.07    1.44    78.24078     2.95966   -44.07314
   258  H   1.0    0.06    1.05    1.44    75.08298     4.37517   -49.18824
   259  H   1.0    0.09    1.07    1.44    78.51864    -2.36531   -50.72910
   260  H   1.0    0.06    1.05    1.44    78.57052    -8.81103   -52.70720

  Z AO/shell   Hii/eV     exponent
  1     Wed Apr 25 08:07:45 CEST 2018   EN: 2.200 GM2: 0.406  GM3: 0.0800  RAES: 1.40
     1s    -10.707211    1.230000
  6     Wed Apr 25 08:07:45 CEST 2018   EN: 2.550 GM2: 0.538  GM3: 0.1500  RAES: 3.00
     2s    -13.970922    2.096432
     2p    -10.063292    1.800000
  7     Wed Apr 25 08:07:45 CEST 2018   EN: 3.040 GM2: 0.461  GM3:-0.0640  RAES: 1.90
     2s    -16.686243    2.339881
     2p    -12.523956    2.014332
  8     Wed Apr 25 08:07:45 CEST 2018   EN: 3.440 GM2: 0.452  GM3:-0.0517  RAES: 1.80
     2s    -20.229985    2.439742
     2p    -15.503117    2.137023
 16     Tue Apr 24 11:44:34 CEST 2018   EN: 2.580 GM2: 0.340  GM3:-0.0502  RAES: 3.10
     3s    -20.029654    1.981333
     3p    -11.377694    2.025643
     3d     -0.420282    1.702555
 no old-style atom pair restraining (fixing) potential

molecular fragmentation (1/2 indicates fragments):
111111111111111111111111111111111111111111111111111111111111111111111111
111111111111111111111111111111111111111111111111111111111111111111111111
111111111111111111111111111111111111111111111111122222222222222222222222
22222222222222222222222222222222221122222222
# atoms in fragment 1/2:   195    65
 fragment masses (1/2) :     1280.57      423.57
CMA distance (Bohr)    :  15.220
constraining FC (au)   :  0.0500
           ------------------------------------------------- 
          |        Self-Consistent Charge Iterations        |
           ------------------------------------------------- 

 Ncao       : 620
 Nao        : 619
 Nshell     : 379
 Nel        : 678
 T(el)      :   500.0
 intcut     :    35.0
 scfconv/Eh :  0.100E-06
   qconv/e  :  0.100E-04
 intneglect :  0.100E-08
 broydamp   :      0.400
 iter      E             dE          RMSdq      gap      omega  full diag
   1   -386.0733047 -0.386073E+03  0.444E+00    2.97       0.0  T
   2   -387.0105612 -0.937257E+00  0.206E+00    1.79       1.0  T
   3   -387.0699483 -0.593871E-01  0.119E+00    2.14       1.0  T
   4   -387.1270408 -0.570925E-01  0.236E-01    1.70       1.0  T
   5   -387.1303629 -0.332212E-02  0.112E-01    1.79       1.0  T
   6   -387.1307575 -0.394573E-03  0.453E-02    1.75       1.0  T
   7   -387.1308602 -0.102786E-03  0.203E-02    1.75       1.0  T
   8   -387.1308729 -0.126239E-04  0.938E-03    1.75       1.0  T
   9   -387.1308771 -0.422735E-05  0.419E-03    1.75       1.5  T
  10   -387.1308775 -0.443702E-06  0.175E-03    1.74       3.5  T
  11   -387.1308777 -0.120974E-06  0.754E-04    1.74       8.2  T
  12   -387.1308777 -0.229352E-07  0.312E-04    1.74      19.9  T
  13   -387.1308777 -0.196786E-08  0.160E-04    1.74      38.9  T
  14   -387.1308777 -0.812520E-09  0.521E-05    1.74     119.0  T
  15   -387.1308777 -0.120906E-09  0.243E-05    1.74     255.2  T
speedup  2.00
cpu  time for SCC    6.82 s
wall time for SCC    3.41 s

   *** convergence criteria satisfied after 15 iterations ***

          eigenvalues
 #    :         327        328        329        330        331        332        333        334
 occ. :        2.000      2.000      2.000      2.000      2.000      2.000      2.000      2.000
 eps  :       -10.879    -10.745    -10.727    -10.645    -10.605    -10.493    -10.241    -10.026
 #    :         335        336        337        338        339        340        341        342
 occ. :        2.000      2.000      2.000      2.000      2.000      0.000      0.000      0.000
 eps  :        -9.999     -9.972     -9.967     -9.806     -9.589     -7.845     -7.822     -7.775
 #    :         343        344        345        346        347        348        349        350
 occ. :        0.000      0.000      0.000      0.000      0.000      0.000      0.000      0.000
 eps  :        -7.672     -7.572     -6.945     -6.811     -6.509     -6.421     -6.344     -6.308


   #   Z            q   n(s)   n(p)   n(d)      C6AA      α(0)
   1   7 N     -0.393  1.326  4.067  0.000    30.173     8.158
   2   6 C      0.029  1.060  2.911  0.000    20.097     6.386
   3   6 C      0.270  1.047  2.683  0.000    22.432     7.756
   4   8 O     -0.502  1.753  4.750  0.000    23.839     6.546
   5   6 C     -0.130  1.045  3.085  0.000    23.047     6.846
   6   1 H      0.152  0.848  0.000  0.000     1.385     1.843
   7   1 H      0.046  0.954  0.000  0.000     2.372     2.408
   8   1 H      0.050  0.950  0.000  0.000     2.317     2.380
   9   1 H      0.064  0.936  0.000  0.000     2.148     2.292
  10   1 H      0.050  0.950  0.000  0.000     2.318     2.381
  11   7 N     -0.167  1.235  3.932  0.000    24.619     7.369
  12   6 C      0.017  1.059  2.924  0.000    20.299     6.416
  13   6 C      0.263  1.047  2.691  0.000    22.568     7.780
  14   8 O     -0.489  1.741  4.748  0.000    23.543     6.505
  15   6 C     -0.073  1.060  3.013  0.000    21.884     6.659
  16   6 C     -0.008  1.056  2.952  0.000    20.684     6.469
  17   6 C     -0.116  1.042  3.074  0.000    22.775     6.804
  18   6 C     -0.111  1.038  3.073  0.000    22.681     6.790
  19   1 H      0.206  0.794  0.000  0.000     1.078     1.626
  20   1 H      0.083  0.917  0.000  0.000     1.953     2.185
  21   1 H      0.044  0.956  0.000  0.000     2.399     2.422
  22   1 H      0.056  0.944  0.000  0.000     2.244     2.343
  23   1 H      0.032  0.968  0.000  0.000     2.560     2.502
  24   1 H      0.042  0.958  0.000  0.000     2.428     2.437
  25   1 H      0.041  0.959  0.000  0.000     2.440     2.443
  26   1 H      0.042  0.958  0.000  0.000     2.417     2.431
  27   1 H      0.035  0.965  0.000  0.000     2.520     2.482
  28   1 H      0.043  0.957  0.000  0.000     2.413     2.429
  29   1 H      0.039  0.961  0.000  0.000     2.460     2.453
  30   7 N     -0.167  1.247  3.920  0.000    24.609     7.368
  31   6 C      0.010  1.072  2.918  0.000    20.412     6.432
  32   6 C      0.275  1.042  2.683  0.000    22.357     7.743
  33   8 O     -0.464  1.750  4.715  0.000    23.012     6.432
  34   6 C     -0.078  1.052  3.025  0.000    21.983     6.675
  35   6 C     -0.081  1.054  3.027  0.000    22.036     6.683
  36   6 C     -0.095  1.055  3.040  0.000    22.309     6.725
  37   6 C     -0.050  1.060  2.991  0.000    21.567     6.629
  38   7 N     -0.148  1.230  3.918  0.000    24.189     7.305
  39   1 H      0.208  0.792  0.000  0.000     1.065     1.616
  40   1 H      0.080  0.920  0.000  0.000     1.975     2.198
  41   1 H      0.066  0.934  0.000  0.000     2.129     2.282
  42   1 H      0.070  0.930  0.000  0.000     2.087     2.259
  43   1 H      0.059  0.941  0.000  0.000     2.210     2.325
  44   1 H      0.061  0.939  0.000  0.000     2.186     2.312
  45   1 H      0.080  0.920  0.000  0.000     1.978     2.199
  46   1 H      0.082  0.918  0.000  0.000     1.954     2.186
  47   1 H      0.118  0.882  0.000  0.000     1.632     1.998
  48   1 H      0.112  0.888  0.000  0.000     1.676     2.024
  49   1 H      0.302  0.698  0.000  0.000     0.706     1.317
  50   1 H      0.298  0.702  0.000  0.000     0.718     1.328
  51   1 H      0.299  0.701  0.000  0.000     0.715     1.325
  52   7 N     -0.172  1.238  3.935  0.000    24.729     7.386
  53   6 C     -0.035  1.051  2.984  0.000    21.269     6.579
  54   6 C      0.269  1.044  2.687  0.000    22.449     7.759
  55   8 O     -0.458  1.738  4.720  0.000    22.880     6.413
  56   1 H      0.222  0.778  0.000  0.000     1.002     1.568
  57   1 H      0.105  0.895  0.000  0.000     1.737     2.061
  58   1 H      0.093  0.907  0.000  0.000     1.854     2.129
  59   7 N     -0.190  1.251  3.938  0.000    25.115     7.443
  60   6 C      0.023  1.056  2.922  0.000    20.197     6.399
  61   6 C      0.273  1.042  2.685  0.000    22.384     7.748
  62   8 O     -0.502  1.762  4.740  0.000    23.821     6.544
  63   6 C     -0.112  1.063  3.049  0.000    22.630     6.772
  64   6 C      0.298  1.034  2.669  0.000    21.950     7.671
  65   8 O     -0.504  1.756  4.748  0.000    23.884     6.552
  66   7 N     -0.286  1.264  4.023  0.000    27.391     7.773
  67   1 H      0.234  0.766  0.000  0.000     0.949     1.526
  68   1 H      0.092  0.908  0.000  0.000     1.857     2.131
  69   1 H      0.105  0.895  0.000  0.000     1.737     2.061
  70   1 H      0.088  0.912  0.000  0.000     1.903     2.157
  71   1 H      0.217  0.783  0.000  0.000     1.024     1.585
  72   1 H      0.242  0.758  0.000  0.000     0.915     1.498
  73   7 N     -0.180  1.245  3.935  0.000    24.899     7.411
  74   6 C      0.015  1.069  2.916  0.000    20.318     6.417
  75   6 C      0.275  1.044  2.681  0.000    22.353     7.742
  76   8 O     -0.502  1.745  4.757  0.000    23.836     6.546
  77   6 C     -0.021  1.063  2.958  0.000    20.920     6.505
  78   6 C     -0.123  1.040  3.083  0.000    22.915     6.825
  79   6 C     -0.131  1.043  3.088  0.000    23.075     6.849
  80   1 H      0.212  0.788  0.000  0.000     1.047     1.603
  81   1 H      0.079  0.921  0.000  0.000     1.990     2.206
  82   1 H      0.053  0.947  0.000  0.000     2.285     2.364
  83   1 H      0.074  0.926  0.000  0.000     2.044     2.236
  84   1 H      0.039  0.961  0.000  0.000     2.463     2.454
  85   1 H      0.050  0.950  0.000  0.000     2.320     2.382
  86   1 H      0.079  0.921  0.000  0.000     1.990     2.206
  87   1 H      0.055  0.945  0.000  0.000     2.258     2.350
  88   1 H      0.048  0.952  0.000  0.000     2.340     2.392
  89   7 N     -0.200  1.257  3.943  0.000    25.341     7.476
  90   6 C      0.023  1.062  2.915  0.000    20.199     6.400
  91   6 C      0.291  1.039  2.670  0.000    22.061     7.692
  92   8 O     -0.494  1.738  4.756  0.000    23.653     6.521
  93   6 C     -0.078  1.063  3.016  0.000    21.984     6.674
  94   6 C     -0.007  1.054  2.953  0.000    20.668     6.466
  95   6 C     -0.120  1.041  3.078  0.000    22.850     6.816
  96   6 C     -0.116  1.042  3.074  0.000    22.782     6.805
  97   1 H      0.242  0.758  0.000  0.000     0.915     1.499
  98   1 H      0.083  0.917  0.000  0.000     1.948     2.182
  99   1 H      0.083  0.917  0.000  0.000     1.945     2.181
 100   1 H      0.036  0.964  0.000  0.000     2.506     2.476
 101   1 H      0.011  0.989  0.000  0.000     2.875     2.652
 102   1 H      0.047  0.953  0.000  0.000     2.363     2.404
 103   1 H      0.040  0.960  0.000  0.000     2.452     2.449
 104   1 H      0.062  0.938  0.000  0.000     2.172     2.304
 105   1 H      0.045  0.955  0.000  0.000     2.388     2.416
 106   1 H      0.057  0.943  0.000  0.000     2.234     2.337
 107   1 H      0.029  0.971  0.000  0.000     2.603     2.523
 108   7 N     -0.189  1.248  3.941  0.000    25.091     7.439
 109   6 C      0.056  1.049  2.895  0.000    19.639     6.309
 110   6 C      0.287  1.041  2.672  0.000    22.138     7.705
 111   8 O     -0.513  1.746  4.766  0.000    24.065     6.577
 112   6 C     -0.098  1.069  3.029  0.000    22.369     6.733
 113   6 C      0.375  1.021  2.604  0.000    20.640     7.435
 114   8 O     -0.642  1.771  4.871  0.000    27.175     6.989
 115   8 O     -0.637  1.771  4.866  0.000    27.043     6.972
 116   1 H      0.204  0.796  0.000  0.000     1.084     1.631
 117   1 H      0.044  0.956  0.000  0.000     2.396     2.421
 118   1 H      0.045  0.955  0.000  0.000     2.378     2.412
 119   1 H      0.026  0.974  0.000  0.000     2.638     2.540
 120   7 N     -0.180  1.246  3.934  0.000    24.888     7.409
 121   6 C      0.032  1.060  2.909  0.000    20.042     6.375
 122   6 C      0.280  1.041  2.679  0.000    22.264     7.727
 123   8 O     -0.504  1.745  4.759  0.000    23.880     6.552
 124   6 C     -0.080  1.062  3.018  0.000    22.016     6.679
 125   6 C     -0.009  1.054  2.954  0.000    20.702     6.472
 126   6 C     -0.114  1.040  3.074  0.000    22.740     6.799
 127   6 C     -0.121  1.044  3.078  0.000    22.877     6.819
 128   1 H      0.210  0.790  0.000  0.000     1.057     1.611
 129   1 H      0.051  0.949  0.000  0.000     2.309     2.376
 130   1 H      0.054  0.946  0.000  0.000     2.269     2.356
 131   1 H      0.073  0.927  0.000  0.000     2.051     2.239
 132   1 H      0.030  0.970  0.000  0.000     2.587     2.515
 133   1 H      0.052  0.948  0.000  0.000     2.297     2.370
 134   1 H      0.022  0.978  0.000  0.000     2.705     2.572
 135   1 H      0.044  0.956  0.000  0.000     2.391     2.418
 136   1 H      0.054  0.946  0.000  0.000     2.265     2.354
 137   1 H      0.052  0.948  0.000  0.000     2.297     2.370
 138   1 H      0.051  0.949  0.000  0.000     2.306     2.375
 139   7 N     -0.187  1.250  3.937  0.000    25.063     7.435
 140   6 C      0.027  1.059  2.914  0.000    20.129     6.388
 141   6 C      0.277  1.041  2.682  0.000    22.318     7.736
 142   8 O     -0.498  1.752  4.746  0.000    23.744     6.533
 143   6 C     -0.137  1.044  3.093  0.000    23.184     6.865
 144   1 H      0.232  0.768  0.000  0.000     0.959     1.534
 145   1 H      0.076  0.924  0.000  0.000     2.023     2.224
 146   1 H      0.079  0.921  0.000  0.000     1.993     2.208
 147   1 H      0.086  0.914  0.000  0.000     1.920     2.167
 148   1 H      0.068  0.932  0.000  0.000     2.113     2.273
 149   7 N     -0.188  1.250  3.938  0.000    25.068     7.436
 150   6 C      0.027  1.065  2.908  0.000    20.116     6.385
 151   6 C      0.293  1.038  2.669  0.000    22.028     7.686
 152   8 O     -0.514  1.753  4.761  0.000    24.102     6.582
 153   6 C     -0.016  1.063  2.953  0.000    20.826     6.491
 154   6 C     -0.067  1.052  3.014  0.000    21.772     6.643
 155   6 C     -0.109  1.037  3.071  0.000    22.632     6.783
 156   6 C     -0.100  1.035  3.065  0.000    22.468     6.760
 157   1 H      0.220  0.780  0.000  0.000     1.009     1.574
 158   1 H      0.064  0.936  0.000  0.000     2.156     2.296
 159   1 H      0.030  0.970  0.000  0.000     2.585     2.514
 160   1 H      0.052  0.948  0.000  0.000     2.295     2.369
 161   1 H      0.053  0.947  0.000  0.000     2.284     2.364
 162   1 H      0.053  0.947  0.000  0.000     2.277     2.360
 163   1 H      0.018  0.982  0.000  0.000     2.769     2.602
 164   1 H      0.054  0.946  0.000  0.000     2.271     2.357
 165   1 H      0.054  0.946  0.000  0.000     2.277     2.360
 166   1 H      0.015  0.985  0.000  0.000     2.806     2.619
 167   1 H      0.043  0.957  0.000  0.000     2.413     2.429
 168   7 N     -0.196  1.252  3.944  0.000    25.257     7.464
 169   6 C      0.041  1.055  2.905  0.000    19.896     6.351
 170   6 C      0.285  1.040  2.674  0.000    22.170     7.711
 171   8 O     -0.508  1.750  4.758  0.000    23.961     6.563
 172   6 C     -0.124  1.041  3.083  0.000    22.940     6.829
 173   1 H      0.216  0.784  0.000  0.000     1.026     1.587
 174   1 H      0.043  0.957  0.000  0.000     2.411     2.428
 175   1 H      0.065  0.935  0.000  0.000     2.142     2.289
 176   1 H      0.050  0.950  0.000  0.000     2.314     2.379
 177   1 H      0.075  0.925  0.000  0.000     2.032     2.229
 178   7 N     -0.166  1.241  3.925  0.000    24.597     7.366
 179   6 C      0.030  1.063  2.908  0.000    20.074     6.379
 180   6 C      0.220  1.082  2.697  0.000    23.354     7.914
 181   8 O     -0.369  1.751  4.618  0.000    21.069     6.154
 182   6 C     -0.014  1.063  2.951  0.000    20.794     6.486
 183   6 C     -0.125  1.040  3.086  0.000    22.955     6.831
 184   6 C     -0.122  1.042  3.080  0.000    22.897     6.823
 185   1 H      0.214  0.786  0.000  0.000     1.038     1.596
 186   1 H      0.080  0.920  0.000  0.000     1.975     2.198
 187   1 H      0.056  0.944  0.000  0.000     2.242     2.342
 188   1 H      0.064  0.936  0.000  0.000     2.155     2.296
 189   1 H      0.055  0.945  0.000  0.000     2.253     2.347
 190   1 H      0.041  0.959  0.000  0.000     2.429     2.437
 191   1 H      0.070  0.930  0.000  0.000     2.090     2.261
 192   1 H      0.045  0.955  0.000  0.000     2.382     2.413
 193   1 H      0.049  0.951  0.000  0.000     2.338     2.391
 194   7 N     -0.394  1.314  4.079  0.000    30.197     8.161
 195   6 C      0.046  1.051  2.902  0.000    19.819     6.342
 196   6 C      0.201  1.093  2.706  0.000    23.727     7.977
 197   8 O     -0.383  1.763  4.620  0.000    21.344     6.194
 198   6 C     -0.120  1.042  3.077  0.000    22.845     6.815
 199   1 H      0.175  0.825  0.000  0.000     1.246     1.748
 200   1 H      0.042  0.958  0.000  0.000     2.426     2.436
 201   1 H      0.045  0.955  0.000  0.000     2.388     2.417
 202   1 H      0.067  0.933  0.000  0.000     2.124     2.279
 203   1 H      0.063  0.937  0.000  0.000     2.168     2.303
 204   7 N     -0.390  1.312  4.079  0.000    30.098     8.148
 205   6 C      0.037  1.059  2.904  0.000    19.959     6.363
 206   6 C      0.202  1.094  2.704  0.000    23.694     7.972
 207   8 O     -0.375  1.748  4.628  0.000    21.197     6.173
 208   6 C     -0.017  1.064  2.952  0.000    20.836     6.492
 209   6 C     -0.118  1.040  3.077  0.000    22.807     6.809
 210   6 C     -0.116  1.040  3.076  0.000    22.770     6.803
 211   1 H      0.163  0.837  0.000  0.000     1.313     1.795
 212   1 H      0.051  0.949  0.000  0.000     2.306     2.375
 213   1 H      0.043  0.957  0.000  0.000     2.413     2.429
 214   1 H      0.052  0.948  0.000  0.000     2.293     2.368
 215   1 H      0.033  0.967  0.000  0.000     2.551     2.497
 216   1 H      0.050  0.950  0.000  0.000     2.318     2.381
 217   1 H      0.046  0.954  0.000  0.000     2.367     2.406
 218   1 H      0.052  0.948  0.000  0.000     2.293     2.368
 219   1 H      0.042  0.958  0.000  0.000     2.425     2.435
 220   7 N     -0.403  1.312  4.091  0.000    30.460     8.197
 221   6 C      0.051  1.047  2.902  0.000    19.738     6.328
 222   6 C      0.196  1.092  2.711  0.000    23.814     7.992
 223   8 O     -0.380  1.757  4.623  0.000    21.289     6.186
 224   6 C     -0.100  1.064  3.036  0.000    22.401     6.737
 225   6 C      0.295  1.035  2.670  0.000    21.988     7.678
 226   8 O     -0.474  1.740  4.733  0.000    23.210     6.459
 227   7 N     -0.291  1.264  4.027  0.000    27.502     7.789
 228   1 H      0.192  0.808  0.000  0.000     1.146     1.677
 229   1 H      0.058  0.942  0.000  0.000     2.225     2.333
 230   1 H      0.088  0.912  0.000  0.000     1.896     2.153
 231   1 H      0.059  0.941  0.000  0.000     2.208     2.324
 232   1 H      0.227  0.773  0.000  0.000     0.979     1.550
 233   1 H      0.221  0.779  0.000  0.000     1.006     1.571
 234   7 N     -0.381  1.309  4.073  0.000    29.861     8.116
 235   6 C      0.034  1.060  2.906  0.000    20.017     6.373
 236   6 C      0.201  1.093  2.706  0.000    23.723     7.976
 237   8 O     -0.369  1.760  4.609  0.000    21.072     6.155
 238   6 C     -0.058  1.046  3.012  0.000    21.600     6.613
 239   6 C     -0.004  1.060  2.944  0.000    20.656     6.471
 240  16 S     -0.234  1.924  4.256  0.054   151.064    20.686
 241   6 C     -0.067  1.056  3.011  0.000    21.857     6.669
 242   1 H      0.158  0.842  0.000  0.000     1.347     1.818
 243   1 H      0.070  0.930  0.000  0.000     2.088     2.260
 244   1 H      0.041  0.959  0.000  0.000     2.442     2.444
 245   1 H      0.045  0.955  0.000  0.000     2.388     2.417
 246   1 H      0.051  0.949  0.000  0.000     2.306     2.375
 247   1 H      0.041  0.959  0.000  0.000     2.430     2.438
 248   1 H      0.068  0.932  0.000  0.000     2.104     2.268
 249   1 H      0.054  0.946  0.000  0.000     2.270     2.356
 250   1 H      0.077  0.923  0.000  0.000     2.005     2.214
 251   1 H      0.191  0.809  0.000  0.000     1.154     1.683
 252   1 H      0.065  0.935  0.000  0.000     2.140     2.288
 253   1 H      0.185  0.815  0.000  0.000     1.188     1.707
 254   1 H      0.075  0.925  0.000  0.000     2.034     2.230
 255   1 H      0.187  0.813  0.000  0.000     1.174     1.697
 256   1 H      0.070  0.930  0.000  0.000     2.083     2.257
 257   1 H      0.180  0.820  0.000  0.000     1.214     1.726
 258   1 H      0.071  0.929  0.000  0.000     2.076     2.253
 259   1 H      0.190  0.810  0.000  0.000     1.160     1.687
 260   1 H      0.079  0.921  0.000  0.000     1.989     2.205

 Mol. C6AA /au·bohr⁶  :     590145.044815
 Mol. C8AA /au·bohr⁸  :   13069823.098372
 Mol. α(0) /au        :       1145.849795

 
molecular dipole:
                 x           y           z       tot (Debye)
 q only:       -0.276     -23.864     -24.937
   full:       -2.881     -23.135     -25.367      87.573
molecular quadrupole (traceless):
                xx          xy          yy          xz          yz          zz
 q only:     -435.819   -2700.954    -602.639   -2922.512     513.880    1038.458
  q+dip:     -807.501   -2635.501    -415.159   -2900.585     471.411    1222.660
   full:     -805.944   -2641.223    -414.046   -2901.118     471.319    1219.990
speedup  2.00
cpu  time for grad    9.27 s
wall time for grad    4.64 s

SCC energy    :    -387.1466751
rep           :       4.6939067
ES            :       1.2356567
AES           :      -0.0284705
AXC           :       0.1425344
disp          :      -0.2950586
XB            :       0.0000000
fix           :       0.0000000
Gborn         :       0.0000000
Gsasa         :       0.0000000
Ghb           :       0.0000000
Gshift        :       0.0000000
Gsolv         :      -0.3699947     -232.18
Etot ala COSMO:    -387.1466751
grad norm     :       0.4938024
total E       :    -382.4354856
atomizationE  :      70.3822738    44165.54
(atE without considering molecular charge,
 total energy contains solvation terms)
H-L gap (eV)  :          1.7436

------------------------------------------------------------------------
 * finished run on 2019/05/11 at 08:42:27.392     
------------------------------------------------------------------------
 total:
 * wall-time:     0 d,  0 h,  0 min,  5.008 sec
 *  cpu-time:     0 d,  0 h,  0 min,  9.820 sec
 * ratio c/w:     1.961 speedup
 SCF:
 * wall-time:     0 d,  0 h,  0 min,  4.820 sec
 *  cpu-time:     0 d,  0 h,  0 min,  9.625 sec
 * ratio c/w:     1.997 speedup

