      -----------------------------------------------------------      
     |                   =====================                   |     
     |                           x T B                           |     
     |                   =====================                   |     
     |                         S. Grimme                         |     
     |          Mulliken Center for Theoretical Chemistry        |     
     |                    University of Bonn                     |     
     |                 Version 6.0.1 (SAW181210)                 |     
      -----------------------------------------------------------      

   This program is distributed in the hope that it will be useful,
   but WITHOUT ANY WARRANTY; without even the implied warranty of
   MERCHANTABILITY or FITNESS FOR A PARTICULAR PURPOSE.
   
   FOR NON-COMMERCIAL, ACADEMIA USE ONLY.
   
   Cite this work as:
   S. Grimme, C. Bannwarth, P. Shushkov, J. Comput. Theory Chem., 2017,
   13, 1989-2009.
   C. Bannwarth, S. Ehlert and S. Grimme., ChemRxiv, 2018, preprint.
   http://doi.org/10.26434/chemrxiv.7246238.v1
   
   for sTDA-xTB:
   S. Grimme and C. Bannwarth, J. Chem. Phys., 2016, 145, 054103.
   
   in the mass-spec context:
   V. Asgeirsson, C. Bauer and S. Grimme, Chem. Sci., 2017, 8, 4879.
   
   if GBSA is used:
   P. Shushkov, F. März and S. Grimme, unpublished.
   
   for ANC optimizer:
   S. Grimme, unpublished.
   Rational Function algorithm used in ANCopt:
   F. Eckert, P. Pulay, H.-J. Werner, J. Comput. Chem., 1997, 18, 1473.
   
   with help from (in alphabetical order)
   C. Bannwarth, F. Bohle, G. Brandenburg, E. Caldeweyher, M. Checinski,
   S. Dohm, S. Ehlert, S. Ehrlich, F. März, H. Neugebauer, J. Pisarek,
   P. Pracht, P. Shushkov, and S. Spicher.
   
 * started run on 2019/05/11 at 23:08:10.704     
========================================================================
 # omp threads = 2
========================================================================
number of atoms            : 267
number of electrons        : 766
charge                     : -2
spin                       : .0
first test random number   : .9773

########################################################################
# WARNING! Please study the warnings concerning your input carefully
#  - Process number higher than OMP_NUM_THREADS, I hope you know what you are doing.
########################################################################

           ------------------------------------------------- 
          |                 G F N 2 - x T B                 |
          | Geometry, Frequencies, Noncovalent interactions |
          |            JCTC 2018 parametrisation            |
           ------------------------------------------------- 
 
      method parameters     
 k(s)        :  1.8500
 k(p)        :  2.2300
 k(d)        :  2.2300
 k(f)        :  2.0000
 kEN (H0ij)  : -2.0000
 D4 a1       :  0.5200
 D4 a2       :  5.0000
 D4 s6       :  1.0000
 D4 s8       :  2.7000
 D4 s9       :  5.0000
 alphaj      :  2.0000

 Solvent             : h2o
 Using internal parameter file: .param_gbsa2_h2o
 Gsolv ref. state (COSMO-RS): gsolv [1 M gas/solution]
 temperature (mdtemp)       :    298.150000000000     
 dielectric constant        :    80.2000000000000     
 rho                        :    1.00000000000000     
 mass                       :    18.0000000000000     
 surface tension            :    15.5689454083859     
 probe radius               :   0.975313790000000     
 vdW radii scaling          :    1.00000000000000     
 Gshift (Eh)                :   1.857443126794793E-003
 c1                         :    1.55243817000000     
 soset                      :   0.130326360000000     
 HB correction              :  T

            Z     q(EN)     CN     RAES       Cart. coordinates
     1  N   5.0   -0.22    3.27    1.97    19.46320   144.57465   -13.04260
     2  C   4.0    0.02    4.28    4.16    20.66615   142.44055   -11.84868
     3  C   4.0    0.15    3.44    3.09    21.82299   140.74619   -13.91511
     4  O   6.0   -0.31    1.27    1.80    23.64727   139.33749   -13.55762
     5  C   4.0   -0.05    4.19    3.99    18.89198   140.89364   -10.12490
     6  C   4.0   -0.06    4.11    3.83    17.67803   142.28883    -7.84163
     7  C   4.0   -0.02    4.11    3.83    16.30604   140.57249    -5.92495
     8  N   5.0   -0.15    3.34    2.00    17.86301   140.19701    -3.64575
     9  C   4.0    0.08    3.29    3.05    18.72128   138.12906    -2.42192
    10  N   5.0   -0.20    3.20    1.96    17.74401   135.77596    -2.64220
    11  N   5.0   -0.20    3.23    1.96    20.62802   138.40964    -0.75459
    12  H   1.0    0.07    1.02    1.43    17.64562   144.98769   -12.57921
    13  H   1.0    0.04    1.05    1.44    22.26553   143.12874   -10.70632
    14  H   1.0    0.04    1.02    1.43    17.43222   140.08199   -11.33380
    15  H   1.0    0.05    1.03    1.43    20.03141   139.32688    -9.41111
    16  H   1.0    0.04    1.03    1.43    19.15049   143.33914    -6.84908
    17  H   1.0    0.03    1.03    1.43    16.36759   143.70056    -8.55477
    18  H   1.0    0.03    1.03    1.43    14.51175   141.35643    -5.34549
    19  H   1.0    0.03    1.03    1.43    15.94646   138.73207    -6.77447
    20  H   1.0    0.06    1.07    1.44    18.50866   141.88877    -2.98222
    21  H   1.0    0.07    1.03    1.43    16.35012   135.46903    -3.90152
    22  H   1.0    0.07    1.03    1.43    18.78461   134.28600    -2.07603
    23  H   1.0    0.07    1.03    1.43    21.43654   140.11129    -0.50211
    24  H   1.0    0.07    1.03    1.43    21.28388   136.92760     0.24635
    25  N   5.0   -0.14    3.51    2.08    20.73793   141.00084   -16.15245
    26  C   4.0    0.04    4.60    4.66    21.58371   139.42261   -18.20409
    27  C   4.0    0.15    3.53    3.13    23.57035   140.69731   -19.82728
    28  O   6.0   -0.30    1.49    1.80    25.73092   139.89543   -19.87593
    29  C   4.0   -0.05    4.28    4.16    19.39829   138.34348   -19.76710
    30  C   4.0   -0.04    4.18    3.97    20.27907   135.79854   -20.72837
    31  C   4.0    0.24    3.24    3.04    21.80522   134.50613   -18.47134
    32  O   6.0   -0.28    1.16    1.80    24.06313   134.04132   -18.92755
    33  O   6.0   -0.30    1.17    1.80    20.64280   134.12245   -16.44989
    34  H   1.0    0.08    1.08    1.44    19.07091   141.91757   -16.32235
    35  H   1.0    0.09    1.18    1.46    22.60242   137.89133   -17.27599
    36  H   1.0    0.04    1.03    1.43    17.79273   138.10962   -18.49152
    37  H   1.0    0.03    1.02    1.43    18.86592   139.66045   -21.25990
    38  H   1.0    0.04    1.02    1.43    18.68225   134.62704   -21.27116
    39  H   1.0    0.05    1.02    1.43    21.59265   136.00307   -22.29964
    40  N   5.0   -0.15    3.53    2.10    22.86575   142.67287   -21.20252
    41  C   4.0    0.03    4.48    4.51    24.74437   144.28183   -22.33679
    42  C   4.0    0.17    3.58    3.16    27.21038   144.06542   -20.88770
    43  O   6.0   -0.30    1.24    1.80    29.13512   143.47045   -22.03445
    44  C   4.0   -0.04    4.30    4.19    23.78124   146.98939   -22.30465
    45  C   4.0   -0.04    4.17    3.95    21.35394   147.21555   -23.88611
    46  C   4.0    0.24    3.07    3.02    19.88771   149.73867   -23.28862
    47  O   6.0   -0.31    1.14    1.80    17.53762   149.60579   -22.95319
    48  O   6.0   -0.29    1.17    1.80    21.25291   151.67486   -23.22187
    49  H   1.0    0.07    1.08    1.44    21.16461   143.46322   -20.79932
    50  H   1.0    0.05    1.05    1.44    25.10886   143.66068   -24.28492
    51  H   1.0    0.06    1.03    1.43    23.39450   147.52673   -20.34817
    52  H   1.0    0.06    1.02    1.43    25.22490   148.27003   -23.01773
    53  H   1.0    0.04    1.02    1.43    21.82678   147.20230   -25.89279
    54  H   1.0    0.04    1.03    1.43    20.04306   145.67827   -23.49847
    55  N   5.0   -0.13    3.50    2.08    27.07418   144.66684   -18.44006
    56  C   4.0    0.04    4.36    4.32    29.16250   144.37843   -16.71062
    57  C   4.0    0.15    3.49    3.11    30.07477   141.63348   -16.62101
    58  O   6.0   -0.30    1.32    1.80    32.17415   141.23277   -17.51158
    59  C   4.0   -0.05    4.20    4.00    28.64122   145.37541   -14.04901
    60  C   4.0   -0.04    4.09    3.77    29.79709   147.96831   -13.38583
    61  C   4.0    0.24    3.03    3.02    28.49625   150.47458   -14.48605
    62  O   6.0   -0.30    1.14    1.80    28.71067   152.44221   -13.14350
    63  O   6.0   -0.29    1.15    1.80    27.41931   150.36164   -16.58601
    64  H   1.0    0.08    1.07    1.44    25.40223   145.17194   -17.67122
    65  H   1.0    0.06    1.07    1.44    30.78390   145.38680   -17.53704
    66  H   1.0    0.05    1.03    1.43    26.60167   145.44389   -13.75898
    67  H   1.0    0.04    1.04    1.43    29.41180   144.00930   -12.70427
    68  H   1.0    0.04    1.02    1.43    29.78561   148.19602   -11.33462
    69  H   1.0    0.04    1.02    1.43    31.76136   148.03200   -14.01840
    70  N   5.0   -0.14    3.41    2.02    28.84434   139.69282   -15.51216
    71  C   4.0    0.04    4.39    4.37    30.29769   137.33468   -15.33299
    72  C   4.0    0.17    3.33    3.06    30.84216   135.91521   -17.86356
    73  O   6.0   -0.30    1.20    1.80    32.21627   134.03988   -17.82744
    74  C   4.0    0.04    4.10    3.80    29.46229   135.53298   -13.19058
    75  O   6.0   -0.23    2.02    1.83    27.25791   134.11507   -13.56128
    76  H   1.0    0.11    1.07    1.44    27.00868   139.70120   -14.95985
    77  H   1.0    0.05    1.08    1.44    32.20723   137.95622   -14.78252
    78  H   1.0    0.05    1.02    1.43    30.96196   134.13331   -12.95883
    79  H   1.0    0.04    1.01    1.43    29.29459   136.67479   -11.46093
    80  H   1.0    0.15    1.02    1.43    25.86594   135.22327   -13.97575
    81  N   5.0   -0.12    3.50    2.08    29.95772   137.08927   -19.92383
    82  C   4.0    0.04    4.30    4.19    30.04602   136.31893   -22.57975
    83  C   4.0    0.15    3.46    3.10    32.63401   136.91734   -23.66597
    84  O   6.0   -0.31    1.23    1.80    34.04645   135.24102   -24.43385
    85  C   4.0   -0.06    4.15    3.90    28.09973   137.71595   -24.21304
    86  H   1.0    0.13    1.17    1.46    28.63342   138.42640   -19.60589
    87  H   1.0    0.06    1.05    1.44    29.75643   134.26792   -22.69584
    88  H   1.0    0.04    1.00    1.43    28.40710   137.20723   -26.17786
    89  H   1.0    0.06    1.00    1.43    26.20349   137.14806   -23.66099
    90  H   1.0    0.07    1.01    1.43    28.28192   139.74149   -23.97937
    91  N   5.0   -0.15    3.49    2.07    33.21488   139.38592   -23.71806
    92  C   4.0    0.04    4.30    4.20    35.75417   140.15263   -24.36167
    93  C   4.0    0.15    3.30    3.05    37.72086   139.99060   -22.12797
    94  O   6.0   -0.31    1.21    1.80    39.91209   140.64124   -22.46000
    95  C   4.0   -0.07    4.07    3.74    35.69931   142.54271   -25.95407
    96  H   1.0    0.11    1.07    1.44    32.06076   140.66951   -22.89090
    97  H   1.0    0.06    1.08    1.44    36.47950   138.61119   -25.56738
    98  H   1.0    0.05    1.00    1.43    37.62158   143.17883   -26.30250
    99  H   1.0    0.04    1.00    1.43    34.77469   142.15182   -27.74012
   100  H   1.0    0.05    1.00    1.43    34.66539   144.02340   -24.97185
   101  N   5.0   -0.13    3.41    2.02    37.00901   138.71048   -20.02773
   102  C   4.0    0.04    4.31    4.22    38.82705   137.66475   -18.20188
   103  C   4.0    0.15    3.44    3.09    40.35835   135.48713   -19.34041
   104  O   6.0   -0.32    1.28    1.80    42.67089   135.56808   -19.33204
   105  C   4.0   -0.07    4.13    3.86    37.58734   136.56054   -15.83512
   106  H   1.0    0.10    1.07    1.44    35.15659   138.46783   -19.63642
   107  H   1.0    0.06    1.05    1.44    40.18302   139.15298   -17.71021
   108  H   1.0    0.04    1.00    1.43    39.01110   135.59727   -14.71464
   109  H   1.0    0.04    1.00    1.43    36.75297   138.06507   -14.71172
   110  H   1.0    0.06    1.01    1.43    36.11759   135.21864   -16.34528
   111  N   5.0   -0.14    3.48    2.07    38.97703   133.55132   -20.19979
   112  C   4.0    0.04    4.35    4.28    40.04225   131.31027   -21.39180
   113  C   4.0    0.16    3.51    3.12    41.44149   132.15677   -23.73232
   114  O   6.0   -0.30    1.34    1.80    43.73172   131.90444   -23.85064
   115  C   4.0   -0.07    4.11    3.82    38.06847   129.32799   -22.00321
   116  H   1.0    0.09    1.07    1.44    37.07167   133.68768   -20.13437
   117  H   1.0    0.08    1.08    1.44    41.45928   130.46116   -20.12681
   118  H   1.0    0.05    1.00    1.43    39.00165   127.73586   -22.89879
   119  H   1.0    0.05    1.00    1.43    37.17763   128.67110   -20.27264
   120  H   1.0    0.05    1.00    1.43    36.61593   130.07153   -23.25367
   121  N   5.0   -0.15    3.47    2.06    40.04228   133.25424   -25.53383
   122  C   4.0    0.04    4.36    4.31    41.11156   134.20462   -27.88483
   123  C   4.0    0.16    3.43    3.09    43.60840   135.67824   -27.51688
   124  O   6.0   -0.30    1.24    1.80    45.05794   135.93257   -29.30010
   125  C   4.0   -0.04    4.23    4.07    39.12129   135.75246   -29.32056
   126  C   4.0   -0.03    4.14    3.88    39.78304   136.36685   -32.06977
   127  C   4.0    0.25    3.07    3.02    37.74692   135.41552   -34.02487
   128  O   6.0   -0.30    1.16    1.80    37.46809   136.75138   -35.95626
   129  O   6.0   -0.29    1.17    1.80    36.61859   133.40355   -33.52343
   130  H   1.0    0.09    1.07    1.44    38.16742   133.52052   -25.27419
   131  H   1.0    0.06    1.05    1.44    41.63386   132.58342   -29.07992
   132  H   1.0    0.07    1.04    1.43    37.36653   134.65607   -29.32747
   133  H   1.0    0.05    1.03    1.43    38.78013   137.50688   -28.28412
   134  H   1.0    0.05    1.02    1.43    40.00212   138.39491   -32.36073
   135  H   1.0    0.06    1.03    1.43    41.55380   135.45946   -32.60730
   136  N   5.0   -0.13    3.50    2.08    44.13639   136.60604   -25.20829
   137  C   4.0    0.04    4.57    4.63    46.62152   137.53125   -24.64950
   138  C   4.0    0.15    3.63    3.19    48.29681   135.95339   -22.94548
   139  O   6.0   -0.31    1.48    1.80    50.31335   135.29694   -23.90803
   140  C   4.0   -0.02    4.30    4.20    46.67494   140.23595   -23.70307
   141  C   4.0   -0.08    4.18    3.96    49.31089   140.88091   -22.72329
   142  C   4.0   -0.07    4.15    3.90    45.95117   141.88616   -25.93863
   143  H   1.0    0.11    1.08    1.44    42.87168   136.50947   -23.79038
   144  H   1.0    0.07    1.11    1.44    47.59980   137.48070   -26.48286
   145  H   1.0    0.06    1.05    1.44    45.27237   140.45848   -22.19866
   146  H   1.0    0.03    1.00    1.43    49.41762   142.89664   -22.33609
   147  H   1.0    0.05    1.01    1.43    49.73816   139.87769   -20.98675
   148  H   1.0    0.04    1.00    1.43    50.72708   140.40120   -24.12959
   149  H   1.0    0.04    1.00    1.43    45.84259   143.85818   -25.36477
   150  H   1.0    0.04    1.00    1.43    47.31751   141.70507   -27.45702
   151  H   1.0    0.05    1.00    1.43    44.10041   141.33680   -26.64475
   152  N   5.0   -0.15    3.44    2.04    47.90045   135.55852   -20.48408
   153  C   4.0    0.04    4.43    4.43    49.69074   133.83222   -19.26983
   154  C   4.0    0.18    3.57    3.15    50.57741   131.81941   -21.18794
   155  O   6.0   -0.30    1.27    1.80    52.82240   131.23068   -21.20514
   156  C   4.0   -0.05    4.18    3.95    48.72280   132.53683   -16.86639
   157  C   4.0   -0.03    4.13    3.87    46.07705   131.32688   -17.15729
   158  C   4.0    0.24    3.04    3.02    45.74353   128.37920   -17.60695
   159  O   6.0   -0.30    1.15    1.80    47.24065   126.89493   -16.55343
   160  O   6.0   -0.30    1.18    1.80    43.87349   127.74825   -18.91694
   161  H   1.0    0.11    1.10    1.44    46.15591   135.77169   -19.73967
   162  H   1.0    0.05    1.05    1.44    51.41249   134.89550   -18.80612
   163  H   1.0    0.06    1.03    1.43    50.06763   131.06890   -16.32152
   164  H   1.0    0.04    1.03    1.43    48.64874   133.93824   -15.35975
   165  H   1.0    0.04    1.03    1.43    45.00878   131.65327   -15.41436
   166  H   1.0    0.07    1.04    1.44    45.01591   132.23362   -18.66327
   167  N   5.0   -0.13    3.50    2.08    48.85076   130.70250   -22.69582
   168  C   4.0    0.04    4.42    4.41    49.44068   128.63386   -24.43804
   169  C   4.0    0.16    3.58    3.15    51.72337   129.15597   -26.06940
   170  O   6.0   -0.32    1.27    1.80    53.32855   127.52456   -26.44949
   171  C   4.0   -0.03    4.29    4.18    47.34611   128.12380   -26.38051
   172  C   4.0   -0.03    4.17    3.94    47.98150   125.98051   -28.22971
   173  C   4.0    0.25    3.06    3.02    47.59064   126.65890   -31.12794
   174  O   6.0   -0.29    1.16    1.80    47.79726   128.90991   -31.78535
   175  O   6.0   -0.30    1.16    1.80    47.19766   124.76818   -32.50888
   176  H   1.0    0.11    1.10    1.44    47.00754   131.17543   -22.57111
   177  H   1.0    0.06    1.06    1.44    49.80408   126.92779   -23.31592
   178  H   1.0    0.06    1.02    1.43    45.58352   127.72280   -25.38253
   179  H   1.0    0.07    1.04    1.43    47.01871   129.84976   -27.47621
   180  H   1.0    0.06    1.04    1.43    49.94097   125.38449   -28.03140
   181  H   1.0    0.05    1.03    1.43    46.74563   124.36496   -27.90969
   182  N   5.0   -0.13    3.56    2.12    51.64673   131.38515   -27.20533
   183  C   4.0    0.04    4.44    4.44    53.72972   132.31385   -28.66710
   184  C   4.0    0.15    3.58    3.16    56.18675   132.18231   -27.12714
   185  O   6.0   -0.31    1.32    1.80    57.99048   130.87742   -27.75877
   186  C   4.0   -0.05    4.32    4.23    53.14874   134.99930   -29.46581
   187  C   4.0   -0.05    4.22    4.05    55.52563   136.36289   -30.37650
   188  C   4.0   -0.02    4.17    3.94    54.95373   138.23653   -32.49844
   189  N   5.0   -0.14    3.37    2.01    54.26050   136.91288   -34.83848
   190  C   4.0    0.08    3.31    3.06    54.64598   137.64942   -37.22864
   191  N   5.0   -0.20    3.23    1.96    55.77135   139.83578   -37.81283
   192  N   5.0   -0.20    3.23    1.96    53.91699   136.10294   -39.11121
   193  H   1.0    0.11    1.11    1.45    50.35434   132.66308   -26.62559
   194  H   1.0    0.06    1.05    1.44    54.00075   131.07789   -30.31417
   195  H   1.0    0.05    1.03    1.43    51.68740   134.93324   -30.91717
   196  H   1.0    0.06    1.04    1.43    52.34263   135.99693   -27.85105
   197  H   1.0    0.03    1.03    1.43    56.40706   137.38720   -28.83227
   198  H   1.0    0.05    1.03    1.43    56.89528   134.98815   -31.07982
   199  H   1.0    0.04    1.02    1.43    53.39794   139.47414   -31.93558
   200  H   1.0    0.03    1.03    1.43    56.63278   139.37626   -32.85990
   201  H   1.0    0.08    1.07    1.44    53.27570   135.29413   -34.58943
   202  H   1.0    0.07    1.03    1.43    56.49197   140.99962   -36.49321
   203  H   1.0    0.07    1.03    1.43    56.13449   140.29298   -39.62288
   204  H   1.0    0.08    1.03    1.43    52.90850   134.52548   -38.76413
   205  H   1.0    0.07    1.03    1.43    53.96442   136.70794   -40.91405
   206  N   5.0   -0.14    3.57    2.13    56.36614   133.71296   -25.14007
   207  C   4.0    0.05    4.59    4.65    58.76501   133.73962   -23.88674
   208  C   4.0    0.17    3.45    3.09    59.28798   131.37326   -22.33161
   209  O   6.0   -0.30    1.24    1.80    61.26086   131.12686   -21.14950
   210  C   4.0    0.05    4.22    4.05    59.21749   136.21157   -22.49440
   211  O   6.0   -0.25    2.12    1.84    57.41059   136.31410   -20.52030
   212  C   4.0   -0.09    4.07    3.75    59.04254   138.43729   -24.36201
   213  H   1.0    0.11    1.06    1.44    54.85104   134.49225   -24.27693
   214  H   1.0    0.05    1.09    1.44    60.19949   133.60344   -25.38988
   215  H   1.0    0.04    1.04    1.43    61.12507   136.11250   -21.67002
   216  H   1.0    0.11    1.02    1.43    57.60061   137.89199   -19.61826
   217  H   1.0    0.03    1.00    1.43    59.70841   140.15748   -23.45830
   218  H   1.0    0.03    1.00    1.43    60.19451   138.06952   -26.01350
   219  H   1.0    0.04    1.00    1.43    57.08388   138.70499   -24.91641
   220  N   5.0   -0.12    3.58    2.14    57.66957   129.48199   -22.70431
   221  C   4.0    0.04    4.48    4.50    58.38706   126.94542   -22.00317
   222  C   4.0    0.15    3.58    3.16    60.11151   125.86279   -24.03979
   223  O   6.0   -0.29    1.27    1.80    62.13734   124.86526   -23.49602
   224  C   4.0   -0.04    4.34    4.27    56.12151   125.19414   -21.83846
   225  C   4.0   -0.05    4.25    4.10    56.99956   122.45275   -21.73454
   226  C   4.0   -0.02    4.20    4.01    54.73569   120.70367   -21.44124
   227  N   5.0   -0.14    3.40    2.02    53.16265   120.65831   -23.70138
   228  C   4.0    0.09    3.33    3.06    50.72422   121.23862   -23.89261
   229  N   5.0   -0.19    3.26    1.97    49.59251   122.71099   -22.19660
   230  N   5.0   -0.20    3.24    1.96    49.36897   120.26237   -25.78811
   231  H   1.0    0.12    1.11    1.44    55.82928   129.83890   -23.05727
   232  H   1.0    0.06    1.05    1.44    59.45311   126.99069   -20.22514
   233  H   1.0    0.05    1.03    1.43    55.03380   125.66693   -20.14856
   234  H   1.0    0.07    1.05    1.44    54.92982   125.49783   -23.48881
   235  H   1.0    0.05    1.04    1.43    58.03642   121.94712   -23.43763
   236  H   1.0    0.04    1.03    1.43    58.25818   122.19214   -20.12382
   237  H   1.0    0.03    1.02    1.43    55.39555   118.77715   -21.09889
   238  H   1.0    0.04    1.03    1.43    53.61898   121.30163   -19.81726
   239  H   1.0    0.07    1.07    1.44    53.95936   119.70563   -25.15620
   240  H   1.0    0.09    1.03    1.43    50.51376   123.36618   -20.66384
   241  H   1.0    0.09    1.03    1.43    47.71114   122.99547   -22.22917
   242  H   1.0    0.07    1.03    1.43    50.17735   119.14204   -27.09541
   243  H   1.0    0.08    1.03    1.43    47.61189   120.89272   -26.15089
   244  N   5.0   -0.14    3.51    2.09    59.15798   125.95799   -26.36945
   245  C   4.0    0.04    4.35    4.29    60.64517   125.08157   -28.50053
   246  C   4.0    0.10    3.30    3.05    63.36460   125.99807   -28.12910
   247  O   6.0   -0.30    1.12    1.80    65.11986   124.48439   -28.08546
   248  C   4.0   -0.05    4.24    4.09    59.52740   125.89039   -31.03687
   249  C   4.0   -0.06    4.17    3.94    58.01893   123.75736   -32.28934
   250  C   4.0   -0.05    4.18    3.95    55.78586   122.94242   -30.67075
   251  C   4.0   -0.05    4.10    3.81    54.64948   120.41169   -31.46448
   252  N   5.0   -0.12    3.97    2.79    52.72515   120.55320   -33.51307
   253  H   1.0    0.11    1.09    1.44    57.52364   126.89561   -26.70558
   254  H   1.0    0.05    1.06    1.44    60.74597   123.00548   -28.42874
   255  H   1.0    0.06    1.03    1.43    58.34104   127.55031   -30.75110
   256  H   1.0    0.04    1.03    1.43    61.06385   126.42040   -32.30560
   257  H   1.0    0.03    1.02    1.43    57.39136   124.36337   -34.15337
   258  H   1.0    0.03    1.03    1.43    59.28312   122.14590   -32.51612
   259  H   1.0    0.04    1.04    1.43    56.45479   122.71450   -28.73945
   260  H   1.0    0.05    1.02    1.43    54.32684   124.40258   -30.64803
   261  H   1.0    0.03    1.02    1.43    56.15696   119.13708   -32.04761
   262  H   1.0    0.03    1.03    1.43    53.72630   119.59137   -29.81384
   263  H   1.0    0.05    1.02    1.43    51.37130   119.19221   -33.25516
   264  H   1.0    0.07    1.02    1.43    51.81010   122.26058   -33.52937
   265  H   1.0    0.04    0.98    1.43    53.38822   120.10073   -35.39300
   266  H   1.0    0.09    1.07    1.44    20.33195   145.99144   -12.68133
   267  H   1.0    0.06    1.04    1.44    63.71990   127.84227   -27.91994

  Z AO/shell   Hii/eV     exponent
  1     Wed Apr 25 08:07:45 CEST 2018   EN: 2.200 GM2: 0.406  GM3: 0.0800  RAES: 1.40
     1s    -10.707211    1.230000
  6     Wed Apr 25 08:07:45 CEST 2018   EN: 2.550 GM2: 0.538  GM3: 0.1500  RAES: 3.00
     2s    -13.970922    2.096432
     2p    -10.063292    1.800000
  7     Wed Apr 25 08:07:45 CEST 2018   EN: 3.040 GM2: 0.461  GM3:-0.0640  RAES: 1.90
     2s    -16.686243    2.339881
     2p    -12.523956    2.014332
  8     Wed Apr 25 08:07:45 CEST 2018   EN: 3.440 GM2: 0.452  GM3:-0.0517  RAES: 1.80
     2s    -20.229985    2.439742
     2p    -15.503117    2.137023
 no old-style atom pair restraining (fixing) potential
           ------------------------------------------------- 
          |        Self-Consistent Charge Iterations        |
           ------------------------------------------------- 

 Ncao       : 675
 Nao        : 675
 Nshell     : 403
 Nel        : 766
 T(el)      :   500.0
 intcut     :    35.0
 scfconv/Eh :  0.100E-06
   qconv/e  :  0.100E-04
 intneglect :  0.100E-08
 broydamp   :      0.400
 iter      E             dE          RMSdq      gap      omega  full diag
   1   -443.3979625 -0.443398E+03  0.493E+00    3.61       0.0  T
   2   -444.6475004 -0.124954E+01  0.226E+00    2.64       1.0  T
   3   -444.7321117 -0.846113E-01  0.130E+00    2.78       1.0  T
   4   -444.8060868 -0.739751E-01  0.288E-01    2.04       1.0  T
   5   -444.8102522 -0.416541E-02  0.149E-01    2.26       1.0  T
   6   -444.8108790 -0.626828E-03  0.519E-02    2.28       1.0  T
   7   -444.8110428 -0.163796E-03  0.222E-02    2.33       1.0  T
   8   -444.8110567 -0.138916E-04  0.889E-03    2.34       1.0  T
   9   -444.8110615 -0.482132E-05  0.358E-03    2.35       1.7  T
  10   -444.8110618 -0.326025E-06  0.120E-03    2.35       5.1  T
  11   -444.8110619 -0.963154E-07  0.480E-04    2.35      12.7  T
  12   -444.8110619 -0.940031E-08  0.207E-04    2.35      29.6  T
  13   -444.8110619 -0.131831E-08  0.841E-05    2.35      72.8  T
  14   -444.8110619 -0.307182E-09  0.330E-05    2.35     185.3  T
speedup  1.87
cpu  time for SCC    8.21 s
wall time for SCC    4.39 s

   *** convergence criteria satisfied after 14 iterations ***

          eigenvalues
 #    :         371        372        373        374        375        376        377        378
 occ. :        2.000      2.000      2.000      2.000      2.000      2.000      2.000      2.000
 eps  :       -10.422    -10.416    -10.378    -10.339    -10.276    -10.223    -10.196     -9.945
 #    :         379        380        381        382        383        384        385        386
 occ. :        2.000      2.000      2.000      2.000      2.000      0.000      0.000      0.000
 eps  :        -9.885     -9.842     -9.790     -9.704     -9.663     -7.313     -7.026     -6.819
 #    :         387        388        389        390        391        392        393        394
 occ. :        0.000      0.000      0.000      0.000      0.000      0.000      0.000      0.000
 eps  :        -6.743     -6.682     -6.654     -6.614     -6.574     -6.544     -6.487     -6.342


   #   Z            q   n(s)   n(p)   n(d)      C6AA      α(0)
   1   7 N     -0.405  1.319  4.086  0.000    30.518     8.205
   2   6 C      0.033  1.059  2.908  0.000    20.037     6.376
   3   6 C      0.269  1.051  2.681  0.000    22.465     7.762
   4   8 O     -0.517  1.753  4.764  0.000    24.169     6.591
   5   6 C     -0.075  1.057  3.018  0.000    21.944     6.670
   6   6 C     -0.078  1.056  3.023  0.000    21.998     6.679
   7   6 C     -0.023  1.057  2.966  0.000    21.087     6.555
   8   7 N     -0.145  1.215  3.929  0.000    24.130     7.296
   9   6 C      0.229  1.031  2.741  0.000    23.196     7.885
  10   7 N     -0.248  1.244  4.004  0.000    26.468     7.641
  11   7 N     -0.255  1.239  4.016  0.000    26.634     7.665
  12   1 H      0.185  0.815  0.000  0.000     1.188     1.707
  13   1 H      0.040  0.960  0.000  0.000     2.448     2.447
  14   1 H      0.051  0.949  0.000  0.000     2.312     2.378
  15   1 H      0.062  0.938  0.000  0.000     2.178     2.308
  16   1 H      0.070  0.930  0.000  0.000     2.083     2.257
  17   1 H      0.066  0.934  0.000  0.000     2.132     2.283
  18   1 H      0.104  0.896  0.000  0.000     1.751     2.069
  19   1 H      0.086  0.914  0.000  0.000     1.923     2.168
  20   1 H      0.231  0.769  0.000  0.000     0.961     1.536
  21   1 H      0.241  0.759  0.000  0.000     0.919     1.502
  22   1 H      0.258  0.742  0.000  0.000     0.853     1.446
  23   1 H      0.247  0.753  0.000  0.000     0.896     1.483
  24   1 H      0.261  0.739  0.000  0.000     0.840     1.436
  25   7 N     -0.188  1.257  3.931  0.000    25.068     7.436
  26   6 C      0.023  1.054  2.923  0.000    20.169     6.391
  27   6 C      0.275  1.041  2.684  0.000    22.351     7.742
  28   8 O     -0.481  1.742  4.739  0.000    23.363     6.481
  29   6 C     -0.064  1.055  3.009  0.000    21.713     6.633
  30   6 C     -0.098  1.066  3.032  0.000    22.378     6.735
  31   6 C      0.373  1.028  2.599  0.000    20.672     7.440
  32   8 O     -0.643  1.782  4.862  0.000    27.208     6.993
  33   8 O     -0.633  1.764  4.869  0.000    26.945     6.959
  34   1 H      0.225  0.775  0.000  0.000     0.985     1.555
  35   1 H      0.095  0.905  0.000  0.000     1.832     2.117
  36   1 H      0.067  0.933  0.000  0.000     2.117     2.275
  37   1 H      0.040  0.960  0.000  0.000     2.450     2.448
  38   1 H      0.037  0.963  0.000  0.000     2.483     2.464
  39   1 H      0.005  0.995  0.000  0.000     2.977     2.698
  40   7 N     -0.183  1.261  3.922  0.000    24.961     7.420
  41   6 C      0.029  1.060  2.912  0.000    20.088     6.380
  42   6 C      0.294  1.036  2.671  0.000    22.020     7.685
  43   8 O     -0.500  1.736  4.763  0.000    23.779     6.538
  44   6 C     -0.046  1.050  2.996  0.000    21.393     6.584
  45   6 C     -0.099  1.072  3.027  0.000    22.392     6.738
  46   6 C      0.367  1.028  2.605  0.000    20.771     7.458
  47   8 O     -0.636  1.772  4.864  0.000    27.019     6.969
  48   8 O     -0.643  1.782  4.861  0.000    27.207     6.993
  49   1 H      0.211  0.789  0.000  0.000     1.054     1.608
  50   1 H      0.070  0.930  0.000  0.000     2.084     2.258
  51   1 H      0.028  0.972  0.000  0.000     2.609     2.526
  52   1 H      0.047  0.953  0.000  0.000     2.356     2.400
  53   1 H      0.035  0.965  0.000  0.000     2.520     2.483
  54   1 H      0.031  0.969  0.000  0.000     2.569     2.506
  55   7 N     -0.176  1.240  3.936  0.000    24.820     7.399
  56   6 C      0.040  1.056  2.904  0.000    19.918     6.356
  57   6 C      0.272  1.052  2.676  0.000    22.404     7.752
  58   8 O     -0.493  1.741  4.752  0.000    23.627     6.517
  59   6 C     -0.056  1.055  3.001  0.000    21.575     6.613
  60   6 C     -0.103  1.077  3.025  0.000    22.476     6.753
  61   6 C      0.363  1.035  2.603  0.000    20.851     7.472
  62   8 O     -0.645  1.778  4.867  0.000    27.244     6.998
  63   8 O     -0.642  1.784  4.858  0.000    27.176     6.989
  64   1 H      0.184  0.816  0.000  0.000     1.189     1.708
  65   1 H      0.069  0.931  0.000  0.000     2.098     2.265
  66   1 H      0.037  0.963  0.000  0.000     2.492     2.468
  67   1 H      0.058  0.942  0.000  0.000     2.228     2.334
  68   1 H      0.047  0.953  0.000  0.000     2.354     2.400
  69   1 H      0.027  0.973  0.000  0.000     2.634     2.538
  70   7 N     -0.187  1.252  3.934  0.000    25.050     7.433
  71   6 C      0.010  1.075  2.915  0.000    20.407     6.432
  72   6 C      0.280  1.047  2.673  0.000    22.255     7.724
  73   8 O     -0.501  1.742  4.759  0.000    23.806     6.542
  74   6 C      0.074  1.038  2.888  0.000    19.571     6.340
  75   8 O     -0.449  1.708  4.741  0.000    21.821     6.306
  76   1 H      0.212  0.788  0.000  0.000     1.045     1.601
  77   1 H      0.083  0.917  0.000  0.000     1.951     2.184
  78   1 H      0.083  0.917  0.000  0.000     1.944     2.180
  79   1 H      0.059  0.941  0.000  0.000     2.216     2.328
  80   1 H      0.307  0.693  0.000  0.000     0.700     1.314
  81   7 N     -0.204  1.261  3.943  0.000    25.425     7.489
  82   6 C      0.036  1.057  2.907  0.000    19.975     6.366
  83   6 C      0.274  1.045  2.681  0.000    22.373     7.746
  84   8 O     -0.501  1.742  4.759  0.000    23.799     6.541
  85   6 C     -0.120  1.042  3.078  0.000    22.843     6.814
  86   1 H      0.238  0.762  0.000  0.000     0.932     1.513
  87   1 H      0.060  0.940  0.000  0.000     2.198     2.319
  88   1 H      0.062  0.938  0.000  0.000     2.181     2.309
  89   1 H      0.056  0.944  0.000  0.000     2.246     2.343
  90   1 H      0.069  0.931  0.000  0.000     2.096     2.264
  91   7 N     -0.177  1.252  3.925  0.000    24.830     7.401
  92   6 C      0.025  1.063  2.912  0.000    20.166     6.395
  93   6 C      0.264  1.058  2.678  0.000    22.550     7.775
  94   8 O     -0.465  1.736  4.730  0.000    23.026     6.434
  95   6 C     -0.124  1.038  3.086  0.000    22.937     6.829
  96   1 H      0.216  0.784  0.000  0.000     1.029     1.589
  97   1 H      0.074  0.926  0.000  0.000     2.045     2.236
  98   1 H      0.080  0.920  0.000  0.000     1.979     2.200
  99   1 H      0.068  0.932  0.000  0.000     2.111     2.272
 100   1 H      0.064  0.936  0.000  0.000     2.148     2.292
 101   7 N     -0.189  1.244  3.945  0.000    25.098     7.441
 102   6 C      0.025  1.063  2.912  0.000    20.171     6.397
 103   6 C      0.273  1.044  2.683  0.000    22.378     7.747
 104   8 O     -0.480  1.728  4.752  0.000    23.354     6.479
 105   6 C     -0.132  1.044  3.088  0.000    23.085     6.849
 106   1 H      0.186  0.814  0.000  0.000     1.179     1.701
 107   1 H      0.088  0.912  0.000  0.000     1.903     2.157
 108   1 H      0.080  0.920  0.000  0.000     1.983     2.202
 109   1 H      0.070  0.930  0.000  0.000     2.080     2.256
 110   1 H      0.065  0.935  0.000  0.000     2.147     2.291
 111   7 N     -0.180  1.249  3.931  0.000    24.887     7.409
 112   6 C      0.020  1.058  2.922  0.000    20.237     6.406
 113   6 C      0.283  1.038  2.678  0.000    22.204     7.717
 114   8 O     -0.481  1.731  4.750  0.000    23.367     6.481
 115   6 C     -0.127  1.041  3.086  0.000    23.000     6.838
 116   1 H      0.201  0.799  0.000  0.000     1.102     1.645
 117   1 H      0.108  0.892  0.000  0.000     1.712     2.046
 118   1 H      0.073  0.927  0.000  0.000     2.048     2.238
 119   1 H      0.076  0.924  0.000  0.000     2.022     2.224
 120   1 H      0.052  0.948  0.000  0.000     2.297     2.370
 121   7 N     -0.195  1.252  3.943  0.000    25.229     7.460
 122   6 C      0.034  1.063  2.902  0.000    20.009     6.371
 123   6 C      0.281  1.043  2.675  0.000    22.238     7.722
 124   8 O     -0.468  1.732  4.736  0.000    23.082     6.441
 125   6 C     -0.046  1.051  2.996  0.000    21.399     6.586
 126   6 C     -0.096  1.068  3.029  0.000    22.347     6.732
 127   6 C      0.368  1.029  2.603  0.000    20.757     7.456
 128   8 O     -0.640  1.770  4.871  0.000    27.134     6.984
 129   8 O     -0.645  1.776  4.870  0.000    27.254     6.999
 130   1 H      0.201  0.799  0.000  0.000     1.102     1.644
 131   1 H      0.060  0.940  0.000  0.000     2.196     2.318
 132   1 H      0.044  0.956  0.000  0.000     2.400     2.423
 133   1 H      0.022  0.978  0.000  0.000     2.700     2.570
 134   1 H      0.029  0.971  0.000  0.000     2.594     2.518
 135   1 H      0.041  0.959  0.000  0.000     2.434     2.440
 136   7 N     -0.164  1.231  3.933  0.000    24.539     7.357
 137   6 C      0.025  1.055  2.920  0.000    20.137     6.387
 138   6 C      0.276  1.050  2.673  0.000    22.327     7.739
 139   8 O     -0.484  1.727  4.757  0.000    23.425     6.489
 140   6 C     -0.018  1.058  2.961  0.000    20.863     6.496
 141   6 C     -0.124  1.042  3.083  0.000    22.938     6.828
 142   6 C     -0.117  1.041  3.076  0.000    22.782     6.803
 143   1 H      0.166  0.834  0.000  0.000     1.296     1.783
 144   1 H      0.096  0.904  0.000  0.000     1.820     2.110
 145   1 H      0.037  0.963  0.000  0.000     2.490     2.467
 146   1 H      0.070  0.930  0.000  0.000     2.089     2.260
 147   1 H      0.041  0.959  0.000  0.000     2.433     2.439
 148   1 H      0.062  0.938  0.000  0.000     2.180     2.309
 149   1 H      0.058  0.942  0.000  0.000     2.217     2.328
 150   1 H      0.064  0.936  0.000  0.000     2.150     2.293
 151   1 H      0.024  0.976  0.000  0.000     2.676     2.558
 152   7 N     -0.188  1.265  3.923  0.000    25.084     7.438
 153   6 C      0.029  1.066  2.905  0.000    20.081     6.379
 154   6 C      0.295  1.046  2.659  0.000    22.003     7.681
 155   8 O     -0.496  1.728  4.768  0.000    23.704     6.528
 156   6 C     -0.063  1.054  3.008  0.000    21.702     6.633
 157   6 C     -0.105  1.071  3.034  0.000    22.520     6.758
 158   6 C      0.363  1.032  2.605  0.000    20.847     7.472
 159   8 O     -0.624  1.762  4.862  0.000    26.720     6.930
 160   8 O     -0.638  1.776  4.862  0.000    27.070     6.976
 161   1 H      0.220  0.780  0.000  0.000     1.011     1.575
 162   1 H      0.080  0.920  0.000  0.000     1.978     2.199
 163   1 H      0.057  0.943  0.000  0.000     2.240     2.341
 164   1 H      0.054  0.946  0.000  0.000     2.270     2.356
 165   1 H      0.013  0.987  0.000  0.000     2.848     2.639
 166   1 H      0.030  0.970  0.000  0.000     2.588     2.516
 167   7 N     -0.208  1.251  3.958  0.000    25.534     7.505
 168   6 C      0.029  1.058  2.913  0.000    20.087     6.382
 169   6 C      0.279  1.037  2.683  0.000    22.275     7.730
 170   8 O     -0.475  1.712  4.763  0.000    23.244     6.464
 171   6 C     -0.049  1.048  3.001  0.000    21.444     6.590
 172   6 C     -0.115  1.075  3.040  0.000    22.713     6.787
 173   6 C      0.363  1.029  2.608  0.000    20.850     7.472
 174   8 O     -0.637  1.784  4.853  0.000    27.054     6.974
 175   8 O     -0.629  1.758  4.871  0.000    26.850     6.947
 176   1 H      0.196  0.804  0.000  0.000     1.125     1.661
 177   1 H      0.057  0.943  0.000  0.000     2.229     2.335
 178   1 H      0.017  0.983  0.000  0.000     2.786     2.610
 179   1 H      0.027  0.973  0.000  0.000     2.628     2.535
 180   1 H      0.065  0.935  0.000  0.000     2.142     2.288
 181   1 H      0.033  0.967  0.000  0.000     2.546     2.495
 182   7 N     -0.167  1.245  3.921  0.000    24.605     7.367
 183   6 C      0.022  1.058  2.919  0.000    20.200     6.399
 184   6 C      0.267  1.045  2.688  0.000    22.499     7.769
 185   8 O     -0.462  1.731  4.731  0.000    22.948     6.423
 186   6 C     -0.087  1.053  3.033  0.000    22.141     6.698
 187   6 C     -0.089  1.053  3.036  0.000    22.198     6.707
 188   6 C     -0.028  1.057  2.970  0.000    21.156     6.564
 189   7 N     -0.138  1.210  3.928  0.000    23.995     7.275
 190   6 C      0.231  1.024  2.745  0.000    23.144     7.876
 191   7 N     -0.244  1.226  4.018  0.000    26.365     7.626
 192   7 N     -0.260  1.238  4.022  0.000    26.740     7.680
 193   1 H      0.197  0.803  0.000  0.000     1.123     1.660
 194   1 H      0.087  0.913  0.000  0.000     1.904     2.158
 195   1 H      0.066  0.934  0.000  0.000     2.136     2.285
 196   1 H      0.058  0.942  0.000  0.000     2.228     2.334
 197   1 H      0.077  0.923  0.000  0.000     2.006     2.215
 198   1 H      0.081  0.919  0.000  0.000     1.968     2.194
 199   1 H      0.082  0.918  0.000  0.000     1.957     2.188
 200   1 H      0.103  0.897  0.000  0.000     1.755     2.072
 201   1 H      0.216  0.784  0.000  0.000     1.028     1.589
 202   1 H      0.249  0.751  0.000  0.000     0.889     1.477
 203   1 H      0.260  0.740  0.000  0.000     0.846     1.441
 204   1 H      0.239  0.761  0.000  0.000     0.926     1.508
 205   1 H      0.257  0.743  0.000  0.000     0.857     1.450
 206   7 N     -0.161  1.234  3.927  0.000    24.487     7.349
 207   6 C      0.018  1.059  2.923  0.000    20.258     6.404
 208   6 C      0.282  1.039  2.679  0.000    22.217     7.719
 209   8 O     -0.505  1.748  4.757  0.000    23.893     6.554
 210   6 C      0.116  1.044  2.840  0.000    18.782     6.188
 211   8 O     -0.500  1.741  4.760  0.000    22.899     6.460
 212   6 C     -0.146  1.049  3.097  0.000    23.378     6.895
 213   1 H      0.207  0.793  0.000  0.000     1.071     1.622
 214   1 H      0.096  0.904  0.000  0.000     1.826     2.113
 215   1 H      0.037  0.963  0.000  0.000     2.483     2.464
 216   1 H      0.340  0.660  0.000  0.000     0.611     1.228
 217   1 H      0.068  0.932  0.000  0.000     2.110     2.272
 218   1 H      0.072  0.928  0.000  0.000     2.061     2.245
 219   1 H      0.063  0.937  0.000  0.000     2.168     2.303
 220   7 N     -0.185  1.243  3.942  0.000    25.000     7.426
 221   6 C      0.024  1.056  2.919  0.000    20.157     6.391
 222   6 C      0.277  1.041  2.682  0.000    22.316     7.737
 223   8 O     -0.496  1.755  4.741  0.000    23.697     6.527
 224   6 C     -0.091  1.056  3.035  0.000    22.227     6.710
 225   6 C     -0.082  1.053  3.030  0.000    22.062     6.687
 226   6 C     -0.031  1.056  2.975  0.000    21.202     6.570
 227   7 N     -0.134  1.210  3.924  0.000    23.900     7.261
 228   6 C      0.232  1.019  2.749  0.000    23.132     7.874
 229   7 N     -0.228  1.219  4.010  0.000    26.002     7.573
 230   7 N     -0.243  1.230  4.012  0.000    26.332     7.621
 231   1 H      0.210  0.790  0.000  0.000     1.055     1.609
 232   1 H      0.063  0.937  0.000  0.000     2.165     2.301
 233   1 H      0.043  0.957  0.000  0.000     2.407     2.426
 234   1 H      0.084  0.916  0.000  0.000     1.937     2.176
 235   1 H      0.077  0.923  0.000  0.000     2.011     2.218
 236   1 H      0.071  0.929  0.000  0.000     2.070     2.250
 237   1 H      0.110  0.890  0.000  0.000     1.695     2.036
 238   1 H      0.074  0.926  0.000  0.000     2.038     2.233
 239   1 H      0.252  0.748  0.000  0.000     0.875     1.465
 240   1 H      0.221  0.779  0.000  0.000     1.003     1.569
 241   1 H      0.218  0.782  0.000  0.000     1.016     1.579
 242   1 H      0.266  0.734  0.000  0.000     0.823     1.421
 243   1 H      0.228  0.772  0.000  0.000     0.973     1.545
 244   7 N     -0.165  1.244  3.921  0.000    24.578     7.363
 245   6 C      0.020  1.064  2.916  0.000    20.249     6.408
 246   6 C      0.216  1.081  2.703  0.000    23.438     7.929
 247   8 O     -0.371  1.755  4.617  0.000    21.119     6.161
 248   6 C     -0.085  1.056  3.029  0.000    22.115     6.695
 249   6 C     -0.087  1.056  3.031  0.000    22.159     6.702
 250   6 C     -0.098  1.053  3.045  0.000    22.369     6.734
 251   6 C     -0.051  1.058  2.993  0.000    21.588     6.632
 252   7 N     -0.138  1.229  3.909  0.000    23.973     7.272
 253   1 H      0.231  0.769  0.000  0.000     0.962     1.537
 254   1 H      0.100  0.900  0.000  0.000     1.788     2.091
 255   1 H      0.081  0.919  0.000  0.000     1.967     2.193
 256   1 H      0.069  0.931  0.000  0.000     2.099     2.266
 257   1 H      0.077  0.923  0.000  0.000     2.008     2.216
 258   1 H      0.076  0.924  0.000  0.000     2.023     2.224
 259   1 H      0.083  0.917  0.000  0.000     1.948     2.182
 260   1 H      0.066  0.934  0.000  0.000     2.128     2.281
 261   1 H      0.140  0.860  0.000  0.000     1.464     1.892
 262   1 H      0.105  0.895  0.000  0.000     1.744     2.065
 263   1 H      0.294  0.706  0.000  0.000     0.733     1.341
 264   1 H      0.272  0.728  0.000  0.000     0.802     1.403
 265   1 H      0.309  0.691  0.000  0.000     0.688     1.300
 266   1 H      0.170  0.830  0.000  0.000     1.271     1.766
 267   1 H      0.057  0.943  0.000  0.000     2.232     2.336

 Mol. C6AA /au·bohr⁶  :     680308.190801
 Mol. C8AA /au·bohr⁸  :   15033494.731124
 Mol. α(0) /au        :       1223.699052

 
molecular dipole:
                 x           y           z       tot (Debye)
 q only:      -43.665    -298.448      45.679
   full:      -48.736    -296.115      47.389     772.244
molecular quadrupole (traceless):
                xx          xy          yy          xz          yz          zz
 q only:    22118.779  -10188.187  -43837.275     497.150   10339.139   21718.496
  q+dip:    21406.406  -11043.840  -42961.790     801.990   10613.162   21555.384
   full:    21404.949  -11040.869  -42960.558     801.544   10612.334   21555.608
speedup  1.90
cpu  time for grad   10.90 s
wall time for grad    5.74 s

SCC energy    :    -444.8179334
rep           :       4.7904705
ES            :       2.3622899
AES           :      -0.1241886
AXC           :       0.0989997
disp          :      -0.3514519
XB            :       0.0000000
fix           :       0.0000000
Gborn         :       0.0000000
Gsasa         :       0.0000000
Ghb           :       0.0000000
Gshift        :       0.0000000
Gsolv         :      -0.9052438     -568.05
Etot ala COSMO:    -444.8179334
grad norm     :       0.2515856
total E       :    -439.9997582
atomizationE  :      76.8010776    48193.40
(atE without considering molecular charge,
 total energy contains solvation terms)
H-L gap (eV)  :          2.3494

------------------------------------------------------------------------
 * finished run on 2019/05/11 at 23:08:16.849     
------------------------------------------------------------------------
 total:
 * wall-time:     0 d,  0 h,  0 min,  6.144 sec
 *  cpu-time:     0 d,  0 h,  0 min, 11.492 sec
 * ratio c/w:     1.871 speedup
 SCF:
 * wall-time:     0 d,  0 h,  0 min,  5.941 sec
 *  cpu-time:     0 d,  0 h,  0 min, 11.300 sec
 * ratio c/w:     1.902 speedup

