      -----------------------------------------------------------      
     |                   =====================                   |     
     |                           x T B                           |     
     |                   =====================                   |     
     |                         S. Grimme                         |     
     |          Mulliken Center for Theoretical Chemistry        |     
     |                    University of Bonn                     |     
     |                 Version 6.0.1 (SAW181210)                 |     
      -----------------------------------------------------------      

   This program is distributed in the hope that it will be useful,
   but WITHOUT ANY WARRANTY; without even the implied warranty of
   MERCHANTABILITY or FITNESS FOR A PARTICULAR PURPOSE.
   
   FOR NON-COMMERCIAL, ACADEMIA USE ONLY.
   
   Cite this work as:
   S. Grimme, C. Bannwarth, P. Shushkov, J. Comput. Theory Chem., 2017,
   13, 1989-2009.
   C. Bannwarth, S. Ehlert and S. Grimme., ChemRxiv, 2018, preprint.
   http://doi.org/10.26434/chemrxiv.7246238.v1
   
   for sTDA-xTB:
   S. Grimme and C. Bannwarth, J. Chem. Phys., 2016, 145, 054103.
   
   in the mass-spec context:
   V. Asgeirsson, C. Bauer and S. Grimme, Chem. Sci., 2017, 8, 4879.
   
   if GBSA is used:
   P. Shushkov, F. März and S. Grimme, unpublished.
   
   for ANC optimizer:
   S. Grimme, unpublished.
   Rational Function algorithm used in ANCopt:
   F. Eckert, P. Pulay, H.-J. Werner, J. Comput. Chem., 1997, 18, 1473.
   
   with help from (in alphabetical order)
   C. Bannwarth, F. Bohle, G. Brandenburg, E. Caldeweyher, M. Checinski,
   S. Dohm, S. Ehlert, S. Ehrlich, F. März, H. Neugebauer, J. Pisarek,
   P. Pracht, P. Shushkov, and S. Spicher.
   
 * started run on 2019/05/04 at 16:32:18.260     
========================================================================
 # omp threads = 2
========================================================================
number of atoms            : 542
number of electrons        : 1430
charge                     : 6
spin                       : .0
first test random number   : .1614

########################################################################
# WARNING! Please study the warnings concerning your input carefully
#  - Process number higher than OMP_NUM_THREADS, I hope you know what you are doing.
########################################################################

           ------------------------------------------------- 
          |                 G F N 2 - x T B                 |
          | Geometry, Frequencies, Noncovalent interactions |
          |            JCTC 2018 parametrisation            |
           ------------------------------------------------- 
 
      method parameters     
 k(s)        :  1.8500
 k(p)        :  2.2300
 k(d)        :  2.2300
 k(f)        :  2.0000
 kEN (H0ij)  : -2.0000
 D4 a1       :  0.5200
 D4 a2       :  5.0000
 D4 s6       :  1.0000
 D4 s8       :  2.7000
 D4 s9       :  5.0000
 alphaj      :  2.0000

 Solvent             : h2o
 Using internal parameter file: .param_gbsa2_h2o
 Gsolv ref. state (COSMO-RS): gsolv [1 M gas/solution]
 temperature (mdtemp)       :    298.150000000000     
 dielectric constant        :    80.2000000000000     
 rho                        :    1.00000000000000     
 mass                       :    18.0000000000000     
 surface tension            :    15.5689454083859     
 probe radius               :   0.975313790000000     
 vdW radii scaling          :    1.00000000000000     
 Gshift (Eh)                :   1.857443126794793E-003
 c1                         :    1.55243817000000     
 soset                      :   0.130326360000000     
 HB correction              :  T

            Z     q(EN)     CN     RAES       Cart. coordinates
     1  N   5.0   -0.19    3.23    1.96    22.49719    99.66037   215.36829
     2  C   4.0    0.03    4.26    4.12    20.47329    98.74385   213.77525
     3  C   4.0    0.15    3.44    3.09    21.04210    99.24841   210.98034
     4  O   6.0   -0.32    1.31    1.80    20.78888    97.57978   209.38352
     5  C   4.0   -0.05    4.13    3.86    18.01098    99.92493   214.55382
     6  H   1.0    0.11    1.03    1.43    21.91515   100.88491   216.73834
     7  H   1.0    0.06    1.06    1.44    20.29188    96.70673   214.02280
     8  H   1.0    0.06    1.00    1.43    16.51054    99.21439   213.33494
     9  H   1.0    0.08    1.00    1.43    17.61792    99.42604   216.51346
    10  H   1.0    0.07    1.00    1.43    18.15838   101.97150   214.36484
    11  N   5.0   -0.14    3.50    2.08    21.86413   101.52931   210.37563
    12  C   4.0    0.04    4.39    4.37    22.44805   102.07544   207.75836
    13  C   4.0    0.16    3.50    3.11    24.68171   100.51830   206.82673
    14  O   6.0   -0.30    1.33    1.80    24.99729   100.19705   204.58173
    15  C   4.0   -0.05    4.11    3.83    22.88458   104.87223   207.35963
    16  H   1.0    0.09    1.06    1.44    22.13436   102.98440   211.60962
    17  H   1.0    0.06    1.07    1.44    20.81911   101.59356   206.59240
    18  H   1.0    0.07    1.00    1.43    23.31733   105.20671   205.37353
    19  H   1.0    0.07    1.00    1.43    21.18005   105.89835   207.88875
    20  H   1.0    0.06    1.00    1.43    24.46439   105.47883   208.53504
    21  N   5.0   -0.14    3.54    2.11    26.24640    99.54320   208.51047
    22  C   4.0    0.04    4.47    4.50    28.12479    97.74985   207.62986
    23  C   4.0    0.17    3.51    3.12    26.63191    95.55399   206.52059
    24  O   6.0   -0.30    1.29    1.80    26.94749    94.82645   204.33607
    25  C   4.0   -0.05    4.31    4.21    29.76507    96.72184   209.79549
    26  C   4.0   -0.04    4.19    3.98    31.34110    98.62291   211.25624
    27  C   4.0   -0.04    4.20    4.00    32.99839   100.14792   209.51014
    28  C   4.0   -0.02    4.13    3.86    33.29319   102.86534   210.45878
    29  N   5.0   -0.10    3.99    2.84    33.92058   104.64924   208.36307
    30  H   1.0    0.08    1.06    1.44    26.26341    99.93438   210.39831
    31  H   1.0    0.05    1.06    1.44    29.40414    98.66259   206.29760
    32  H   1.0    0.05    1.04    1.43    28.51785    95.80722   211.15609
    33  H   1.0    0.06    1.03    1.43    31.07465    95.34423   209.00180
    34  H   1.0    0.05    1.04    1.43    30.09389    99.91737   212.26347
    35  H   1.0    0.07    1.03    1.43    32.55053    97.62702   212.59417
    36  H   1.0    0.06    1.03    1.43    34.86733    99.28620   209.41376
    37  H   1.0    0.05    1.05    1.44    32.14991   100.20272   207.63364
    38  H   1.0    0.06    1.03    1.43    31.52630   103.47950   211.32049
    39  H   1.0    0.08    1.02    1.43    34.81442   102.93904   211.84584
    40  H   1.0    0.10    1.01    1.43    34.10766   106.47472   209.06794
    41  H   1.0    0.09    1.01    1.43    35.61000   104.11823   207.51081
    42  H   1.0    0.07    1.01    1.43    32.49195   104.63035   207.01381
    43  N   5.0   -0.13    3.52    2.09    24.97651    94.51086   208.08717
    44  C   4.0    0.04    4.43    4.43    23.60646    92.20918   207.47868
    45  C   4.0    0.17    3.54    3.13    21.97562    92.44161   205.11463
    46  O   6.0   -0.30    1.36    1.80    22.13814    90.84480   203.43278
    47  C   4.0   -0.03    4.37    4.32    22.01342    91.39849   209.72557
    48  C   4.0   -0.00    3.62    3.18    19.81189    89.76387   209.03771
    49  C   4.0   -0.03    3.49    3.11    19.97818    87.16928   209.17377
    50  C   4.0   -0.03    3.54    3.13    17.55366    90.82212   208.27426
    51  C   4.0   -0.02    3.45    3.09    17.94484    85.66128   208.56716
    52  C   4.0   -0.04    3.46    3.10    15.51087    89.34057   207.65443
    53  C   4.0    0.08    3.47    3.10    15.70929    86.75921   207.80938
    54  O   6.0   -0.21    2.10    1.84    13.66461    85.27955   207.19900
    55  H   1.0    0.09    1.07    1.44    24.53431    95.22518   209.82194
    56  H   1.0    0.06    1.06    1.44    25.00674    90.75031   207.08373
    57  H   1.0    0.06    1.04    1.43    23.20206    90.33457   211.02948
    58  H   1.0    0.06    1.04    1.43    21.27831    93.08223   210.65720
    59  H   1.0    0.06    1.03    1.43    21.72996    86.30378   209.76525
    60  H   1.0    0.06    1.04    1.43    17.38737    92.85357   208.16087
    61  H   1.0    0.07    1.03    1.43    18.10168    83.62982   208.68433
    62  H   1.0    0.06    1.03    1.43    13.76287    90.20229   207.04971
    63  H   1.0    0.13    1.03    1.43    12.23409    86.34725   206.70389
    64  N   5.0   -0.13    3.51    2.08    20.38258    94.38803   204.98802
    65  C   4.0    0.03    4.43    4.43    19.02387    94.90204   202.64476
    66  C   4.0    0.16    3.52    3.13    21.02509    95.00786   200.58307
    67  O   6.0   -0.30    1.40    1.80    21.55799    93.12381   199.34341
    68  C   4.0   -0.05    4.30    4.20    17.53099    97.37758   202.79027
    69  C   4.0   -0.05    4.18    3.97    15.62614    97.47962   204.96913
    70  C   4.0   -0.04    4.18    3.97    14.17483    99.97406   204.99369
    71  C   4.0   -0.03    4.13    3.87    12.35314   100.10634   207.21034
    72  N   5.0   -0.10    4.01    2.89    10.64861   102.31354   206.90609
    73  H   1.0    0.10    1.09    1.44    20.00653    95.60502   206.43366
    74  H   1.0    0.05    1.05    1.44    17.61603    93.45262   202.24603
    75  H   1.0    0.05    1.04    1.43    18.85569    98.93282   203.04349
    76  H   1.0    0.04    1.03    1.43    16.48597    97.62135   201.03283
    77  H   1.0    0.04    1.03    1.43    14.26932    95.94328   204.76126
    78  H   1.0    0.05    1.03    1.43    16.62770    97.29632   206.75870
    79  H   1.0    0.05    1.03    1.43    15.50709   101.53686   205.15432
    80  H   1.0    0.05    1.03    1.43    13.09013   100.14981   203.25136
    81  H   1.0    0.05    1.02    1.43    11.21363    98.39236   207.27837
    82  H   1.0    0.05    1.02    1.43    13.40761   100.31988   208.96590
    83  H   1.0    0.09    1.01    1.43     9.39761   102.41181   208.41976
    84  H   1.0    0.08    1.02    1.43    11.70118   103.97272   206.83995
    85  H   1.0    0.07    1.02    1.43     9.62059   102.14536   205.23936
    86  N   5.0   -0.13    3.47    2.06    22.19105    97.19994   200.28827
    87  C   4.0    0.04    4.41    4.39    24.29054    97.53065   198.53461
    88  C   4.0    0.17    3.50    3.11    25.60012    95.10424   197.57841
    89  O   6.0   -0.31    1.29    1.80    25.63980    94.60724   195.33152
    90  C   4.0   -0.02    4.33    4.26    26.20672    99.33155   199.70057
    91  C   4.0    0.05    3.71    3.25    28.27786   100.07989   197.94501
    92  N   5.0   -0.13    2.58    1.90    28.11156   102.15858   196.37843
    93  C   4.0    0.00    3.61    3.17    30.57577    99.04054   197.51605
    94  C   4.0    0.09    3.56    3.14    30.20916   102.35890   195.05373
    95  N   5.0   -0.10    3.47    2.06    31.74551   100.48996   195.70002
    96  H   1.0    0.09    1.07    1.44    21.72618    98.80621   201.24448
    97  H   1.0    0.06    1.07    1.44    23.47418    98.31677   196.81496
    98  H   1.0    0.07    1.04    1.43    25.22973   101.04743   200.28827
    99  H   1.0    0.08    1.05    1.44    27.06654    98.41693   201.33329
   100  H   1.0    0.05    1.01    1.43    31.34677    97.38514   198.42689
   101  H   1.0    0.08    1.01    1.43    30.60978   103.80454   193.67045
   102  H   1.0    0.09    1.04    1.43    33.50295   100.17815   194.97247
   103  N   5.0   -0.13    3.50    2.07    26.67159    93.56789   199.22625
   104  C   4.0    0.04    4.44    4.44    28.07755    91.38904   198.27194
   105  C   4.0    0.17    3.48    3.11    26.43916    89.12137   197.47069
   106  O   6.0   -0.31    1.30    1.80    27.18560    87.61903   195.83986
   107  C   4.0    0.04    4.18    3.96    29.95216    90.47630   200.22591
   108  O   6.0   -0.24    2.12    1.84    28.89580    88.38815   201.47313
   109  H   1.0    0.12    1.10    1.44    26.61301    93.75686   201.14432
   110  H   1.0    0.05    1.07    1.44    29.06587    92.05800   196.59197
   111  H   1.0    0.04    1.01    1.43    31.70393    89.91505   199.29806
   112  H   1.0    0.06    1.02    1.43    30.32443    91.97863   201.58463
   113  H   1.0    0.12    1.01    1.43    30.07310    87.75320   202.75437
   114  N   5.0   -0.12    3.52    2.09    24.26219    88.82657   198.68957
   115  C   4.0    0.03    4.51    4.55    22.40837    86.88960   197.99226
   116  C   4.0    0.16    3.58    3.16    21.99452    86.98786   195.16901
   117  O   6.0   -0.31    1.24    1.80    22.07389    85.07546   193.83864
   118  C   4.0   -0.02    4.32    4.23    19.84401    87.42250   199.28861
   119  C   4.0   -0.07    4.16    3.92    17.62547    86.49654   197.68801
   120  C   4.0   -0.06    4.11    3.83    19.77787    86.27544   201.92478
   121  H   1.0    0.13    1.11    1.44    23.71039    89.90560   200.18812
   122  H   1.0    0.05    1.05    1.44    23.13025    85.05468   198.58374
   123  H   1.0    0.07    1.07    1.44    19.63614    89.46341   199.47947
   124  H   1.0    0.04    1.00    1.43    15.86614    86.91228   198.67634
   125  H   1.0    0.05    1.02    1.43    17.65760    87.46786   195.87198
   126  H   1.0    0.05    1.00    1.43    17.80689    84.46508   197.40077
   127  H   1.0    0.05    1.00    1.43    17.95240    86.68173   202.78649
   128  H   1.0    0.04    1.00    1.43    20.04810    84.23831   201.77738
   129  H   1.0    0.07    1.02    1.43    21.28776    87.10314   203.05483
   130  N   5.0   -0.14    3.59    2.15    21.49752    89.28955   194.32052
   131  C   4.0    0.03    4.59    4.66    21.39548    89.95473   191.69002
   132  C   4.0    0.16    3.64    3.19    23.74441    89.11003   190.32186
   133  O   6.0   -0.31    1.31    1.80    23.65937    87.41872   188.71559
   134  C   4.0   -0.02    4.47    4.49    21.41815    92.76854   191.46703
   135  C   4.0   -0.06    4.24    4.08    22.07956    93.51687   188.80630
   136  C   4.0   -0.07    4.14    3.87    18.90104    93.84190   192.30985
   137  H   1.0    0.09    1.08    1.44    21.14414    90.78999   195.47703
   138  H   1.0    0.05    1.06    1.44    19.72874    89.04578   190.89067
   139  H   1.0    0.07    1.09    1.44    22.85624    93.57167   192.70291
   140  H   1.0    0.06    1.00    1.43    22.09090    95.57289   188.67024
   141  H   1.0    0.06    1.05    1.44    23.94472    92.77232   188.34332
   142  H   1.0    0.05    1.00    1.43    20.67360    92.73452   187.52129
   143  H   1.0    0.06    1.00    1.43    18.95395    95.89414   192.13411
   144  H   1.0    0.05    1.00    1.43    17.41005    93.07278   191.11554
   145  H   1.0    0.05    1.00    1.43    18.57034    93.31278   194.27328
   146  N   5.0   -0.14    3.57    2.13    25.84956    90.32323   190.97381
   147  C   4.0    0.04    4.41    4.39    28.27975    89.79978   189.79652
   148  C   4.0    0.16    3.49    3.11    28.78053    86.98031   189.40156
   149  O   6.0   -0.30    1.25    1.80    29.86523    86.26221   187.49105
   150  C   4.0   -0.04    4.31    4.22    30.37545    91.03755   191.30830
   151  C   4.0   -0.04    4.19    3.99    33.01918    90.01710   190.85287
   152  C   4.0   -0.04    4.18    3.97    34.85222    91.43250   192.60843
   153  C   4.0   -0.03    4.10    3.80    37.11044    89.86781   193.48148
   154  N   5.0   -0.11    3.99    2.83    38.18947    90.96952   195.87765
   155  H   1.0    0.10    1.08    1.44    25.92893    91.69328   192.32686
   156  H   1.0    0.06    1.06    1.44    28.26085    90.61236   187.90301
   157  H   1.0    0.05    1.03    1.43    30.40758    93.04444   190.84342
   158  H   1.0    0.05    1.04    1.43    29.96160    90.78621   193.30952
   159  H   1.0    0.05    1.03    1.43    33.08721    88.00454   191.28562
   160  H   1.0    0.06    1.02    1.43    33.57476    90.33646   188.89512
   161  H   1.0    0.06    1.03    1.43    35.58543    93.07656   191.60876
   162  H   1.0    0.04    1.04    1.43    33.82420    92.03154   194.29028
   163  H   1.0    0.05    1.02    1.43    36.51140    87.93273   193.85376
   164  H   1.0    0.06    1.02    1.43    38.57120    89.88670   192.02828
   165  H   1.0    0.08    1.01    1.43    39.72960    89.90371   196.47292
   166  H   1.0    0.08    1.01    1.43    38.77718    92.81767   195.56207
   167  H   1.0    0.06    1.01    1.43    36.82509    90.96574   197.29306
   168  N   5.0   -0.13    3.48    2.06    27.95661    85.36837   191.14578
   169  C   4.0    0.04    4.46    4.48    28.18904    82.64905   190.68847
   170  C   4.0    0.16    3.46    3.10    26.32388    81.66073   188.72504
   171  O   6.0   -0.30    1.29    1.80    27.09111    80.57036   186.81642
   172  C   4.0   -0.05    4.29    4.18    27.95850    81.12782   193.12432
   173  C   4.0   -0.05    4.19    3.98    30.46427    80.67051   194.41690
   174  C   4.0   -0.05    4.18    3.97    32.31998    79.28156   192.68024
   175  C   4.0   -0.04    4.12    3.84    35.00150    79.42707   193.75171
   176  N   5.0   -0.11    3.99    2.82    36.86288    77.82458   192.36276
   177  H   1.0    0.12    1.09    1.44    27.15158    85.85781   192.82764
   178  H   1.0    0.06    1.09    1.44    30.08822    82.37315   189.94013
   179  H   1.0    0.05    1.03    1.43    26.74718    82.15395   194.43768
   180  H   1.0    0.04    1.04    1.43    27.12891    79.29479   192.68780
   181  H   1.0    0.05    1.03    1.43    31.29953    82.47898   194.94224
   182  H   1.0    0.04    1.03    1.43    30.16381    79.51778   196.09686
   183  H   1.0    0.05    1.03    1.43    31.77763    77.29924   192.53284
   184  H   1.0    0.05    1.04    1.43    32.30864    80.15651   190.81508
   185  H   1.0    0.05    1.02    1.43    35.65346    81.37916   193.64967
   186  H   1.0    0.04    1.02    1.43    34.96938    78.79590   195.71325
   187  H   1.0    0.07    1.01    1.43    38.64301    78.00222   193.17724
   188  H   1.0    0.06    1.01    1.43    36.31297    75.93864   192.43646
   189  H   1.0    0.07    1.01    1.43    36.96304    78.38583   190.48249
   190  N   5.0   -0.14    3.55    2.11    23.88614    82.03867   189.20692
   191  C   4.0    0.04    4.57    4.63    21.92460    81.11271   187.52506
   192  C   4.0    0.16    3.52    3.12    22.40459    81.92340   184.82276
   193  O   6.0   -0.32    1.29    1.80    21.63736    80.68941   183.01429
   194  C   4.0   -0.03    4.19    3.98    19.37914    82.06513   188.40190
   195  S   6.0   -0.03    2.53    3.10    18.16783    80.14517   190.82453
   196  H   1.0    0.11    1.08    1.44    23.21150    82.97976   190.74894
   197  H   1.0    0.05    1.09    1.44    21.89625    79.05480   187.58176
   198  H   1.0    0.06    1.08    1.44    19.57756    83.98320   189.12377
   199  H   1.0    0.05    1.09    1.44    18.05633    82.03867   186.82209
   200  N   5.0   -0.13    3.60    2.16    23.72173    84.00777   184.53741
   201  C   4.0    0.05    4.65    4.71    24.35290    84.81279   182.03541
   202  C   4.0    0.16    3.58    3.15    26.36168    83.07613   180.94504
   203  O   6.0   -0.30    1.33    1.80    25.99885    81.98387   178.92870
   204  C   4.0   -0.03    4.21    4.01    25.30343    87.49242   182.11100
   205  S   6.0    0.02    2.65    3.10    26.15570    88.43162   179.11578
   206  H   1.0    0.11    1.11    1.44    24.35479    85.13971   185.96415
   207  H   1.0    0.06    1.08    1.44    22.68238    84.75610   180.83355
   208  H   1.0    0.05    1.09    1.44    23.81622    88.73964   182.80264
   209  H   1.0    0.06    1.09    1.44    26.95127    87.61147   183.34121
   210  N   5.0   -0.13    3.48    2.07    28.46116    82.80401   182.29997
   211  C   4.0    0.04    4.40    4.38    30.58144    81.29790   181.38912
   212  C   4.0    0.17    3.53    3.13    29.68948    78.72598   180.38568
   213  O   6.0   -0.28    1.30    1.80    30.12034    78.07781   178.20116
   214  C   4.0   -0.03    4.29    4.18    32.61289    80.98799   183.44893
   215  C   4.0   -0.01    3.51    3.12    34.98450    79.60282   182.56075
   216  C   4.0   -0.02    3.46    3.10    35.06764    76.96854   182.44926
   217  C   4.0   -0.02    3.44    3.09    37.14256    80.91995   181.84266
   218  C   4.0   -0.00    3.41    3.08    37.22571    75.68730   181.62912
   219  C   4.0   -0.01    3.42    3.08    39.31764    79.65384   181.00929
   220  C   4.0    0.09    3.42    3.09    39.34031    77.03657   180.90724
   221  O   6.0   -0.17    2.09    1.84    41.47759    75.76667   180.08710
   222  H   1.0    0.11    1.07    1.44    28.75218    83.59959   184.03096
   223  H   1.0    0.06    1.06    1.44    31.46583    82.31646   179.83199
   224  H   1.0    0.06    1.03    1.43    33.18548    82.85692   184.09899
   225  H   1.0    0.06    1.03    1.43    31.80976    79.91462   185.01173
   226  H   1.0    0.08    1.03    1.43    33.42547    75.89517   183.01051
   227  H   1.0    0.07    1.03    1.43    37.14445    82.95897   181.92770
   228  H   1.0    0.09    1.03    1.43    37.24083    73.64829   181.55920
   229  H   1.0    0.09    1.03    1.43    40.96926    80.71397   180.44993
   230  H   1.0    0.15    1.02    1.43    42.80418    76.97988   179.64491
   231  N   5.0   -0.13    3.59    2.15    28.43849    77.25011   181.96549
   232  C   4.0    0.05    4.53    4.58    27.62212    74.77835   181.12834
   233  C   4.0    0.17    3.55    3.14    26.04231    75.12983   178.79075
   234  O   6.0   -0.24    1.25    1.80    26.28231    73.74656   176.95394
   235  C   4.0   -0.03    4.34    4.27    26.05554    73.51979   183.15980
   236  C   4.0    0.25    3.17    3.03    27.41047    73.42152   185.66180
   237  O   6.0   -0.28    1.23    1.80    29.68004    74.09615   185.78463
   238  O   6.0   -0.32    1.28    1.80    26.18782    72.66185   187.52129
   239  H   1.0    0.11    1.08    1.44    27.97550    77.69797   183.78152
   240  H   1.0    0.08    1.06    1.44    29.24351    73.56514   180.75040
   241  H   1.0    0.05    1.03    1.43    24.30754    74.57992   183.41869
   242  H   1.0    0.06    1.03    1.43    25.63035    71.58849   182.58532
   243  N   5.0   -0.13    3.48    2.07    24.41904    77.02145   178.88146
   244  C   4.0    0.04    4.31    4.21    22.76553    77.59215   176.78386
   245  C   4.0    0.18    3.38    3.07    24.17337    77.95497   174.34045
   246  O   6.0   -0.23    1.25    1.80    23.27009    77.20286   172.36757
   247  H   1.0    0.11    1.07    1.44    24.20172    78.20253   180.38946
   248  H   1.0    0.07    1.06    1.44    21.42760    76.04635   176.53442
   249  H   1.0    0.07    1.03    1.43    21.72429    79.32125   177.19204
   250  N   5.0   -0.12    3.49    2.07    26.39191    79.10204   174.45383
   251  C   4.0    0.06    4.27    4.13    27.88291    79.46676   172.16915
   252  C   4.0    0.13    3.20    3.04    29.29264    77.04413   171.41515
   253  O   6.0   -0.18    1.11    1.80    29.22650    76.27879   169.21551
   254  C   4.0   -0.04    4.10    3.80    29.71972    81.64561   172.51686
   255  H   1.0    0.12    1.10    1.44    27.19883    79.78990   176.06388
   256  H   1.0    0.09    1.06    1.44    26.60734    79.95808   170.62714
   257  H   1.0    0.09    1.00    1.43    30.81387    81.88372   170.78776
   258  H   1.0    0.06    1.00    1.43    28.65580    83.36337   172.91559
   259  H   1.0    0.07    1.00    1.43    30.97828    81.21664   174.09100
   260  N   5.0   -0.15    3.21    1.96     7.17718    67.58605   184.41269
   261  C   4.0    0.04    4.30    4.19     7.74599    69.10728   186.65012
   262  C   4.0    0.10    3.23    3.04     5.56146    69.18854   188.55497
   263  O   6.0   -0.22    1.12    1.80     3.35426    69.33216   187.82364
   264  C   4.0   -0.02    4.36    4.30     8.38660    71.81714   185.81864
   265  C   4.0   -0.05    4.21    4.03    10.83380    71.78691   184.28041
   266  C   4.0   -0.08    4.15    3.90     8.49432    73.63506   188.07498
   267  C   4.0   -0.07    4.03    3.68    11.65394    74.34371   183.36011
   268  H   1.0    0.10    1.03    1.43     7.10726    68.61595   182.78374
   269  H   1.0    0.05    1.05    1.44     9.33714    68.20399   187.59498
   270  H   1.0    0.06    1.06    1.44     6.87860    72.52768   184.60922
   271  H   1.0    0.04    1.03    1.43    12.34558    71.03102   185.45959
   272  H   1.0    0.06    1.03    1.43    10.55979    70.58504   182.62878
   273  H   1.0    0.04    1.00    1.43     8.95163    75.52479   187.39278
   274  H   1.0    0.04    1.02    1.43     6.65939    73.65207   189.01039
   275  H   1.0    0.04    1.00    1.43     9.94563    72.99066   189.38644
   276  H   1.0    0.05    1.00    1.43    13.40194    74.14151   182.29052
   277  H   1.0    0.05    1.00    1.43    10.17806    75.12794   182.15446
   278  H   1.0    0.04    1.00    1.43    11.96197    75.57392   184.98338
   279  N   5.0   -0.19    3.28    1.98     6.35704    73.34593   193.91990
   280  C   4.0    0.03    4.34    4.28     7.59292    75.08070   195.64333
   281  C   4.0    0.16    3.46    3.10     6.44208    77.70931   195.55073
   282  O   6.0   -0.27    1.29    1.80     7.49465    79.54234   196.54095
   283  C   4.0   -0.04    4.39    4.37    10.42751    75.21676   195.12554
   284  C   4.0   -0.03    4.20    4.00    11.98086    72.79413   195.06129
   285  C   4.0   -0.07    4.12    3.84    14.59435    73.34782   196.10064
   286  C   4.0   -0.06    4.15    3.91    10.70530    70.67575   196.52016
   287  H   1.0    0.08    1.04    1.43     6.46664    73.81270   192.05285
   288  H   1.0    0.06    1.06    1.44     7.36426    74.35505   197.55762
   289  H   1.0    0.04    1.04    1.43    10.67128    76.10682   193.28306
   290  H   1.0    0.05    1.05    1.44    11.26088    76.39784   196.59386
   291  H   1.0    0.04    1.06    1.44    12.14905    72.12895   193.11865
   292  H   1.0    0.05    1.00    1.43    15.71307    71.61872   196.05718
   293  H   1.0    0.04    1.00    1.43    15.48819    74.79157   194.93468
   294  H   1.0    0.05    1.00    1.43    14.41672    74.02057   198.03950
   295  H   1.0    0.06    1.00    1.43    11.88260    68.98823   196.42000
   296  H   1.0    0.06    1.00    1.43    10.47475    71.25779   198.48359
   297  H   1.0    0.05    1.03    1.43     8.86281    70.29781   195.67923
   298  N   5.0   -0.13    3.41    2.03     4.26322    77.92285   194.37343
   299  C   4.0    0.02    4.41    4.39     2.91774    80.27934   194.57941
   300  C   4.0    0.15    3.50    3.11     4.19330    82.44874   193.26227
   301  O   6.0   -0.29    1.30    1.80     6.48554    82.49221   192.92023
   302  H   1.0    0.09    1.06    1.44     3.42040    76.55469   193.30952
   303  H   1.0    0.05    1.04    1.43     1.04124    80.05257   193.76116
   304  H   1.0    0.07    1.04    1.43     2.72498    80.76878   196.57118
   305  N   5.0   -0.10    3.73    2.31     2.67207    84.32146   192.62166
   306  C   4.0    0.03    4.60    4.67     2.92152    86.40583   190.84531
   307  C   4.0    0.15    3.51    3.12     5.61249    87.24865   190.48438
   308  O   6.0   -0.31    1.38    1.80     6.76333    86.67606   188.54363
   309  C   4.0   -0.04    4.54    4.59     1.50611    88.50909   192.16434
   310  C   4.0   -0.03    4.39    4.35    -0.39495    87.20896   193.63455
   311  C   4.0   -0.00    4.54    4.60     0.80313    84.87515   194.58130
   312  H   1.0    0.05    1.05    1.44     2.06736    85.88049   189.04629
   313  H   1.0    0.05    1.08    1.44     2.78546    89.57301   193.37755
   314  H   1.0    0.05    1.03    1.43     0.64440    89.76387   190.77539
   315  H   1.0    0.06    1.04    1.43    -0.99211    88.40516   195.20113
   316  H   1.0    0.06    1.04    1.43    -2.00878    86.76110   192.43457
   317  H   1.0    0.06    1.03    1.43     1.71398    85.19829   196.40111
   318  H   1.0    0.06    1.03    1.43    -0.57259    83.35014   194.74193
   319  N   5.0   -0.14    3.55    2.12     6.53278    88.66972   192.34387
   320  C   4.0    0.03    4.41    4.39     9.04612    89.75253   192.30796
   321  C   4.0    0.17    3.51    3.12    10.84136    88.07068   190.80185
   322  O   6.0   -0.30    1.24    1.80    11.94874    88.89460   188.94992
   323  C   4.0   -0.05    4.29    4.17     9.98909    90.07946   195.02161
   324  C   4.0   -0.05    4.15    3.89    10.85648    92.75342   195.70569
   325  C   4.0   -0.01    4.20    4.00    12.20385    92.82901   198.28327
   326  N   5.0   -0.14    3.37    2.01    10.47853    92.95751   200.44890
   327  C   4.0    0.09    3.34    3.06     9.45808    95.08912   201.32195
   328  N   5.0   -0.18    3.26    1.97     9.96830    97.27931   200.19001
   329  N   5.0   -0.17    3.22    1.96     7.91606    95.04188   203.31561
   330  H   1.0    0.07    1.09    1.44     5.54635    89.11003   193.94068
   331  H   1.0    0.05    1.06    1.44     9.00832    91.60258   191.40278
   332  H   1.0    0.05    1.04    1.43     8.45841    89.58057   196.30662
   333  H   1.0    0.04    1.04    1.43    11.59158    88.81901   195.31074
   334  H   1.0    0.04    1.03    1.43    12.17172    93.42805   194.27139
   335  H   1.0    0.05    1.03    1.43     9.21619    93.99686   195.80017
   336  H   1.0    0.04    1.03    1.43    13.33958    91.12259   198.48737
   337  H   1.0    0.04    1.03    1.43    13.41516    94.49386   198.34942
   338  H   1.0    0.08    1.06    1.44    10.03067    91.30967   201.34463
   339  H   1.0    0.09    1.03    1.43    11.13804    97.32278   198.65933
   340  H   1.0    0.10    1.02    1.43     9.18974    98.91204   200.85519
   341  H   1.0    0.10    1.02    1.43     7.51166    93.36758   204.18111
   342  H   1.0    0.10    1.02    1.43     7.14127    96.68027   203.97324
   343  N   5.0   -0.13    3.52    2.09    11.07568    85.69718   191.58987
   344  C   4.0    0.04    4.52    4.56    12.73675    83.89060   190.35965
   345  C   4.0    0.17    3.55    3.14    11.78811    83.20463   187.74616
   346  O   6.0   -0.32    1.38    1.80    13.21296    83.23298   185.89423
   347  C   4.0   -0.04    4.26    4.11    12.89171    81.49632   191.93002
   348  S   6.0   -0.04    2.41    3.10    14.55656    78.91874   190.42957
   349  H   1.0    0.10    1.07    1.44    10.12704    84.96019   193.09598
   350  H   1.0    0.05    1.06    1.44    14.60380    84.74665   190.19903
   351  H   1.0    0.04    1.08    1.44    13.87248    81.92907   193.68935
   352  H   1.0    0.06    1.08    1.44    10.97742    80.85004   192.33064
   353  N   5.0   -0.13    3.52    2.09     9.37115    82.55079   187.59687
   354  C   4.0    0.04    4.55    4.61     8.25243    81.78545   185.19314
   355  C   4.0    0.17    3.51    3.12     8.89116    83.65250   183.07476
   356  O   6.0   -0.28    1.25    1.80    10.24987    83.02322   181.30220
   357  C   4.0   -0.03    4.41    4.39     5.41595    81.42451   185.46715
   358  C   4.0   -0.05    4.25    4.10     4.91518    79.23243   187.26995
   359  C   4.0   -0.06    4.21    4.01     4.26322    80.88027   182.97083
   360  C   4.0   -0.06    4.03    3.67     2.14484    78.77323   187.80852
   361  H   1.0    0.10    1.08    1.44     8.15039    82.53000   189.08787
   362  H   1.0    0.05    1.06    1.44     9.10659    79.99399   184.63945
   363  H   1.0    0.05    1.06    1.44     4.58448    83.15172   186.21926
   364  H   1.0    0.04    1.04    1.43     5.68619    77.51089   186.44414
   365  H   1.0    0.05    1.04    1.43     5.84492    79.62927   189.06519
   366  H   1.0    0.06    1.01    1.43     2.23366    80.62894   183.21082
   367  H   1.0    0.06    1.01    1.43     4.62983    82.46197   181.70282
   368  H   1.0    0.06    1.01    1.43     5.09848    79.15873   182.20738
   369  H   1.0    0.06    1.00    1.43     1.96909    77.18397   189.10677
   370  H   1.0    0.05    1.00    1.43     1.33793    80.46642   188.65890
   371  H   1.0    0.06    1.00    1.43     1.17919    78.34615   186.03974
   372  N   5.0   -0.13    3.53    2.10     7.95008    85.95985   183.31476
   373  C   4.0    0.04    4.45    4.46     8.57180    88.01210   181.58755
   374  C   4.0    0.17    3.51    3.12    11.37426    88.15761   181.00740
   375  O   6.0   -0.28    1.32    1.80    12.20763    87.75509   178.87579
   376  C   4.0   -0.04    4.40    4.38     7.82158    90.49520   182.80075
   377  C   4.0   -0.04    4.32    4.23     5.44430    90.33079   184.33710
   378  C   4.0   -0.04    4.25    4.10     4.65251    92.92160   185.13456
   379  C   4.0   -0.03    4.16    3.93     1.93886    92.95940   185.94336
   380  N   5.0   -0.10    4.02    2.91     1.16407    95.59746   186.48572
   381  H   1.0    0.09    1.12    1.45     6.72742    86.48142   184.71126
   382  H   1.0    0.07    1.06    1.44     7.56268    87.68139   179.82254
   383  H   1.0    0.06    1.06    1.44     9.33903    91.10936   184.04986
   384  H   1.0    0.06    1.04    1.43     7.51922    91.89359   181.31920
   385  H   1.0    0.05    1.04    1.43     3.94008    89.49364   183.20704
   386  H   1.0    0.07    1.07    1.44     5.77878    89.19129   186.01895
   387  H   1.0    0.05    1.03    1.43     5.81280    93.53388   186.72193
   388  H   1.0    0.06    1.04    1.43     4.87738    94.22363   183.55475
   389  H   1.0    0.06    1.03    1.43     0.75022    92.21296   184.43536
   390  H   1.0    0.05    1.02    1.43     1.70264    91.83123   187.65168
   391  H   1.0    0.09    1.01    1.43    -0.62928    95.62013   187.29074
   392  H   1.0    0.08    1.02    1.43     2.43397    96.42705   187.73482
   393  H   1.0    0.09    1.02    1.43     1.13006    96.64247   184.82276
   394  N   5.0   -0.13    3.54    2.10    12.80478    88.84736   182.94815
   395  C   4.0    0.04    4.39    4.36    15.55622    88.90972   182.84988
   396  C   4.0    0.17    3.57    3.15    16.48030    86.87448   181.10189
   397  O   6.0   -0.28    1.27    1.80    17.57256    87.39605   179.13279
   398  C   4.0   -0.06    4.17    3.95    16.61825    88.47508   185.45015
   399  H   1.0    0.10    1.08    1.44    12.09803    89.38782   184.65835
   400  H   1.0    0.07    1.06    1.44    16.19873    90.74464   182.16769
   401  H   1.0    0.05    1.00    1.43    18.67427    88.52610   185.35188
   402  H   1.0    0.06    1.00    1.43    15.93795    89.95662   186.70870
   403  H   1.0    0.06    1.01    1.43    15.99464    86.63449   186.13045
   404  N   5.0   -0.13    3.54    2.11    16.02677    84.53500   181.86912
   405  C   4.0    0.05    4.37    4.32    16.89037    82.36182   180.45371
   406  C   4.0    0.11    3.34    3.06    16.23275    82.66228   177.68715
   407  O   6.0   -0.26    1.12    1.80    17.87492    82.57724   176.05254
   408  C   4.0   -0.03    4.37    4.33    15.66205    79.96564   181.45904
   409  C   4.0   -0.01    3.59    3.16    16.46140    77.63561   180.07577
   410  C   4.0   -0.04    3.48    3.11    18.35869    76.10115   181.02819
   411  C   4.0   -0.02    3.49    3.11    15.33702    76.99310   177.79865
   412  C   4.0   -0.03    3.40    3.08    19.11080    73.96009   179.74506
   413  C   4.0   -0.01    3.38    3.07    16.07590    74.85771   176.50418
   414  C   4.0   -0.02    3.40    3.08    17.97507    73.34215   177.47361
   415  H   1.0    0.12    1.15    1.45    15.05923    84.08525   183.47349
   416  H   1.0    0.08    1.08    1.44    18.93127    82.19930   180.67859
   417  H   1.0    0.05    1.04    1.43    16.17794    79.73321   183.43948
   418  H   1.0    0.07    1.04    1.43    13.61737    80.13950   181.27763
   419  H   1.0    0.06    1.03    1.43    19.25820    76.58681   182.79508
   420  H   1.0    0.07    1.03    1.43    13.86492    78.17985   177.02953
   421  H   1.0    0.06    1.03    1.43    20.58101    72.77146   180.51229
   422  H   1.0    0.09    1.03    1.43    15.17639    74.36828   174.73918
   423  H   1.0    0.08    1.03    1.43    18.57034    71.67542   176.45505
   424  N   5.0   -0.17    3.21    1.96    14.03499    87.68139   173.88691
   425  C   4.0    0.04    4.30    4.20    14.99875    89.82434   172.40348
   426  C   4.0    0.17    3.41    3.08    17.65760    89.36514   171.40381
   427  O   6.0   -0.22    1.25    1.80    18.21318    89.92261   169.24575
   428  C   4.0   -0.02    4.30    4.19    14.96096    92.29233   173.92093
   429  C   4.0   -0.01    4.18    3.96    12.39660    93.13892   174.89036
   430  C   4.0    0.26    3.12    3.03    12.60447    94.86424   177.20149
   431  O   6.0   -0.25    1.20    1.80    14.63026    94.87747   178.41470
   432  O   6.0   -0.23    1.16    1.80    10.74687    96.20217   177.82510
   433  H   1.0    0.13    1.07    1.44    13.22052    88.20863   175.55176
   434  H   1.0    0.08    1.06    1.44    13.71941    90.03977   170.80477
   435  H   1.0    0.08    1.04    1.43    16.18361    92.05611   175.56121
   436  H   1.0    0.08    1.03    1.43    15.68284    93.79844   172.71528
   437  H   1.0    0.08    1.03    1.43    11.42339    94.17827   173.40125
   438  H   1.0    0.07    1.03    1.43    11.29867    91.48163   175.42704
   439  N   5.0   -0.13    3.53    2.10    19.31111    88.36359   172.97229
   440  C   4.0    0.06    4.46    4.47    21.86980    87.82690   172.15592
   441  C   4.0    0.11    3.22    3.04    22.03798    85.64616   170.29076
   442  O   6.0   -0.20    1.12    1.80    23.33623    85.80490   168.39159
   443  C   4.0   -0.03    4.26    4.11    23.48551    87.22597   174.44816
   444  S   6.0    0.04    2.43    3.10    23.68205    89.81867   176.54954
   445  H   1.0    0.11    1.08    1.44    18.94639    87.90249   174.80721
   446  H   1.0    0.09    1.07    1.44    22.57089    89.51065   171.19783
   447  H   1.0    0.06    1.08    1.44    22.65781    85.63482   175.46105
   448  H   1.0    0.06    1.08    1.44    25.39225    86.75165   173.82833
   449  N   5.0   -0.11    4.07    3.07    24.37746    64.71333   192.15489
   450  C   4.0    0.00    4.29    4.17    23.48362    67.30225   192.55363
   451  C   4.0    0.08    3.23    3.04    21.47485    67.61028   194.62477
   452  O   6.0   -0.31    1.16    1.80    21.79043    69.13717   196.34820
   453  C   4.0   -0.04    4.32    4.24    22.50664    68.50412   190.09509
   454  C   4.0   -0.01    4.24    4.08    21.54666    71.20264   190.59776
   455  C   4.0   -0.06    4.18    3.96    23.53843    72.69931   192.04529
   456  C   4.0   -0.07    4.10    3.80    20.73596    72.66907   188.26017
   457  H   1.0    0.08    1.03    1.43    23.99952    64.16719   190.30485
   458  H   1.0    0.08    1.02    1.43    26.31443    64.63207   192.47993
   459  H   1.0    0.08    1.02    1.43    23.45339    63.50201   193.39644
   460  H   1.0    0.05    1.07    1.44    25.14469    68.33215   193.20369
   461  H   1.0    0.07    1.03    1.43    24.03542    68.59293   188.71748
   462  H   1.0    0.05    1.02    1.43    20.95139    67.37784   189.34865
   463  H   1.0    0.04    1.07    1.44    19.83078    70.99099   191.71837
   464  H   1.0    0.04    1.01    1.43    22.83167    74.60415   192.38544
   465  H   1.0    0.05    1.02    1.43    23.91259    71.75822   193.83864
   466  H   1.0    0.08    1.04    1.43    25.26375    72.78057   190.92279
   467  H   1.0    0.04    1.00    1.43    20.09346    74.53990   188.83276
   468  H   1.0    0.07    1.02    1.43    22.34412    72.83726   186.98271
   469  H   1.0    0.04    1.00    1.43    19.20340    71.65429   187.33042
   470  N   5.0   -0.18    3.23    1.96    25.61335    67.68020   200.08229
   471  C   4.0    0.04    4.29    4.19    27.58811    69.58693   200.38843
   472  C   4.0    0.16    3.41    3.08    26.45427    72.11538   201.14621
   473  O   6.0   -0.30    1.27    1.80    27.72984    73.65173   202.28193
   474  C   4.0   -0.04    4.21    4.02    29.22461    69.87984   197.99415
   475  C   4.0   -0.04    4.10    3.80    32.09322    69.28835   198.36264
   476  C   4.0   -0.04    4.07    3.74    33.86578    71.04391   196.78850
   477  C   4.0   -0.02    4.04    3.70    36.56809    71.32548   197.98092
   478  N   5.0   -0.11    3.94    2.71    38.17246    73.57047   197.11731
   479  H   1.0    0.10    1.03    1.43    25.60768    66.85061   198.34186
   480  H   1.0    0.06    1.06    1.44    28.88068    68.95009   201.86053
   481  H   1.0    0.05    1.03    1.43    28.50841    68.59293   196.55418
   482  H   1.0    0.05    1.04    1.43    29.07532    71.82625   197.33652
   483  H   1.0    0.06    1.03    1.43    32.57321    69.52835   200.35063
   484  H   1.0    0.06    1.02    1.43    32.45226    67.34571   197.78061
   485  H   1.0    0.06    1.02    1.43    34.08499    70.25400   194.89878
   486  H   1.0    0.04    1.02    1.43    33.02296    72.92041   196.67512
   487  H   1.0    0.06    1.02    1.43    36.34510    71.50311   200.02182
   488  H   1.0    0.07    1.02    1.43    37.63767    69.62283   197.53494
   489  H   1.0    0.09    1.01    1.43    39.90912    73.54968   198.03761
   490  H   1.0    0.07    1.01    1.43    38.47671    73.47221   195.17845
   491  H   1.0    0.06    1.01    1.43    37.25028    75.25611   197.53494
   492  N   5.0   -0.14    3.49    2.07    24.06188    72.55947   200.54528
   493  C   4.0    0.03    4.49    4.52    22.81466    74.86871   201.40888
   494  C   4.0    0.09    3.30    3.05    22.02098    74.66651   204.14520
   495  O   6.0   -0.30    1.19    1.80    21.91704    76.52600   205.53415
   496  C   4.0   -0.02    4.41    4.40    20.41849    75.42051   199.91789
   497  C   4.0   -0.05    4.26    4.12    20.99108    75.47531   197.10409
   498  C   4.0   -0.07    4.18    3.96    19.33568    77.93196   200.74559
   499  C   4.0   -0.08    4.09    3.78    23.03009    77.30268   196.43323
   500  H   1.0    0.10    1.08    1.44    22.95261    71.39162   199.48703
   501  H   1.0    0.05    1.08    1.44    24.19983    76.36915   201.13298
   502  H   1.0    0.05    1.06    1.44    19.04466    73.92952   200.28072
   503  H   1.0    0.05    1.04    1.43    21.59768    73.59882   196.50882
   504  H   1.0    0.04    1.03    1.43    19.28654    76.02145   196.08552
   505  H   1.0    0.04    1.00    1.43    17.62169    78.31179   199.66844
   506  H   1.0    0.07    1.02    1.43    18.89726    77.84314   202.75626
   507  H   1.0    0.04    1.00    1.43    20.72651    79.40972   200.39599
   508  H   1.0    0.04    1.01    1.43    23.34001    77.24410   194.39800
   509  H   1.0    0.04    1.00    1.43    22.44805    79.19619   197.00015
   510  H   1.0    0.04    1.01    1.43    24.75730    76.77356   197.42345
   511  N   5.0   -0.16    3.24    1.97    26.47695    76.38049   208.57283
   512  C   4.0    0.04    4.33    4.25    26.71695    79.10548   208.50291
   513  C   4.0    0.10    3.29    3.05    24.87824    80.16561   210.38508
   514  O   6.0   -0.23    1.12    1.80    25.58500    81.58669   212.08772
   515  C   4.0   -0.02    4.39    4.37    26.05176    80.16561   205.88186
   516  C   4.0   -0.04    4.24    4.08    28.00385    79.32091   203.94867
   517  C   4.0   -0.07    4.15    3.90    25.91192    83.04556   205.90643
   518  C   4.0   -0.07    4.05    3.72    27.36323    80.08436   201.30873
   519  H   1.0    0.11    1.05    1.44    25.54154    75.60760   207.07617
   520  H   1.0    0.07    1.05    1.44    28.66525    79.61381   208.93944
   521  H   1.0    0.07    1.09    1.44    24.19794    79.42673   205.37164
   522  H   1.0    0.05    1.03    1.43    29.82177    80.16183   204.42677
   523  H   1.0    0.07    1.05    1.44    28.14369    77.26677   203.99781
   524  H   1.0    0.04    1.00    1.43    25.43760    83.71074   204.01481
   525  H   1.0    0.05    1.01    1.43    24.45872    83.63515   207.24247
   526  H   1.0    0.06    1.00    1.43    27.74118    83.80145   206.47902
   527  H   1.0    0.04    1.00    1.43    28.84289    79.41728   200.04072
   528  H   1.0    0.04    1.01    1.43    25.55665    79.24343   200.78716
   529  H   1.0    0.04    1.01    1.43    27.23473    82.13849   201.21802
   530  H   1.0    0.12    1.07    1.44    23.24366    98.34711   216.14975
   531  H   1.0    0.09    1.04    1.43    30.27122    76.07808   172.71138
   532  H   1.0    0.12    1.07    1.44     8.37764    66.39780   184.21387
   533  H   1.0    0.06    1.04    1.43     5.92162    69.12492   190.40896
   534  H   1.0    0.09    1.10    1.44     7.05561    71.80254   194.06993
   535  H   1.0    0.08    1.05    1.44    14.43657    82.93502   177.16714
   536  H   1.0    0.12    1.07    1.44    12.85824    86.84933   172.98387
   537  H   1.0    0.09    1.05    1.44    21.07586    84.05174   170.61202
   538  H   1.0    0.07    1.04    1.43    19.90029    66.56647   194.57661
   539  H   1.0    0.12    1.07    1.44    25.83192    66.44673   201.23266
   540  H   1.0    0.08    1.05    1.44    21.56156    72.98457   204.87394
   541  H   1.0    0.12    1.07    1.44    28.02417    75.67474   208.59718
   542  H   1.0    0.08    1.05    1.44    23.04528    79.72082   210.26905

  Z AO/shell   Hii/eV     exponent
  1     Wed Apr 25 08:07:45 CEST 2018   EN: 2.200 GM2: 0.406  GM3: 0.0800  RAES: 1.40
     1s    -10.707211    1.230000
  6     Wed Apr 25 08:07:45 CEST 2018   EN: 2.550 GM2: 0.538  GM3: 0.1500  RAES: 3.00
     2s    -13.970922    2.096432
     2p    -10.063292    1.800000
  7     Wed Apr 25 08:07:45 CEST 2018   EN: 3.040 GM2: 0.461  GM3:-0.0640  RAES: 1.90
     2s    -16.686243    2.339881
     2p    -12.523956    2.014332
  8     Wed Apr 25 08:07:45 CEST 2018   EN: 3.440 GM2: 0.452  GM3:-0.0517  RAES: 1.80
     2s    -20.229985    2.439742
     2p    -15.503117    2.137023
 16     Tue Apr 24 11:44:34 CEST 2018   EN: 2.580 GM2: 0.340  GM3:-0.0502  RAES: 3.10
     3s    -20.029654    1.981333
     3p    -11.377694    2.025643
     3d     -0.420282    1.702555
 no old-style atom pair restraining (fixing) potential

molecular fragmentation (1/2 indicates fragments):
111111111111111111111111111111111111111111111111111111111111111111111111
111111111111111111111111111111111111111111111111111111111111111111111111
111111111111111111111111111111111111111111111111111111111111111111111111
111111111111111111111111111111111111111111122222222222222222221111111111
111111111111111111111111111111111111111111111111111111111111111111111111
111111111111111111111111111111111111111111111111111111111111111111111111
111111111111111122222222222222222222222222222222222222222222222222222222
22222222222222222222222221122111122222
# atoms in fragment 1/2:   435   107
 fragment masses (1/2) :     3077.72      590.89
CMA distance (Bohr)    :  15.385
constraining FC (au)   :  0.0500
           ------------------------------------------------- 
          |        Self-Consistent Charge Iterations        |
           ------------------------------------------------- 

 Ncao       : 1328
 Nao        : 1324
 Nshell     : 800
 Nel        : 1430
 T(el)      :   500.0
 intcut     :    35.0
 scfconv/Eh :  0.100E-06
   qconv/e  :  0.100E-04
 intneglect :  0.100E-08
 broydamp   :      0.400
 iter      E             dE          RMSdq      gap      omega  full diag
   1   -813.1782734 -0.813178E+03  0.450E+00    2.13       0.0  T
   2   -814.8175989 -0.163933E+01  0.218E+00    1.79       1.0  T
   3   -814.9152402 -0.976413E-01  0.117E+00    1.84       1.0  T
   4   -815.0504603 -0.135220E+00  0.303E-01    1.07       1.0  T
   5   -815.0583390 -0.787872E-02  0.155E-01    1.29       1.0  T
   6   -815.0605800 -0.224098E-02  0.809E-02    1.25       1.0  T
   7   -815.0612242 -0.644236E-03  0.462E-02    1.23       1.0  T
   8   -815.0613785 -0.154257E-03  0.250E-02    1.21       1.0  T
   9   -815.0614362 -0.577726E-04  0.140E-02    1.20       1.0  T
  10   -815.0614504 -0.141803E-04  0.747E-03    1.20       1.0  T
  11   -815.0614548 -0.436846E-05  0.356E-03    1.20       1.2  T
  12   -815.0614558 -0.101672E-05  0.182E-03    1.20       2.4  T
  13   -815.0614561 -0.317834E-06  0.947E-04    1.20       4.5  T
  14   -815.0614562 -0.102541E-06  0.399E-04    1.20      10.8  T
  15   -815.0614563 -0.198739E-07  0.219E-04    1.20      19.6  T
  16   -815.0614563 -0.504895E-08  0.114E-04    1.20      37.8  T
  17   -815.0614563 -0.128455E-08  0.632E-05    1.20      68.0  T
  18   -815.0614563 -0.365276E-09  0.379E-05    1.20     113.4  T
speedup  0.94
cpu  time for SCC   20.23 s
wall time for SCC   21.48 s

   *** convergence criteria satisfied after 18 iterations ***

          eigenvalues
 #    :         703        704        705        706        707        708        709        710
 occ. :        2.000      2.000      2.000      2.000      2.000      2.000      2.000      2.000
 eps  :       -10.337    -10.332    -10.266    -10.168    -10.122    -10.091    -10.025     -9.954
 #    :         711        712        713        714        715        716        717        718
 occ. :        2.000      2.000      2.000      2.000      2.000      0.000      0.000      0.000
 eps  :        -9.953     -9.871     -9.827     -9.755     -9.624     -8.422     -8.407     -7.963
 #    :         719        720        721        722        723        724        725        726
 occ. :        0.000      0.000      0.000      0.000      0.000      0.000      0.000      0.000
 eps  :        -7.918     -7.886     -7.588     -7.341     -7.294     -7.153     -6.860     -6.690


   #   Z            q   n(s)   n(p)   n(d)      C6AA      α(0)
   1   7 N     -0.396  1.314  4.082  0.000    30.268     8.171
   2   6 C      0.030  1.050  2.921  0.000    20.089     6.384
   3   6 C      0.259  1.049  2.692  0.000    22.641     7.793
   4   8 O     -0.489  1.731  4.757  0.000    23.535     6.504
   5   6 C     -0.126  1.045  3.082  0.000    22.974     6.833
   6   1 H      0.157  0.843  0.000  0.000     1.355     1.823
   7   1 H      0.035  0.965  0.000  0.000     2.515     2.480
   8   1 H      0.065  0.935  0.000  0.000     2.137     2.286
   9   1 H      0.043  0.957  0.000  0.000     2.406     2.426
  10   1 H      0.058  0.942  0.000  0.000     2.225     2.332
  11   7 N     -0.162  1.240  3.922  0.000    24.498     7.351
  12   6 C      0.012  1.057  2.931  0.000    20.375     6.426
  13   6 C      0.273  1.035  2.692  0.000    22.380     7.748
  14   8 O     -0.467  1.741  4.726  0.000    23.063     6.439
  15   6 C     -0.139  1.045  3.094  0.000    23.238     6.873
  16   1 H      0.218  0.782  0.000  0.000     1.018     1.580
  17   1 H      0.094  0.906  0.000  0.000     1.840     2.121
  18   1 H      0.078  0.922  0.000  0.000     2.002     2.212
  19   1 H      0.075  0.925  0.000  0.000     2.034     2.231
  20   1 H      0.062  0.938  0.000  0.000     2.173     2.305
  21   7 N     -0.176  1.234  3.942  0.000    24.804     7.397
  22   6 C      0.006  1.065  2.929  0.000    20.462     6.439
  23   6 C      0.280  1.037  2.683  0.000    22.254     7.726
  24   8 O     -0.479  1.734  4.745  0.000    23.320     6.475
  25   6 C     -0.090  1.056  3.034  0.000    22.208     6.708
  26   6 C     -0.078  1.049  3.029  0.000    21.994     6.676
  27   6 C     -0.100  1.053  3.047  0.000    22.408     6.739
  28   6 C     -0.054  1.064  2.990  0.000    21.638     6.640
  29   7 N     -0.151  1.237  3.914  0.000    24.259     7.315
  30   1 H      0.206  0.794  0.000  0.000     1.074     1.624
  31   1 H      0.097  0.903  0.000  0.000     1.815     2.107
  32   1 H      0.055  0.945  0.000  0.000     2.264     2.353
  33   1 H      0.074  0.926  0.000  0.000     2.044     2.236
  34   1 H      0.060  0.940  0.000  0.000     2.204     2.322
  35   1 H      0.065  0.935  0.000  0.000     2.144     2.290
  36   1 H      0.081  0.919  0.000  0.000     1.972     2.196
  37   1 H      0.085  0.915  0.000  0.000     1.930     2.173
  38   1 H      0.115  0.885  0.000  0.000     1.652     2.010
  39   1 H      0.111  0.889  0.000  0.000     1.687     2.031
  40   1 H      0.296  0.704  0.000  0.000     0.725     1.334
  41   1 H      0.298  0.702  0.000  0.000     0.719     1.329
  42   1 H      0.301  0.699  0.000  0.000     0.709     1.319
  43   7 N     -0.167  1.242  3.925  0.000    24.612     7.368
  44   6 C      0.021  1.059  2.920  0.000    20.221     6.403
  45   6 C      0.276  1.038  2.686  0.000    22.341     7.740
  46   8 O     -0.469  1.745  4.724  0.000    23.117     6.446
  47   6 C     -0.084  1.053  3.031  0.000    22.097     6.690
  48   6 C     -0.002  1.071  2.931  0.000    28.078     8.692
  49   6 C     -0.035  1.080  2.956  0.000    28.880     8.814
  50   6 C     -0.053  1.084  2.970  0.000    29.326     8.881
  51   6 C     -0.054  1.071  2.983  0.000    29.344     8.883
  52   6 C     -0.081  1.076  3.005  0.000    30.025     8.986
  53   6 C      0.146  1.044  2.810  0.000    24.827     8.167
  54   8 O     -0.462  1.744  4.718  0.000    22.090     6.345
  55   1 H      0.207  0.793  0.000  0.000     1.072     1.622
  56   1 H      0.071  0.929  0.000  0.000     2.074     2.252
  57   1 H      0.052  0.948  0.000  0.000     2.293     2.368
  58   1 H      0.075  0.925  0.000  0.000     2.031     2.229
  59   1 H      0.022  0.978  0.000  0.000     2.700     2.569
  60   1 H      0.075  0.925  0.000  0.000     2.027     2.226
  61   1 H      0.027  0.973  0.000  0.000     2.626     2.534
  62   1 H      0.073  0.927  0.000  0.000     2.053     2.241
  63   1 H      0.356  0.644  0.000  0.000     0.574     1.190
  64   7 N     -0.175  1.243  3.932  0.000    24.793     7.395
  65   6 C      0.001  1.063  2.936  0.000    20.558     6.455
  66   6 C      0.273  1.035  2.692  0.000    22.381     7.748
  67   8 O     -0.484  1.748  4.736  0.000    23.438     6.491
  68   6 C     -0.105  1.062  3.042  0.000    22.494     6.752
  69   6 C     -0.090  1.054  3.036  0.000    22.206     6.709
  70   6 C     -0.108  1.057  3.051  0.000    22.557     6.761
  71   6 C     -0.059  1.059  3.000  0.000    21.734     6.654
  72   7 N     -0.146  1.233  3.913  0.000    24.147     7.298
  73   1 H      0.241  0.759  0.000  0.000     0.918     1.501
  74   1 H      0.092  0.908  0.000  0.000     1.858     2.132
  75   1 H      0.061  0.939  0.000  0.000     2.192     2.315
  76   1 H      0.085  0.915  0.000  0.000     1.929     2.172
  77   1 H      0.079  0.921  0.000  0.000     1.986     2.204
  78   1 H      0.065  0.935  0.000  0.000     2.137     2.286
  79   1 H      0.080  0.920  0.000  0.000     1.981     2.201
  80   1 H      0.093  0.907  0.000  0.000     1.847     2.125
  81   1 H      0.129  0.871  0.000  0.000     1.541     1.941
  82   1 H      0.111  0.889  0.000  0.000     1.687     2.031
  83   1 H      0.297  0.703  0.000  0.000     0.721     1.331
  84   1 H      0.295  0.705  0.000  0.000     0.727     1.336
  85   1 H      0.295  0.705  0.000  0.000     0.730     1.338
  86   7 N     -0.170  1.248  3.922  0.000    24.668     7.377
  87   6 C      0.016  1.062  2.922  0.000    20.306     6.417
  88   6 C      0.289  1.037  2.674  0.000    22.101     7.699
  89   8 O     -0.517  1.740  4.776  0.000    24.152     6.589
  90   6 C     -0.092  1.055  3.037  0.000    22.241     6.713
  91   6 C      0.056  1.066  2.878  0.000    26.647     8.461
  92   7 N     -0.328  1.488  3.840  0.000    29.303     8.028
  93   6 C     -0.038  1.062  2.975  0.000    28.884     8.814
  94   6 C      0.090  1.057  2.853  0.000    25.975     8.360
  95   7 N     -0.093  1.242  3.851  0.000    23.052     7.131
  96   1 H      0.226  0.774  0.000  0.000     0.982     1.552
  97   1 H      0.066  0.934  0.000  0.000     2.132     2.283
  98   1 H      0.094  0.906  0.000  0.000     1.840     2.121
  99   1 H      0.093  0.907  0.000  0.000     1.847     2.125
 100   1 H      0.058  0.942  0.000  0.000     2.223     2.331
 101   1 H      0.022  0.978  0.000  0.000     2.696     2.568
 102   1 H      0.204  0.796  0.000  0.000     1.086     1.633
 103   7 N     -0.181  1.250  3.931  0.000    24.929     7.415
 104   6 C      0.013  1.062  2.926  0.000    20.361     6.424
 105   6 C      0.279  1.042  2.678  0.000    22.276     7.729
 106   8 O     -0.503  1.738  4.765  0.000    23.845     6.547
 107   6 C      0.066  1.038  2.896  0.000    19.662     6.348
 108   8 O     -0.479  1.731  4.748  0.000    22.455     6.397
 109   1 H      0.241  0.759  0.000  0.000     0.918     1.501
 110   1 H      0.076  0.924  0.000  0.000     2.020     2.223
 111   1 H      0.064  0.936  0.000  0.000     2.158     2.297
 112   1 H      0.059  0.941  0.000  0.000     2.211     2.325
 113   1 H      0.341  0.659  0.000  0.000     0.609     1.226
 114   7 N     -0.166  1.251  3.914  0.000    24.582     7.364
 115   6 C      0.012  1.066  2.921  0.000    20.367     6.425
 116   6 C      0.289  1.035  2.675  0.000    22.096     7.698
 117   8 O     -0.503  1.748  4.755  0.000    23.853     6.548
 118   6 C     -0.036  1.067  2.969  0.000    21.177     6.545
 119   6 C     -0.127  1.045  3.082  0.000    23.005     6.839
 120   6 C     -0.125  1.045  3.079  0.000    22.948     6.831
 121   1 H      0.253  0.747  0.000  0.000     0.872     1.463
 122   1 H      0.075  0.925  0.000  0.000     2.028     2.227
 123   1 H      0.085  0.915  0.000  0.000     1.926     2.171
 124   1 H      0.066  0.934  0.000  0.000     2.132     2.283
 125   1 H      0.028  0.972  0.000  0.000     2.612     2.527
 126   1 H      0.042  0.958  0.000  0.000     2.420     2.432
 127   1 H      0.052  0.948  0.000  0.000     2.301     2.372
 128   1 H      0.036  0.964  0.000  0.000     2.501     2.473
 129   1 H      0.073  0.927  0.000  0.000     2.055     2.242
 130   7 N     -0.187  1.241  3.946  0.000    25.048     7.433
 131   6 C      0.026  1.049  2.925  0.000    20.127     6.385
 132   6 C      0.285  1.039  2.676  0.000    22.166     7.711
 133   8 O     -0.529  1.755  4.774  0.000    24.442     6.628
 134   6 C     -0.042  1.058  2.984  0.000    21.270     6.557
 135   6 C     -0.125  1.040  3.084  0.000    22.935     6.827
 136   6 C     -0.132  1.045  3.087  0.000    23.081     6.849
 137   1 H      0.229  0.771  0.000  0.000     0.969     1.542
 138   1 H      0.048  0.952  0.000  0.000     2.345     2.395
 139   1 H      0.085  0.915  0.000  0.000     1.926     2.170
 140   1 H      0.059  0.941  0.000  0.000     2.209     2.324
 141   1 H      0.035  0.965  0.000  0.000     2.512     2.478
 142   1 H      0.022  0.978  0.000  0.000     2.704     2.572
 143   1 H      0.068  0.932  0.000  0.000     2.113     2.273
 144   1 H      0.044  0.956  0.000  0.000     2.398     2.421
 145   1 H      0.069  0.931  0.000  0.000     2.096     2.264
 146   7 N     -0.184  1.251  3.933  0.000    24.981     7.423
 147   6 C      0.018  1.057  2.925  0.000    20.282     6.413
 148   6 C      0.277  1.039  2.684  0.000    22.316     7.736
 149   8 O     -0.514  1.749  4.766  0.000    24.107     6.583
 150   6 C     -0.087  1.056  3.031  0.000    22.144     6.698
 151   6 C     -0.077  1.051  3.026  0.000    21.967     6.673
 152   6 C     -0.101  1.059  3.042  0.000    22.428     6.742
 153   6 C     -0.059  1.068  2.991  0.000    21.736     6.656
 154   7 N     -0.151  1.239  3.912  0.000    24.248     7.314
 155   1 H      0.236  0.764  0.000  0.000     0.942     1.520
 156   1 H      0.050  0.950  0.000  0.000     2.321     2.383
 157   1 H      0.065  0.935  0.000  0.000     2.145     2.290
 158   1 H      0.082  0.918  0.000  0.000     1.962     2.190
 159   1 H      0.069  0.931  0.000  0.000     2.094     2.263
 160   1 H      0.055  0.945  0.000  0.000     2.264     2.353
 161   1 H      0.076  0.924  0.000  0.000     2.019     2.222
 162   1 H      0.081  0.919  0.000  0.000     1.965     2.192
 163   1 H      0.134  0.866  0.000  0.000     1.506     1.919
 164   1 H      0.122  0.878  0.000  0.000     1.600     1.978
 165   1 H      0.310  0.690  0.000  0.000     0.684     1.295
 166   1 H      0.295  0.705  0.000  0.000     0.728     1.337
 167   1 H      0.296  0.704  0.000  0.000     0.726     1.335
 168   7 N     -0.176  1.251  3.926  0.000    24.821     7.399
 169   6 C      0.005  1.064  2.931  0.000    20.496     6.445
 170   6 C      0.276  1.043  2.681  0.000    22.336     7.739
 171   8 O     -0.515  1.761  4.753  0.000    24.112     6.584
 172   6 C     -0.088  1.053  3.036  0.000    22.178     6.704
 173   6 C     -0.089  1.055  3.034  0.000    22.194     6.707
 174   6 C     -0.105  1.058  3.047  0.000    22.501     6.753
 175   6 C     -0.070  1.068  3.003  0.000    21.944     6.687
 176   7 N     -0.146  1.233  3.913  0.000    24.147     7.298
 177   1 H      0.241  0.759  0.000  0.000     0.921     1.503
 178   1 H      0.105  0.895  0.000  0.000     1.740     2.063
 179   1 H      0.081  0.919  0.000  0.000     1.972     2.196
 180   1 H      0.060  0.940  0.000  0.000     2.196     2.318
 181   1 H      0.087  0.913  0.000  0.000     1.906     2.159
 182   1 H      0.087  0.913  0.000  0.000     1.904     2.158
 183   1 H      0.082  0.918  0.000  0.000     1.960     2.189
 184   1 H      0.059  0.941  0.000  0.000     2.207     2.323
 185   1 H      0.137  0.863  0.000  0.000     1.483     1.904
 186   1 H      0.138  0.862  0.000  0.000     1.478     1.901
 187   1 H      0.312  0.688  0.000  0.000     0.678     1.290
 188   1 H      0.284  0.716  0.000  0.000     0.762     1.367
 189   1 H      0.290  0.710  0.000  0.000     0.743     1.350
 190   7 N     -0.187  1.249  3.938  0.000    25.045     7.433
 191   6 C      0.040  1.048  2.912  0.000    19.864     6.338
 192   6 C      0.284  1.032  2.683  0.000    22.185     7.714
 193   8 O     -0.523  1.760  4.763  0.000    24.289     6.608
 194   6 C     -0.017  1.057  2.960  0.000    20.869     6.503
 195  16 S     -0.074  1.899  4.082  0.093   144.127    20.206
 196   1 H      0.247  0.753  0.000  0.000     0.896     1.483
 197   1 H      0.067  0.933  0.000  0.000     2.119     2.277
 198   1 H      0.070  0.930  0.000  0.000     2.087     2.259
 199   1 H      0.030  0.970  0.000  0.000     2.584     2.514
 200   7 N     -0.187  1.246  3.941  0.000    25.058     7.435
 201   6 C      0.049  1.043  2.909  0.000    19.702     6.308
 202   6 C      0.278  1.036  2.686  0.000    22.289     7.732
 203   8 O     -0.510  1.759  4.751  0.000    24.004     6.569
 204   6 C     -0.035  1.059  2.975  0.000    21.183     6.551
 205  16 S     -0.080  1.882  4.091  0.107   144.404    20.225
 206   1 H      0.243  0.757  0.000  0.000     0.910     1.495
 207   1 H      0.033  0.967  0.000  0.000     2.537     2.491
 208   1 H      0.079  0.921  0.000  0.000     1.985     2.203
 209   1 H      0.131  0.869  0.000  0.000     1.525     1.931
 210   7 N     -0.165  1.247  3.917  0.000    24.560     7.360
 211   6 C      0.019  1.063  2.918  0.000    20.255     6.409
 212   6 C      0.291  1.036  2.674  0.000    22.075     7.694
 213   8 O     -0.520  1.761  4.759  0.000    24.229     6.600
 214   6 C     -0.094  1.060  3.034  0.000    22.294     6.722
 215   6 C      0.000  1.079  2.921  0.000    28.017     8.682
 216   6 C     -0.040  1.088  2.952  0.000    28.985     8.829
 217   6 C     -0.046  1.088  2.958  0.000    29.132     8.851
 218   6 C     -0.055  1.074  2.982  0.000    29.377     8.888
 219   6 C     -0.074  1.081  2.993  0.000    29.853     8.960
 220   6 C      0.145  1.048  2.807  0.000    24.846     8.169
 221   8 O     -0.457  1.738  4.720  0.000    21.990     6.330
 222   1 H      0.243  0.757  0.000  0.000     0.911     1.496
 223   1 H      0.069  0.931  0.000  0.000     2.100     2.266
 224   1 H      0.102  0.898  0.000  0.000     1.771     2.081
 225   1 H      0.090  0.910  0.000  0.000     1.882     2.145
 226   1 H      0.043  0.957  0.000  0.000     2.406     2.425
 227   1 H      0.066  0.934  0.000  0.000     2.133     2.284
 228   1 H      0.041  0.959  0.000  0.000     2.431     2.438
 229   1 H      0.052  0.948  0.000  0.000     2.300     2.372
 230   1 H      0.344  0.656  0.000  0.000     0.602     1.219
 231   7 N     -0.167  1.240  3.927  0.000    24.622     7.370
 232   6 C      0.046  1.047  2.908  0.000    19.797     6.333
 233   6 C      0.290  1.033  2.677  0.000    22.085     7.697
 234   8 O     -0.527  1.757  4.770  0.000    24.381     6.620
 235   6 C     -0.087  1.057  3.031  0.000    22.156     6.699
 236   6 C      0.359  1.018  2.623  0.000    20.915     7.485
 237   8 O     -0.618  1.761  4.857  0.000    26.564     6.910
 238   8 O     -0.573  1.738  4.836  0.000    25.472     6.767
 239   1 H      0.226  0.774  0.000  0.000     0.981     1.552
 240   1 H      0.058  0.942  0.000  0.000     2.223     2.332
 241   1 H      0.021  0.979  0.000  0.000     2.714     2.576
 242   1 H      0.032  0.968  0.000  0.000     2.561     2.503
 243   7 N     -0.166  1.233  3.933  0.000    24.581     7.364
 244   6 C     -0.010  1.041  2.968  0.000    20.804     6.504
 245   6 C      0.293  1.030  2.677  0.000    22.033     7.687
 246   8 O     -0.525  1.749  4.776  0.000    24.345     6.615
 247   1 H      0.205  0.795  0.000  0.000     1.082     1.630
 248   1 H      0.067  0.933  0.000  0.000     2.122     2.278
 249   1 H      0.065  0.935  0.000  0.000     2.145     2.291
 250   7 N     -0.178  1.247  3.931  0.000    24.862     7.405
 251   6 C      0.037  1.053  2.910  0.000    19.952     6.360
 252   6 C      0.209  1.089  2.701  0.000    23.563     7.950
 253   8 O     -0.370  1.760  4.610  0.000    21.088     6.157
 254   6 C     -0.126  1.045  3.081  0.000    22.973     6.834
 255   1 H      0.236  0.764  0.000  0.000     0.939     1.518
 256   1 H      0.068  0.932  0.000  0.000     2.112     2.273
 257   1 H      0.077  0.923  0.000  0.000     2.009     2.216
 258   1 H      0.063  0.937  0.000  0.000     2.160     2.298
 259   1 H      0.085  0.915  0.000  0.000     1.927     2.171
 260   7 N     -0.387  1.327  4.060  0.000    30.016     8.137
 261   6 C      0.035  1.059  2.906  0.000    20.002     6.370
 262   6 C      0.196  1.090  2.714  0.000    23.816     7.992
 263   8 O     -0.372  1.767  4.605  0.000    21.133     6.163
 264   6 C     -0.019  1.066  2.953  0.000    20.874     6.498
 265   6 C     -0.060  1.048  3.012  0.000    21.648     6.624
 266   6 C     -0.118  1.046  3.073  0.000    22.827     6.813
 267   6 C     -0.103  1.034  3.068  0.000    22.518     6.767
 268   1 H      0.154  0.846  0.000  0.000     1.375     1.837
 269   1 H      0.050  0.950  0.000  0.000     2.321     2.382
 270   1 H      0.038  0.962  0.000  0.000     2.475     2.460
 271   1 H      0.049  0.951  0.000  0.000     2.327     2.385
 272   1 H      0.030  0.970  0.000  0.000     2.582     2.513
 273   1 H      0.054  0.946  0.000  0.000     2.270     2.356
 274   1 H      0.045  0.955  0.000  0.000     2.389     2.417
 275   1 H      0.060  0.940  0.000  0.000     2.195     2.317
 276   1 H      0.031  0.969  0.000  0.000     2.575     2.509
 277   1 H      0.021  0.979  0.000  0.000     2.717     2.578
 278   1 H      0.046  0.954  0.000  0.000     2.372     2.408
 279   7 N     -0.409  1.325  4.084  0.000    30.628     8.219
 280   6 C      0.023  1.057  2.919  0.000    20.191     6.400
 281   6 C      0.268  1.042  2.690  0.000    22.469     7.763
 282   8 O     -0.482  1.742  4.741  0.000    23.396     6.485
 283   6 C     -0.081  1.056  3.025  0.000    22.026     6.680
 284   6 C     -0.012  1.053  2.959  0.000    20.751     6.479
 285   6 C     -0.122  1.048  3.074  0.000    22.895     6.822
 286   6 C     -0.118  1.042  3.076  0.000    22.818     6.811
 287   1 H      0.143  0.857  0.000  0.000     1.453     1.888
 288   1 H      0.060  0.940  0.000  0.000     2.196     2.317
 289   1 H      0.028  0.972  0.000  0.000     2.622     2.532
 290   1 H      0.065  0.935  0.000  0.000     2.142     2.289
 291   1 H      0.017  0.983  0.000  0.000     2.782     2.608
 292   1 H      0.048  0.952  0.000  0.000     2.349     2.397
 293   1 H      0.051  0.949  0.000  0.000     2.302     2.373
 294   1 H      0.050  0.950  0.000  0.000     2.319     2.382
 295   1 H      0.039  0.961  0.000  0.000     2.456     2.451
 296   1 H      0.043  0.957  0.000  0.000     2.410     2.428
 297   1 H      0.032  0.968  0.000  0.000     2.558     2.501
 298   7 N     -0.156  1.227  3.929  0.000    24.380     7.333
 299   6 C     -0.030  1.046  2.984  0.000    21.145     6.553
 300   6 C      0.277  1.035  2.687  0.000    22.317     7.739
 301   8 O     -0.481  1.744  4.737  0.000    23.370     6.481
 302   1 H      0.200  0.800  0.000  0.000     1.104     1.646
 303   1 H      0.078  0.922  0.000  0.000     2.005     2.214
 304   1 H      0.101  0.899  0.000  0.000     1.772     2.082
 305   7 N     -0.116  1.235  3.880  0.000    23.515     7.202
 306   6 C      0.005  1.064  2.932  0.000    20.470     6.436
 307   6 C      0.269  1.034  2.696  0.000    22.451     7.760
 308   8 O     -0.506  1.767  4.739  0.000    23.909     6.556
 309   6 C     -0.098  1.054  3.043  0.000    22.315     6.717
 310   6 C     -0.078  1.033  3.045  0.000    21.950     6.662
 311   6 C     -0.023  1.055  2.968  0.000    20.959     6.514
 312   1 H      0.076  0.924  0.000  0.000     2.016     2.221
 313   1 H      0.091  0.909  0.000  0.000     1.865     2.135
 314   1 H      0.089  0.911  0.000  0.000     1.893     2.152
 315   1 H      0.091  0.909  0.000  0.000     1.872     2.140
 316   1 H      0.067  0.933  0.000  0.000     2.115     2.274
 317   1 H      0.074  0.926  0.000  0.000     2.047     2.237
 318   1 H      0.067  0.933  0.000  0.000     2.115     2.274
 319   7 N     -0.173  1.248  3.925  0.000    24.739     7.387
 320   6 C     -0.003  1.065  2.938  0.000    20.639     6.469
 321   6 C      0.289  1.034  2.677  0.000    22.101     7.699
 322   8 O     -0.501  1.755  4.745  0.000    23.799     6.541
 323   6 C     -0.104  1.063  3.041  0.000    22.470     6.748
 324   6 C     -0.100  1.059  3.041  0.000    22.415     6.741
 325   6 C     -0.040  1.060  2.980  0.000    21.380     6.598
 326   7 N     -0.139  1.209  3.930  0.000    24.014     7.278
 327   6 C      0.217  1.022  2.761  0.000    23.409     7.922
 328   7 N     -0.235  1.225  4.009  0.000    26.150     7.595
 329   7 N     -0.247  1.235  4.013  0.000    26.444     7.637
 330   1 H      0.246  0.754  0.000  0.000     0.901     1.487
 331   1 H      0.104  0.896  0.000  0.000     1.747     2.067
 332   1 H      0.094  0.906  0.000  0.000     1.844     2.123
 333   1 H      0.069  0.931  0.000  0.000     2.098     2.265
 334   1 H      0.072  0.928  0.000  0.000     2.063     2.246
 335   1 H      0.097  0.903  0.000  0.000     1.809     2.103
 336   1 H      0.093  0.907  0.000  0.000     1.848     2.126
 337   1 H      0.098  0.902  0.000  0.000     1.801     2.099
 338   1 H      0.230  0.770  0.000  0.000     0.964     1.538
 339   1 H      0.246  0.754  0.000  0.000     0.900     1.486
 340   1 H      0.252  0.748  0.000  0.000     0.874     1.464
 341   1 H      0.246  0.754  0.000  0.000     0.897     1.484
 342   1 H      0.259  0.741  0.000  0.000     0.849     1.443
 343   7 N     -0.180  1.241  3.940  0.000    24.905     7.412
 344   6 C      0.029  1.051  2.920  0.000    20.070     6.375
 345   6 C      0.287  1.035  2.678  0.000    22.142     7.706
 346   8 O     -0.520  1.754  4.766  0.000    24.235     6.600
 347   6 C     -0.053  1.075  2.978  0.000    21.523     6.604
 348  16 S     -0.083  1.933  4.065  0.084   144.497    20.232
 349   1 H      0.236  0.764  0.000  0.000     0.941     1.520
 350   1 H      0.066  0.934  0.000  0.000     2.136     2.285
 351   1 H      0.112  0.888  0.000  0.000     1.683     2.029
 352   1 H      0.100  0.900  0.000  0.000     1.785     2.090
 353   7 N     -0.164  1.248  3.915  0.000    24.540     7.357
 354   6 C      0.026  1.061  2.913  0.000    20.135     6.387
 355   6 C      0.291  1.034  2.674  0.000    22.061     7.691
 356   8 O     -0.527  1.772  4.755  0.000    24.382     6.620
 357   6 C     -0.030  1.058  2.972  0.000    21.069     6.528
 358   6 C     -0.069  1.050  3.019  0.000    21.813     6.648
 359   6 C     -0.114  1.035  3.079  0.000    22.730     6.795
 360   6 C     -0.116  1.040  3.076  0.000    22.784     6.807
 361   1 H      0.238  0.762  0.000  0.000     0.930     1.511
 362   1 H      0.051  0.949  0.000  0.000     2.308     2.376
 363   1 H      0.064  0.936  0.000  0.000     2.148     2.292
 364   1 H      0.039  0.961  0.000  0.000     2.457     2.451
 365   1 H      0.043  0.957  0.000  0.000     2.406     2.425
 366   1 H      0.072  0.928  0.000  0.000     2.065     2.247
 367   1 H      0.025  0.975  0.000  0.000     2.664     2.553
 368   1 H      0.032  0.968  0.000  0.000     2.565     2.504
 369   1 H      0.045  0.955  0.000  0.000     2.385     2.415
 370   1 H      0.054  0.946  0.000  0.000     2.267     2.355
 371   1 H      0.046  0.954  0.000  0.000     2.368     2.406
 372   7 N     -0.196  1.252  3.944  0.000    25.252     7.463
 373   6 C      0.030  1.053  2.917  0.000    20.069     6.378
 374   6 C      0.294  1.034  2.672  0.000    22.011     7.683
 375   8 O     -0.527  1.770  4.757  0.000    24.394     6.622
 376   6 C     -0.082  1.052  3.031  0.000    22.053     6.682
 377   6 C     -0.090  1.046  3.044  0.000    22.199     6.706
 378   6 C     -0.096  1.049  3.047  0.000    22.321     6.724
 379   6 C     -0.053  1.057  2.996  0.000    21.611     6.634
 380   7 N     -0.153  1.236  3.917  0.000    24.292     7.320
 381   1 H      0.254  0.746  0.000  0.000     0.869     1.460
 382   1 H      0.040  0.960  0.000  0.000     2.453     2.449
 383   1 H      0.064  0.936  0.000  0.000     2.154     2.295
 384   1 H      0.051  0.949  0.000  0.000     2.311     2.377
 385   1 H      0.058  0.942  0.000  0.000     2.226     2.333
 386   1 H      0.090  0.910  0.000  0.000     1.880     2.144
 387   1 H      0.094  0.906  0.000  0.000     1.844     2.123
 388   1 H      0.069  0.931  0.000  0.000     2.093     2.262
 389   1 H      0.115  0.885  0.000  0.000     1.654     2.011
 390   1 H      0.125  0.875  0.000  0.000     1.577     1.964
 391   1 H      0.315  0.685  0.000  0.000     0.671     1.283
 392   1 H      0.313  0.687  0.000  0.000     0.676     1.288
 393   1 H      0.291  0.709  0.000  0.000     0.742     1.350
 394   7 N     -0.191  1.253  3.938  0.000    25.135     7.446
 395   6 C      0.038  1.047  2.915  0.000    19.930     6.356
 396   6 C      0.301  1.028  2.670  0.000    21.886     7.662
 397   8 O     -0.532  1.759  4.773  0.000    24.515     6.638
 398   6 C     -0.129  1.044  3.086  0.000    23.027     6.840
 399   1 H      0.243  0.757  0.000  0.000     0.910     1.494
 400   1 H      0.050  0.950  0.000  0.000     2.315     2.380
 401   1 H      0.050  0.950  0.000  0.000     2.321     2.382
 402   1 H      0.099  0.901  0.000  0.000     1.798     2.097
 403   1 H      0.070  0.930  0.000  0.000     2.084     2.258
 404   7 N     -0.205  1.258  3.948  0.000    25.466     7.495
 405   6 C      0.054  1.046  2.900  0.000    19.669     6.314
 406   6 C      0.226  1.080  2.694  0.000    23.242     7.896
 407   8 O     -0.402  1.760  4.643  0.000    21.728     6.250
 408   6 C     -0.065  1.050  3.014  0.000    21.725     6.633
 409   6 C      0.012  1.079  2.909  0.000    27.736     8.639
 410   6 C     -0.035  1.079  2.957  0.000    28.880     8.813
 411   6 C     -0.039  1.078  2.960  0.000    28.958     8.825
 412   6 C     -0.031  1.078  2.953  0.000    28.769     8.796
 413   6 C     -0.031  1.079  2.952  0.000    28.773     8.796
 414   6 C     -0.035  1.080  2.955  0.000    28.860     8.810
 415   1 H      0.256  0.744  0.000  0.000     0.859     1.452
 416   1 H      0.067  0.933  0.000  0.000     2.122     2.278
 417   1 H      0.068  0.932  0.000  0.000     2.110     2.272
 418   1 H      0.072  0.928  0.000  0.000     2.063     2.246
 419   1 H      0.055  0.945  0.000  0.000     2.262     2.352
 420   1 H      0.016  0.984  0.000  0.000     2.791     2.612
 421   1 H      0.042  0.958  0.000  0.000     2.423     2.434
 422   1 H      0.031  0.969  0.000  0.000     2.571     2.507
 423   1 H      0.035  0.965  0.000  0.000     2.514     2.479
 424   7 N     -0.415  1.334  4.081  0.000    30.796     8.242
 425   6 C      0.041  1.058  2.901  0.000    19.904     6.355
 426   6 C      0.280  1.042  2.678  0.000    22.261     7.727
 427   8 O     -0.509  1.745  4.764  0.000    23.983     6.566
 428   6 C     -0.042  1.046  2.997  0.000    21.328     6.574
 429   6 C     -0.080  1.059  3.022  0.000    22.035     6.683
 430   6 C      0.366  1.027  2.607  0.000    20.786     7.461
 431   8 O     -0.640  1.769  4.871  0.000    27.121     6.982
 432   8 O     -0.642  1.760  4.882  0.000    27.186     6.991
 433   1 H      0.183  0.817  0.000  0.000     1.198     1.715
 434   1 H      0.017  0.983  0.000  0.000     2.784     2.609
 435   1 H      0.042  0.958  0.000  0.000     2.421     2.433
 436   1 H      0.013  0.987  0.000  0.000     2.847     2.639
 437   1 H      0.013  0.987  0.000  0.000     2.835     2.633
 438   1 H      0.022  0.978  0.000  0.000     2.697     2.568
 439   7 N     -0.170  1.239  3.932  0.000    24.688     7.379
 440   6 C      0.043  1.049  2.909  0.000    19.828     6.334
 441   6 C      0.206  1.081  2.713  0.000    23.631     7.961
 442   8 O     -0.340  1.747  4.593  0.000    20.524     6.074
 443   6 C      0.001  1.055  2.944  0.000    20.552     6.453
 444  16 S     -0.116  1.935  4.072  0.109   145.919    20.331
 445   1 H      0.212  0.788  0.000  0.000     1.048     1.603
 446   1 H      0.085  0.915  0.000  0.000     1.925     2.170
 447   1 H      0.046  0.954  0.000  0.000     2.367     2.406
 448   1 H      0.064  0.936  0.000  0.000     2.152     2.294
 449   7 N     -0.149  1.233  3.916  0.000    24.219     7.309
 450   6 C     -0.019  1.064  2.955  0.000    20.929     6.517
 451   6 C      0.188  1.082  2.731  0.000    23.983     8.020
 452   8 O     -0.309  1.748  4.561  0.000    19.949     5.988
 453   6 C     -0.092  1.065  3.027  0.000    22.251     6.715
 454   6 C     -0.007  1.055  2.952  0.000    20.673     6.467
 455   6 C     -0.158  1.054  3.105  0.000    23.618     6.929
 456   6 C     -0.111  1.040  3.070  0.000    22.672     6.790
 457   1 H      0.301  0.699  0.000  0.000     0.710     1.320
 458   1 H      0.314  0.686  0.000  0.000     0.672     1.284
 459   1 H      0.302  0.698  0.000  0.000     0.707     1.317
 460   1 H      0.143  0.857  0.000  0.000     1.443     1.879
 461   1 H      0.088  0.912  0.000  0.000     1.896     2.154
 462   1 H      0.063  0.937  0.000  0.000     2.169     2.303
 463   1 H      0.033  0.967  0.000  0.000     2.545     2.495
 464   1 H      0.049  0.951  0.000  0.000     2.332     2.388
 465   1 H      0.064  0.936  0.000  0.000     2.157     2.297
 466   1 H      0.096  0.904  0.000  0.000     1.825     2.113
 467   1 H      0.026  0.974  0.000  0.000     2.650     2.546
 468   1 H      0.046  0.954  0.000  0.000     2.374     2.410
 469   1 H      0.012  0.988  0.000  0.000     2.852     2.641
 470   7 N     -0.398  1.332  4.065  0.000    30.316     8.177
 471   6 C      0.020  1.062  2.918  0.000    20.253     6.410
 472   6 C      0.270  1.043  2.687  0.000    22.446     7.759
 473   8 O     -0.493  1.734  4.759  0.000    23.625     6.517
 474   6 C     -0.082  1.068  3.014  0.000    22.064     6.688
 475   6 C     -0.078  1.062  3.016  0.000    21.993     6.679
 476   6 C     -0.099  1.067  3.031  0.000    22.392     6.739
 477   6 C     -0.060  1.073  2.986  0.000    21.773     6.665
 478   7 N     -0.146  1.239  3.907  0.000    24.151     7.299
 479   1 H      0.156  0.844  0.000  0.000     1.362     1.828
 480   1 H      0.043  0.957  0.000  0.000     2.414     2.429
 481   1 H      0.051  0.949  0.000  0.000     2.311     2.377
 482   1 H      0.070  0.930  0.000  0.000     2.085     2.258
 483   1 H      0.054  0.946  0.000  0.000     2.276     2.359
 484   1 H      0.049  0.951  0.000  0.000     2.334     2.389
 485   1 H      0.079  0.921  0.000  0.000     1.992     2.207
 486   1 H      0.094  0.906  0.000  0.000     1.842     2.122
 487   1 H      0.116  0.884  0.000  0.000     1.643     2.004
 488   1 H      0.109  0.891  0.000  0.000     1.707     2.043
 489   1 H      0.307  0.693  0.000  0.000     0.692     1.303
 490   1 H      0.288  0.712  0.000  0.000     0.749     1.356
 491   1 H      0.301  0.699  0.000  0.000     0.710     1.320
 492   7 N     -0.176  1.243  3.932  0.000    24.802     7.396
 493   6 C      0.015  1.062  2.924  0.000    20.326     6.418
 494   6 C      0.200  1.082  2.718  0.000    23.745     7.981
 495   8 O     -0.369  1.755  4.614  0.000    21.068     6.154
 496   6 C     -0.021  1.060  2.961  0.000    20.901     6.501
 497   6 C     -0.082  1.050  3.032  0.000    22.055     6.685
 498   6 C     -0.120  1.040  3.080  0.000    22.841     6.813
 499   6 C     -0.128  1.041  3.087  0.000    23.015     6.841
 500   1 H      0.226  0.774  0.000  0.000     0.983     1.553
 501   1 H      0.119  0.881  0.000  0.000     1.621     1.991
 502   1 H      0.040  0.960  0.000  0.000     2.453     2.449
 503   1 H      0.065  0.935  0.000  0.000     2.146     2.291
 504   1 H      0.052  0.948  0.000  0.000     2.295     2.369
 505   1 H      0.054  0.946  0.000  0.000     2.275     2.359
 506   1 H      0.041  0.959  0.000  0.000     2.439     2.442
 507   1 H      0.060  0.940  0.000  0.000     2.197     2.318
 508   1 H      0.045  0.955  0.000  0.000     2.386     2.416
 509   1 H      0.051  0.949  0.000  0.000     2.307     2.375
 510   1 H      0.059  0.941  0.000  0.000     2.212     2.326
 511   7 N     -0.399  1.328  4.071  0.000    30.345     8.181
 512   6 C      0.041  1.053  2.906  0.000    19.894     6.352
 513   6 C      0.211  1.088  2.700  0.000    23.526     7.944
 514   8 O     -0.408  1.760  4.647  0.000    21.834     6.265
 515   6 C     -0.038  1.069  2.970  0.000    21.220     6.551
 516   6 C     -0.073  1.046  3.027  0.000    21.887     6.659
 517   6 C     -0.117  1.043  3.074  0.000    22.793     6.807
 518   6 C     -0.121  1.042  3.079  0.000    22.877     6.820
 519   1 H      0.158  0.842  0.000  0.000     1.346     1.818
 520   1 H      0.046  0.954  0.000  0.000     2.368     2.407
 521   1 H      0.066  0.934  0.000  0.000     2.134     2.284
 522   1 H      0.039  0.961  0.000  0.000     2.464     2.455
 523   1 H      0.057  0.943  0.000  0.000     2.233     2.337
 524   1 H      0.068  0.932  0.000  0.000     2.104     2.268
 525   1 H      0.020  0.980  0.000  0.000     2.741     2.589
 526   1 H      0.043  0.957  0.000  0.000     2.410     2.428
 527   1 H      0.060  0.940  0.000  0.000     2.199     2.319
 528   1 H      0.037  0.963  0.000  0.000     2.485     2.465
 529   1 H      0.052  0.948  0.000  0.000     2.300     2.372
 530   1 H      0.174  0.826  0.000  0.000     1.250     1.751
 531   1 H      0.084  0.916  0.000  0.000     1.940     2.178
 532   1 H      0.183  0.817  0.000  0.000     1.199     1.715
 533   1 H      0.078  0.922  0.000  0.000     1.999     2.211
 534   1 H      0.177  0.823  0.000  0.000     1.232     1.739
 535   1 H      0.056  0.944  0.000  0.000     2.248     2.344
 536   1 H      0.169  0.831  0.000  0.000     1.278     1.771
 537   1 H      0.068  0.932  0.000  0.000     2.109     2.271
 538   1 H      0.099  0.901  0.000  0.000     1.793     2.094
 539   1 H      0.171  0.829  0.000  0.000     1.264     1.761
 540   1 H      0.056  0.944  0.000  0.000     2.242     2.341
 541   1 H      0.184  0.816  0.000  0.000     1.194     1.711
 542   1 H      0.062  0.938  0.000  0.000     2.178     2.308

 Mol. C6AA /au·bohr⁶  :    2678787.156178
 Mol. C8AA /au·bohr⁸  :   61170174.169051
 Mol. α(0) /au        :       2461.568619

 
molecular dipole:
                 x           y           z       tot (Debye)
 q only:      143.409     549.565    1251.885
   full:      141.255     549.485    1250.941    3491.383
molecular quadrupole (traceless):
                xx          xy          yy          xz          yz          zz
 q only:  -150365.510   19002.357  -80847.295   44624.565  172135.559  231212.805
  q+dip:  -150322.580   18736.007  -80621.406   44042.839  172027.334  230943.987
   full:  -150323.167   18736.502  -80620.725   44042.110  172023.175  230943.892
speedup  0.95
cpu  time for grad   24.10 s
wall time for grad   25.44 s

SCC energy    :    -815.0878195
rep           :      10.0591416
ES            :       3.8317581
AES           :      -0.2219407
AXC           :       0.3169450
disp          :      -0.7389769
XB            :       0.0000000
fix           :       0.0000000
Gborn         :       0.0000000
Gsasa         :       0.0000000
Ghb           :       0.0000000
Gshift        :       0.0000000
Gsolv         :      -2.0649798    -1295.79
Etot ala COSMO:    -815.0878195
grad norm     :       0.6416342
total E       :    -804.9477582
atomizationE  :     147.6666856    92662.24
(atE without considering molecular charge,
 total energy contains solvation terms)
H-L gap (eV)  :          1.2017

------------------------------------------------------------------------
 * finished run on 2019/05/04 at 16:32:45.349     
------------------------------------------------------------------------
 total:
 * wall-time:     0 d,  0 h,  0 min, 27.086 sec
 *  cpu-time:     0 d,  0 h,  0 min, 25.235 sec
 * ratio c/w:     0.932 speedup
 SCF:
 * wall-time:     0 d,  0 h,  0 min, 26.507 sec
 *  cpu-time:     0 d,  0 h,  0 min, 24.945 sec
 * ratio c/w:     0.941 speedup

