      -----------------------------------------------------------      
     |                   =====================                   |     
     |                           x T B                           |     
     |                   =====================                   |     
     |                         S. Grimme                         |     
     |          Mulliken Center for Theoretical Chemistry        |     
     |                    University of Bonn                     |     
     |                 Version 6.0.1 (SAW181210)                 |     
      -----------------------------------------------------------      

   This program is distributed in the hope that it will be useful,
   but WITHOUT ANY WARRANTY; without even the implied warranty of
   MERCHANTABILITY or FITNESS FOR A PARTICULAR PURPOSE.
   
   FOR NON-COMMERCIAL, ACADEMIA USE ONLY.
   
   Cite this work as:
   S. Grimme, C. Bannwarth, P. Shushkov, J. Comput. Theory Chem., 2017,
   13, 1989-2009.
   C. Bannwarth, S. Ehlert and S. Grimme., ChemRxiv, 2018, preprint.
   http://doi.org/10.26434/chemrxiv.7246238.v1
   
   for sTDA-xTB:
   S. Grimme and C. Bannwarth, J. Chem. Phys., 2016, 145, 054103.
   
   in the mass-spec context:
   V. Asgeirsson, C. Bauer and S. Grimme, Chem. Sci., 2017, 8, 4879.
   
   if GBSA is used:
   P. Shushkov, F. März and S. Grimme, unpublished.
   
   for ANC optimizer:
   S. Grimme, unpublished.
   Rational Function algorithm used in ANCopt:
   F. Eckert, P. Pulay, H.-J. Werner, J. Comput. Chem., 1997, 18, 1473.
   
   with help from (in alphabetical order)
   C. Bannwarth, F. Bohle, G. Brandenburg, E. Caldeweyher, M. Checinski,
   S. Dohm, S. Ehlert, S. Ehrlich, F. März, H. Neugebauer, J. Pisarek,
   P. Pracht, P. Shushkov, and S. Spicher.
   
 * started run on 2019/05/11 at 23:19:00.247     
========================================================================
 # omp threads = 2
========================================================================
number of atoms            : 602
number of electrons        : 1596
charge                     : -4
spin                       : .0
first test random number   : .6989

########################################################################
# WARNING! Please study the warnings concerning your input carefully
#  - Process number higher than OMP_NUM_THREADS, I hope you know what you are doing.
########################################################################

           ------------------------------------------------- 
          |                 G F N 2 - x T B                 |
          | Geometry, Frequencies, Noncovalent interactions |
          |            JCTC 2018 parametrisation            |
           ------------------------------------------------- 
 
      method parameters     
 k(s)        :  1.8500
 k(p)        :  2.2300
 k(d)        :  2.2300
 k(f)        :  2.0000
 kEN (H0ij)  : -2.0000
 D4 a1       :  0.5200
 D4 a2       :  5.0000
 D4 s6       :  1.0000
 D4 s8       :  2.7000
 D4 s9       :  5.0000
 alphaj      :  2.0000

 Solvent             : h2o
 Using internal parameter file: .param_gbsa2_h2o
 Gsolv ref. state (COSMO-RS): gsolv [1 M gas/solution]
 temperature (mdtemp)       :    298.150000000000     
 dielectric constant        :    80.2000000000000     
 rho                        :    1.00000000000000     
 mass                       :    18.0000000000000     
 surface tension            :    15.5689454083859     
 probe radius               :   0.975313790000000     
 vdW radii scaling          :    1.00000000000000     
 Gshift (Eh)                :   1.857443126794793E-003
 c1                         :    1.55243817000000     
 soset                      :   0.130326360000000     
 HB correction              :  T

            Z     q(EN)     CN     RAES       Cart. coordinates
     1  N   5.0   -0.23    3.17    1.95     5.38413   181.07299    -2.40953
     2  C   4.0    0.02    4.21    4.01     3.63971   178.99887    -1.73491
     3  C   4.0    0.14    3.46    3.10     4.88463   176.71780    -0.41012
     4  O   6.0   -0.32    1.29    1.80     4.24008   175.82402     1.62411
     5  C   4.0   -0.09    4.13    3.85     2.42991   177.97478    -4.18575
     6  H   1.0    0.07    1.03    1.43     6.00523   180.97729    -4.22675
     7  H   1.0    0.03    1.04    1.44     2.22118   179.76083    -0.43376
     8  H   1.0    0.03    1.00    1.43     1.33222   176.29342    -3.76387
     9  H   1.0    0.02    1.00    1.43     1.18967   179.39405    -4.99985
    10  H   1.0    0.03    1.00    1.43     3.87946   177.51855    -5.56571
    11  N   5.0   -0.15    3.58    2.14     6.74655   175.67987    -1.74555
    12  C   4.0    0.03    4.44    4.44     8.02012   173.47455    -0.77960
    13  C   4.0    0.16    3.48    3.11     8.93556   174.15062     1.89908
    14  O   6.0   -0.31    1.31    1.80     8.76028   172.60753     3.60496
    15  C   4.0   -0.06    4.29    4.18     9.96775   172.62469    -2.74050
    16  C   4.0   -0.03    4.14    3.88     8.96145   170.71314    -4.73999
    17  C   4.0   -0.08    4.10    3.80     6.31109   171.25867    -5.75659
    18  C   4.0   -0.08    4.10    3.80    10.81173   170.64359    -6.97567
    19  H   1.0    0.07    1.07    1.44     7.14606   176.26814    -3.51495
    20  H   1.0    0.05    1.06    1.44     6.66955   171.92607    -0.47520
    21  H   1.0    0.03    1.03    1.43    10.70600   174.29157    -3.70413
    22  H   1.0    0.04    1.03    1.43    11.53985   171.71838    -1.76245
    23  H   1.0    0.03    1.05    1.44     8.91853   168.85359    -3.83404
    24  H   1.0    0.03    1.00    1.43     5.78525   169.74862    -7.04754
    25  H   1.0    0.04    1.00    1.43     4.90076   171.32470    -4.26807
    26  H   1.0    0.03    1.00    1.43     6.27569   173.01798    -6.82119
    27  H   1.0    0.03    1.00    1.43    10.33301   169.12713    -8.27316
    28  H   1.0    0.04    1.00    1.43    10.73183   172.41595    -8.01522
    29  H   1.0    0.03    1.00    1.43    12.73398   170.35153    -6.31577
    30  N   5.0   -0.14    3.47    2.06     9.80020   176.50346     2.23614
    31  C   4.0    0.03    4.31    4.22     9.86935   177.94930     4.61284
    32  C   4.0    0.16    3.39    3.08     9.18984   176.28394     6.94178
    33  O   6.0   -0.31    1.19    1.80    10.71979   175.64883     8.55722
    34  C   4.0   -0.05    4.26    4.13     8.03470   180.23346     4.28593
    35  C   4.0   -0.06    4.14    3.88     8.62063   182.68932     5.71599
    36  C   4.0   -0.06    4.18    3.95    10.35630   184.37906     4.13012
    37  C   4.0   -0.06    4.11    3.82    10.92926   186.89372     5.41186
    38  N   5.0   -0.14    4.01    2.89    12.88801   188.30430     3.94076
    39  H   1.0    0.07    1.08    1.44     9.95473   177.61261     0.68500
    40  H   1.0    0.04    1.05    1.44    11.81343   178.60023     4.89672
    41  H   1.0    0.04    1.04    1.43     7.98206   180.69582     2.27805
    42  H   1.0    0.04    1.04    1.43     6.12737   179.64379     4.77000
    43  H   1.0    0.02    1.03    1.43     6.83788   183.67013     6.02730
    44  H   1.0    0.03    1.02    1.43     9.45803   182.26876     7.54918
    45  H   1.0    0.03    1.03    1.43    12.11318   183.36401     3.77622
    46  H   1.0    0.03    1.03    1.43     9.41865   184.72444     2.33030
    47  H   1.0    0.02    1.02    1.43     9.22590   188.04481     5.54135
    48  H   1.0    0.02    1.02    1.43    11.65080   186.57514     7.31649
    49  H   1.0    0.02    1.02    1.43    13.33316   189.97744     4.83512
    50  H   1.0    0.03    1.02    1.43    14.50882   187.23226     3.78744
    51  H   1.0    0.03    1.02    1.43    12.23700   188.71039     2.15253
    52  N   5.0   -0.14    3.56    2.12     6.70416   175.78462     7.03861
    53  C   4.0    0.03    4.47    4.49     5.35533   174.52513     9.03489
    54  C   4.0    0.14    3.66    3.21     4.55506   171.83457     8.44573
    55  O   6.0   -0.31    1.43    1.80     4.19599   170.44536    10.27840
    56  C   4.0   -0.02    4.33    4.25     2.87640   175.96104     9.66810
    57  C   4.0   -0.05    4.20    4.01     0.81251   175.43722     7.65334
    58  C   4.0   -0.09    4.12    3.84     3.45628   178.79602     9.89465
    59  C   4.0   -0.08    4.02    3.65    -0.90038   173.14609     8.13557
    60  H   1.0    0.09    1.09    1.44     5.65736   176.12928     5.47241
    61  H   1.0    0.05    1.06    1.44     6.58830   174.49569    10.69198
    62  H   1.0    0.04    1.06    1.44     2.23589   175.24571    11.48845
    63  H   1.0    0.03    1.03    1.43    -0.40724   177.09808     7.54656
    64  H   1.0    0.05    1.03    1.43     1.69081   175.23480     5.79842
    65  H   1.0    0.02    1.00    1.43     1.87174   179.74232    10.79363
    66  H   1.0    0.04    1.00    1.43     5.14039   179.10413    11.01909
    67  H   1.0    0.03    1.00    1.43     3.71736   179.62549     8.03720
    68  H   1.0    0.03    1.00    1.43    -1.89404   172.64047     6.41340
    69  H   1.0    0.06    1.02    1.43     0.14563   171.51226     8.78639
    70  H   1.0    0.03    1.00    1.43    -2.29005   173.58731     9.58697
    71  N   5.0   -0.15    3.46    2.06     4.11080   171.09424     6.03286
    72  C   4.0    0.04    4.43    4.44     3.87392   168.38728     5.66409
    73  C   4.0    0.16    3.42    3.08     6.11940   166.94345     6.90378
    74  O   6.0   -0.31    1.22    1.80     5.95655   164.68416     7.31754
    75  C   4.0   -0.05    4.29    4.18     3.43084   167.48327     2.94565
    76  C   4.0   -0.02    4.20    4.00     2.11168   164.86960     2.97695
    77  C   4.0   -0.09    4.12    3.84    -0.72845   165.18713     3.30157
    78  C   4.0   -0.08    4.11    3.82     2.57472   163.36928     0.58507
    79  H   1.0    0.11    1.08    1.44     4.87216   172.11842     4.60477
    80  H   1.0    0.05    1.07    1.44     2.23019   167.80793     6.78879
    81  H   1.0    0.04    1.02    1.43     2.26482   168.84870     1.93429
    82  H   1.0    0.05    1.03    1.43     5.24790   167.30981     1.97420
    83  H   1.0    0.06    1.07    1.44     2.87607   163.80096     4.57000
    84  H   1.0    0.03    1.00    1.43    -1.63928   163.35559     3.46790
    85  H   1.0    0.03    1.00    1.43    -1.18562   166.26005     4.99412
    86  H   1.0    0.03    1.00    1.43    -1.52428   166.16751     1.68172
    87  H   1.0    0.03    1.00    1.43     1.45478   161.64981     0.59260
    88  H   1.0    0.03    1.00    1.43     2.09409   164.46801    -1.07708
    89  H   1.0    0.04    1.00    1.43     4.56071   162.83971     0.44167
    90  N   5.0   -0.13    3.49    2.07     8.14977   168.36395     7.59382
    91  C   4.0    0.04    4.39    4.36    10.06087   167.57435     9.36233
    92  C   4.0    0.16    3.65    3.20     9.50208   168.08232    12.15336
    93  O   6.0   -0.32    1.48    1.80    10.54651   166.68860    13.70249
    94  C   4.0   -0.03    4.32    4.24    12.60247   168.94338     9.01276
    95  C   4.0    0.17    3.35    3.07    14.33610   168.24223    11.25131
    96  O   6.0   -0.28    1.21    1.80    15.16544   166.11542    11.57322
    97  N   5.0   -0.18    3.18    1.95    14.77215   170.13456    12.94671
    98  H   1.0    0.10    1.10    1.44     8.37650   170.09909     6.82049
    99  H   1.0    0.06    1.06    1.44    10.34240   165.52682     9.19727
   100  H   1.0    0.05    1.02    1.43    13.52254   168.32371     7.27726
   101  H   1.0    0.06    1.03    1.43    12.27323   170.97938     8.95320
   102  H   1.0    0.09    1.03    1.43    16.19617   169.79925    14.17605
   103  H   1.0    0.08    1.03    1.43    14.52350   171.94328    12.39894
   104  N   5.0   -0.14    3.45    2.05     8.31201   170.18067    12.95201
   105  C   4.0    0.04    4.66    4.73     8.16295   170.19675    15.66401
   106  C   4.0    0.16    3.42    3.08     5.74120   168.95989    16.65263
   107  O   6.0   -0.30    1.31    1.80     3.64006   169.40385    15.78696
   108  C   4.0   -0.04    4.29    4.18     8.69111   172.72564    16.90864
   109  C   4.0    0.14    3.33    3.06     9.23104   171.94512    19.63317
   110  O   6.0   -0.32    1.19    1.80     7.72862   172.34023    21.33327
   111  N   5.0   -0.20    3.21    1.96    11.31961   170.45709    19.90831
   112  H   1.0    0.12    1.17    1.46     6.74275   170.78626    11.99430
   113  H   1.0    0.06    1.17    1.46     9.71666   168.97087    16.25568
   114  H   1.0    0.04    1.03    1.43    10.32300   173.61325    16.02931
   115  H   1.0    0.05    1.02    1.43     7.06924   173.98020    16.78596
   116  H   1.0    0.08    1.03    1.43    11.84430   170.05141    21.70370
   117  H   1.0    0.07    1.03    1.43    12.75816   170.69542    18.67878
   118  N   5.0   -0.14    3.46    2.05     6.12865   167.38312    18.60116
   119  C   4.0    0.03    4.37    4.33     4.13029   165.92624    19.85636
   120  C   4.0    0.08    3.22    3.04     1.99410   167.55396    20.91095
   121  O   6.0   -0.30    1.20    1.80     0.04898   167.65555    19.67591
   122  C   4.0   -0.03    4.30    4.20     5.11300   164.17732    21.97724
   123  C   4.0   -0.05    4.18    3.95     7.56666   165.19493    23.21929
   124  C   4.0   -0.08    4.09    3.78     5.37729   161.47801    20.98709
   125  C   4.0   -0.09    4.00    3.62     7.71332   164.57687    26.05002
   126  H   1.0    0.07    1.08    1.44     7.90370   166.91022    19.10709
   127  H   1.0    0.05    1.07    1.44     3.20310   164.78732    18.38872
   128  H   1.0    0.03    1.07    1.44     3.65449   164.10299    23.43904
   129  H   1.0    0.03    1.03    1.43     9.19353   164.32095    22.30819
   130  H   1.0    0.05    1.03    1.43     7.67368   167.24544    23.02747
   131  H   1.0    0.03    1.00    1.43     6.22545   160.27169    22.42210
   132  H   1.0    0.04    1.00    1.43     3.54653   160.67848    20.50932
   133  H   1.0    0.04    1.00    1.43     6.55363   161.40204    19.30730
   134  H   1.0    0.03    1.00    1.43     9.42972   165.35844    26.86054
   135  H   1.0    0.03    1.00    1.43     6.10328   165.33852    27.07113
   136  H   1.0    0.03    1.00    1.43     7.75598   162.54381    26.36008
   137  N   5.0   -0.19    3.30    1.98    -1.37152   170.31461    16.02244
   138  C   4.0    0.04    4.19    3.98    -3.09788   168.62168    14.76871
   139  C   4.0    0.07    3.15    3.03    -5.45098   168.17214    16.46488
   140  O   6.0   -0.32    1.11    1.80    -7.56253   168.72466    15.68727
   141  C   4.0   -0.04    4.26    4.12    -1.53153   166.33466    13.84737
   142  C   4.0   -0.03    4.12    3.84    -2.67044   164.63990    11.70979
   143  C   4.0   -0.08    4.08    3.77    -4.52074   165.94249     9.88271
   144  C   4.0   -0.07    4.10    3.80    -0.56095   163.42451    10.15058
   145  H   1.0    0.14    1.11    1.45     0.43082   169.72609    16.26302
   146  H   1.0    0.04    1.06    1.44    -3.87871   169.61605    13.11971
   147  H   1.0    0.06    1.04    1.43     0.22725   167.14034    13.13147
   148  H   1.0    0.05    1.02    1.43    -1.08740   165.13672    15.46150
   149  H   1.0    0.03    1.05    1.44    -3.72492   163.11261    12.63218
   150  H   1.0    0.03    1.00    1.43    -5.18991   164.58538     8.49940
   151  H   1.0    0.04    1.00    1.43    -6.15053   166.68257    10.89648
   152  H   1.0    0.03    1.00    1.43    -3.59798   167.49361     8.89941
   153  H   1.0    0.03    1.00    1.43    -1.37314   162.20292     8.71532
   154  H   1.0    0.05    1.00    1.43     0.61276   164.83211     9.22859
   155  H   1.0    0.05    1.00    1.43     0.65674   162.27695    11.34790
   156  N   5.0   -0.23    3.19    1.95    -1.60196   151.88517    -7.83422
   157  C   4.0    0.03    4.35    4.28     0.94308   152.12695    -6.94625
   158  C   4.0    0.06    3.24    3.04     2.75962   149.90356    -7.43002
   159  O   6.0   -0.31    1.11    1.80     4.71693   150.16836    -8.64959
   160  C   4.0   -0.05    4.45    4.46     1.08163   152.66276    -4.18197
   161  C   4.0   -0.02    4.27    4.15     3.47818   154.18849    -3.88481
   162  C   4.0   -0.08    4.15    3.90     3.12705   156.68190    -5.37988
   163  C   4.0   -0.08    4.10    3.80     3.98712   154.58478    -1.07204
   164  H   1.0    0.07    1.02    1.43    -3.10663   152.12568    -6.68588
   165  H   1.0    0.04    1.10    1.44     1.75406   153.67734    -8.04978
   166  H   1.0    0.03    1.03    1.43    -0.55191   153.78156    -3.60280
   167  H   1.0    0.03    1.03    1.43     1.10176   150.95043    -3.04568
   168  H   1.0    0.05    1.06    1.44     5.05858   153.11409    -4.67033
   169  H   1.0    0.03    1.00    1.43     4.21830   158.17288    -4.47347
   170  H   1.0    0.04    1.00    1.43     3.82872   156.51354    -7.29913
   171  H   1.0    0.03    1.00    1.43     1.15598   157.23779    -5.39226
   172  H   1.0    0.04    1.00    1.43     5.84571   155.40401    -0.76507
   173  H   1.0    0.03    1.00    1.43     2.57337   155.83972    -0.26349
   174  H   1.0    0.03    1.01    1.43     3.87080   152.78137    -0.10706
   175  N   5.0   -0.24    3.17    1.95   -10.08959   172.84263    -1.56929
   176  C   4.0    0.02    4.20    4.00   -10.47623   170.26362    -2.36645
   177  C   4.0    0.05    3.22    3.04   -11.75492   170.01629    -4.93296
   178  O   6.0   -0.33    1.18    1.80   -11.30348   168.13911    -6.21406
   179  C   4.0   -0.05    4.32    4.23   -11.98995   168.57050    -0.53602
   180  C   4.0   -0.03    4.14    3.88   -10.99354   168.12842     2.18882
   181  C   4.0   -0.09    4.13    3.87   -12.55053   165.97487     3.30609
   182  C   4.0   -0.09    4.09    3.78    -8.21072   167.45971     2.50847
   183  H   1.0    0.07    1.02    1.43   -10.43413   173.30622     0.24770
   184  H   1.0    0.04    1.06    1.44    -8.62088   169.36468    -2.59263
   185  H   1.0    0.03    1.03    1.43   -13.89939   169.32645    -0.33570
   186  H   1.0    0.04    1.04    1.43   -12.12545   166.73742    -1.47323
   187  H   1.0    0.03    1.05    1.44   -11.37639   169.83776     3.29332
   188  H   1.0    0.03    1.00    1.43   -12.08911   165.71592     5.28942
   189  H   1.0    0.02    1.00    1.43   -14.55966   166.38833     3.17374
   190  H   1.0    0.03    1.00    1.43   -12.15719   164.22466     2.30624
   191  H   1.0    0.03    1.00    1.43    -7.81505   167.18582     4.50340
   192  H   1.0    0.03    1.00    1.43    -7.75820   165.71581     1.51813
   193  H   1.0    0.03    1.00    1.43    -6.98034   168.95305     1.81480
   194  N   5.0   -0.23    3.23    1.96    -7.76861   168.09159   -10.26799
   195  C   4.0    0.02    4.19    3.99    -6.54902   165.69813    -9.90516
   196  C   4.0    0.07    3.22    3.04    -8.38698   163.49685   -10.40860
   197  O   6.0   -0.32    1.13    1.80    -8.13817   161.39192    -9.50683
   198  C   4.0   -0.04    4.38    4.34    -5.74384   165.44939    -7.12853
   199  C   4.0   -0.03    4.13    3.87    -3.47275   166.97021    -6.12891
   200  C   4.0   -0.09    4.09    3.79    -4.20911   169.50171    -4.93115
   201  C   4.0   -0.09    4.11    3.82    -2.09380   165.40085    -4.09004
   202  H   1.0    0.11    1.07    1.44    -8.78806   168.66317    -8.74522
   203  H   1.0    0.03    1.04    1.43    -4.94733   165.52830   -11.20789
   204  H   1.0    0.06    1.04    1.43    -7.41181   165.91774    -6.01548
   205  H   1.0    0.05    1.05    1.44    -5.33976   163.44631    -6.85628
   206  H   1.0    0.03    1.05    1.44    -2.16332   167.29662    -7.69401
   207  H   1.0    0.03    1.00    1.43    -2.67882   170.85241    -5.11923
   208  H   1.0    0.04    1.01    1.43    -5.88744   170.25872    -5.80281
   209  H   1.0    0.03    1.01    1.43    -4.57017   169.23074    -2.92517
   210  H   1.0    0.03    1.00    1.43    -0.48103   166.46366    -3.39694
   211  H   1.0    0.03    1.00    1.43    -3.34736   164.98784    -2.51928
   212  H   1.0    0.03    1.00    1.43    -1.42042   163.61702    -4.85520
   213  N   5.0   -0.23    3.19    1.95    10.27652   164.84598   -16.50253
   214  C   4.0    0.02    4.16    3.92    11.82034   162.77662   -15.65247
   215  C   4.0    0.07    3.32    3.06    14.54756   162.98166   -16.50406
   216  O   6.0   -0.29    1.13    1.80    16.31258   162.34974   -15.14626
   217  C   4.0   -0.09    4.14    3.89    10.97353   160.24659   -16.79956
   218  H   1.0    0.07    1.04    1.43     8.75469   164.29984   -17.51529
   219  H   1.0    0.04    1.05    1.44    11.81178   162.68108   -13.57764
   220  H   1.0    0.04    1.01    1.43    12.29306   158.81338   -16.14207
   221  H   1.0    0.03    1.00    1.43     9.09715   159.78946   -16.13336
   222  H   1.0    0.03    1.01    1.43    11.05712   160.37060   -18.83469
   223  N   5.0   -0.19    3.35    2.00    17.50766   167.13216   -16.92999
   224  C   4.0    0.02    4.35    4.28    18.71330   168.86141   -15.23121
   225  C   4.0    0.16    3.46    3.10    20.23904   167.32491   -13.32428
   226  O   6.0   -0.30    1.27    1.80    22.41302   166.64108   -13.73477
   227  C   4.0   -0.05    4.19    3.99    16.74849   170.77246   -14.33459
   228  C   4.0   -0.04    4.16    3.93    16.01672   172.32230   -16.71783
   229  C   4.0    0.23    3.02    3.02    14.28915   174.80891   -16.76438
   230  O   6.0   -0.33    1.16    1.80    13.14448   175.09398   -18.81582
   231  O   6.0   -0.32    1.14    1.80    14.23424   176.30015   -14.93812
   232  H   1.0    0.08    1.05    1.44    15.62443   167.30889   -17.13971
   233  H   1.0    0.03    1.06    1.44    20.18513   169.89050   -16.29884
   234  H   1.0    0.04    1.02    1.43    15.07806   169.85114   -13.56852
   235  H   1.0    0.04    1.02    1.43    17.54626   172.03333   -12.91556
   236  H   1.0    0.03    1.03    1.43    17.76588   173.01034   -17.59118
   237  H   1.0    0.04    1.03    1.43    15.11965   171.07911   -18.10092
   238  N   5.0   -0.14    3.44    2.04    19.13152   166.92427   -11.07735
   239  C   4.0    0.04    4.48    4.51    20.86790   166.27552    -9.08562
   240  C   4.0    0.17    3.46    3.10    22.24311   163.72112    -9.41511
   241  O   6.0   -0.29    1.27    1.80    21.78078   161.98904   -10.84303
   242  C   4.0    0.02    4.15    3.89    19.79377   166.89420    -6.47346
   243  O   6.0   -0.27    2.11    1.84    21.81194   167.20749    -4.78425
   244  H   1.0    0.07    1.06    1.44    17.26842   167.12861   -10.79579
   245  H   1.0    0.05    1.09    1.44    22.44930   167.61566    -9.32169
   246  H   1.0    0.04    1.02    1.43    18.78053   168.69391    -6.61981
   247  H   1.0    0.04    1.02    1.43    18.51713   165.43355    -5.80734
   248  H   1.0    0.14    1.13    1.45    21.71658   165.79173    -3.60467
   249  N   5.0   -0.13    3.62    2.18    24.35981   163.75827    -8.02088
   250  C   4.0    0.04    4.54    4.59    26.01447   161.61486    -8.10040
   251  C   4.0    0.16    3.77    3.30    24.55413   159.32080    -7.44193
   252  O   6.0   -0.30    1.72    1.81    23.17963   159.51697    -5.58607
   253  C   4.0    0.05    4.35    4.29    27.83975   161.86350    -5.82639
   254  O   6.0   -0.26    2.27    1.88    26.42111   161.93611    -3.54952
   255  C   4.0   -0.09    4.12    3.83    29.39195   164.26049    -6.09562
   256  H   1.0    0.09    1.10    1.44    24.37827   164.91991    -6.49356
   257  H   1.0    0.03    1.04    1.43    27.00476   161.49496    -9.90561
   258  H   1.0    0.03    1.04    1.43    29.06619   160.19238    -5.78529
   259  H   1.0    0.10    1.05    1.44    26.88135   163.47786    -2.68444
   260  H   1.0    0.02    1.00    1.43    30.73511   164.40258    -4.54474
   261  H   1.0    0.02    1.00    1.43    30.44890   164.24662    -7.85578
   262  H   1.0    0.04    1.00    1.43    28.18077   165.92078    -6.07677
   263  N   5.0   -0.16    3.42    2.03    25.06370   157.05708    -8.40555
   264  C   4.0    0.03    4.51    4.55    23.75719   155.05697    -7.04397
   265  C   4.0    0.18    3.83    3.37    23.80068   155.62986    -4.22007
   266  O   6.0   -0.31    1.44    1.80    21.91082   155.35968    -2.92368
   267  C   4.0   -0.06    4.33    4.26    24.86424   152.38246    -7.17595
   268  C   4.0   -0.02    4.18    3.96    23.33223   150.44734    -5.57039
   269  C   4.0   -0.08    4.09    3.79    22.24939   148.42280    -7.33379
   270  C   4.0   -0.08    4.05    3.70    24.73771   149.21476    -3.30979
   271  H   1.0    0.06    1.05    1.44    25.93927   156.72390   -10.06820
   272  H   1.0    0.04    1.05    1.44    21.76349   155.01238    -7.61340
   273  H   1.0    0.03    1.03    1.43    24.91436   151.75576    -9.14238
   274  H   1.0    0.03    1.03    1.43    26.81920   152.40716    -6.52084
   275  H   1.0    0.06    1.07    1.44    21.70564   151.42361    -4.74180
   276  H   1.0    0.05    1.00    1.43    21.07585   147.13991    -6.23149
   277  H   1.0    0.03    1.00    1.43    21.07444   149.26567    -8.79052
   278  H   1.0    0.02    1.00    1.43    23.74787   147.33991    -8.23171
   279  H   1.0    0.05    1.00    1.43    23.51985   147.75047    -2.53687
   280  H   1.0    0.03    1.00    1.43    26.51476   148.36740    -3.89079
   281  H   1.0    0.04    1.00    1.43    25.08142   150.58860    -1.82468
   282  N   5.0   -0.14    3.58    2.14    26.08721   155.92991    -3.16009
   283  C   4.0    0.03    4.43    4.43    26.43738   155.52108    -0.46765
   284  C   4.0    0.18    3.60    3.17    24.07729   156.47088     0.91062
   285  O   6.0   -0.28    1.22    1.80    22.87147   155.20374     2.43607
   286  C   4.0   -0.05    4.22    4.04    28.93098   156.85098     0.28922
   287  C   4.0   -0.04    4.17    3.94    28.87048   158.76497     2.44385
   288  C   4.0    0.25    3.08    3.02    27.72997   157.94788     5.07080
   289  O   6.0   -0.28    1.19    1.80    26.87012   155.77008     5.36527
   290  O   6.0   -0.29    1.17    1.80    27.85522   159.68302     6.67798
   291  H   1.0    0.06    1.07    1.44    27.64284   155.71850    -4.24568
   292  H   1.0    0.04    1.05    1.44    26.56966   153.50173    -0.01262
   293  H   1.0    0.03    1.03    1.43    30.29831   155.39012     0.79084
   294  H   1.0    0.03    1.04    1.43    29.63411   157.85172    -1.37368
   295  H   1.0    0.03    1.03    1.43    30.80053   159.35638     2.87231
   296  H   1.0    0.04    1.03    1.43    27.80566   160.45101     1.93695
   297  N   5.0   -0.13    3.65    2.21    23.57139   158.86206     0.16008
   298  C   4.0    0.04    4.49    4.53    21.71541   160.45650     1.35442
   299  C   4.0    0.17    3.53    3.13    19.19435   159.12649     1.22079
   300  O   6.0   -0.29    1.37    1.80    17.86869   158.49447     3.00466
   301  C   4.0    0.06    4.27    4.14    21.57588   163.04832     0.04508
   302  O   6.0   -0.28    2.29    1.88    21.40042   162.88580    -2.57558
   303  C   4.0   -0.07    4.08    3.76    23.81520   164.66349     0.92366
   304  H   1.0    0.10    1.12    1.45    24.78996   159.67059    -1.07737
   305  H   1.0    0.07    1.05    1.44    22.14931   160.76382     3.36828
   306  H   1.0    0.05    1.04    1.44    19.81305   163.94102     0.68886
   307  H   1.0    0.16    1.11    1.44    22.73101   161.84216    -3.34599
   308  H   1.0    0.04    1.00    1.43    24.01091   166.35602    -0.22199
   309  H   1.0    0.05    1.00    1.43    23.48151   165.21766     2.87570
   310  H   1.0    0.04    1.01    1.43    25.53313   163.54576     0.91928
   311  N   5.0   -0.13    3.69    2.26    18.46649   158.80277    -1.15285
   312  C   4.0    0.03    4.48    4.51    16.11539   157.62043    -1.86276
   313  C   4.0    0.16    3.55    3.14    15.51233   155.45328    -0.05827
   314  O   6.0   -0.32    1.34    1.80    13.58964   155.46300     1.25049
   315  C   4.0   -0.05    4.32    4.24    16.37391   156.96470    -4.66303
   316  C   4.0   -0.02    4.21    4.03    17.31382   159.32136    -6.17416
   317  C   4.0   -0.06    4.07    3.74    17.20942   159.00089    -9.07139
   318  C   4.0   -0.08    4.15    3.89    15.84975   161.68855    -5.34644
   319  H   1.0    0.11    1.14    1.45    19.77560   158.97969    -2.52625
   320  H   1.0    0.04    1.06    1.44    14.56555   158.97018    -1.57497
   321  H   1.0    0.05    1.03    1.43    17.70530   155.40812    -4.86567
   322  H   1.0    0.04    1.02    1.43    14.54146   156.35825    -5.39272
   323  H   1.0    0.07    1.09    1.44    19.30245   159.62313    -5.74846
   324  H   1.0    0.07    1.01    1.43    17.95484   160.66849    -9.99081
   325  H   1.0    0.05    1.00    1.43    18.35225   157.38610    -9.63425
   326  H   1.0    0.04    1.00    1.43    15.28201   158.67283    -9.70253
   327  H   1.0    0.04    1.01    1.43    15.90329   163.07930    -6.84998
   328  H   1.0    0.03    1.00    1.43    13.87324   161.23346    -5.00624
   329  H   1.0    0.05    1.01    1.43    16.66112   162.45889    -3.63171
   330  N   5.0   -0.14    3.56    2.12    17.17550   153.57192    -0.12893
   331  C   4.0    0.04    4.52    4.56    16.98597   151.35776     1.40603
   332  C   4.0    0.16    3.55    3.14    16.07710   151.99771     4.05174
   333  O   6.0   -0.31    1.22    1.80    14.68597   150.66944     5.38499
   334  C   4.0   -0.04    4.36    4.30    19.60034   150.17935     1.69337
   335  C   4.0   -0.03    4.17    3.94    19.35845   147.38117     2.28260
   336  C   4.0    0.24    3.17    3.03    17.82593   146.23417     0.00873
   337  O   6.0   -0.32    1.16    1.80    19.05516   145.67825    -1.92902
   338  O   6.0   -0.30    1.17    1.80    15.50198   145.94105     0.27969
   339  H   1.0    0.10    1.10    1.44    18.85999   153.91788    -0.98044
   340  H   1.0    0.07    1.08    1.44    15.65781   150.02355     0.53252
   341  H   1.0    0.05    1.04    1.43    20.59544   150.38781    -0.10510
   342  H   1.0    0.06    1.03    1.43    20.68297   151.19019     3.13478
   343  H   1.0    0.04    1.02    1.43    21.22750   146.52336     2.40228
   344  H   1.0    0.06    1.02    1.43    18.33079   147.10653     4.05081
   345  N   5.0   -0.13    3.71    2.28    17.16447   154.09826     4.86389
   346  C   4.0    0.04    4.42    4.41    17.03225   154.80775     7.46415
   347  C   4.0    0.15    3.48    3.11    14.54991   156.13873     8.01186
   348  O   6.0   -0.33    1.32    1.80    13.73209   156.29378    10.17556
   349  C   4.0   -0.03    4.20    4.01    19.46630   156.24884     8.23354
   350  C   4.0   -0.02    4.14    3.88    19.08503   158.67485     9.79774
   351  C   4.0    0.26    3.07    3.02    20.55805   161.03240     8.68669
   352  O   6.0   -0.27    1.15    1.80    22.52826   161.72283     9.78974
   353  O   6.0   -0.28    1.17    1.80    19.53971   162.08457     6.83042
   354  H   1.0    0.12    1.14    1.45    18.38414   155.05876     3.76084
   355  H   1.0    0.06    1.07    1.44    16.96479   153.06122     8.59341
   356  H   1.0    0.06    1.02    1.43    20.71520   154.95739     9.24674
   357  H   1.0    0.08    1.04    1.43    20.45342   156.74576     6.48820
   358  H   1.0    0.07    1.05    1.44    17.10341   159.22550     9.77824
   359  H   1.0    0.06    1.02    1.43    19.67567   158.37580    11.74910
   360  N   5.0   -0.14    3.58    2.14    13.24330   157.06855     6.07641
   361  C   4.0    0.04    4.47    4.49    11.06518   158.65646     6.62392
   362  C   4.0    0.14    3.45    3.10     8.52281   157.31829     6.13883
   363  O   6.0   -0.32    1.25    1.80     6.48670   157.98481     7.03025
   364  C   4.0   -0.03    4.33    4.25    11.12253   161.15531     5.17337
   365  C   4.0   -0.03    4.08    3.77    10.11741   160.87641     2.47079
   366  S   6.0   -0.05    2.46    3.10    10.11013   163.95231     0.87101
   367  C   4.0   -0.07    3.88    3.44    13.48736   164.30694     0.27708
   368  H   1.0    0.12    1.13    1.45    14.03380   157.03773     4.33733
   369  H   1.0    0.06    1.09    1.44    11.17358   159.08200     8.64202
   370  H   1.0    0.06    1.04    1.43     9.89385   162.49114     6.16206
   371  H   1.0    0.06    1.03    1.43    13.06434   161.86555     5.18689
   372  H   1.0    0.05    1.06    1.44    11.25338   159.56307     1.36385
   373  H   1.0    0.05    1.08    1.44     8.15827   160.25826     2.50000
   374  H   1.0    0.04    1.04    1.43    13.71677   165.39105    -1.44210
   375  H   1.0    0.05    1.03    1.43    14.38909   165.24934     1.86504
   376  H   1.0    0.05    1.04    1.43    14.29756   162.43562     0.08598
   377  N   5.0   -0.14    3.54    2.10     8.86258   155.37021     4.55952
   378  C   4.0    0.03    4.46    4.48     7.18439   153.21850     4.49400
   379  C   4.0    0.15    3.66    3.21     7.02239   151.84778     7.06199
   380  O   6.0   -0.33    1.46    1.80     5.01471   151.33221     8.09512
   381  C   4.0   -0.05    4.41    4.40     8.17949   151.31283     2.59294
   382  C   4.0   -0.02    4.30    4.20     7.20310   148.72199     3.36999
   383  C   4.0   -0.07    4.12    3.84     4.29071   148.64171     3.24053
   384  C   4.0   -0.07    4.08    3.76     8.57798   146.68914     1.80868
   385  H   1.0    0.10    1.14    1.45    10.69856   155.01676     4.12776
   386  H   1.0    0.04    1.05    1.44     5.29169   153.89040     3.99145
   387  H   1.0    0.04    1.03    1.43     7.60785   151.71847     0.66653
   388  H   1.0    0.06    1.03    1.43    10.24248   151.30011     2.65803
   389  H   1.0    0.06    1.10    1.44     7.71061   148.27018     5.32262
   390  H   1.0    0.06    1.00    1.43     3.66112   146.78906     3.87871
   391  H   1.0    0.05    1.02    1.43     3.42769   150.07659     4.40925
   392  H   1.0    0.03    1.00    1.43     3.66163   148.85607     1.29161
   393  H   1.0    0.05    1.00    1.43     8.01371   144.81719     2.44840
   394  H   1.0    0.04    1.00    1.43     8.08199   146.80849    -0.18389
   395  H   1.0    0.06    1.00    1.43    10.61343   146.87869     2.01576
   396  N   5.0   -0.14    3.58    2.14     9.23189   151.46840     8.19016
   397  C   4.0    0.03    4.54    4.59     9.25994   150.50618    10.72317
   398  C   4.0    0.17    3.61    3.17     7.20023   151.79277    12.23721
   399  O   6.0   -0.32    1.31    1.80     5.49570   150.83402    13.45980
   400  C   4.0   -0.04    4.48    4.50    11.69338   151.30013    11.99205
   401  C   4.0   -0.02    4.16    3.92    13.90088   149.54058    11.51834
   402  C   4.0    0.24    3.15    3.03    15.23759   149.14316    14.13615
   403  O   6.0   -0.32    1.34    1.80    14.08677   149.92990    16.11085
   404  O   6.0   -0.28    1.16    1.80    17.32828   148.05958    14.14287
   405  H   1.0    0.10    1.07    1.44    10.87914   151.45878     7.22366
   406  H   1.0    0.05    1.04    1.43     9.02186   148.43756    10.73601
   407  H   1.0    0.07    1.08    1.44    12.24378   153.18099    11.39770
   408  H   1.0    0.07    1.08    1.44    11.39131   151.35395    14.03707
   409  H   1.0    0.05    1.02    1.43    13.32398   147.69286    10.81892
   410  H   1.0    0.06    1.02    1.43    15.28071   150.28585    10.19061
   411  N   5.0   -0.13    3.68    2.24     7.65776   154.24220    12.17367
   412  C   4.0    0.02    4.27    4.15     6.46928   156.23902    13.62748
   413  C   4.0    0.16    3.43    3.09     3.50546   155.87320    13.25462
   414  O   6.0   -0.31    1.29    1.80     1.87462   155.42447    14.84506
   415  C   4.0   -0.05    4.16    3.92     7.78050   158.78569    12.67758
   416  C   4.0   -0.04    4.09    3.79    10.54212   159.29395    13.60307
   417  C   4.0   -0.04    4.11    3.82    10.75026   161.26571    15.75684
   418  C   4.0   -0.02    4.07    3.75    13.46408   162.25390    16.34718
   419  N   5.0   -0.12    3.99    2.84    13.32964   164.70804    17.83506
   420  H   1.0    0.09    1.13    1.45     9.18120   154.83223    11.19224
   421  H   1.0    0.04    1.04    1.43     6.88178   155.97737    15.64545
   422  H   1.0    0.07    1.05    1.44     7.73156   158.73646    10.63483
   423  H   1.0    0.05    1.02    1.43     6.57760   160.36797    13.23601
   424  H   1.0    0.06    1.02    1.43    11.43467   157.52057    14.13897
   425  H   1.0    0.06    1.03    1.43    11.62596   160.04757    12.02562
   426  H   1.0    0.06    1.04    1.43     9.64543   162.90191    15.15976
   427  H   1.0    0.04    1.02    1.43     9.95475   160.45625    17.47438
   428  H   1.0    0.05    1.01    1.43    14.53686   160.85466    17.41003
   429  H   1.0    0.07    1.02    1.43    14.45482   162.64915    14.58309
   430  H   1.0    0.06    1.02    1.43    15.13399   165.33043    18.18264
   431  H   1.0    0.09    1.06    1.44    12.36159   165.92066    16.62365
   432  H   1.0    0.05    1.02    1.43    12.38692   164.40028    19.51041
   433  N   5.0   -0.14    3.53    2.10     2.94486   156.13546    10.84068
   434  C   4.0    0.04    4.55    4.60     0.36044   155.74402    10.17318
   435  C   4.0    0.16    3.74    3.28    -0.69302   153.25270    11.11129
   436  O   6.0   -0.31    1.37    1.80    -2.65824   153.18238    12.34392
   437  C   4.0   -0.05    4.44    4.45     0.04291   155.71635     7.31731
   438  C   4.0   -0.03    4.23    4.07    -2.70727   155.18763     6.60782
   439  C   4.0   -0.09    4.10    3.81    -3.19724   156.42340     4.00292
   440  C   4.0   -0.08    4.19    3.98    -3.29554   152.38833     6.51439
   441  H   1.0    0.11    1.10    1.44     4.21455   156.51584     9.45474
   442  H   1.0    0.05    1.06    1.44    -0.82075   157.23695    11.00966
   443  H   1.0    0.04    1.03    1.43     0.61666   157.56687     6.60560
   444  H   1.0    0.05    1.03    1.43     1.30419   154.30712     6.50356
   445  H   1.0    0.04    1.06    1.44    -3.93973   156.07336     8.00759
   446  H   1.0    0.03    1.00    1.43    -5.12838   156.08983     3.39179
   447  H   1.0    0.03    1.00    1.43    -2.87692   158.44404     4.10713
   448  H   1.0    0.03    1.00    1.43    -1.93227   155.60785     2.60658
   449  H   1.0    0.03    1.01    1.43    -5.05942   152.15937     5.48681
   450  H   1.0    0.03    1.00    1.43    -1.82337   151.34839     5.52026
   451  H   1.0    0.05    1.05    1.44    -3.59029   151.55061     8.33712
   452  N   5.0   -0.15    3.70    2.27     0.43059   151.23983    10.08885
   453  C   4.0    0.03    4.43    4.43    -0.47924   148.76329    10.58299
   454  C   4.0    0.16    3.62    3.18    -1.02424   148.62919    13.39355
   455  O   6.0   -0.30    1.29    1.80    -2.84493   147.36725    14.11669
   456  C   4.0   -0.04    4.30    4.19     1.31976   146.88737     9.38658
   457  C   4.0   -0.03    4.10    3.81     3.80980   146.14654    10.63157
   458  C   4.0    0.24    3.06    3.02     5.28758   144.27810     8.73416
   459  O   6.0   -0.32    1.18    1.80     4.09857   143.42603     6.85745
   460  O   6.0   -0.31    1.15    1.80     7.56094   143.79144     9.24216
   461  H   1.0    0.12    1.17    1.46     2.11479   151.39110     9.22507
   462  H   1.0    0.04    1.06    1.44    -2.32665   148.44388     9.67351
   463  H   1.0    0.05    1.03    1.43     0.29693   145.11299     9.06169
   464  H   1.0    0.05    1.05    1.44     1.78364   147.60637     7.51610
   465  H   1.0    0.08    1.05    1.44     5.01238   147.75750    10.97609
   466  H   1.0    0.05    1.01    1.43     3.53329   145.14043    12.41627
   467  N   5.0   -0.12    3.63    2.19     0.29309   150.11104    14.99968
   468  C   4.0    0.04    4.67    4.73    -0.41112   149.56226    17.57332
   469  C   4.0    0.16    3.60    3.17    -2.94639   150.71445    18.21864
   470  O   6.0   -0.30    1.22    1.80    -4.42346   149.67688    19.69231
   471  C   4.0   -0.02    4.31    4.23     1.45362   150.47219    19.55135
   472  C   4.0   -0.07    4.15    3.91     4.21160   150.28003    18.73670
   473  C   4.0   -0.07    4.25    4.11     0.92744   153.17603    20.29418
   474  H   1.0    0.11    1.10    1.44     2.12425   150.53192    14.59486
   475  H   1.0    0.06    1.07    1.44    -0.63233   147.49568    17.75477
   476  H   1.0    0.04    1.06    1.44     1.13838   149.25627    21.20183
   477  H   1.0    0.04    1.00    1.43     5.39775   150.48629    20.40048
   478  H   1.0    0.05    1.00    1.43     4.60997   148.45079    17.88233
   479  H   1.0    0.07    1.02    1.43     4.66643   151.75313    17.39597
   480  H   1.0    0.03    1.01    1.43     2.37163   153.74063    21.65386
   481  H   1.0    0.06    1.02    1.43     1.05322   154.41862    18.67134
   482  H   1.0    0.04    1.02    1.43    -0.88847   153.40715    21.22194
   483  N   5.0   -0.14    3.64    2.20    -3.23087   152.98915    17.24996
   484  C   4.0    0.04    4.41    4.40    -5.38550   154.59108    17.72084
   485  C   4.0    0.09    3.39    3.08    -7.67996   153.10771    17.08717
   486  O   6.0   -0.31    1.12    1.80    -9.63727   153.09998    18.32331
   487  C   4.0   -0.02    4.28    4.15    -5.29701   157.00324    16.09179
   488  C   4.0   -0.08    4.13    3.86    -7.30621   157.17852    14.01826
   489  C   4.0   -0.08    4.12    3.84    -5.44914   159.26035    17.88487
   490  H   1.0    0.12    1.13    1.45    -1.91640   153.59290    15.99548
   491  H   1.0    0.04    1.06    1.44    -5.44686   155.12074    19.72730
   492  H   1.0    0.05    1.06    1.44    -3.44542   157.01827    15.16747
   493  H   1.0    0.03    1.00    1.43    -7.32877   159.09993    13.28116
   494  H   1.0    0.05    1.00    1.43    -6.89769   155.90482    12.47358
   495  H   1.0    0.04    1.01    1.43    -9.18042   156.76763    14.75098
   496  H   1.0    0.04    1.00    1.43    -5.26799   161.01038    16.82279
   497  H   1.0    0.04    1.00    1.43    -7.26228   159.22324    18.84797
   498  H   1.0    0.04    1.00    1.43    -3.97540   159.12929    19.29891
   499  N   5.0   -0.24    3.19    1.95    14.21644   152.69570    33.22188
   500  C   4.0    0.02    4.23    4.05    13.95782   152.91522    30.49058
   501  C   4.0    0.07    3.24    3.04    13.87724   150.30140    29.32891
   502  O   6.0   -0.32    1.12    1.80    12.47910   149.72375    27.56594
   503  C   4.0   -0.05    4.27    4.13    16.14460   154.39570    29.32166
   504  C   4.0   -0.03    4.18    3.95    15.53089   155.12612    26.60284
   505  C   4.0    0.25    3.08    3.02    17.93040   155.33335    24.86781
   506  O   6.0   -0.30    1.18    1.80    19.87936   154.24992    25.60902
   507  O   6.0   -0.29    1.16    1.80    17.63833   156.52598    22.85850
   508  H   1.0    0.06    1.03    1.43    15.31293   154.02872    34.05815
   509  H   1.0    0.04    1.05    1.44    12.15653   153.86597    30.04995
   510  H   1.0    0.03    1.02    1.43    16.46508   156.10063    30.45069
   511  H   1.0    0.05    1.03    1.43    17.87034   153.25988    29.37162
   512  H   1.0    0.06    1.03    1.43    14.30303   153.69854    25.75370
   513  H   1.0    0.04    1.02    1.43    14.50431   156.91566    26.55160
   514  N   5.0   -0.22    3.18    1.95     8.22475   144.07867    25.70704
   515  C   4.0    0.02    4.15    3.91     9.21605   142.23513    23.86471
   516  C   4.0    0.06    3.17    3.03     8.21543   139.61108    24.64328
   517  O   6.0   -0.31    1.10    1.80     6.71455   138.30504    23.39893
   518  C   4.0   -0.06    4.16    3.92    12.16547   142.33595    23.58475
   519  C   4.0   -0.05    4.15    3.90    13.07795   145.01210    22.82991
   520  C   4.0   -0.04    4.11    3.83    15.93900   145.36845    22.56486
   521  C   4.0   -0.02    4.09    3.78    16.72381   148.17169    22.33837
   522  N   5.0   -0.10    3.99    2.83    17.55024   148.92868    19.76124
   523  H   1.0    0.08    1.03    1.43     9.62175   145.07352    26.54818
   524  H   1.0    0.04    1.04    1.44     8.37733   142.68889    22.01595
   525  H   1.0    0.03    1.02    1.43    13.04496   141.76166    25.33896
   526  H   1.0    0.04    1.02    1.43    12.66070   140.98173    22.11359
   527  H   1.0    0.05    1.02    1.43    12.15516   145.57336    21.07240
   528  H   1.0    0.05    1.03    1.43    12.41395   146.33573    24.27153
   529  H   1.0    0.04    1.03    1.43    16.83764   144.52178    24.21124
   530  H   1.0    0.06    1.03    1.43    16.63356   144.36082    20.90826
   531  H   1.0    0.05    1.02    1.43    15.18229   149.40483    22.93985
   532  H   1.0    0.06    1.02    1.43    18.31239   148.54575    23.59545
   533  H   1.0    0.09    1.03    1.43    18.65677   150.50339    19.93110
   534  H   1.0    0.11    1.04    1.43    18.65329   147.52598    18.95339
   535  H   1.0    0.11    1.08    1.44    16.04108   149.35066    18.36472
   536  N   5.0   -0.23    3.27    1.97    24.07071   140.42571    22.88095
   537  C   4.0    0.03    4.33    4.26    23.05991   142.83670    22.13795
   538  C   4.0    0.15    3.48    3.11    21.82401   142.57651    19.55548
   539  O   6.0   -0.30    1.32    1.80    20.63477   144.32021    18.60903
   540  C   4.0   -0.04    4.27    4.14    24.96810   145.04911    22.29502
   541  C   4.0    0.15    3.23    3.04    23.53851   147.40525    23.16274
   542  O   6.0   -0.28    1.19    1.80    22.88613   149.10371    21.74952
   543  N   5.0   -0.20    3.20    1.96    23.03337   147.36136    25.65597
   544  H   1.0    0.07    1.03    1.43    25.67498   139.82659    22.04930
   545  H   1.0    0.04    1.07    1.44    21.49528   143.20692    23.45396
   546  H   1.0    0.02    1.03    1.43    26.43848   144.57214    23.65339
   547  H   1.0    0.05    1.03    1.43    25.81414   145.40158    20.45421
   548  H   1.0    0.09    1.03    1.43    22.11575   148.82743    26.45595
   549  H   1.0    0.06    1.03    1.43    23.51367   145.86251    26.72136
   550  N   5.0   -0.15    3.48    2.07    21.97134   140.31252    18.41634
   551  C   4.0    0.04    4.70    4.76    20.67591   140.21082    16.06255
   552  C   4.0    0.14    3.61    3.17    18.37791   138.61524    16.01430
   553  O   6.0   -0.30    1.39    1.80    18.35915   136.29877    15.78714
   554  C   4.0   -0.03    4.41    4.40    22.18220   139.37315    13.77270
   555  C   4.0    0.15    3.32    3.06    23.40286   141.80115    12.96613
   556  O   6.0   -0.28    1.24    1.80    22.03835   143.58269    12.44943
   557  N   5.0   -0.20    3.18    1.95    25.93236   141.79948    13.09600
   558  H   1.0    0.07    1.06    1.44    23.11457   138.88075    18.96204
   559  H   1.0    0.09    1.17    1.46    20.06645   142.16458    15.70649
   560  H   1.0    0.03    1.03    1.43    23.48507   137.85918    14.24084
   561  H   1.0    0.05    1.05    1.44    20.83866   138.84452    12.31074
   562  H   1.0    0.09    1.03    1.43    26.90571   143.36665    12.61637
   563  H   1.0    0.06    1.03    1.43    26.90525   140.17810    13.29828
   564  N   5.0   -0.15    3.54    2.11    16.31458   139.98413    15.69755
   565  C   4.0    0.03    4.45    4.47    14.11990   138.69818    14.74900
   566  C   4.0    0.10    3.40    3.08    15.07922   136.61553    12.94846
   567  O   6.0   -0.30    1.12    1.80    14.40790   134.39296    13.14419
   568  C   4.0   -0.03    4.30    4.20    12.22908   140.67682    13.65173
   569  C   4.0   -0.04    4.21    4.03     9.98052   139.29731    12.48995
   570  C   4.0   -0.07    4.09    3.78    13.29610   142.53168    11.69916
   571  C   4.0   -0.08    4.05    3.71     8.98503   137.19161    14.18523
   572  H   1.0    0.08    1.07    1.44    16.32587   141.89109    15.75017
   573  H   1.0    0.05    1.06    1.44    13.17650   137.71401    16.30928
   574  H   1.0    0.04    1.06    1.44    11.57034   141.77055    15.27326
   575  H   1.0    0.06    1.03    1.43     8.48998   140.66449    12.10271
   576  H   1.0    0.05    1.03    1.43    10.53455   138.54419    10.65070
   577  H   1.0    0.06    1.01    1.43    11.74071   143.75622    11.14407
   578  H   1.0    0.06    0.99    1.43    14.81583   143.71018    12.43418
   579  H   1.0    0.05    1.00    1.43    13.92037   141.60259     9.97724
   580  H   1.0    0.04    1.00    1.43     7.19959   136.50393    13.45494
   581  H   1.0    0.05    1.01    1.43    10.32637   135.65694    14.33736
   582  H   1.0    0.04    1.00    1.43     8.63003   137.96233    16.06047
   583  H   1.0    0.07    1.07    1.44     4.59322   182.56600    -2.21470
   584  H   1.0    0.04    1.04    1.43     2.22664   168.47594    22.54403
   585  H   1.0    0.09    1.07    1.44    -1.25398   171.76279    15.13841
   586  H   1.0    0.05    1.04    1.43    -5.24383   167.43202    18.19126
   587  H   1.0    0.08    1.08    1.44    -1.88388   153.02314    -9.06634
   588  H   1.0    0.04    1.04    1.44     2.35822   148.18906    -6.74414
   589  H   1.0    0.08    1.07    1.44    -8.46461   173.27706    -1.82086
   590  H   1.0    0.03    1.04    1.43   -12.93095   171.36665    -5.53673
   591  H   1.0    0.08    1.08    1.44    -6.59670   169.28498   -10.57623
   592  H   1.0    0.04    1.05    1.44    -9.88524   163.75478   -11.53099
   593  H   1.0    0.08    1.07    1.44     9.70449   165.71707   -15.15845
   594  H   1.0    0.04    1.06    1.44    14.95248   163.65056   -18.22443
   595  H   1.0    0.08    1.08    1.44    18.16329   167.31711   -18.48835
   596  H   1.0    0.06    1.06    1.44    -7.70042   152.00981    15.54922
   597  H   1.0    0.08    1.07    1.44    12.68317   152.81236    33.94853
   598  H   1.0    0.04    1.05    1.44    15.00152   148.93633    29.99497
   599  H   1.0    0.09    1.07    1.44     7.19574   145.17643    24.91418
   600  H   1.0    0.04    1.05    1.44     8.77578   138.83089    26.27067
   601  H   1.0    0.07    1.08    1.44    24.42153   140.44563    24.54500
   602  H   1.0    0.05    1.05    1.44    16.28892   137.04818    11.56263

  Z AO/shell   Hii/eV     exponent
  1     Wed Apr 25 08:07:45 CEST 2018   EN: 2.200 GM2: 0.406  GM3: 0.0800  RAES: 1.40
     1s    -10.707211    1.230000
  6     Wed Apr 25 08:07:45 CEST 2018   EN: 2.550 GM2: 0.538  GM3: 0.1500  RAES: 3.00
     2s    -13.970922    2.096432
     2p    -10.063292    1.800000
  7     Wed Apr 25 08:07:45 CEST 2018   EN: 3.040 GM2: 0.461  GM3:-0.0640  RAES: 1.90
     2s    -16.686243    2.339881
     2p    -12.523956    2.014332
  8     Wed Apr 25 08:07:45 CEST 2018   EN: 3.440 GM2: 0.452  GM3:-0.0517  RAES: 1.80
     2s    -20.229985    2.439742
     2p    -15.503117    2.137023
 16     Tue Apr 24 11:44:34 CEST 2018   EN: 2.580 GM2: 0.340  GM3:-0.0502  RAES: 3.10
     3s    -20.029654    1.981333
     3p    -11.377694    2.025643
     3d     -0.420282    1.702555
 no old-style atom pair restraining (fixing) potential

molecular fragmentation (1/2 indicates fragments):
111111111111111111111111111111111111111111111111111111111111111111111111
111111111111111111111111111111111111111111111111111111111111111122222222
222222222222222222222222222222222222222222222222222222222222222222222222
222222222222222222222222222222222222222222222222222222222222222222222222
222222222222222222222222222222222222222222222222222222222222222222222222
222222222222222222222222222222222222222222222222222222222222222222222222
222222222222222222222222222222222222222222222222222222222222222222222222
222222222222222222222222222222222222222222222222222222222222222222222222
22222211222222222222222222
# atoms in fragment 1/2:   138   464
 fragment masses (1/2) :      883.12     3109.72
CMA distance (Bohr)    :  17.359
constraining FC (au)   :  0.0500
           ------------------------------------------------- 
          |        Self-Consistent Charge Iterations        |
           ------------------------------------------------- 

 Ncao       : 1442
 Nao        : 1441
 Nshell     : 881
 Nel        : 1596
 T(el)      :   500.0
 intcut     :    35.0
 scfconv/Eh :  0.100E-06
   qconv/e  :  0.100E-04
 intneglect :  0.100E-08
 broydamp   :      0.400
 iter      E             dE          RMSdq      gap      omega  full diag
   1   -911.8439077 -0.911844E+03  0.452E+00    3.34       0.0  T
   2   -914.1964408 -0.235253E+01  0.210E+00    1.75       1.0  T
   3   -914.3634973 -0.167056E+00  0.124E+00    1.95       1.0  T
   4   -914.5166226 -0.153125E+00  0.264E-01    1.29       1.0  T
   5   -914.5257327 -0.911005E-02  0.138E-01    1.48       1.0  T
   6   -914.5270767 -0.134405E-02  0.583E-02    1.38       1.0  T
   7   -914.5275126 -0.435831E-03  0.266E-02    1.36       1.0  T
   8   -914.5275747 -0.621523E-04  0.123E-02    1.34       1.0  T
   9   -914.5275959 -0.211825E-04  0.547E-03    1.34       1.0  T
  10   -914.5275988 -0.293857E-05  0.232E-03    1.33       1.8  T
  11   -914.5275997 -0.873530E-06  0.105E-03    1.33       3.9  T
  12   -914.5275998 -0.124166E-06  0.448E-04    1.33       9.1  T
  13   -914.5275999 -0.155642E-07  0.215E-04    1.33      19.0  T
  14   -914.5275999 -0.472801E-08  0.799E-05    1.33      51.0  T
  15   -914.5275999 -0.521368E-09  0.405E-05    1.33     100.5  T
speedup  1.94
cpu  time for SCC   41.30 s
wall time for SCC   21.26 s

   *** convergence criteria satisfied after 15 iterations ***

          eigenvalues
 #    :         786        787        788        789        790        791        792        793
 occ. :        2.000      2.000      2.000      2.000      2.000      2.000      2.000      2.000
 eps  :       -10.154    -10.128    -10.050     -9.945     -9.897     -9.874     -9.872     -9.839
 #    :         794        795        796        797        798        799        800        801
 occ. :        2.000      2.000      2.000      2.000      2.000      0.000      0.000      0.000
 eps  :        -9.790     -9.737     -9.619     -9.558     -9.191     -7.861     -7.780     -7.760
 #    :         802        803        804        805        806        807        808        809
 occ. :        0.000      0.000      0.000      0.000      0.000      0.000      0.000      0.000
 eps  :        -7.728     -7.648     -7.502     -7.419     -7.326     -7.316     -7.277     -7.243


   #   Z            q   n(s)   n(p)   n(d)      C6AA      α(0)
   1   7 N     -0.388  1.323  4.065  0.000    30.047     8.141
   2   6 C      0.016  1.066  2.918  0.000    20.327     6.423
   3   6 C      0.267  1.050  2.683  0.000    22.496     7.767
   4   8 O     -0.498  1.747  4.751  0.000    23.743     6.533
   5   6 C     -0.126  1.047  3.079  0.000    22.964     6.832
   6   1 H      0.160  0.840  0.000  0.000     1.336     1.811
   7   1 H      0.066  0.934  0.000  0.000     2.125     2.280
   8   1 H      0.041  0.959  0.000  0.000     2.435     2.440
   9   1 H      0.065  0.935  0.000  0.000     2.138     2.287
  10   1 H      0.046  0.954  0.000  0.000     2.372     2.408
  11   7 N     -0.173  1.245  3.928  0.000    24.735     7.387
  12   6 C      0.016  1.064  2.920  0.000    20.303     6.415
  13   6 C      0.279  1.043  2.678  0.000    22.281     7.729
  14   8 O     -0.508  1.751  4.757  0.000    23.954     6.562
  15   6 C     -0.083  1.063  3.020  0.000    22.084     6.690
  16   6 C     -0.017  1.062  2.956  0.000    20.854     6.496
  17   6 C     -0.117  1.041  3.077  0.000    22.803     6.809
  18   6 C     -0.115  1.042  3.073  0.000    22.755     6.801
  19   1 H      0.215  0.785  0.000  0.000     1.032     1.591
  20   1 H      0.072  0.928  0.000  0.000     2.067     2.248
  21   1 H      0.070  0.930  0.000  0.000     2.090     2.261
  22   1 H      0.047  0.953  0.000  0.000     2.354     2.399
  23   1 H      0.035  0.965  0.000  0.000     2.510     2.478
  24   1 H      0.044  0.956  0.000  0.000     2.399     2.422
  25   1 H      0.046  0.954  0.000  0.000     2.377     2.411
  26   1 H      0.048  0.952  0.000  0.000     2.346     2.395
  27   1 H      0.034  0.966  0.000  0.000     2.526     2.485
  28   1 H      0.047  0.953  0.000  0.000     2.354     2.399
  29   1 H      0.031  0.969  0.000  0.000     2.577     2.510
  30   7 N     -0.188  1.256  3.932  0.000    25.074     7.437
  31   6 C      0.001  1.081  2.918  0.000    20.590     6.464
  32   6 C      0.283  1.042  2.675  0.000    22.204     7.715
  33   8 O     -0.488  1.751  4.737  0.000    23.517     6.502
  34   6 C     -0.095  1.064  3.031  0.000    22.304     6.724
  35   6 C     -0.079  1.052  3.027  0.000    22.005     6.679
  36   6 C     -0.101  1.057  3.044  0.000    22.416     6.740
  37   6 C     -0.052  1.061  2.991  0.000    21.603     6.635
  38   7 N     -0.149  1.231  3.918  0.000    24.219     7.309
  39   1 H      0.226  0.774  0.000  0.000     0.985     1.554
  40   1 H      0.095  0.905  0.000  0.000     1.827     2.114
  41   1 H      0.082  0.918  0.000  0.000     1.963     2.191
  42   1 H      0.058  0.942  0.000  0.000     2.221     2.330
  43   1 H      0.077  0.923  0.000  0.000     2.009     2.216
  44   1 H      0.061  0.939  0.000  0.000     2.188     2.313
  45   1 H      0.075  0.925  0.000  0.000     2.032     2.229
  46   1 H      0.086  0.914  0.000  0.000     1.917     2.165
  47   1 H      0.125  0.875  0.000  0.000     1.570     1.959
  48   1 H      0.118  0.882  0.000  0.000     1.631     1.997
  49   1 H      0.304  0.696  0.000  0.000     0.703     1.313
  50   1 H      0.294  0.706  0.000  0.000     0.732     1.340
  51   1 H      0.300  0.700  0.000  0.000     0.715     1.324
  52   7 N     -0.173  1.236  3.937  0.000    24.750     7.389
  53   6 C      0.012  1.063  2.925  0.000    20.383     6.430
  54   6 C      0.271  1.051  2.678  0.000    22.423     7.756
  55   8 O     -0.483  1.756  4.727  0.000    23.405     6.486
  56   6 C     -0.027  1.071  2.956  0.000    21.014     6.520
  57   6 C     -0.081  1.057  3.024  0.000    22.042     6.685
  58   6 C     -0.132  1.045  3.087  0.000    23.095     6.853
  59   6 C     -0.111  1.036  3.075  0.000    22.690     6.794
  60   1 H      0.215  0.785  0.000  0.000     1.032     1.592
  61   1 H      0.080  0.920  0.000  0.000     1.978     2.199
  62   1 H      0.055  0.945  0.000  0.000     2.261     2.352
  63   1 H      0.068  0.932  0.000  0.000     2.107     2.270
  64   1 H      0.049  0.951  0.000  0.000     2.338     2.391
  65   1 H      0.069  0.931  0.000  0.000     2.099     2.265
  66   1 H      0.060  0.940  0.000  0.000     2.201     2.320
  67   1 H      0.064  0.936  0.000  0.000     2.156     2.296
  68   1 H      0.044  0.956  0.000  0.000     2.401     2.423
  69   1 H      0.025  0.975  0.000  0.000     2.655     2.548
  70   1 H      0.038  0.962  0.000  0.000     2.476     2.460
  71   7 N     -0.177  1.265  3.912  0.000    24.834     7.401
  72   6 C      0.026  1.064  2.910  0.000    20.136     6.388
  73   6 C      0.280  1.051  2.669  0.000    22.261     7.725
  74   8 O     -0.478  1.759  4.719  0.000    23.306     6.473
  75   6 C     -0.076  1.060  3.017  0.000    21.959     6.672
  76   6 C     -0.015  1.055  2.960  0.000    20.809     6.488
  77   6 C     -0.117  1.042  3.075  0.000    22.788     6.805
  78   6 C     -0.115  1.040  3.076  0.000    22.759     6.801
  79   1 H      0.221  0.779  0.000  0.000     1.006     1.571
  80   1 H      0.083  0.917  0.000  0.000     1.948     2.182
  81   1 H      0.077  0.923  0.000  0.000     2.012     2.218
  82   1 H      0.046  0.954  0.000  0.000     2.370     2.407
  83   1 H      0.034  0.966  0.000  0.000     2.527     2.486
  84   1 H      0.036  0.964  0.000  0.000     2.507     2.476
  85   1 H      0.045  0.955  0.000  0.000     2.387     2.416
  86   1 H      0.058  0.942  0.000  0.000     2.227     2.334
  87   1 H      0.040  0.960  0.000  0.000     2.454     2.450
  88   1 H      0.060  0.940  0.000  0.000     2.198     2.319
  89   1 H      0.017  0.983  0.000  0.000     2.773     2.604
  90   7 N     -0.204  1.241  3.963  0.000    25.425     7.489
  91   6 C      0.044  1.049  2.907  0.000    19.850     6.345
  92   6 C      0.266  1.058  2.676  0.000    22.523     7.777
  93   8 O     -0.492  1.730  4.762  0.000    23.600     6.513
  94   6 C     -0.103  1.065  3.037  0.000    22.439     6.741
  95   6 C      0.292  1.044  2.665  0.000    22.054     7.689
  96   8 O     -0.489  1.769  4.720  0.000    23.535     6.504
  97   7 N     -0.298  1.289  4.009  0.000    27.682     7.814
  98   1 H      0.218  0.782  0.000  0.000     1.017     1.580
  99   1 H      0.055  0.945  0.000  0.000     2.259     2.351
 100   1 H      0.064  0.936  0.000  0.000     2.156     2.296
 101   1 H      0.094  0.906  0.000  0.000     1.844     2.124
 102   1 H      0.235  0.765  0.000  0.000     0.945     1.523
 103   1 H      0.241  0.759  0.000  0.000     0.918     1.501
 104   7 N     -0.192  1.288  3.904  0.000    25.175     7.452
 105   6 C      0.009  1.056  2.935  0.000    20.378     6.418
 106   6 C      0.265  1.044  2.691  0.000    22.529     7.772
 107   8 O     -0.450  1.742  4.708  0.000    22.698     6.388
 108   6 C     -0.115  1.063  3.053  0.000    22.700     6.782
 109   6 C      0.283  1.043  2.674  0.000    22.212     7.718
 110   8 O     -0.451  1.750  4.702  0.000    22.732     6.392
 111   7 N     -0.311  1.295  4.016  0.000    28.002     7.859
 112   1 H      0.248  0.752  0.000  0.000     0.889     1.477
 113   1 H      0.077  0.923  0.000  0.000     2.010     2.217
 114   1 H      0.101  0.899  0.000  0.000     1.773     2.082
 115   1 H      0.093  0.907  0.000  0.000     1.853     2.129
 116   1 H      0.238  0.762  0.000  0.000     0.933     1.513
 117   1 H      0.223  0.777  0.000  0.000     0.995     1.563
 118   7 N     -0.177  1.249  3.929  0.000    24.841     7.402
 119   6 C      0.014  1.067  2.918  0.000    20.346     6.424
 120   6 C      0.192  1.079  2.728  0.000    23.889     8.004
 121   8 O     -0.324  1.756  4.568  0.000    20.227     6.030
 122   6 C     -0.036  1.072  2.964  0.000    21.178     6.546
 123   6 C     -0.080  1.057  3.022  0.000    22.023     6.682
 124   6 C     -0.124  1.041  3.083  0.000    22.940     6.830
 125   6 C     -0.118  1.039  3.078  0.000    22.816     6.812
 126   1 H      0.206  0.794  0.000  0.000     1.077     1.626
 127   1 H      0.074  0.926  0.000  0.000     2.041     2.234
 128   1 H      0.069  0.931  0.000  0.000     2.096     2.264
 129   1 H      0.043  0.957  0.000  0.000     2.414     2.429
 130   1 H      0.069  0.931  0.000  0.000     2.098     2.265
 131   1 H      0.056  0.944  0.000  0.000     2.245     2.343
 132   1 H      0.043  0.957  0.000  0.000     2.412     2.429
 133   1 H      0.039  0.961  0.000  0.000     2.464     2.455
 134   1 H      0.054  0.946  0.000  0.000     2.273     2.357
 135   1 H      0.052  0.948  0.000  0.000     2.300     2.372
 136   1 H      0.037  0.963  0.000  0.000     2.493     2.469
 137   7 N     -0.394  1.306  4.088  0.000    30.196     8.161
 138   6 C      0.044  1.059  2.897  0.000    19.866     6.350
 139   6 C      0.203  1.097  2.700  0.000    23.691     7.971
 140   8 O     -0.380  1.753  4.627  0.000    21.286     6.186
 141   6 C     -0.072  1.068  3.004  0.000    21.869     6.658
 142   6 C     -0.014  1.064  2.950  0.000    20.790     6.486
 143   6 C     -0.114  1.041  3.072  0.000    22.735     6.799
 144   6 C     -0.102  1.039  3.063  0.000    22.507     6.764
 145   1 H      0.202  0.798  0.000  0.000     1.098     1.641
 146   1 H      0.045  0.955  0.000  0.000     2.385     2.415
 147   1 H      0.057  0.943  0.000  0.000     2.234     2.337
 148   1 H      0.038  0.962  0.000  0.000     2.482     2.463
 149   1 H      0.018  0.982  0.000  0.000     2.766     2.601
 150   1 H      0.045  0.955  0.000  0.000     2.381     2.413
 151   1 H      0.045  0.955  0.000  0.000     2.384     2.414
 152   1 H      0.043  0.957  0.000  0.000     2.407     2.426
 153   1 H      0.038  0.962  0.000  0.000     2.478     2.462
 154   1 H      0.035  0.965  0.000  0.000     2.513     2.479
 155   1 H      0.012  0.988  0.000  0.000     2.852     2.641
 156   7 N     -0.393  1.295  4.098  0.000    30.170     8.158
 157   6 C      0.038  1.049  2.913  0.000    19.928     6.355
 158   6 C      0.201  1.095  2.704  0.000    23.718     7.976
 159   8 O     -0.388  1.764  4.624  0.000    21.442     6.208
 160   6 C     -0.071  1.055  3.016  0.000    21.832     6.648
 161   6 C     -0.012  1.057  2.955  0.000    20.748     6.477
 162   6 C     -0.124  1.046  3.078  0.000    22.938     6.829
 163   6 C     -0.114  1.041  3.073  0.000    22.743     6.799
 164   1 H      0.176  0.824  0.000  0.000     1.238     1.743
 165   1 H      0.063  0.937  0.000  0.000     2.159     2.298
 166   1 H      0.069  0.931  0.000  0.000     2.097     2.265
 167   1 H      0.030  0.970  0.000  0.000     2.584     2.514
 168   1 H      0.012  0.988  0.000  0.000     2.863     2.646
 169   1 H      0.050  0.950  0.000  0.000     2.323     2.383
 170   1 H      0.047  0.953  0.000  0.000     2.353     2.399
 171   1 H      0.065  0.935  0.000  0.000     2.138     2.287
 172   1 H      0.019  0.981  0.000  0.000     2.747     2.592
 173   1 H      0.054  0.946  0.000  0.000     2.270     2.356
 174   1 H      0.027  0.973  0.000  0.000     2.631     2.536
 175   7 N     -0.389  1.303  4.086  0.000    30.058     8.142
 176   6 C      0.039  1.052  2.908  0.000    19.936     6.361
 177   6 C      0.195  1.091  2.714  0.000    23.840     7.996
 178   8 O     -0.389  1.759  4.629  0.000    21.456     6.210
 179   6 C     -0.068  1.062  3.006  0.000    21.790     6.645
 180   6 C     -0.008  1.059  2.949  0.000    20.694     6.471
 181   6 C     -0.116  1.043  3.073  0.000    22.762     6.801
 182   6 C     -0.111  1.038  3.073  0.000    22.675     6.789
 183   1 H      0.171  0.829  0.000  0.000     1.268     1.764
 184   1 H      0.055  0.945  0.000  0.000     2.260     2.351
 185   1 H      0.047  0.953  0.000  0.000     2.363     2.404
 186   1 H      0.042  0.958  0.000  0.000     2.417     2.431
 187   1 H      0.038  0.962  0.000  0.000     2.475     2.460
 188   1 H      0.043  0.957  0.000  0.000     2.406     2.426
 189   1 H      0.039  0.961  0.000  0.000     2.464     2.455
 190   1 H      0.036  0.964  0.000  0.000     2.499     2.472
 191   1 H      0.044  0.956  0.000  0.000     2.395     2.420
 192   1 H      0.035  0.965  0.000  0.000     2.510     2.478
 193   1 H      0.039  0.961  0.000  0.000     2.468     2.457
 194   7 N     -0.392  1.318  4.074  0.000    30.148     8.155
 195   6 C      0.040  1.055  2.905  0.000    19.931     6.360
 196   6 C      0.202  1.094  2.704  0.000    23.708     7.974
 197   8 O     -0.389  1.759  4.630  0.000    21.454     6.210
 198   6 C     -0.079  1.059  3.020  0.000    21.997     6.676
 199   6 C     -0.011  1.060  2.951  0.000    20.747     6.479
 200   6 C     -0.112  1.040  3.072  0.000    22.695     6.792
 201   6 C     -0.113  1.047  3.067  0.000    22.719     6.796
 202   1 H      0.171  0.829  0.000  0.000     1.270     1.765
 203   1 H      0.063  0.937  0.000  0.000     2.159     2.298
 204   1 H      0.052  0.948  0.000  0.000     2.294     2.368
 205   1 H      0.045  0.955  0.000  0.000     2.377     2.411
 206   1 H      0.029  0.971  0.000  0.000     2.601     2.522
 207   1 H      0.042  0.958  0.000  0.000     2.418     2.432
 208   1 H      0.042  0.958  0.000  0.000     2.427     2.436
 209   1 H      0.041  0.959  0.000  0.000     2.435     2.440
 210   1 H      0.041  0.959  0.000  0.000     2.430     2.438
 211   1 H      0.041  0.959  0.000  0.000     2.433     2.439
 212   1 H      0.028  0.972  0.000  0.000     2.618     2.530
 213   7 N     -0.396  1.321  4.076  0.000    30.273     8.172
 214   6 C      0.044  1.048  2.908  0.000    19.853     6.347
 215   6 C      0.194  1.090  2.716  0.000    23.862     8.001
 216   8 O     -0.382  1.766  4.616  0.000    21.320     6.191
 217   6 C     -0.125  1.045  3.081  0.000    22.937     6.825
 218   1 H      0.180  0.820  0.000  0.000     1.216     1.728
 219   1 H      0.036  0.964  0.000  0.000     2.502     2.474
 220   1 H      0.048  0.952  0.000  0.000     2.348     2.396
 221   1 H      0.072  0.928  0.000  0.000     2.068     2.249
 222   1 H      0.069  0.931  0.000  0.000     2.095     2.263
 223   7 N     -0.384  1.310  4.075  0.000    29.938     8.126
 224   6 C      0.038  1.057  2.905  0.000    19.944     6.360
 225   6 C      0.278  1.048  2.674  0.000    22.294     7.734
 226   8 O     -0.480  1.748  4.732  0.000    23.350     6.479
 227   6 C     -0.060  1.055  3.004  0.000    21.644     6.623
 228   6 C     -0.095  1.079  3.016  0.000    22.325     6.729
 229   6 C      0.367  1.033  2.600  0.000    20.773     7.458
 230   8 O     -0.646  1.776  4.870  0.000    27.283     7.003
 231   8 O     -0.633  1.769  4.864  0.000    26.941     6.959
 232   1 H      0.158  0.842  0.000  0.000     1.345     1.817
 233   1 H      0.031  0.969  0.000  0.000     2.569     2.507
 234   1 H      0.032  0.968  0.000  0.000     2.553     2.499
 235   1 H      0.035  0.965  0.000  0.000     2.514     2.479
 236   1 H      0.012  0.988  0.000  0.000     2.864     2.647
 237   1 H      0.021  0.979  0.000  0.000     2.714     2.576
 238   7 N     -0.176  1.234  3.942  0.000    24.816     7.399
 239   6 C      0.005  1.068  2.927  0.000    20.468     6.437
 240   6 C      0.284  1.039  2.677  0.000    22.184     7.713
 241   8 O     -0.454  1.747  4.707  0.000    22.789     6.400
 242   6 C      0.055  1.041  2.904  0.000    19.866     6.385
 243   8 O     -0.489  1.710  4.779  0.000    22.660     6.426
 244   1 H      0.198  0.802  0.000  0.000     1.118     1.656
 245   1 H      0.089  0.911  0.000  0.000     1.884     2.147
 246   1 H      0.064  0.936  0.000  0.000     2.151     2.293
 247   1 H      0.049  0.951  0.000  0.000     2.334     2.389
 248   1 H      0.339  0.661  0.000  0.000     0.614     1.231
 249   7 N     -0.187  1.246  3.940  0.000    25.049     7.433
 250   6 C      0.018  1.054  2.929  0.000    20.267     6.408
 251   6 C      0.287  1.035  2.678  0.000    22.149     7.712
 252   8 O     -0.469  1.744  4.725  0.000    23.100     6.444
 253   6 C      0.110  1.049  2.841  0.000    18.820     6.186
 254   8 O     -0.488  1.736  4.752  0.000    22.636     6.423
 255   6 C     -0.157  1.048  3.108  0.000    23.598     6.927
 256   1 H      0.228  0.772  0.000  0.000     0.976     1.548
 257   1 H      0.092  0.908  0.000  0.000     1.858     2.132
 258   1 H      0.049  0.951  0.000  0.000     2.335     2.390
 259   1 H      0.340  0.660  0.000  0.000     0.611     1.228
 260   1 H      0.081  0.919  0.000  0.000     1.969     2.195
 261   1 H      0.091  0.909  0.000  0.000     1.872     2.140
 262   1 H      0.080  0.920  0.000  0.000     1.980     2.200
 263   7 N     -0.182  1.250  3.932  0.000    24.943     7.417
 264   6 C      0.025  1.059  2.915  0.000    20.121     6.382
 265   6 C      0.315  1.036  2.649  0.000    21.645     7.621
 266   8 O     -0.525  1.754  4.771  0.000    24.354     6.617
 267   6 C     -0.093  1.067  3.026  0.000    22.257     6.714
 268   6 C     -0.004  1.059  2.945  0.000    20.620     6.459
 269   6 C     -0.120  1.045  3.075  0.000    22.851     6.816
 270   6 C     -0.104  1.039  3.065  0.000    22.550     6.773
 271   1 H      0.254  0.746  0.000  0.000     0.869     1.460
 272   1 H      0.068  0.932  0.000  0.000     2.106     2.270
 273   1 H      0.095  0.905  0.000  0.000     1.827     2.114
 274   1 H      0.066  0.934  0.000  0.000     2.134     2.285
 275   1 H      0.004  0.996  0.000  0.000     2.990     2.704
 276   1 H      0.034  0.966  0.000  0.000     2.529     2.487
 277   1 H      0.050  0.950  0.000  0.000     2.319     2.381
 278   1 H      0.063  0.937  0.000  0.000     2.163     2.300
 279   1 H      0.031  0.969  0.000  0.000     2.567     2.505
 280   1 H      0.060  0.940  0.000  0.000     2.193     2.316
 281   1 H      0.003  0.997  0.000  0.000     3.013     2.715
 282   7 N     -0.212  1.261  3.951  0.000    25.607     7.516
 283   6 C      0.042  1.060  2.898  0.000    19.871     6.346
 284   6 C      0.325  1.031  2.643  0.000    21.472     7.588
 285   8 O     -0.548  1.777  4.770  0.000    24.868     6.686
 286   6 C     -0.072  1.062  3.011  0.000    21.880     6.660
 287   6 C     -0.102  1.072  3.030  0.000    22.448     6.747
 288   6 C      0.366  1.027  2.607  0.000    20.785     7.461
 289   8 O     -0.664  1.792  4.872  0.000    27.759     7.064
 290   8 O     -0.659  1.781  4.878  0.000    27.603     7.044
 291   1 H      0.220  0.780  0.000  0.000     1.009     1.574
 292   1 H      0.029  0.971  0.000  0.000     2.596     2.520
 293   1 H      0.056  0.944  0.000  0.000     2.242     2.341
 294   1 H      0.081  0.919  0.000  0.000     1.972     2.196
 295   1 H      0.054  0.946  0.000  0.000     2.275     2.359
 296   1 H      0.025  0.975  0.000  0.000     2.660     2.550
 297   7 N     -0.215  1.252  3.963  0.000    25.692     7.528
 298   6 C      0.043  1.047  2.910  0.000    19.848     6.342
 299   6 C      0.291  1.034  2.675  0.000    22.061     7.692
 300   8 O     -0.523  1.760  4.763  0.000    24.295     6.609
 301   6 C      0.111  1.043  2.846  0.000    18.850     6.198
 302   8 O     -0.468  1.698  4.770  0.000    22.215     6.363
 303   6 C     -0.145  1.047  3.098  0.000    23.356     6.891
 304   1 H      0.243  0.757  0.000  0.000     0.909     1.494
 305   1 H      0.019  0.981  0.000  0.000     2.753     2.595
 306   1 H      0.039  0.961  0.000  0.000     2.465     2.455
 307   1 H      0.364  0.636  0.000  0.000     0.556     1.172
 308   1 H      0.109  0.891  0.000  0.000     1.703     2.041
 309   1 H      0.048  0.952  0.000  0.000     2.348     2.396
 310   1 H      0.049  0.951  0.000  0.000     2.333     2.388
 311   7 N     -0.190  1.252  3.938  0.000    25.125     7.444
 312   6 C      0.038  1.057  2.904  0.000    19.933     6.357
 313   6 C      0.287  1.041  2.672  0.000    22.142     7.706
 314   8 O     -0.521  1.742  4.779  0.000    24.246     6.602
 315   6 C     -0.077  1.061  3.016  0.000    21.963     6.671
 316   6 C     -0.023  1.065  2.958  0.000    20.953     6.511
 317   6 C     -0.114  1.043  3.072  0.000    22.749     6.802
 318   6 C     -0.129  1.045  3.084  0.000    23.034     6.844
 319   1 H      0.255  0.745  0.000  0.000     0.865     1.457
 320   1 H      0.063  0.937  0.000  0.000     2.166     2.301
 321   1 H      0.040  0.960  0.000  0.000     2.442     2.444
 322   1 H      0.059  0.941  0.000  0.000     2.208     2.324
 323   1 H      0.058  0.942  0.000  0.000     2.224     2.332
 324   1 H      0.077  0.923  0.000  0.000     2.008     2.216
 325   1 H      0.030  0.970  0.000  0.000     2.580     2.512
 326   1 H      0.047  0.953  0.000  0.000     2.361     2.403
 327   1 H      0.069  0.931  0.000  0.000     2.098     2.265
 328   1 H      0.048  0.952  0.000  0.000     2.351     2.398
 329   1 H      0.038  0.962  0.000  0.000     2.479     2.462
 330   7 N     -0.200  1.259  3.941  0.000    25.351     7.478
 331   6 C      0.055  1.045  2.900  0.000    19.643     6.308
 332   6 C      0.292  1.037  2.671  0.000    22.051     7.691
 333   8 O     -0.541  1.758  4.783  0.000    24.712     6.665
 334   6 C     -0.034  1.047  2.986  0.000    21.156     6.546
 335   6 C     -0.086  1.062  3.024  0.000    22.137     6.699
 336   6 C      0.371  1.027  2.602  0.000    20.717     7.449
 337   8 O     -0.610  1.753  4.857  0.000    26.371     6.885
 338   8 O     -0.641  1.777  4.863  0.000    27.147     6.986
 339   1 H      0.222  0.778  0.000  0.000     1.000     1.566
 340   1 H      0.053  0.947  0.000  0.000     2.278     2.361
 341   1 H      0.049  0.951  0.000  0.000     2.332     2.388
 342   1 H      0.013  0.987  0.000  0.000     2.843     2.637
 343   1 H      0.028  0.972  0.000  0.000     2.616     2.530
 344   1 H     -0.010  1.010  0.000  0.000     3.233     2.812
 345   7 N     -0.190  1.251  3.939  0.000    25.115     7.443
 346   6 C      0.060  1.049  2.891  0.000    19.575     6.299
 347   6 C      0.286  1.042  2.672  0.000    22.158     7.709
 348   8 O     -0.497  1.732  4.765  0.000    23.714     6.529
 349   6 C     -0.028  1.049  2.980  0.000    21.084     6.538
 350   6 C     -0.087  1.067  3.020  0.000    22.168     6.705
 351   6 C      0.371  1.028  2.601  0.000    20.717     7.448
 352   8 O     -0.630  1.771  4.859  0.000    26.869     6.950
 353   8 O     -0.626  1.760  4.867  0.000    26.778     6.938
 354   1 H      0.224  0.776  0.000  0.000     0.993     1.561
 355   1 H      0.025  0.975  0.000  0.000     2.653     2.547
 356   1 H      0.007  0.993  0.000  0.000     2.946     2.684
 357   1 H      0.026  0.974  0.000  0.000     2.646     2.544
 358   1 H      0.025  0.975  0.000  0.000     2.658     2.550
 359   1 H      0.015  0.985  0.000  0.000     2.807     2.620
 360   7 N     -0.201  1.259  3.943  0.000    25.379     7.482
 361   6 C      0.029  1.058  2.913  0.000    20.078     6.378
 362   6 C      0.267  1.045  2.688  0.000    22.499     7.767
 363   8 O     -0.439  1.725  4.714  0.000    22.484     6.357
 364   6 C     -0.053  1.048  3.005  0.000    21.494     6.596
 365   6 C     -0.011  1.067  2.944  0.000    20.780     6.492
 366  16 S     -0.153  1.892  4.221  0.040   147.512    20.442
 367   6 C     -0.060  1.054  3.007  0.000    21.734     6.651
 368   1 H      0.224  0.776  0.000  0.000     0.991     1.559
 369   1 H      0.082  0.918  0.000  0.000     1.963     2.191
 370   1 H      0.082  0.918  0.000  0.000     1.962     2.191
 371   1 H      0.038  0.962  0.000  0.000     2.480     2.463
 372   1 H      0.025  0.975  0.000  0.000     2.653     2.547
 373   1 H      0.053  0.947  0.000  0.000     2.279     2.361
 374   1 H      0.096  0.904  0.000  0.000     1.818     2.108
 375   1 H      0.042  0.958  0.000  0.000     2.417     2.431
 376   1 H      0.024  0.976  0.000  0.000     2.666     2.553
 377   7 N     -0.197  1.267  3.930  0.000    25.281     7.468
 378   6 C      0.030  1.059  2.911  0.000    20.074     6.379
 379   6 C      0.295  1.042  2.663  0.000    22.003     7.682
 380   8 O     -0.466  1.726  4.740  0.000    23.045     6.436
 381   6 C     -0.070  1.054  3.016  0.000    21.821     6.648
 382   6 C      0.005  1.053  2.943  0.000    20.465     6.434
 383   6 C     -0.112  1.041  3.071  0.000    22.705     6.795
 384   6 C     -0.100  1.039  3.061  0.000    22.459     6.758
 385   1 H      0.201  0.799  0.000  0.000     1.099     1.642
 386   1 H      0.095  0.905  0.000  0.000     1.830     2.115
 387   1 H      0.082  0.918  0.000  0.000     1.959     2.189
 388   1 H      0.019  0.981  0.000  0.000     2.742     2.590
 389   1 H     -0.002  1.002  0.000  0.000     3.088     2.748
 390   1 H      0.049  0.951  0.000  0.000     2.329     2.387
 391   1 H      0.046  0.954  0.000  0.000     2.369     2.407
 392   1 H      0.055  0.945  0.000  0.000     2.260     2.351
 393   1 H      0.033  0.967  0.000  0.000     2.546     2.495
 394   1 H      0.051  0.949  0.000  0.000     2.306     2.375
 395   1 H      0.019  0.981  0.000  0.000     2.754     2.595
 396   7 N     -0.195  1.248  3.947  0.000    25.228     7.460
 397   6 C      0.057  1.046  2.897  0.000    19.599     6.298
 398   6 C      0.294  1.031  2.675  0.000    22.006     7.683
 399   8 O     -0.473  1.726  4.747  0.000    23.202     6.458
 400   6 C     -0.071  1.050  3.021  0.000    21.830     6.648
 401   6 C     -0.079  1.053  3.026  0.000    22.005     6.679
 402   6 C      0.356  1.036  2.608  0.000    20.964     7.493
 403   8 O     -0.581  1.761  4.820  0.000    25.655     6.791
 404   8 O     -0.596  1.770  4.826  0.000    26.021     6.839
 405   1 H      0.184  0.816  0.000  0.000     1.190     1.709
 406   1 H      0.027  0.973  0.000  0.000     2.634     2.538
 407   1 H      0.057  0.943  0.000  0.000     2.234     2.337
 408   1 H      0.073  0.927  0.000  0.000     2.055     2.242
 409   1 H      0.019  0.981  0.000  0.000     2.752     2.594
 410   1 H      0.000  1.000  0.000  0.000     3.052     2.732
 411   7 N     -0.193  1.247  3.947  0.000    25.194     7.455
 412   6 C      0.006  1.085  2.909  0.000    20.502     6.452
 413   6 C      0.274  1.044  2.682  0.000    22.361     7.745
 414   8 O     -0.459  1.734  4.725  0.000    22.903     6.416
 415   6 C     -0.087  1.070  3.017  0.000    22.177     6.707
 416   6 C     -0.061  1.052  3.009  0.000    21.682     6.631
 417   6 C     -0.093  1.062  3.031  0.000    22.280     6.722
 418   6 C     -0.044  1.066  2.977  0.000    21.471     6.617
 419   7 N     -0.144  1.235  3.909  0.000    24.114     7.293
 420   1 H      0.190  0.810  0.000  0.000     1.161     1.688
 421   1 H      0.074  0.926  0.000  0.000     2.044     2.236
 422   1 H      0.056  0.944  0.000  0.000     2.243     2.342
 423   1 H      0.085  0.915  0.000  0.000     1.928     2.171
 424   1 H      0.037  0.963  0.000  0.000     2.484     2.465
 425   1 H      0.035  0.965  0.000  0.000     2.516     2.480
 426   1 H      0.099  0.901  0.000  0.000     1.796     2.096
 427   1 H      0.083  0.917  0.000  0.000     1.953     2.185
 428   1 H      0.099  0.901  0.000  0.000     1.795     2.095
 429   1 H      0.099  0.901  0.000  0.000     1.798     2.097
 430   1 H      0.300  0.700  0.000  0.000     0.712     1.322
 431   1 H      0.300  0.700  0.000  0.000     0.714     1.324
 432   1 H      0.289  0.711  0.000  0.000     0.747     1.354
 433   7 N     -0.173  1.247  3.925  0.000    24.739     7.387
 434   6 C      0.027  1.055  2.918  0.000    20.102     6.379
 435   6 C      0.292  1.036  2.672  0.000    22.053     7.691
 436   8 O     -0.485  1.737  4.748  0.000    23.464     6.494
 437   6 C     -0.079  1.060  3.019  0.000    21.997     6.674
 438   6 C     -0.014  1.058  2.956  0.000    20.785     6.484
 439   6 C     -0.122  1.047  3.075  0.000    22.894     6.822
 440   6 C     -0.121  1.039  3.082  0.000    22.866     6.818
 441   1 H      0.213  0.787  0.000  0.000     1.044     1.600
 442   1 H      0.079  0.921  0.000  0.000     1.992     2.207
 443   1 H      0.069  0.931  0.000  0.000     2.096     2.264
 444   1 H      0.030  0.970  0.000  0.000     2.590     2.517
 445   1 H      0.048  0.952  0.000  0.000     2.347     2.396
 446   1 H      0.063  0.937  0.000  0.000     2.169     2.303
 447   1 H      0.053  0.947  0.000  0.000     2.285     2.364
 448   1 H      0.041  0.959  0.000  0.000     2.430     2.438
 449   1 H      0.060  0.940  0.000  0.000     2.200     2.319
 450   1 H      0.023  0.977  0.000  0.000     2.689     2.565
 451   1 H      0.034  0.966  0.000  0.000     2.525     2.485
 452   7 N     -0.202  1.251  3.952  0.000    25.397     7.485
 453   6 C      0.036  1.054  2.910  0.000    19.959     6.360
 454   6 C      0.286  1.047  2.667  0.000    22.156     7.712
 455   8 O     -0.511  1.750  4.761  0.000    24.032     6.573
 456   6 C     -0.051  1.048  3.003  0.000    21.476     6.597
 457   6 C     -0.091  1.063  3.028  0.000    22.251     6.719
 458   6 C      0.360  1.041  2.599  0.000    20.895     7.480
 459   8 O     -0.628  1.770  4.858  0.000    26.824     6.944
 460   8 O     -0.655  1.783  4.872  0.000    27.507     7.032
 461   1 H      0.229  0.771  0.000  0.000     0.969     1.542
 462   1 H      0.064  0.936  0.000  0.000     2.148     2.292
 463   1 H      0.038  0.962  0.000  0.000     2.478     2.462
 464   1 H      0.051  0.949  0.000  0.000     2.309     2.376
 465   1 H      0.030  0.970  0.000  0.000     2.589     2.516
 466   1 H     -0.006  1.006  0.000  0.000     3.158     2.779
 467   7 N     -0.199  1.279  3.920  0.000    25.322     7.474
 468   6 C      0.040  1.051  2.908  0.000    19.856     6.337
 469   6 C      0.291  1.034  2.675  0.000    22.073     7.694
 470   8 O     -0.521  1.747  4.774  0.000    24.255     6.603
 471   6 C     -0.015  1.057  2.958  0.000    20.802     6.486
 472   6 C     -0.112  1.039  3.073  0.000    22.683     6.790
 473   6 C     -0.137  1.044  3.093  0.000    23.191     6.865
 474   1 H      0.218  0.782  0.000  0.000     1.019     1.581
 475   1 H      0.032  0.968  0.000  0.000     2.559     2.502
 476   1 H      0.043  0.957  0.000  0.000     2.405     2.425
 477   1 H      0.055  0.945  0.000  0.000     2.263     2.352
 478   1 H      0.015  0.985  0.000  0.000     2.818     2.625
 479   1 H      0.050  0.950  0.000  0.000     2.314     2.379
 480   1 H      0.061  0.939  0.000  0.000     2.182     2.310
 481   1 H      0.073  0.927  0.000  0.000     2.056     2.242
 482   1 H      0.045  0.955  0.000  0.000     2.379     2.412
 483   7 N     -0.169  1.244  3.925  0.000    24.645     7.373
 484   6 C      0.028  1.057  2.916  0.000    20.112     6.385
 485   6 C      0.226  1.074  2.699  0.000    23.241     7.896
 486   8 O     -0.381  1.742  4.640  0.000    21.308     6.189
 487   6 C     -0.015  1.064  2.951  0.000    20.809     6.488
 488   6 C     -0.120  1.038  3.082  0.000    22.858     6.818
 489   6 C     -0.126  1.046  3.080  0.000    22.959     6.831
 490   1 H      0.232  0.768  0.000  0.000     0.957     1.533
 491   1 H      0.087  0.913  0.000  0.000     1.904     2.158
 492   1 H      0.056  0.944  0.000  0.000     2.248     2.345
 493   1 H      0.068  0.932  0.000  0.000     2.102     2.268
 494   1 H      0.046  0.954  0.000  0.000     2.373     2.409
 495   1 H      0.046  0.954  0.000  0.000     2.371     2.408
 496   1 H      0.061  0.939  0.000  0.000     2.184     2.311
 497   1 H      0.062  0.938  0.000  0.000     2.173     2.305
 498   1 H      0.053  0.947  0.000  0.000     2.279     2.361
 499   7 N     -0.394  1.321  4.073  0.000    30.193     8.161
 500   6 C      0.043  1.055  2.902  0.000    19.871     6.350
 501   6 C      0.200  1.093  2.707  0.000    23.747     7.981
 502   8 O     -0.399  1.763  4.636  0.000    21.667     6.241
 503   6 C     -0.053  1.055  2.998  0.000    21.524     6.605
 504   6 C     -0.099  1.069  3.030  0.000    22.387     6.737
 505   6 C      0.367  1.026  2.607  0.000    20.769     7.458
 506   8 O     -0.637  1.767  4.870  0.000    27.055     6.974
 507   8 O     -0.663  1.781  4.882  0.000    27.720     7.059
 508   1 H      0.175  0.825  0.000  0.000     1.246     1.748
 509   1 H      0.040  0.960  0.000  0.000     2.453     2.449
 510   1 H      0.053  0.947  0.000  0.000     2.285     2.364
 511   1 H      0.050  0.950  0.000  0.000     2.317     2.380
 512   1 H      0.016  0.984  0.000  0.000     2.796     2.615
 513   1 H      0.028  0.972  0.000  0.000     2.609     2.526
 514   7 N     -0.377  1.320  4.058  0.000    29.750     8.101
 515   6 C      0.035  1.064  2.901  0.000    20.015     6.375
 516   6 C      0.198  1.098  2.704  0.000    23.781     7.986
 517   8 O     -0.385  1.772  4.613  0.000    21.389     6.201
 518   6 C     -0.077  1.062  3.015  0.000    21.971     6.675
 519   6 C     -0.067  1.051  3.016  0.000    21.785     6.646
 520   6 C     -0.075  1.053  3.022  0.000    21.941     6.670
 521   6 C     -0.009  1.047  2.962  0.000    20.830     6.516
 522   7 N     -0.170  1.252  3.918  0.000    24.667     7.377
 523   1 H      0.182  0.818  0.000  0.000     1.205     1.720
 524   1 H      0.028  0.972  0.000  0.000     2.622     2.532
 525   1 H      0.080  0.920  0.000  0.000     1.979     2.200
 526   1 H      0.041  0.959  0.000  0.000     2.434     2.440
 527   1 H      0.024  0.976  0.000  0.000     2.671     2.556
 528   1 H      0.067  0.933  0.000  0.000     2.119     2.276
 529   1 H      0.083  0.917  0.000  0.000     1.949     2.183
 530   1 H      0.051  0.949  0.000  0.000     2.304     2.374
 531   1 H      0.083  0.917  0.000  0.000     1.952     2.185
 532   1 H      0.087  0.913  0.000  0.000     1.904     2.158
 533   1 H      0.245  0.755  0.000  0.000     0.903     1.488
 534   1 H      0.268  0.732  0.000  0.000     0.818     1.417
 535   1 H      0.278  0.722  0.000  0.000     0.783     1.387
 536   7 N     -0.389  1.317  4.072  0.000    30.068     8.144
 537   6 C      0.026  1.058  2.916  0.000    20.157     6.395
 538   6 C      0.273  1.044  2.683  0.000    22.394     7.752
 539   8 O     -0.507  1.762  4.745  0.000    23.945     6.561
 540   6 C     -0.112  1.068  3.044  0.000    22.631     6.772
 541   6 C      0.292  1.036  2.673  0.000    22.051     7.689
 542   8 O     -0.514  1.772  4.742  0.000    24.092     6.581
 543   7 N     -0.285  1.262  4.023  0.000    27.362     7.769
 544   1 H      0.177  0.823  0.000  0.000     1.234     1.740
 545   1 H      0.077  0.923  0.000  0.000     2.008     2.216
 546   1 H      0.095  0.905  0.000  0.000     1.831     2.116
 547   1 H      0.056  0.944  0.000  0.000     2.247     2.344
 548   1 H      0.215  0.785  0.000  0.000     1.031     1.591
 549   1 H      0.248  0.752  0.000  0.000     0.891     1.479
 550   7 N     -0.172  1.242  3.930  0.000    24.714     7.383
 551   6 C      0.020  1.045  2.935  0.000    20.184     6.387
 552   6 C      0.273  1.034  2.693  0.000    22.392     7.752
 553   8 O     -0.446  1.742  4.704  0.000    22.628     6.378
 554   6 C     -0.103  1.060  3.043  0.000    22.438     6.739
 555   6 C      0.297  1.027  2.676  0.000    21.967     7.676
 556   8 O     -0.524  1.781  4.743  0.000    24.326     6.613
 557   7 N     -0.293  1.269  4.024  0.000    27.557     7.796
 558   1 H      0.250  0.750  0.000  0.000     0.884     1.473
 559   1 H      0.093  0.907  0.000  0.000     1.851     2.128
 560   1 H      0.104  0.896  0.000  0.000     1.751     2.069
 561   1 H      0.066  0.934  0.000  0.000     2.127     2.281
 562   1 H      0.225  0.775  0.000  0.000     0.986     1.555
 563   1 H      0.261  0.739  0.000  0.000     0.840     1.436
 564   7 N     -0.164  1.245  3.919  0.000    24.548     7.359
 565   6 C      0.019  1.069  2.912  0.000    20.242     6.404
 566   6 C      0.223  1.077  2.700  0.000    23.303     7.906
 567   8 O     -0.370  1.743  4.627  0.000    21.085     6.156
 568   6 C     -0.011  1.068  2.943  0.000    20.738     6.477
 569   6 C     -0.051  1.044  3.007  0.000    21.485     6.598
 570   6 C     -0.090  1.031  3.059  0.000    22.282     6.731
 571   6 C     -0.121  1.040  3.081  0.000    22.881     6.821
 572   1 H      0.191  0.809  0.000  0.000     1.151     1.681
 573   1 H      0.098  0.902  0.000  0.000     1.801     2.099
 574   1 H      0.044  0.956  0.000  0.000     2.403     2.424
 575   1 H      0.034  0.966  0.000  0.000     2.536     2.490
 576   1 H      0.019  0.981  0.000  0.000     2.751     2.594
 577   1 H      0.032  0.968  0.000  0.000     2.561     2.503
 578   1 H      0.022  0.978  0.000  0.000     2.706     2.572
 579   1 H      0.024  0.976  0.000  0.000     2.673     2.557
 580   1 H      0.050  0.950  0.000  0.000     2.321     2.382
 581   1 H      0.068  0.932  0.000  0.000     2.111     2.272
 582   1 H      0.046  0.954  0.000  0.000     2.367     2.406
 583   1 H      0.198  0.802  0.000  0.000     1.117     1.655
 584   1 H      0.086  0.914  0.000  0.000     1.914     2.164
 585   1 H      0.174  0.826  0.000  0.000     1.251     1.752
 586   1 H      0.069  0.931  0.000  0.000     2.097     2.264
 587   1 H      0.193  0.807  0.000  0.000     1.143     1.675
 588   1 H      0.062  0.938  0.000  0.000     2.175     2.306
 589   1 H      0.181  0.819  0.000  0.000     1.209     1.722
 590   1 H      0.077  0.923  0.000  0.000     2.011     2.218
 591   1 H      0.186  0.814  0.000  0.000     1.179     1.701
 592   1 H      0.074  0.926  0.000  0.000     2.037     2.232
 593   1 H      0.180  0.820  0.000  0.000     1.211     1.724
 594   1 H      0.075  0.925  0.000  0.000     2.030     2.228
 595   1 H      0.182  0.818  0.000  0.000     1.200     1.716
 596   1 H      0.053  0.947  0.000  0.000     2.288     2.365
 597   1 H      0.193  0.807  0.000  0.000     1.140     1.672
 598   1 H      0.083  0.917  0.000  0.000     1.951     2.184
 599   1 H      0.177  0.823  0.000  0.000     1.229     1.736
 600   1 H      0.097  0.903  0.000  0.000     1.814     2.106
 601   1 H      0.210  0.790  0.000  0.000     1.057     1.610
 602   1 H      0.045  0.955  0.000  0.000     2.385     2.415

 Mol. C6AA /au·bohr⁶  :    3200605.336440
 Mol. C8AA /au·bohr⁸  :   70304516.748852
 Mol. α(0) /au        :       2658.319430

 
molecular dipole:
                 x           y           z       tot (Debye)
 q only:      -53.650    -567.445     -17.932
   full:      -47.774    -568.630     -20.123    1451.336
molecular quadrupole (traceless):
                xx          xy          yy          xz          yz          zz
 q only:    38649.590  -11972.447  -78170.441     -87.597   -3256.536   39520.851
  q+dip:    39003.585  -10606.868  -78610.590     -24.849   -3772.504   39607.006
   full:    39001.063  -10602.402  -78606.498     -22.445   -3769.152   39605.435
speedup  1.95
cpu  time for grad   52.38 s
wall time for grad   26.83 s

SCC energy    :    -914.5493040
rep           :      10.6972297
ES            :       4.0054400
AES           :      -0.2082977
AXC           :       0.2946780
disp          :      -0.7935937
XB            :       0.0000000
fix           :       0.0000000
Gborn         :       0.0000000
Gsasa         :       0.0000000
Ghb           :       0.0000000
Gshift        :       0.0000000
Gsolv         :      -1.5615379     -979.88
Etot ala COSMO:    -914.5493040
grad norm     :       0.7239083
total E       :    -903.7754407
atomizationE  :     165.4741516   103836.60
(atE without considering molecular charge,
 total energy contains solvation terms)
H-L gap (eV)  :          1.3301

------------------------------------------------------------------------
 * finished run on 2019/05/11 at 23:19:29.620     
------------------------------------------------------------------------
 total:
 * wall-time:     0 d,  0 h,  0 min, 29.371 sec
 *  cpu-time:     0 d,  0 h,  0 min, 55.592 sec
 * ratio c/w:     1.893 speedup
 SCF:
 * wall-time:     0 d,  0 h,  0 min, 28.163 sec
 *  cpu-time:     0 d,  0 h,  0 min, 54.424 sec
 * ratio c/w:     1.932 speedup

