      -----------------------------------------------------------      
     |                   =====================                   |     
     |                           x T B                           |     
     |                   =====================                   |     
     |                         S. Grimme                         |     
     |          Mulliken Center for Theoretical Chemistry        |     
     |                    University of Bonn                     |     
     |                 Version 6.0.1 (SAW181210)                 |     
      -----------------------------------------------------------      

   This program is distributed in the hope that it will be useful,
   but WITHOUT ANY WARRANTY; without even the implied warranty of
   MERCHANTABILITY or FITNESS FOR A PARTICULAR PURPOSE.
   
   FOR NON-COMMERCIAL, ACADEMIA USE ONLY.
   
   Cite this work as:
   S. Grimme, C. Bannwarth, P. Shushkov, J. Comput. Theory Chem., 2017,
   13, 1989-2009.
   C. Bannwarth, S. Ehlert and S. Grimme., ChemRxiv, 2018, preprint.
   http://doi.org/10.26434/chemrxiv.7246238.v1
   
   for sTDA-xTB:
   S. Grimme and C. Bannwarth, J. Chem. Phys., 2016, 145, 054103.
   
   in the mass-spec context:
   V. Asgeirsson, C. Bauer and S. Grimme, Chem. Sci., 2017, 8, 4879.
   
   if GBSA is used:
   P. Shushkov, F. März and S. Grimme, unpublished.
   
   for ANC optimizer:
   S. Grimme, unpublished.
   Rational Function algorithm used in ANCopt:
   F. Eckert, P. Pulay, H.-J. Werner, J. Comput. Chem., 1997, 18, 1473.
   
   with help from (in alphabetical order)
   C. Bannwarth, F. Bohle, G. Brandenburg, E. Caldeweyher, M. Checinski,
   S. Dohm, S. Ehlert, S. Ehrlich, F. März, H. Neugebauer, J. Pisarek,
   P. Pracht, P. Shushkov, and S. Spicher.
   
 * started run on 2019/05/04 at 19:09:27.973     
========================================================================
 # omp threads = 2
========================================================================
number of atoms            : 738
number of electrons        : 1990
charge                     : -1
spin                       : .0
first test random number   : .9748

########################################################################
# WARNING! Please study the warnings concerning your input carefully
#  - Process number higher than OMP_NUM_THREADS, I hope you know what you are doing.
########################################################################

           ------------------------------------------------- 
          |                 G F N 2 - x T B                 |
          | Geometry, Frequencies, Noncovalent interactions |
          |            JCTC 2018 parametrisation            |
           ------------------------------------------------- 
 
      method parameters     
 k(s)        :  1.8500
 k(p)        :  2.2300
 k(d)        :  2.2300
 k(f)        :  2.0000
 kEN (H0ij)  : -2.0000
 D4 a1       :  0.5200
 D4 a2       :  5.0000
 D4 s6       :  1.0000
 D4 s8       :  2.7000
 D4 s9       :  5.0000
 alphaj      :  2.0000

 Solvent             : h2o
 Using internal parameter file: .param_gbsa2_h2o
 Gsolv ref. state (COSMO-RS): gsolv [1 M gas/solution]
 temperature (mdtemp)       :    298.150000000000     
 dielectric constant        :    80.2000000000000     
 rho                        :    1.00000000000000     
 mass                       :    18.0000000000000     
 surface tension            :    15.5689454083859     
 probe radius               :   0.975313790000000     
 vdW radii scaling          :    1.00000000000000     
 Gshift (Eh)                :   1.857443126794793E-003
 c1                         :    1.55243817000000     
 soset                      :   0.130326360000000     
 HB correction              :  T

            Z     q(EN)     CN     RAES       Cart. coordinates
     1  N   5.0   -0.07    4.36    3.93     8.90628    65.81727   -34.92214
     2  C   4.0   -0.00    4.51    4.56     9.37871    66.27458   -32.23872
     3  C   4.0    0.14    3.42    3.08    11.84102    65.08405   -31.36945
     4  O   6.0   -0.30    1.27    1.80    12.88793    63.48534   -32.69037
     5  C   4.0   -0.05    4.38    4.34     7.15828    64.93665   -30.94048
     6  C   4.0   -0.05    4.29    4.17     5.06069    65.15775   -32.77919
     7  C   4.0   -0.04    4.28    4.15     6.26255    65.07838   -35.40213
     8  H   1.0    0.05    1.06    1.44     9.29934    67.46133   -35.92558
     9  H   1.0    0.07    1.08    1.44    10.09114    64.37540   -35.53819
    10  H   1.0    0.04    1.05    1.44     9.35225    68.29092   -31.81732
    11  H   1.0    0.05    1.03    1.43     7.63071    62.96378   -30.58332
    12  H   1.0    0.04    1.03    1.43     6.69908    65.88341   -29.16981
    13  H   1.0    0.03    1.03    1.43     3.75678    63.58172   -32.53163
    14  H   1.0    0.03    1.03    1.43     4.07236    66.94165   -32.48817
    15  H   1.0    0.04    1.02    1.43     6.16429    63.17921   -36.19581
    16  H   1.0    0.03    1.02    1.43     5.34603    66.41820   -36.66824
    17  N   5.0   -0.15    3.44    2.04    12.76699    65.88907   -29.18115
    18  C   4.0    0.04    4.51    4.55    14.61325    64.40753   -27.80921
    19  C   4.0    0.14    3.46    3.10    13.56634    63.70455   -25.24485
    20  O   6.0   -0.33    1.28    1.80    13.35658    65.32216   -23.55732
    21  C   4.0   -0.03    4.19    3.98    17.09824    65.82860   -27.48417
    22  S   6.0   -0.03    2.43    3.10    19.74953    63.77258   -26.70561
    23  H   1.0    0.08    1.05    1.44    12.27188    67.54636   -28.32888
    24  H   1.0    0.07    1.09    1.44    14.94962    62.68410   -28.88635
    25  H   1.0    0.05    1.07    1.44    17.54611    66.79992   -29.24540
    26  H   1.0    0.05    1.08    1.44    16.88848    67.19677   -25.95917
    27  N   5.0   -0.14    3.47    2.06    12.91439    61.28948   -24.95383
    28  C   4.0    0.03    4.34    4.27    12.35125    60.29549   -22.44805
    29  C   4.0    0.07    3.19    3.03    13.26021    57.61774   -21.86602
    30  O   6.0   -0.30    1.18    1.80    13.52099    56.02282   -23.54032
    31  C   4.0   -0.04    4.50    4.54     9.56579    60.56005   -21.83956
    32  C   4.0   -0.04    4.12    3.84     7.84614    60.09895   -24.02976
    33  S   6.0   -0.06    2.58    3.10     4.71109    60.64320   -22.85624
    34  C   4.0   -0.07    3.95    3.54     4.91329    59.08417   -19.82134
    35  H   1.0    0.11    1.09    1.44    12.76510    60.01014   -26.38813
    36  H   1.0    0.05    1.08    1.44    13.50020    61.44066   -21.17816
    37  H   1.0    0.03    1.09    1.44     9.08202    59.19944   -20.36936
    38  H   1.0    0.04    1.06    1.44     9.21997    62.47623   -21.16682
    39  H   1.0    0.05    1.07    1.44     8.25621    61.40853   -25.56610
    40  H   1.0    0.05    1.07    1.44     8.01811    58.15632   -24.69494
    41  H   1.0    0.04    1.04    1.43     3.10293    59.25803   -18.85569
    42  H   1.0    0.04    1.04    1.43     5.36304    57.09618   -20.11802
    43  H   1.0    0.03    1.06    1.44     6.39294    59.97990   -18.70451
    44  N   5.0   -0.20    3.17    1.95    15.59024    47.24693   -23.64236
    45  C   4.0    0.03    4.32    4.24    16.24219    49.75648   -24.66092
    46  C   4.0    0.15    3.40    3.08    14.99498    50.46135   -27.16292
    47  O   6.0   -0.30    1.23    1.80    14.52632    48.85320   -28.76352
    48  C   4.0   -0.04    4.49    4.52    19.08056    49.97569   -25.01241
    49  C   4.0   -0.05    4.08    3.77    20.50542    50.63899   -22.66537
    50  S   6.0   -0.03    2.57    3.10    23.60646    51.56306   -23.61213
    51  C   4.0   -0.06    3.93    3.51    22.93182    53.74948   -26.15381
    52  H   1.0    0.09    1.02    1.43    15.56000    45.84097   -24.96139
    53  H   1.0    0.05    1.06    1.44    15.49764    51.09630   -23.28331
    54  H   1.0    0.05    1.04    1.44    19.79866    48.16722   -25.68516
    55  H   1.0    0.04    1.11    1.44    19.45662    51.44590   -26.40514
    56  H   1.0    0.04    1.07    1.44    19.59079    52.20557   -21.69027
    57  H   1.0    0.04    1.07    1.44    20.62636    49.00626   -21.41626
    58  H   1.0    0.05    1.04    1.43    24.70817    54.46568   -26.91159
    59  H   1.0    0.04    1.05    1.44    21.88681    52.76115   -27.62779
    60  H   1.0    0.04    1.04    1.43    21.80366    55.30661   -25.41681
    61  N   5.0   -0.14    3.47    2.06    14.58302    52.90477   -27.52953
    62  C   4.0    0.04    4.36    4.31    13.57768    53.86286   -29.90302
    63  C   4.0    0.14    3.42    3.08    14.71719    56.44233   -30.46805
    64  O   6.0   -0.31    1.29    1.80    14.44318    58.22246   -28.97895
    65  C   4.0   -0.06    4.11    3.82    10.71853    54.04616   -29.77830
    66  H   1.0    0.11    1.10    1.44    14.92695    54.27293   -26.21617
    67  H   1.0    0.05    1.07    1.44    14.12192    52.58729   -31.42614
    68  H   1.0    0.04    1.00    1.43    10.01366    54.76615   -31.57543
    69  H   1.0    0.05    1.00    1.43     9.94185    52.17344   -29.41925
    70  H   1.0    0.06    1.00    1.43    10.19507    55.32740   -28.25329
    71  N   5.0   -0.13    3.45    2.04    16.00409    56.64454   -32.61289
    72  C   4.0    0.04    4.40    4.39    17.27398    58.99913   -33.28941
    73  C   4.0    0.15    3.43    3.09    17.37792    59.38653   -36.13345
    74  O   6.0   -0.30    1.25    1.80    16.25731    57.96923   -37.59421
    75  C   4.0    0.04    4.17    3.95    19.96495    59.04449   -32.21416
    76  O   6.0   -0.25    2.04    1.83    21.50886    57.18122   -33.37823
    77  H   1.0    0.09    1.06    1.44    16.20062    55.22913   -33.90735
    78  H   1.0    0.07    1.07    1.44    16.10424    60.49391   -32.48817
    79  H   1.0    0.05    1.02    1.43    20.78888    60.90209   -32.55431
    80  H   1.0    0.05    1.02    1.43    19.88181    58.67221   -30.19026
    81  H   1.0    0.14    1.04    1.43    22.42727    57.92199   -34.80497
    82  N   5.0   -0.13    3.54    2.11    18.70073    61.36507   -36.89879
    83  C   4.0    0.04    4.41    4.40    19.75708    61.43877   -39.41401
    84  C   4.0    0.16    3.44    3.09    22.58789    61.13263   -39.07575
    85  O   6.0   -0.30    1.30    1.80    23.47040    60.60351   -36.98005
    86  C   4.0    0.03    4.15    3.90    19.09001    63.91809   -40.78784
    87  O   6.0   -0.23    2.04    1.83    20.45817    66.01569   -39.83542
    88  H   1.0    0.09    1.06    1.44    19.06167    62.92220   -35.82165
    89  H   1.0    0.04    1.06    1.44    18.96529    59.92888   -40.57053
    90  H   1.0    0.04    1.01    1.43    19.53032    63.69888   -42.78717
    91  H   1.0    0.05    1.01    1.43    17.07745    64.28281   -40.54596
    92  H   1.0    0.12    1.01    1.43    19.98574    67.55203   -40.75572
    93  N   5.0   -0.13    3.49    2.07    23.98818    61.39153   -41.14878
    94  C   4.0    0.04    4.46    4.47    26.73206    61.32350   -41.08453
    95  C   4.0    0.17    3.54    3.13    27.60890    64.05037   -41.10343
    96  O   6.0   -0.28    1.25    1.80    26.70939    65.53381   -42.63222
    97  C   4.0   -0.05    4.30    4.20    27.75252    59.91565   -43.39567
    98  C   4.0   -0.03    4.21    4.02    30.55876    59.32417   -43.28039
    99  C   4.0    0.25    3.15    3.03    32.21605    61.62963   -43.74716
   100  O   6.0   -0.28    1.20    1.80    34.40813    61.63341   -42.89111
   101  O   6.0   -0.29    1.27    1.80    31.33544    63.45133   -44.95469
   102  H   1.0    0.08    1.06    1.44    23.26442    61.65420   -42.91568
   103  H   1.0    0.05    1.07    1.44    27.45016    60.34651   -39.41968
   104  H   1.0    0.04    1.03    1.43    26.74529    58.12797   -43.57330
   105  H   1.0    0.06    1.04    1.43    27.42748    61.07594   -45.06618
   106  H   1.0    0.05    1.03    1.43    31.01040    58.58528   -41.41145
   107  H   1.0    0.06    1.04    1.43    31.00662    57.92010   -44.71847
   108  N   5.0   -0.08    3.71    2.28    29.30209    64.74579   -39.34787
   109  C   4.0    0.02    4.59    4.66    30.40947    63.12441   -37.41657
   110  C   4.0    0.15    3.56    3.14    28.64825    62.92220   -35.18292
   111  O   6.0   -0.27    1.28    1.80    26.91348    64.46044   -34.92403
   112  C   4.0   -0.04    4.37    4.33    32.79052    64.56249   -36.59643
   113  C   4.0   -0.04    4.30    4.20    32.79808    66.99834   -38.04774
   114  C   4.0    0.01    4.38    4.34    30.21672    67.35361   -39.12111
   115  H   1.0    0.04    1.05    1.44    30.92725    61.28003   -38.17624
   116  H   1.0    0.05    1.04    1.43    32.71116    64.92531   -34.57065
   117  H   1.0    0.04    1.03    1.43    34.45915    63.44377   -37.04808
   118  H   1.0    0.04    1.03    1.43    33.26296    68.54792   -36.77407
   119  H   1.0    0.05    1.03    1.43    34.19270    66.88496   -39.55952
   120  H   1.0    0.06    1.02    1.43    29.02808    68.44587   -37.84365
   121  H   1.0    0.06    1.02    1.43    30.29987    68.27202   -40.96359
   122  N   5.0   -0.09    3.73    2.32    29.09989    61.06838   -33.52941
   123  C   4.0    0.04    4.61    4.68    27.36890    60.88697   -31.42992
   124  C   4.0    0.16    3.44    3.09    28.03597    62.99212   -29.57988
   125  O   6.0   -0.30    1.25    1.80    30.23373    63.78203   -29.46272
   126  C   4.0   -0.04    4.35    4.28    27.93771    58.26403   -30.31120
   127  C   4.0   -0.03    4.28    4.16    29.94649    57.07728   -31.99684
   128  C   4.0   -0.01    4.35    4.29    31.15402    59.20700   -33.37067
   129  H   1.0    0.06    1.05    1.44    25.38280    60.93043   -31.97416
   130  H   1.0    0.06    1.03    1.43    28.63691    58.47379   -28.38557
   131  H   1.0    0.04    1.02    1.43    26.21995    57.12642   -30.31687
   132  H   1.0    0.05    1.03    1.43    31.32788    56.08140   -30.83655
   133  H   1.0    0.05    1.03    1.43    29.06021    55.76770   -33.31587
   134  H   1.0    0.05    1.02    1.43    32.75084    59.95911   -32.31053
   135  H   1.0    0.04    1.02    1.43    31.76818    58.62119   -35.24717
   136  N   5.0   -0.14    3.49    2.07    26.14814    63.95022   -28.22684
   137  C   4.0    0.04    4.48    4.51    26.54876    65.97978   -26.39191
   138  C   4.0    0.15    3.47    3.10    27.45961    64.97823   -23.83511
   139  O   6.0   -0.33    1.33    1.80    28.62179    66.35395   -22.37058
   140  C   4.0   -0.03    4.19    3.99    24.10723    67.47455   -26.01586
   141  S   6.0   -0.04    2.60    3.10    21.76964    65.81349   -24.14503
   142  H   1.0    0.08    1.10    1.44    24.31510    63.36629   -28.35345
   143  H   1.0    0.06    1.07    1.44    27.97550    67.26857   -27.12891
   144  H   1.0    0.05    1.07    1.44    24.55132    69.23956   -25.05210
   145  H   1.0    0.06    1.08    1.44    23.27764    67.86762   -27.86023
   146  N   5.0   -0.13    3.58    2.14    26.85301    62.59528   -23.30221
   147  C   4.0    0.03    4.41    4.40    27.54276    61.35373   -20.93816
   148  C   4.0    0.06    3.24    3.04    28.64447    58.76292   -21.49374
   149  O   6.0   -0.30    1.15    1.80    28.68415    57.93711   -23.66693
   150  C   4.0   -0.03    4.31    4.21    25.23351    60.95500   -19.22418
   151  C   4.0   -0.08    4.13    3.85    24.79887    63.24535   -17.60280
   152  C   4.0   -0.07    4.17    3.94    22.89970    60.31438   -20.77943
   153  H   1.0    0.09    1.07    1.44    25.86279    61.45578   -24.50030
   154  H   1.0    0.04    1.06    1.44    28.96005    62.53292   -20.01976
   155  H   1.0    0.03    1.07    1.44    25.59445    59.35629   -17.97696
   156  H   1.0    0.04    1.00    1.43    23.15481    62.91654   -16.40471
   157  H   1.0    0.03    1.01    1.43    26.46561    63.56660   -16.43495
   158  H   1.0    0.05    1.00    1.43    24.46817    64.87429   -18.81789
   159  H   1.0    0.04    1.00    1.43    21.30099    60.04415   -19.50953
   160  H   1.0    0.05    1.08    1.44    22.51231    61.86585   -22.07578
   161  H   1.0    0.05    1.00    1.43    23.25497    58.58528   -21.83956
   162  N   5.0   -0.21    3.22    1.96    32.54486    64.31493   -13.68540
   163  C   4.0    0.03    4.42    4.41    31.62456    66.33316   -15.34646
   164  C   4.0    0.14    3.40    3.08    33.57854    67.18732   -17.31745
   165  O   6.0   -0.32    1.24    1.80    35.64968    68.03958   -16.66738
   166  C   4.0   -0.02    4.36    4.31    30.75529    68.63296   -13.83657
   167  C   4.0   -0.05    4.24    4.07    29.12446    67.79770   -11.60859
   168  C   4.0   -0.07    4.16    3.92    29.28319    70.42442   -15.53355
   169  C   4.0   -0.08    4.04    3.70    26.50530    66.87929   -12.35314
   170  H   1.0    0.08    1.02    1.43    33.50862    64.96311   -12.14716
   171  H   1.0    0.03    1.07    1.44    30.06743    65.48278   -16.39337
   172  H   1.0    0.05    1.06    1.44    32.41447    69.61561   -13.10903
   173  H   1.0    0.04    1.04    1.44    30.07688    66.25190   -10.63727
   174  H   1.0    0.04    1.03    1.43    28.88824    69.39452   -10.32924
   175  H   1.0    0.05    1.00    1.43    28.67848    72.05336   -14.42617
   176  H   1.0    0.06    1.00    1.43    30.50018    71.03858   -17.07745
   177  H   1.0    0.05    1.01    1.43    27.63913    69.43798   -16.28566
   178  H   1.0    0.04    1.00    1.43    25.48106    66.32560   -10.65427
   179  H   1.0    0.04    1.00    1.43    25.50563    68.40619   -13.30934
   180  H   1.0    0.03    1.01    1.43    26.69616    65.26358   -13.61737
   181  N   5.0   -0.15    3.53    2.10    32.86800    67.00779   -19.72118
   182  C   4.0    0.04    4.43    4.43    34.59332    67.46133   -21.80933
   183  C   4.0    0.14    3.41    3.08    33.94515    69.89340   -23.23418
   184  O   6.0   -0.31    1.23    1.80    35.35488    70.71921   -24.89714
   185  C   4.0   -0.04    4.40    4.38    34.47427    65.24657   -23.64614
   186  C   4.0   -0.02    4.21    4.02    34.68970    62.61229   -22.51986
   187  C   4.0   -0.07    4.09    3.78    34.57632    60.61107   -24.60990
   188  C   4.0   -0.08    4.13    3.85    37.12367    62.44032   -21.00997
   189  H   1.0    0.11    1.13    1.45    31.08410    66.54481   -20.28243
   190  H   1.0    0.05    1.06    1.44    36.52462    67.60495   -21.10824
   191  H   1.0    0.06    1.04    1.43    32.66769    65.33350   -24.63069
   192  H   1.0    0.05    1.04    1.43    36.02007    65.45444   -24.99163
   193  H   1.0    0.05    1.06    1.44    33.11367    62.23623   -21.24808
   194  H   1.0    0.04    1.00    1.43    34.73505    58.74213   -23.75763
   195  H   1.0    0.06    1.00    1.43    32.77919    60.77926   -25.60390
   196  H   1.0    0.05    1.00    1.43    36.13534    60.92099   -25.91948
   197  H   1.0    0.04    1.00    1.43    37.28051    60.55249   -20.20306
   198  H   1.0    0.04    1.00    1.43    38.71671    62.80126   -22.26286
   199  H   1.0    0.05    1.00    1.43    37.08020    63.84628   -19.50575
   200  N   5.0   -0.13    3.50    2.08    31.77952    71.00456   -22.62947
   201  C   4.0    0.03    4.42    4.42    31.00851    73.35727   -23.81433
   202  C   4.0    0.15    3.43    3.09    30.05987    75.19031   -21.81311
   203  O   6.0   -0.30    1.24    1.80    28.44227    74.51378   -20.25219
   204  C   4.0   -0.03    4.30    4.19    28.92792    72.85838   -25.75130
   205  C   4.0   -0.03    4.21    4.01    29.83310    71.70376   -28.23440
   206  C   4.0    0.15    3.21    3.04    27.65047    71.16141   -30.05420
   207  O   6.0   -0.30    1.22    1.80    25.47162    71.84171   -29.54775
   208  N   5.0   -0.17    3.16    1.95    28.22306    69.91041   -32.16692
   209  H   1.0    0.10    1.07    1.44    30.53041    70.32048   -21.33123
   210  H   1.0    0.05    1.07    1.44    32.62612    74.22655   -24.74785
   211  H   1.0    0.06    1.03    1.43    27.56354    71.55447   -24.92360
   212  H   1.0    0.06    1.03    1.43    28.00952    74.64795   -26.19916
   213  H   1.0    0.05    1.03    1.43    31.12568    73.01523   -29.15658
   214  H   1.0    0.06    1.03    1.43    30.79497    69.92553   -27.84133
   215  H   1.0    0.09    1.02    1.43    30.04097    69.36617   -32.50140
   216  H   1.0    0.11    1.02    1.43    26.84167    69.49845   -33.44626
   217  N   5.0   -0.13    3.45    2.05    31.07654    77.49199   -21.81878
   218  C   4.0    0.04    4.32    4.23    30.12412    79.45353   -20.11424
   219  C   4.0    0.09    3.22    3.04    27.34811    79.99966   -20.71518
   220  O   6.0   -0.28    1.14    1.80    26.57522    79.83714   -22.90159
   221  C   4.0   -0.04    4.29    4.17    31.71905    81.87616   -20.29377
   222  C   4.0    0.15    3.23    3.04    34.54797    81.38105   -19.99708
   223  O   6.0   -0.30    1.20    1.80    35.54197    81.19774   -17.89570
   224  N   5.0   -0.19    3.19    1.95    35.85566    81.19397   -22.12113
   225  H   1.0    0.07    1.06    1.44    32.52974    78.05135   -22.95450
   226  H   1.0    0.05    1.06    1.44    30.26585    78.79779   -18.16594
   227  H   1.0    0.05    1.03    1.43    31.41480    82.74354   -22.13625
   228  H   1.0    0.05    1.03    1.43    31.14079    83.17251   -18.80088
   229  H   1.0    0.09    1.02    1.43    37.75295    80.86515   -22.05877
   230  H   1.0    0.08    1.03    1.43    34.96560    81.37916   -23.82000
   231  N   5.0   -0.18    3.23    1.96    36.58698    75.76856   -15.54111
   232  C   4.0    0.04    4.36    4.31    37.92680    73.54624   -16.41227
   233  C   4.0    0.08    3.25    3.04    39.61621    72.38217   -14.38270
   234  O   6.0   -0.28    1.12    1.80    40.89367    73.70876   -12.97297
   235  C   4.0   -0.02    4.33    4.25    39.48960    74.16607   -18.71963
   236  C   4.0   -0.07    4.17    3.94    40.93902    71.87195   -19.53410
   237  C   4.0   -0.07    4.14    3.87    37.76239    75.11472   -20.83612
   238  H   1.0    0.10    1.04    1.43    36.91958    77.35404   -16.58612
   239  H   1.0    0.05    1.07    1.44    36.48116    72.15352   -16.87525
   240  H   1.0    0.05    1.06    1.44    40.84454    75.65518   -18.28310
   241  H   1.0    0.04    1.00    1.43    42.05774    72.34249   -21.19895
   242  H   1.0    0.05    1.01    1.43    42.17868    71.28235   -17.99775
   243  H   1.0    0.05    1.00    1.43    39.61055    70.36395   -19.98385
   244  H   1.0    0.05    1.00    1.43    38.90757    75.55502   -22.48963
   245  H   1.0    0.06    1.00    1.43    36.39801    73.64262   -21.29910
   246  H   1.0    0.05    1.01    1.43    36.77974    76.80602   -20.19172
   247  N   5.0   -0.21    3.27    1.97    11.37615    66.19332   -15.60158
   248  C   4.0    0.03    4.43    4.43    10.59758    67.14007   -18.03177
   249  C   4.0    0.15    3.48    3.11    11.85803    69.69687   -18.44750
   250  O   6.0   -0.31    1.24    1.80    11.83535    71.33338   -16.77321
   251  C   4.0   -0.03    4.39    4.36     7.71197    67.39141   -18.15460
   252  C   4.0   -0.04    4.26    4.11     6.91262    68.83138   -20.51109
   253  C   4.0   -0.07    4.20    3.99     6.72364    68.71610   -15.84346
   254  C   4.0   -0.08    4.04    3.70     4.08748    68.89752   -20.83612
   255  H   1.0    0.09    1.03    1.43    11.51788    67.54258   -14.23342
   256  H   1.0    0.05    1.06    1.44    11.22497    65.87018   -19.52843
   257  H   1.0    0.03    1.06    1.44     6.92207    65.49034   -18.23397
   258  H   1.0    0.06    1.04    1.43     7.58725    70.77213   -20.37503
   259  H   1.0    0.05    1.03    1.43     7.72709    67.91675   -22.16838
   260  H   1.0    0.03    1.01    1.43     4.67329    68.86728   -15.98141
   261  H   1.0    0.04    1.01    1.43     7.23576    67.62384   -14.17483
   262  H   1.0    0.06    1.01    1.43     7.56079    70.59449   -15.73764
   263  H   1.0    0.04    1.00    1.43     3.63394    69.94821   -22.54821
   264  H   1.0    0.04    1.00    1.43     3.38450    66.96811   -20.99108
   265  H   1.0    0.04    1.01    1.43     3.24655    69.82348   -19.19962
   266  N   5.0   -0.14    3.47    2.06    13.07123    69.97277   -20.62825
   267  C   4.0    0.04    4.35    4.28    14.14838    72.37839   -21.37091
   268  C   4.0    0.08    3.26    3.05    12.01299    74.09049   -22.24018
   269  O   6.0   -0.30    1.14    1.80    10.60325    73.41018   -23.95417
   270  C   4.0   -0.05    4.38    4.35    15.98708    71.97210   -23.55732
   271  C   4.0   -0.03    4.18    3.97    18.05444    73.94309   -24.02598
   272  C   4.0   -0.07    4.10    3.80    19.16371    73.62750   -26.66403
   273  C   4.0   -0.07    4.13    3.87    17.07556    76.60949   -23.63480
   274  H   1.0    0.10    1.09    1.44    13.33391    68.56115   -21.91326
   275  H   1.0    0.05    1.05    1.44    15.14237    73.23822   -19.78543
   276  H   1.0    0.04    1.04    1.43    16.95084    70.18064   -23.23040
   277  H   1.0    0.05    1.04    1.43    14.87592    71.86817   -25.28831
   278  H   1.0    0.04    1.06    1.44    19.56244    73.64829   -22.65403
   279  H   1.0    0.05    1.00    1.43    20.62636    75.04858   -26.95127
   280  H   1.0    0.05    1.00    1.43    19.97440    71.74156   -26.82844
   281  H   1.0    0.04    1.00    1.43    17.66516    73.87128   -28.05487
   282  H   1.0    0.05    1.00    1.43    18.60435    77.94364   -23.98629
   283  H   1.0    0.05    1.00    1.43    15.52599    76.95531   -24.94816
   284  H   1.0    0.04    1.00    1.43    16.40849    76.80035   -21.69594
   285  N   5.0   -0.21    3.25    1.97    35.71393    68.94229   -61.83467
   286  C   4.0    0.03    4.45    4.47    33.28185    69.53378   -60.71406
   287  C   4.0    0.15    3.56    3.14    33.41224    72.03578   -59.34023
   288  O   6.0   -0.30    1.26    1.80    31.55653    73.42661   -59.22496
   289  C   4.0   -0.03    4.32    4.24    32.43148    67.56279   -58.80922
   290  C   4.0   -0.07    4.25    4.09    30.95371    68.85726   -56.70406
   291  C   4.0   -0.08    4.10    3.81    30.83655    65.52945   -60.09045
   292  H   1.0    0.10    1.04    1.43    37.09154    68.45475   -60.57989
   293  H   1.0    0.05    1.06    1.44    31.89102    69.59992   -62.23151
   294  H   1.0    0.04    1.06    1.44    34.07554    66.62927   -57.99285
   295  H   1.0    0.04    1.01    1.43    30.34711    67.43807   -55.33968
   296  H   1.0    0.06    1.04    1.43    32.17069    70.24054   -55.78377
   297  H   1.0    0.06    1.00    1.43    29.31154    69.79834   -57.51853
   298  H   1.0    0.04    1.00    1.43    30.25451    64.14617   -58.68072
   299  H   1.0    0.05    1.00    1.43    29.17737    66.41195   -60.93516
   300  H   1.0    0.04    1.00    1.43    31.96471    64.61293   -61.54932
   301  N   5.0   -0.13    3.51    2.09    35.62133    72.54789   -58.25364
   302  C   4.0    0.04    4.35    4.30    36.17124    74.90627   -56.90815
   303  C   4.0    0.15    3.43    3.09    38.81119    74.70596   -55.73841
   304  O   6.0   -0.29    1.41    1.80    39.98849    72.68395   -55.81400
   305  C   4.0    0.04    4.16    3.92    34.18136    75.45429   -54.85969
   306  O   6.0   -0.24    2.04    1.83    33.65602    73.30567   -53.34791
   307  H   1.0    0.11    1.10    1.44    37.11800    71.33280   -58.27064
   308  H   1.0    0.05    1.05    1.44    36.19581    76.46529   -58.25364
   309  H   1.0    0.04    1.02    1.43    34.88812    76.95851   -53.64271
   310  H   1.0    0.06    1.02    1.43    32.43904    76.05333   -55.77999
   311  H   1.0    0.12    1.01    1.43    32.38612    73.72708   -52.06667
   312  N   5.0   -0.13    3.42    2.03    39.74661    76.78655   -54.67450
   313  C   4.0    0.04    4.44    4.45    42.23726    76.81300   -53.47263
   314  C   4.0    0.15    3.54    3.13    42.76072    74.39604   -51.98542
   315  O   6.0   -0.29    1.29    1.80    41.36988    73.75732   -50.22986
   316  C   4.0   -0.03    4.29    4.17    42.52261    79.11280   -51.74353
   317  C   4.0    0.24    3.13    3.03    42.97426    81.53732   -53.20240
   318  O   6.0   -0.28    1.21    1.80    42.87032    81.46551   -55.55889
   319  O   6.0   -0.28    1.17    1.80    43.42023    83.51775   -51.98920
   320  H   1.0    0.08    1.06    1.44    38.82820    78.47974   -54.61402
   321  H   1.0    0.06    1.07    1.44    43.64511    76.96040   -54.96929
   322  H   1.0    0.06    1.03    1.43    40.79918    79.34335   -50.63993
   323  H   1.0    0.05    1.03    1.43    44.12699    78.81422   -50.48686
   324  N   5.0   -0.14    3.51    2.08    44.74493    73.04300   -52.73186
   325  C   4.0    0.04    4.46    4.48    45.67090    70.87737   -51.29567
   326  C   4.0    0.16    3.44    3.09    44.07975    68.55679   -51.75109
   327  O   6.0   -0.30    1.23    1.80    44.81296    66.45353   -51.05000
   328  C   4.0   -0.01    4.38    4.34    45.69357    71.47831   -48.48375
   329  C   4.0   -0.02    3.71    3.24    47.59464    73.44740   -47.85070
   330  C   4.0   -0.01    3.59    3.16    47.13543    75.86625   -47.09669
   331  C   4.0    0.00    3.90    3.46    50.28561    73.19418   -47.99998
   332  N   5.0   -0.12    3.48    2.07    49.37665    77.12859   -46.73954
   333  C   4.0    0.03    3.90    3.46    51.33818    75.52799   -47.27055
   334  C   4.0   -0.05    3.40    3.08    51.90510    71.20808   -48.65572
   335  C   4.0   -0.05    3.40    3.08    53.92900    75.94184   -47.18929
   336  C   4.0   -0.05    3.37    3.07    54.47513    71.61059   -48.54989
   337  C   4.0   -0.05    3.38    3.07    55.46724    73.96330   -47.81857
   338  H   1.0    0.08    1.05    1.44    45.74649    73.41339   -54.33624
   339  H   1.0    0.04    1.06    1.44    47.58519    70.39738   -51.88526
   340  H   1.0    0.08    1.07    1.44    43.83597    72.16995   -47.92251
   341  H   1.0    0.06    1.03    1.43    46.15656    69.76999   -47.42929
   342  H   1.0    0.05    1.01    1.43    45.28161    76.67316   -46.82079
   343  H   1.0    0.07    1.04    1.43    49.55050    78.96162   -46.17073
   344  H   1.0    0.05    1.03    1.43    51.15677    69.39961   -49.23209
   345  H   1.0    0.05    1.03    1.43    54.69812    77.75409   -46.65072
   346  H   1.0    0.04    1.03    1.43    55.74881    70.09314   -49.03744
   347  H   1.0    0.04    1.03    1.43    57.49113    74.21463   -47.75243
   348  N   5.0   -0.12    3.56    2.12    41.90089    68.95363   -52.93406
   349  C   4.0    0.05    4.47    4.49    40.11510    66.93352   -53.33090
   350  C   4.0    0.14    3.41    3.08    39.84109    66.30991   -56.11636
   351  O   6.0   -0.29    1.27    1.80    39.75228    68.00499   -57.69806
   352  C   4.0   -0.03    4.31    4.22    37.55830    67.64027   -52.22919
   353  C   4.0   -0.04    4.26    4.13    35.98605    65.35748   -51.63204
   354  C   4.0   -0.04    4.20    4.01    33.21571    65.93763   -51.44306
   355  C   4.0   -0.04    4.16    3.92    31.74173    63.57547   -52.10258
   356  N   5.0   -0.12    4.01    2.89    30.00885    62.76289   -50.02577
   357  H   1.0    0.13    1.16    1.46    41.33776    70.66006   -53.63137
   358  H   1.0    0.08    1.09    1.44    40.81052    65.23087   -52.40305
   359  H   1.0    0.07    1.03    1.43    37.84365    68.70041   -50.48497
   360  H   1.0    0.06    1.04    1.43    36.53029    68.79112   -53.59357
   361  H   1.0    0.05    1.05    1.44    36.24116    63.95909   -53.12303
   362  H   1.0    0.07    1.04    1.43    36.59454    64.57892   -49.82546
   363  H   1.0    0.06    1.03    1.43    32.74517    66.51022   -49.52121
   364  H   1.0    0.04    1.05    1.44    32.71683    67.43429   -52.76776
   365  H   1.0    0.03    1.02    1.43    30.60222    63.94019   -53.77877
   366  H   1.0    0.04    1.04    1.43    33.06265    62.03913   -52.46919
   367  H   1.0    0.05    1.01    1.43    29.03753    61.13962   -50.55678
   368  H   1.0    0.09    1.05    1.44    31.04253    62.38306   -48.39872
   369  H   1.0    0.07    1.01    1.43    28.70872    64.18585   -49.63838
   370  N   5.0   -0.14    3.46    2.05    39.60677    63.86460   -56.67005
   371  C   4.0    0.03    4.38    4.35    39.68613    62.86494   -59.24385
   372  C   4.0    0.14    3.43    3.09    37.82475    60.68986   -59.48196
   373  O   6.0   -0.32    1.28    1.80    37.39768    59.31792   -57.66404
   374  C   4.0   -0.04    4.38    4.34    42.34120    61.85015   -59.77487
   375  C   4.0   -0.03    4.18    3.96    43.18591    61.12072   -62.44316
   376  C   4.0   -0.07    4.11    3.82    44.04762    63.44130   -63.90959
   377  C   4.0   -0.08    4.11    3.83    45.32319    59.20832   -62.31844
   378  H   1.0    0.10    1.07    1.44    39.35354    62.49266   -55.33968
   379  H   1.0    0.05    1.06    1.44    39.16268    64.32002   -60.60446
   380  H   1.0    0.05    1.04    1.43    43.66590    63.29768   -59.14748
   381  H   1.0    0.05    1.05    1.44    42.56608    60.14940   -58.63536
   382  H   1.0    0.05    1.06    1.44    41.58909    60.27790   -63.43527
   383  H   1.0    0.04    1.00    1.43    44.63533    62.86116   -65.79742
   384  H   1.0    0.04    1.00    1.43    42.48104    64.77167   -64.03998
   385  H   1.0    0.04    1.00    1.43    45.62932    64.31247   -62.91748
   386  H   1.0    0.04    1.00    1.43    45.89577    58.71510   -64.23462
   387  H   1.0    0.04    1.00    1.43    46.91056    60.04169   -61.30365
   388  H   1.0    0.04    1.00    1.43    44.66178    57.52646   -61.32822
   389  N   5.0   -0.15    3.41    2.03    36.76651    60.33459   -61.72695
   390  C   4.0    0.03    4.41    4.40    35.09410    58.17653   -62.19750
   391  C   4.0    0.14    3.41    3.08    36.08432    56.30192   -64.18360
   392  O   6.0   -0.30    1.22    1.80    37.12178    57.05781   -66.13190
   393  C   4.0   -0.04    4.29    4.18    32.46549    59.07981   -62.96094
   394  C   4.0   -0.02    4.23    4.05    30.61356    56.92364   -63.38991
   395  C   4.0    0.25    3.12    3.03    28.55376    57.56425   -65.27397
   396  O   6.0   -0.28    1.19    1.80    28.78242    59.49555   -66.64780
   397  O   6.0   -0.27    1.17    1.80    26.71317    56.09027   -65.38168
   398  H   1.0    0.08    1.05    1.44    37.02351    61.49110   -63.24629
   399  H   1.0    0.06    1.08    1.44    35.01662    57.10127   -60.44194
   400  H   1.0    0.04    1.03    1.43    31.70960    60.27790   -61.46428
   401  H   1.0    0.07    1.04    1.43    32.61100    60.15129   -64.71461
   402  H   1.0    0.07    1.06    1.44    31.64346    55.29091   -64.10990
   403  H   1.0    0.05    1.03    1.43    29.71027    56.45310   -61.60034
   404  N   5.0   -0.14    3.50    2.08    35.68370    53.86039   -63.70361
   405  C   4.0    0.04    4.42    4.41    36.60399    51.84216   -65.36468
   406  C   4.0    0.08    3.21    3.04    34.65002    50.98801   -67.33566
   407  O   6.0   -0.27    1.12    1.80    32.57888    50.13574   -66.68559
   408  C   4.0   -0.02    4.36    4.31    37.47327    49.54237   -63.85478
   409  C   4.0   -0.04    4.24    4.08    39.10410    50.37763   -61.62680
   410  C   4.0   -0.08    4.16    3.91    38.94536    47.75091   -65.55176
   411  C   4.0   -0.08    4.04    3.69    41.72326    51.29603   -62.37135
   412  H   1.0    0.12    1.15    1.45    34.71993    53.21222   -62.16537
   413  H   1.0    0.05    1.07    1.44    38.16113    52.69254   -66.41158
   414  H   1.0    0.05    1.06    1.44    35.81409    48.55971   -63.12724
   415  H   1.0    0.06    1.05    1.44    38.15168    51.92342   -60.65548
   416  H   1.0    0.04    1.03    1.43    39.34031    48.78081   -60.34745
   417  H   1.0    0.04    1.00    1.43    39.55007    46.12196   -64.44438
   418  H   1.0    0.05    1.00    1.43    37.72838    47.13675   -67.09566
   419  H   1.0    0.04    1.01    1.43    40.58942    48.73734   -66.30387
   420  H   1.0    0.04    1.00    1.43    42.74749    51.84972   -60.67249
   421  H   1.0    0.04    1.00    1.43    42.72292    49.76913   -63.32755
   422  H   1.0    0.04    1.00    1.43    41.53240    52.91175   -63.63558
   423  N   5.0   -0.20    3.22    1.96    53.53405    64.24822   -27.84984
   424  C   4.0    0.03    4.42    4.42    52.62509    64.42774   -30.43687
   425  C   4.0    0.14    3.44    3.09    51.54983    61.88606   -31.28725
   426  O   6.0   -0.30    1.24    1.80    52.63265    59.90374   -30.70899
   427  C   4.0   -0.02    4.30    4.20    54.70190    65.30079   -32.24345
   428  C   4.0   -0.08    4.17    3.93    53.75136    65.20253   -34.92497
   429  C   4.0   -0.08    4.13    3.87    55.53149    67.96531   -31.58393
   430  H   1.0    0.09    1.02    1.43    55.05339    63.08792   -27.60606
   431  H   1.0    0.05    1.06    1.44    51.09252    65.80346   -30.47278
   432  H   1.0    0.04    1.06    1.44    56.32895    64.05168   -32.06959
   433  H   1.0    0.03    1.00    1.43    55.24992    65.82992   -36.19109
   434  H   1.0    0.05    1.01    1.43    53.21468    63.26556   -35.37661
   435  H   1.0    0.04    1.00    1.43    52.11675    66.44408   -35.10260
   436  H   1.0    0.03    1.00    1.43    57.01114    68.55112   -32.89163
   437  H   1.0    0.03    1.00    1.43    53.91388    69.22953   -31.74267
   438  H   1.0    0.04    1.00    1.43    56.25147    67.98420   -29.65452
   439  N   5.0   -0.14    3.42    2.03    49.39177    61.94086   -32.58549
   440  C   4.0    0.03    4.40    4.39    48.04250    59.62028   -33.25067
   441  C   4.0    0.14    3.40    3.08    47.61731    59.35949   -36.09282
   442  O   6.0   -0.31    1.26    1.80    46.67056    61.09237   -37.33248
   443  C   4.0   -0.04    4.28    4.16    45.52161    59.44453   -31.83716
   444  C   4.0   -0.04    4.18    3.95    45.77672    58.95131   -28.99879
   445  C   4.0   -0.01    4.22    4.03    43.23126    59.11194   -27.62496
   446  N   5.0   -0.14    3.43    2.04    41.87444    61.38906   -28.36762
   447  C   4.0    0.09    3.35    3.06    42.31852    63.67563   -27.41520
   448  N   5.0   -0.18    3.26    1.97    44.03439    63.96098   -25.60484
   449  N   5.0   -0.18    3.22    1.96    41.03351    65.67874   -28.24101
   450  H   1.0    0.10    1.07    1.44    48.53761    63.55658   -33.19965
   451  H   1.0    0.05    1.08    1.44    49.24626    58.03669   -32.71399
   452  H   1.0    0.06    1.04    1.43    44.51061    61.22465   -32.07148
   453  H   1.0    0.04    1.03    1.43    44.42368    57.89874   -32.64218
   454  H   1.0    0.04    1.03    1.43    46.54395    57.06159   -28.70777
   455  H   1.0    0.05    1.03    1.43    47.03717    60.35916   -28.17865
   456  H   1.0    0.04    1.02    1.43    42.08042    57.47355   -28.11062
   457  H   1.0    0.04    1.03    1.43    43.54873    59.17052   -25.58972
   458  H   1.0    0.09    1.07    1.44    40.49494    61.22087   -29.70366
   459  H   1.0    0.08    1.04    1.43    45.00760    62.43219   -24.94911
   460  H   1.0    0.08    1.02    1.43    44.38021    65.70897   -24.87163
   461  H   1.0    0.08    1.02    1.43    39.69747    65.46709   -29.61295
   462  H   1.0    0.09    1.02    1.43    41.38689    67.42295   -27.50024
   463  N   5.0   -0.14    3.46    2.05    48.35242    57.19198   -37.12272
   464  C   4.0    0.04    4.47    4.49    47.75526    56.57593   -39.72298
   465  C   4.0    0.15    3.45    3.09    45.44980    54.89974   -39.74188
   466  O   6.0   -0.33    1.32    1.80    45.39878    52.96844   -38.45498
   467  C   4.0   -0.05    4.37    4.33    49.93790    55.18887   -40.99855
   468  C   4.0   -0.03    4.21    4.02    49.53728    54.75801   -43.83503
   469  C   4.0   -0.08    4.11    3.82    49.39555    57.29213   -45.22398
   470  C   4.0   -0.08    4.11    3.82    51.59330    53.10072   -44.93863
   471  H   1.0    0.08    1.06    1.44    49.36153    55.83516   -36.19676
   472  H   1.0    0.07    1.08    1.44    47.38299    58.30881   -40.77367
   473  H   1.0    0.04    1.03    1.43    51.65566    56.30003   -40.76422
   474  H   1.0    0.05    1.03    1.43    50.16467    53.34639   -40.10471
   475  H   1.0    0.04    1.06    1.44    47.74960    53.76968   -44.10715
   476  H   1.0    0.04    1.00    1.43    49.11020    56.94064   -47.23276
   477  H   1.0    0.06    1.01    1.43    47.81763    58.38251   -44.47187
   478  H   1.0    0.03    1.00    1.43    51.15866    58.31637   -44.93296
   479  H   1.0    0.03    1.00    1.43    51.23803    52.84372   -46.95119
   480  H   1.0    0.04    1.00    1.43    53.41688    54.01724   -44.65895
   481  H   1.0    0.04    1.00    1.43    51.57062    51.27714   -43.98243
   482  N   5.0   -0.14    3.48    2.07    43.55251    55.66697   -41.20831
   483  C   4.0    0.04    4.45    4.45    41.19036    54.25912   -41.44452
   484  C   4.0    0.15    3.42    3.08    40.97871    52.99868   -43.99754
   485  O   6.0   -0.32    1.29    1.80    41.69869    54.10417   -45.91184
   486  C   4.0   -0.02    4.35    4.29    38.92080    56.00145   -41.07603
   487  C   4.0   -0.01    3.56    3.15    38.50884    56.66663   -38.34915
   488  C   4.0   -0.03    3.48    3.11    39.16646    59.02501   -37.43264
   489  C   4.0   -0.03    3.50    3.11    37.58287    54.88084   -36.66163
   490  C   4.0   -0.04    3.43    3.09    38.86599    59.61839   -34.91930
   491  C   4.0   -0.05    3.43    3.09    37.25973    55.44587   -34.13506
   492  C   4.0    0.06    3.44    3.09    37.90601    57.82693   -33.26012
   493  O   6.0   -0.26    2.10    1.84    37.63200    58.41274   -30.71844
   494  H   1.0    0.12    1.14    1.45    43.59976    57.27702   -42.26845
   495  H   1.0    0.06    1.08    1.44    41.17335    52.78325   -40.00833
   496  H   1.0    0.06    1.04    1.43    39.23449    57.74756   -42.12294
   497  H   1.0    0.07    1.04    1.43    37.22571    55.05848   -41.76956
   498  H   1.0    0.06    1.03    1.43    39.92802    60.42341   -38.71009
   499  H   1.0    0.07    1.07    1.44    37.10666    53.01568   -37.34004
   500  H   1.0    0.05    1.03    1.43    39.37622    61.47410   -34.23900
   501  H   1.0    0.05    1.03    1.43    36.51140    54.04558   -32.85383
   502  H   1.0    0.11    1.02    1.43    36.93280    56.96143   -29.80570
   503  N   5.0   -0.14    3.48    2.06    40.04518    50.66109   -44.00510
   504  C   4.0    0.04    4.43    4.43    39.02095    49.50835   -46.29356
   505  C   4.0    0.16    3.54    3.13    36.17691    49.59906   -46.08191
   506  O   6.0   -0.31    1.31    1.80    35.02418    48.11562   -44.67407
   507  C   4.0   -0.05    4.30    4.21    39.87133    46.76447   -46.59403
   508  C   4.0   -0.04    4.20    4.01    38.68458    45.42088   -48.85036
   509  C   4.0   -0.05    4.19    3.98    39.38756    42.63164   -48.90327
   510  C   4.0   -0.03    4.14    3.88    37.29563    41.04049   -50.05412
   511  N   5.0   -0.12    4.01    2.88    38.10254    38.36275   -50.24120
   512  H   1.0    0.11    1.11    1.45    39.97337    49.52158   -42.45364
   513  H   1.0    0.05    1.08    1.44    39.67669    50.59117   -47.91873
   514  H   1.0    0.03    1.03    1.43    41.91601    46.72857   -46.84536
   515  H   1.0    0.05    1.03    1.43    39.35165    45.72134   -44.89516
   516  H   1.0    0.06    1.04    1.43    36.63423    45.57016   -48.73131
   517  H   1.0    0.04    1.03    1.43    39.35543    46.29015   -50.59269
   518  H   1.0    0.04    1.03    1.43    41.09020    42.37842   -50.03522
   519  H   1.0    0.04    1.03    1.43    39.71637    41.97402   -46.97953
   520  H   1.0    0.05    1.02    1.43    35.61566    41.14065   -48.86548
   521  H   1.0    0.07    1.03    1.43    36.86288    41.73213   -51.94573
   522  H   1.0    0.06    1.01    1.43    36.66446    37.27994   -51.03110
   523  H   1.0    0.05    1.02    1.43    39.70314    38.22102   -51.37314
   524  H   1.0    0.05    1.02    1.43    38.52206    37.65977   -48.45352
   525  N   5.0   -0.13    3.52    2.09    35.04497    51.37540   -47.43874
   526  C   4.0    0.05    4.48    4.51    32.42203    51.95366   -46.98709
   527  C   4.0    0.15    3.46    3.10    32.11022    52.83238   -44.27722
   528  O   6.0   -0.30    1.26    1.80    33.27996    54.68998   -43.49866
   529  C   4.0   -0.03    4.46    4.48    30.81198    49.61229   -47.44440
   530  C   4.0    0.15    3.24    3.04    30.63624    48.92821   -50.22041
   531  O   6.0   -0.32    1.37    1.80    30.24506    50.56471   -51.83991
   532  N   5.0   -0.18    3.17    1.95    30.89513    46.49802   -50.78355
   533  H   1.0    0.12    1.13    1.45    35.88968    52.41097   -48.82768
   534  H   1.0    0.07    1.08    1.44    31.97227    53.46922   -48.30801
   535  H   1.0    0.06    1.06    1.44    31.64535    48.01547   -46.44474
   536  H   1.0    0.04    1.04    1.43    28.90525    49.96000   -46.74899
   537  H   1.0    0.11    1.03    1.43    30.79497    45.91787   -52.61847
   538  H   1.0    0.09    1.03    1.43    31.19371    45.21112   -49.38137
   539  N   5.0   -0.15    3.57    2.13    30.57766    51.45855   -42.83725
   540  C   4.0    0.03    4.41    4.40    29.84822    52.28625   -40.30691
   541  C   4.0    0.15    3.40    3.08    31.47528    51.01068   -38.31514
   542  O   6.0   -0.30    1.23    1.80    31.25418    51.55682   -36.06447
   543  C   4.0   -0.04    4.28    4.15    27.05332    51.70421   -39.79479
   544  C   4.0   -0.05    4.15    3.91    25.18438    53.74701   -40.64139
   545  C   4.0   -0.05    4.16    3.91    22.58978    53.27269   -39.43764
   546  C   4.0   -0.03    4.10    3.80    20.40526    54.36117   -41.00800
   547  N   5.0   -0.11    3.98    2.81    17.98074    52.90608   -40.66029
   548  H   1.0    0.07    1.08    1.44    29.81232    49.77102   -43.36827
   549  H   1.0    0.05    1.06    1.44    30.05987    54.33093   -40.16518
   550  H   1.0    0.04    1.03    1.43    26.56010    49.96945   -40.78879
   551  H   1.0    0.06    1.04    1.43    26.80576    51.44721   -37.76523
   552  H   1.0    0.04    1.03    1.43    25.86090    55.59894   -40.04424
   553  H   1.0    0.04    1.03    1.43    24.98218    53.69788   -42.68985
   554  H   1.0    0.04    1.03    1.43    22.29310    51.24312   -39.25811
   555  H   1.0    0.05    1.03    1.43    22.53876    54.15897   -37.57815
   556  H   1.0    0.05    1.02    1.43    20.06889    56.30948   -40.43352
   557  H   1.0    0.04    1.02    1.43    20.90982    54.29314   -43.00355
   558  H   1.0    0.06    1.01    1.43    16.55589    53.70354   -41.75444
   559  H   1.0    0.05    1.01    1.43    18.23397    51.03525   -41.20831
   560  H   1.0    0.07    1.01    1.43    17.43650    52.94954   -38.77245
   561  N   5.0   -0.13    3.49    2.07    33.09855    49.29670   -39.17685
   562  C   4.0    0.04    4.47    4.49    34.75017    47.84350   -37.51578
   563  C   4.0    0.15    3.47    3.10    37.42602    48.84884   -37.41374
   564  O   6.0   -0.32    1.33    1.80    38.64301    49.23056   -39.36772
   565  C   4.0   -0.02    4.33    4.25    34.81631    45.09584   -38.35293
   566  C   4.0    0.25    3.16    3.03    32.60155    43.65587   -37.38350
   567  O   6.0   -0.28    1.21    1.80    31.91558    44.10563   -35.16874
   568  O   6.0   -0.28    1.18    1.80    31.50173    42.14976   -38.82914
   569  H   1.0    0.11    1.09    1.44    33.31398    48.86774   -41.04390
   570  H   1.0    0.07    1.08    1.44    33.99239    48.01925   -35.60905
   571  H   1.0    0.06    1.04    1.43    34.78985    45.01269   -40.41084
   572  H   1.0    0.06    1.04    1.43    36.53029    44.20767   -37.63295
   573  N   5.0   -0.14    3.46    2.05    38.36144    49.22867   -35.11772
   574  C   4.0    0.04    4.48    4.50    41.02217    49.74835   -34.77946
   575  C   4.0    0.15    3.49    3.11    42.63411    47.54304   -35.70921
   576  O   6.0   -0.30    1.27    1.80    42.35254    45.39631   -34.87395
   577  C   4.0   -0.04    4.41    4.39    41.62688    50.33038   -32.03747
   578  C   4.0   -0.04    4.10    3.80    44.25549    51.31871   -31.75023
   579  S   6.0   -0.05    2.52    3.10    46.04884    49.47812   -29.53358
   580  C   4.0   -0.05    3.89    3.44    46.14900    46.35629   -30.94332
   581  H   1.0    0.08    1.06    1.44    37.33343    49.18710   -33.48689
   582  H   1.0    0.05    1.07    1.44    41.46815    51.42831   -35.88306
   583  H   1.0    0.04    1.03    1.43    40.31541    51.75713   -31.33827
   584  H   1.0    0.05    1.07    1.44    41.45492    48.60884   -30.92064
   585  H   1.0    0.05    1.08    1.44    45.21169    51.24879   -33.57382
   586  H   1.0    0.04    1.07    1.44    44.18179    53.26135   -31.06804
   587  H   1.0    0.05    1.04    1.43    47.21669    45.09773   -29.71122
   588  H   1.0    0.06    1.05    1.44    44.22337    45.65709   -31.16442
   589  H   1.0    0.06    1.04    1.43    47.06551    46.48101   -32.78391
   590  N   5.0   -0.15    3.52    2.09    44.30462    48.07216   -37.48177
   591  C   4.0    0.04    4.48    4.51    46.06396    46.16165   -38.27356
   592  C   4.0    0.07    3.25    3.04    48.70202    46.70022   -37.24744
   593  O   6.0   -0.30    1.12    1.80    50.35553    45.06750   -37.33626
   594  C   4.0   -0.02    4.38    4.35    46.12632    45.91409   -41.14028
   595  C   4.0   -0.04    4.25    4.10    47.13165    48.34806   -42.33648
   596  C   4.0   -0.07    4.17    3.94    43.51850    45.30560   -42.10215
   597  C   4.0   -0.08    4.02    3.66    47.63621    48.11751   -45.14083
   598  H   1.0    0.11    1.12    1.45    44.47281    49.77102   -38.37561
   599  H   1.0    0.06    1.08    1.44    45.45736    44.33239   -37.54791
   600  H   1.0    0.05    1.06    1.44    47.39811    44.37964   -41.65995
   601  H   1.0    0.05    1.03    1.43    45.74082    49.84472   -42.06624
   602  H   1.0    0.04    1.04    1.43    48.90233    48.85829   -41.41618
   603  H   1.0    0.03    1.01    1.43    43.58464    45.13364   -44.15439
   604  H   1.0    0.05    1.00    1.43    42.89300    43.52926   -41.26689
   605  H   1.0    0.06    1.01    1.43    42.23537    46.82494   -41.56547
   606  H   1.0    0.04    1.01    1.43    48.34297    49.92031   -45.84570
   607  H   1.0    0.04    1.00    1.43    49.04028    46.64353   -45.45074
   608  H   1.0    0.04    1.00    1.43    45.88066    47.62808   -46.10081
   609  N   5.0   -0.18    3.21    1.96    30.81954    48.57861   -59.66904
   610  C   4.0    0.04    4.33    4.26    32.48250    48.83183   -57.50908
   611  C   4.0    0.15    3.41    3.08    33.45382    51.53981   -57.30310
   612  O   6.0   -0.33    1.40    1.80    34.27585    52.63585   -59.16071
   613  C   4.0   -0.03    4.25    4.11    34.68781    46.93833   -57.68105
   614  C   4.0    0.24    3.11    3.03    34.00751    44.33239   -56.60013
   615  O   6.0   -0.29    1.20    1.80    31.73417    43.71445   -56.56422
   616  O   6.0   -0.30    1.17    1.80    35.71393    42.89809   -55.79888
   617  H   1.0    0.10    1.03    1.43    31.40536    47.28415   -60.97106
   618  H   1.0    0.06    1.07    1.44    31.43559    48.39530   -55.78943
   619  H   1.0    0.05    1.03    1.43    35.21126    46.69266   -59.65770
   620  H   1.0    0.05    1.03    1.43    36.29030    47.67343   -56.61524
   621  N   5.0   -0.14    3.50    2.08    33.30264    52.62829   -55.05433
   622  C   4.0    0.04    4.48    4.50    34.69915    54.93943   -54.50820
   623  C   4.0    0.15    3.41    3.08    37.05375    54.51613   -52.87926
   624  O   6.0   -0.32    1.32    1.80    37.37500    52.51113   -51.68684
   625  C   4.0    0.05    4.23    4.06    33.04564    56.95387   -53.20429
   626  O   6.0   -0.25    2.12    1.84    32.88501    56.47388   -50.52088
   627  C   4.0   -0.07    4.10    3.81    30.44160    56.99923   -54.40049
   628  H   1.0    0.13    1.17    1.46    32.24250    51.96500   -53.58790
   629  H   1.0    0.07    1.08    1.44    35.30575    55.62918   -56.35068
   630  H   1.0    0.04    1.05    1.44    33.89035    58.81714   -53.44617
   631  H   1.0    0.11    1.00    1.43    31.83432    57.76457   -49.70830
   632  H   1.0    0.04    1.00    1.43    29.26808    58.42219   -53.48208
   633  H   1.0    0.04    1.00    1.43    30.59466    57.45087   -56.40360
   634  H   1.0    0.06    1.01    1.43    29.54020    55.15863   -54.19829
   635  N   5.0   -0.14    3.46    2.05    38.64679    56.47010   -52.81123
   636  C   4.0    0.04    4.54    4.59    40.96170    56.47010   -51.32968
   637  C   4.0    0.15    3.51    3.12    41.40956    59.09493   -50.24687
   638  O   6.0   -0.31    1.27    1.80    41.11477    60.98088   -51.55645
   639  C   4.0   -0.02    4.38    4.34    43.22748    55.70098   -52.95674
   640  C   4.0   -0.05    4.23    4.05    43.23126    52.84561   -53.35358
   641  C   4.0   -0.08    4.18    3.96    45.68224    56.57404   -51.75676
   642  C   4.0   -0.07    4.08    3.76    43.38433    51.39052   -50.93851
   643  H   1.0    0.10    1.07    1.44    38.36900    58.10850   -53.78821
   644  H   1.0    0.07    1.09    1.44    40.73871    55.15107   -49.76310
   645  H   1.0    0.05    1.06    1.44    43.05930    56.61750   -54.79355
   646  H   1.0    0.05    1.03    1.43    41.49082    52.30326   -54.31167
   647  H   1.0    0.03    1.03    1.43    44.86020    52.33349   -54.50631
   648  H   1.0    0.03    1.00    1.43    47.25638    55.99956   -52.95485
   649  H   1.0    0.05    1.01    1.43    45.64822    58.62628   -51.57724
   650  H   1.0    0.04    1.00    1.43    45.86365    55.70854   -49.89538
   651  H   1.0    0.04    1.00    1.43    43.37866    49.37607   -51.36748
   652  H   1.0    0.04    1.00    1.43    45.12477    51.89508   -49.95963
   653  H   1.0    0.06    1.02    1.43    41.75727    51.86295   -49.76688
   654  N   5.0   -0.14    3.46    2.05    42.11443    59.22910   -47.85259
   655  C   4.0    0.04    4.46    4.48    42.17301    61.66496   -46.60159
   656  C   4.0    0.14    3.40    3.08    44.23848    61.83315   -44.59092
   657  O   6.0   -0.33    1.37    1.80    44.43502    60.21932   -42.90906
   658  C   4.0   -0.01    4.27    4.14    39.58220    62.23944   -45.43752
   659  C   4.0    0.24    3.12    3.03    38.82442    65.02489   -45.65483
   660  O   6.0   -0.28    1.19    1.80    40.40234    66.61037   -46.43718
   661  O   6.0   -0.26    1.19    1.80    36.61533    65.61827   -45.02178
   662  H   1.0    0.10    1.08    1.44    42.63978    57.72866   -46.76410
   663  H   1.0    0.08    1.08    1.44    42.66812    63.08603   -48.00754
   664  H   1.0    0.07    1.03    1.43    38.15168    61.11694   -46.40694
   665  H   1.0    0.06    1.03    1.43    39.62566    61.75000   -43.43630
   666  N   5.0   -0.13    3.45    2.04    45.77861    63.80413   -44.80635
   667  C   4.0    0.03    4.41    4.39    47.51149    64.52789   -42.81080
   668  C   4.0    0.15    3.38    3.07    46.33608    66.66517   -41.20642
   669  O   6.0   -0.29    1.22    1.80    45.46870    68.58892   -42.20797
   670  C   4.0   -0.05    4.36    4.31    50.04750    65.31591   -43.95408
   671  C   4.0   -0.03    4.20    4.01    52.30950    65.22142   -42.16073
   672  C   4.0   -0.08    4.12    3.85    52.72902    62.55124   -41.19319
   673  C   4.0   -0.08    4.11    3.83    54.65843    66.19652   -43.45897
   674  H   1.0    0.10    1.06    1.44    45.86365    64.94174   -46.35970
   675  H   1.0    0.06    1.07    1.44    47.84975    62.94619   -41.53712
   676  H   1.0    0.04    1.04    1.43    50.46324    64.05924   -45.53200
   677  H   1.0    0.05    1.03    1.43    49.87743    67.25666   -44.62493
   678  H   1.0    0.04    1.06    1.44    51.92211    66.43085   -40.53935
   679  H   1.0    0.04    1.00    1.43    54.34852    62.54557   -39.92141
   680  H   1.0    0.05    1.00    1.43    51.04339    61.93141   -40.18597
   681  H   1.0    0.03    1.00    1.43    53.08807    61.30591   -42.79379
   682  H   1.0    0.03    1.00    1.43    56.23824    66.10960   -42.13994
   683  H   1.0    0.04    1.00    1.43    55.05150    65.02300   -45.10492
   684  H   1.0    0.04    1.00    1.43    54.34096    68.14483   -44.04668
   685  N   5.0   -0.14    3.45    2.04    46.31151    66.29668   -38.71576
   686  C   4.0    0.03    4.48    4.52    44.78839    67.83491   -36.98477
   687  C   4.0    0.14    3.46    3.10    46.30584    68.56057   -34.63773
   688  O   6.0   -0.31    1.27    1.80    46.56663    67.05257   -32.87084
   689  C   4.0   -0.01    4.38    4.35    42.46592    66.31746   -36.08904
   690  C   4.0   -0.04    4.23    4.05    40.85399    65.52189   -38.34159
   691  C   4.0   -0.07    4.16    3.93    40.93524    67.79334   -34.14262
   692  C   4.0   -0.07    4.07    3.75    39.08142    67.54579   -39.22410
   693  H   1.0    0.10    1.07    1.44    47.33764    64.93041   -37.82192
   694  H   1.0    0.05    1.06    1.44    44.24793    69.54701   -37.99389
   695  H   1.0    0.06    1.06    1.44    43.13677    64.60726   -35.15741
   696  H   1.0    0.07    1.05    1.44    42.09742    65.04001   -39.91196
   697  H   1.0    0.04    1.04    1.43    39.72582    63.88350   -37.80680
   698  H   1.0    0.04    1.00    1.43    39.31764    66.65762   -33.56059
   699  H   1.0    0.06    1.01    1.43    42.13144    68.19774   -32.51557
   700  H   1.0    0.04    1.00    1.43    40.28896    69.55457   -34.99300
   701  H   1.0    0.07    1.00    1.43    38.00050    66.83714   -40.82847
   702  H   1.0    0.04    1.01    1.43    37.80775    68.04090   -37.68208
   703  H   1.0    0.06    1.00    1.43    40.17557    69.19741   -39.78912
   704  N   5.0   -0.13    3.49    2.07    47.28850    70.86793   -34.58860
   705  C   4.0    0.04    4.35    4.29    48.87965    71.64460   -32.48155
   706  C   4.0    0.08    3.21    3.04    47.27527    72.62537   -30.28002
   707  O   6.0   -0.28    1.13    1.80    45.41956    73.98786   -30.70710
   708  C   4.0   -0.04    4.36    4.30    50.71835    73.69307   -33.33004
   709  C   4.0   -0.02    3.62    3.18    51.40621    73.55889   -36.06070
   710  C   4.0   -0.05    3.48    3.11    53.33940    72.01310   -36.87139
   711  C   4.0   -0.04    3.50    3.12    50.16278    75.03855   -37.81625
   712  C   4.0   -0.05    3.38    3.07    53.99514    71.91483   -39.40362
   713  C   4.0   -0.04    3.38    3.07    50.79961    74.94217   -40.35793
   714  C   4.0   -0.04    3.38    3.07    52.70446    73.38315   -41.14973
   715  H   1.0    0.08    1.07    1.44    47.02394    72.20963   -35.94731
   716  H   1.0    0.04    1.06    1.44    49.95113    70.01944   -31.80881
   717  H   1.0    0.05    1.04    1.43    49.85853    75.53366   -32.98989
   718  H   1.0    0.03    1.04    1.43    52.45501    73.51543   -32.23778
   719  H   1.0    0.04    1.03    1.43    54.35230    70.86793   -35.52023
   720  H   1.0    0.05    1.03    1.43    48.67178    76.28955   -37.20020
   721  H   1.0    0.04    1.03    1.43    55.51070    70.69407   -40.01778
   722  H   1.0    0.05    1.03    1.43    49.79428    76.09491   -41.70909
   723  H   1.0    0.05    1.03    1.43    53.20145    73.29622   -43.12827
   724  H   1.0    0.10    1.07    1.44    29.27651    48.09316   -59.14372
   725  H   1.0    0.05    1.04    1.43    47.72676    72.16559   -28.50356
   726  H   1.0    0.04    1.04    1.44    13.66065    57.12161   -20.08710
   727  H   1.0    0.09    1.07    1.44    16.73102    46.79897   -22.46316
   728  H   1.0    0.04    1.04    1.44    29.34550    57.71295   -20.08762
   729  H   1.0    0.08    1.07    1.44    31.22663    63.40552   -13.11287
   730  H   1.0    0.05    1.04    1.43    26.16005    80.48933   -19.32961
   731  H   1.0    0.10    1.07    1.44    34.91191    75.47916   -15.59521
   732  H   1.0    0.06    1.04    1.44    39.69665    70.50476   -14.18294
   733  H   1.0    0.08    1.08    1.44    10.24867    65.04472   -15.05198
   734  H   1.0    0.05    1.04    1.43    11.75506    75.77170   -21.41675
   735  H   1.0    0.09    1.07    1.44    35.54265    67.63026   -62.90321
   736  H   1.0    0.05    1.04    1.43    35.04770    51.11835   -69.17846
   737  H   1.0    0.08    1.07    1.44    54.00236    65.78956   -27.30438
   738  H   1.0    0.05    1.05    1.44    49.09720    48.38867   -36.49643

  Z AO/shell   Hii/eV     exponent
  1     Wed Apr 25 08:07:45 CEST 2018   EN: 2.200 GM2: 0.406  GM3: 0.0800  RAES: 1.40
     1s    -10.707211    1.230000
  6     Wed Apr 25 08:07:45 CEST 2018   EN: 2.550 GM2: 0.538  GM3: 0.1500  RAES: 3.00
     2s    -13.970922    2.096432
     2p    -10.063292    1.800000
  7     Wed Apr 25 08:07:45 CEST 2018   EN: 3.040 GM2: 0.461  GM3:-0.0640  RAES: 1.90
     2s    -16.686243    2.339881
     2p    -12.523956    2.014332
  8     Wed Apr 25 08:07:45 CEST 2018   EN: 3.440 GM2: 0.452  GM3:-0.0517  RAES: 1.80
     2s    -20.229985    2.439742
     2p    -15.503117    2.137023
 16     Tue Apr 24 11:44:34 CEST 2018   EN: 2.580 GM2: 0.340  GM3:-0.0502  RAES: 3.10
     3s    -20.029654    1.981333
     3p    -11.377694    2.025643
     3d     -0.420282    1.702555
 no old-style atom pair restraining (fixing) potential

molecular fragmentation (1/2 indicates fragments):
111111111111111111111111111111111111111111111111111111111111111111111111
111111111111111111111111111111111111111111111111111111111111111111111111
111111111111111112222222222222222222222222222222222222222222222222222222
222222222222222222222222222222222222222222222222222222222222222222222222
222222222222222222222222222222222222222222222222222222222222222222222222
222222222222222222222222222222222222222222222222222222222222222222222222
222222222222222222222222222222222222222222222222222222222222222222222222
222222222222222222222222222222222222222222222222222222222222222222222222
222222222222222222222222222222222222222222222222222222222222222222222222
222222222222222222222222222222222222222222222222222222222222222222222222
222221112222222222
# atoms in fragment 1/2:   164   574
 fragment masses (1/2) :     1235.51     3855.69
CMA distance (Bohr)    :  20.275
constraining FC (au)   :  0.0500
           ------------------------------------------------- 
          |        Self-Consistent Charge Iterations        |
           ------------------------------------------------- 

 Ncao       : 1827
 Nao        : 1822
 Nshell     : 1096
 Nel        : 1990
 T(el)      :   500.0
 intcut     :    35.0
 scfconv/Eh :  0.100E-06
   qconv/e  :  0.100E-04
 intneglect :  0.100E-08
 broydamp   :      0.400
 iter      E             dE          RMSdq      gap      omega  full diag
   1  -1134.6510746 -0.113465E+04  0.460E+00    2.88       0.0  T
   2  -1137.4677084 -0.281663E+01  0.216E+00    1.42       1.0  T
   3  -1137.6428615 -0.175153E+00  0.121E+00    1.75       1.0  T
   4  -1137.8095005 -0.166639E+00  0.274E-01    0.63       1.0  T
   5  -1137.8205452 -0.110447E-01  0.145E-01    0.91       1.0  T
   6  -1137.8232204 -0.267514E-02  0.714E-02    1.01       1.0  T
   7  -1137.8243450 -0.112464E-02  0.355E-02    1.05       1.0  T
   8  -1137.8245269 -0.181873E-03  0.208E-02    1.09       1.0  T
   9  -1137.8245950 -0.681268E-04  0.106E-02    1.10       1.0  T
  10  -1137.8246096 -0.146270E-04  0.592E-03    1.11       1.0  T
  11  -1137.8246147 -0.505966E-05  0.287E-03    1.11       1.3  T
  12  -1137.8246158 -0.110914E-05  0.162E-03    1.11       2.3  T
  13  -1137.8246161 -0.330677E-06  0.761E-04    1.11       4.8  T
  14  -1137.8246162 -0.538623E-07  0.379E-04    1.11       9.7  T
  15  -1137.8246162 -0.189516E-07  0.197E-04    1.11      18.7  T
  16  -1137.8246162 -0.490331E-08  0.959E-05    1.11      38.4  T
  17  -1137.8246162 -0.139812E-08  0.439E-05    1.11      83.9  T
speedup  1.18
cpu  time for SCC    1 m 58.3 s
wall time for SCC    1 m 40.6 s

   *** convergence criteria satisfied after 17 iterations ***

          eigenvalues
 #    :         983        984        985        986        987        988        989        990
 occ. :        2.000      2.000      2.000      2.000      2.000      2.000      2.000      2.000
 eps  :        -9.900     -9.898     -9.881     -9.881     -9.812     -9.769     -9.762     -9.760
 #    :         991        992        993        994        995        996        997        998
 occ. :        2.000      2.000      2.000      2.000      2.000      0.000      0.000      0.000
 eps  :        -9.752     -9.686     -9.619     -9.561     -9.370     -8.257     -8.212     -8.194
 #    :         999       1000       1001       1002       1003       1004       1005       1006
 occ. :        0.000      0.000      0.000      0.000      0.000      0.000      0.000      0.000
 eps  :        -8.162     -8.074     -7.955     -7.928     -7.370     -7.304     -7.022     -6.902


   #   Z            q   n(s)   n(p)   n(d)      C6AA      α(0)
   1   7 N     -0.044  1.226  3.817  0.000    22.080     6.979
   2   6 C     -0.026  1.070  2.956  0.000    21.030     6.526
   3   6 C      0.268  1.031  2.701  0.000    22.472     7.763
   4   8 O     -0.457  1.745  4.712  0.000    22.847     6.409
   5   6 C     -0.079  1.051  3.028  0.000    21.983     6.671
   6   6 C     -0.088  1.047  3.041  0.000    22.142     6.695
   7   6 C     -0.052  1.061  2.991  0.000    21.556     6.620
   8   1 H      0.282  0.718  0.000  0.000     0.770     1.375
   9   1 H      0.288  0.712  0.000  0.000     0.749     1.356
  10   1 H      0.122  0.878  0.000  0.000     1.593     1.974
  11   1 H      0.083  0.917  0.000  0.000     1.947     2.182
  12   1 H      0.094  0.906  0.000  0.000     1.843     2.123
  13   1 H      0.098  0.902  0.000  0.000     1.804     2.101
  14   1 H      0.088  0.912  0.000  0.000     1.901     2.156
  15   1 H      0.121  0.879  0.000  0.000     1.607     1.982
  16   1 H      0.117  0.883  0.000  0.000     1.634     1.999
  17   7 N     -0.156  1.231  3.925  0.000    24.380     7.333
  18   6 C      0.001  1.059  2.941  0.000    20.548     6.450
  19   6 C      0.266  1.040  2.694  0.000    22.512     7.770
  20   8 O     -0.478  1.746  4.733  0.000    23.312     6.473
  21   6 C     -0.040  1.075  2.966  0.000    21.290     6.569
  22  16 S     -0.093  1.924  4.095  0.074   144.938    20.263
  23   1 H      0.223  0.777  0.000  0.000     0.995     1.563
  24   1 H      0.110  0.890  0.000  0.000     1.694     2.035
  25   1 H      0.080  0.920  0.000  0.000     1.975     2.198
  26   1 H      0.084  0.916  0.000  0.000     1.938     2.177
  27   7 N     -0.155  1.241  3.915  0.000    24.361     7.330
  28   6 C      0.016  1.053  2.931  0.000    20.309     6.417
  29   6 C      0.190  1.092  2.718  0.000    23.941     8.013
  30   8 O     -0.354  1.746  4.607  0.000    20.777     6.111
  31   6 C     -0.070  1.047  3.023  0.000    21.780     6.633
  32   6 C     -0.011  1.053  2.958  0.000    20.776     6.490
  33  16 S     -0.201  1.911  4.240  0.049   149.604    20.586
  34   6 C     -0.064  1.055  3.009  0.000    21.803     6.661
  35   1 H      0.245  0.755  0.000  0.000     0.902     1.488
  36   1 H      0.102  0.898  0.000  0.000     1.768     2.079
  37   1 H      0.068  0.932  0.000  0.000     2.107     2.270
  38   1 H      0.075  0.925  0.000  0.000     2.037     2.232
  39   1 H      0.074  0.926  0.000  0.000     2.046     2.237
  40   1 H      0.054  0.946  0.000  0.000     2.274     2.358
  41   1 H      0.061  0.939  0.000  0.000     2.193     2.316
  42   1 H      0.051  0.949  0.000  0.000     2.313     2.378
  43   1 H      0.059  0.941  0.000  0.000     2.206     2.322
  44   7 N     -0.394  1.331  4.063  0.000    30.205     8.162
  45   6 C      0.022  1.061  2.917  0.000    20.220     6.404
  46   6 C      0.273  1.042  2.685  0.000    22.386     7.748
  47   8 O     -0.509  1.751  4.758  0.000    23.979     6.565
  48   6 C     -0.068  1.048  3.020  0.000    21.731     6.626
  49   6 C     -0.004  1.055  2.949  0.000    20.652     6.470
  50  16 S     -0.235  1.917  4.264  0.054   151.139    20.691
  51   6 C     -0.064  1.055  3.009  0.000    21.802     6.661
  52   1 H      0.152  0.848  0.000  0.000     1.386     1.844
  53   1 H      0.053  0.947  0.000  0.000     2.285     2.364
  54   1 H      0.039  0.961  0.000  0.000     2.462     2.454
  55   1 H      0.052  0.948  0.000  0.000     2.289     2.366
  56   1 H      0.052  0.948  0.000  0.000     2.296     2.369
  57   1 H      0.048  0.952  0.000  0.000     2.349     2.397
  58   1 H      0.072  0.928  0.000  0.000     2.063     2.246
  59   1 H      0.062  0.938  0.000  0.000     2.179     2.309
  60   1 H      0.061  0.939  0.000  0.000     2.183     2.311
  61   7 N     -0.178  1.244  3.934  0.000    24.864     7.406
  62   6 C      0.021  1.055  2.924  0.000    20.222     6.403
  63   6 C      0.263  1.045  2.692  0.000    22.561     7.778
  64   8 O     -0.474  1.733  4.741  0.000    23.206     6.459
  65   6 C     -0.124  1.043  3.081  0.000    22.930     6.827
  66   1 H      0.228  0.772  0.000  0.000     0.973     1.546
  67   1 H      0.066  0.934  0.000  0.000     2.124     2.279
  68   1 H      0.073  0.927  0.000  0.000     2.048     2.238
  69   1 H      0.061  0.939  0.000  0.000     2.190     2.314
  70   1 H      0.068  0.932  0.000  0.000     2.111     2.272
  71   7 N     -0.143  1.235  3.908  0.000    24.106     7.292
  72   6 C     -0.010  1.065  2.945  0.000    20.758     6.487
  73   6 C      0.272  1.037  2.691  0.000    22.411     7.753
  74   8 O     -0.456  1.727  4.729  0.000    22.827     6.406
  75   6 C      0.060  1.042  2.899  0.000    19.782     6.371
  76   8 O     -0.469  1.712  4.757  0.000    22.235     6.365
  77   1 H      0.219  0.781  0.000  0.000     1.015     1.578
  78   1 H      0.118  0.882  0.000  0.000     1.633     1.999
  79   1 H      0.045  0.955  0.000  0.000     2.384     2.414
  80   1 H      0.069  0.931  0.000  0.000     2.102     2.267
  81   1 H      0.319  0.681  0.000  0.000     0.667     1.283
  82   7 N     -0.149  1.217  3.932  0.000    24.232     7.311
  83   6 C      0.002  1.062  2.937  0.000    20.552     6.454
  84   6 C      0.274  1.038  2.688  0.000    22.363     7.745
  85   8 O     -0.480  1.744  4.736  0.000    23.353     6.479
  86   6 C      0.060  1.043  2.897  0.000    19.784     6.373
  87   8 O     -0.500  1.737  4.762  0.000    22.887     6.458
  88   1 H      0.216  0.784  0.000  0.000     1.027     1.588
  89   1 H      0.114  0.886  0.000  0.000     1.664     2.017
  90   1 H      0.048  0.952  0.000  0.000     2.343     2.394
  91   1 H      0.080  0.920  0.000  0.000     1.982     2.201
  92   1 H      0.346  0.654  0.000  0.000     0.598     1.214
  93   7 N     -0.164  1.243  3.921  0.000    24.553     7.359
  94   6 C      0.033  1.051  2.916  0.000    20.030     6.373
  95   6 C      0.274  1.040  2.685  0.000    22.364     7.745
  96   8 O     -0.496  1.740  4.756  0.000    23.700     6.527
  97   6 C     -0.076  1.056  3.021  0.000    21.950     6.669
  98   6 C     -0.088  1.060  3.028  0.000    22.170     6.703
  99   6 C      0.365  1.021  2.614  0.000    20.817     7.467
 100   8 O     -0.642  1.789  4.853  0.000    27.161     6.987
 101   8 O     -0.634  1.760  4.874  0.000    26.969     6.963
 102   1 H      0.224  0.776  0.000  0.000     0.992     1.560
 103   1 H      0.049  0.951  0.000  0.000     2.333     2.389
 104   1 H      0.066  0.934  0.000  0.000     2.131     2.283
 105   1 H      0.055  0.945  0.000  0.000     2.263     2.353
 106   1 H      0.012  0.988  0.000  0.000     2.854     2.642
 107   1 H      0.033  0.967  0.000  0.000     2.540     2.492
 108   7 N     -0.084  1.235  3.849  0.000    22.872     7.103
 109   6 C      0.036  1.055  2.909  0.000    19.963     6.359
 110   6 C      0.259  1.041  2.700  0.000    22.646     7.794
 111   8 O     -0.492  1.742  4.750  0.000    23.607     6.514
 112   6 C     -0.054  1.048  3.006  0.000    21.523     6.601
 113   6 C     -0.061  1.041  3.020  0.000    21.638     6.618
 114   6 C      0.010  1.043  2.947  0.000    20.439     6.443
 115   1 H      0.026  0.974  0.000  0.000     2.647     2.544
 116   1 H      0.061  0.939  0.000  0.000     2.189     2.314
 117   1 H      0.038  0.962  0.000  0.000     2.472     2.459
 118   1 H      0.054  0.946  0.000  0.000     2.271     2.357
 119   1 H      0.042  0.958  0.000  0.000     2.418     2.432
 120   1 H      0.064  0.936  0.000  0.000     2.149     2.292
 121   1 H      0.054  0.946  0.000  0.000     2.274     2.358
 122   7 N     -0.071  1.227  3.844  0.000    22.615     7.063
 123   6 C      0.014  1.063  2.923  0.000    20.318     6.413
 124   6 C      0.276  1.043  2.682  0.000    22.340     7.740
 125   8 O     -0.482  1.753  4.729  0.000    23.392     6.484
 126   6 C     -0.079  1.058  3.020  0.000    21.977     6.670
 127   6 C     -0.070  1.045  3.025  0.000    21.816     6.645
 128   6 C     -0.002  1.048  2.954  0.000    20.654     6.478
 129   1 H      0.083  0.917  0.000  0.000     1.944     2.181
 130   1 H      0.077  0.923  0.000  0.000     2.012     2.218
 131   1 H      0.080  0.920  0.000  0.000     1.978     2.199
 132   1 H      0.073  0.927  0.000  0.000     2.050     2.239
 133   1 H      0.066  0.934  0.000  0.000     2.131     2.283
 134   1 H      0.077  0.923  0.000  0.000     2.009     2.217
 135   1 H      0.032  0.968  0.000  0.000     2.564     2.504
 136   7 N     -0.185  1.243  3.941  0.000    25.005     7.427
 137   6 C      0.019  1.059  2.922  0.000    20.241     6.403
 138   6 C      0.273  1.040  2.687  0.000    22.383     7.747
 139   8 O     -0.474  1.732  4.742  0.000    23.225     6.461
 140   6 C     -0.031  1.074  2.957  0.000    21.131     6.545
 141  16 S     -0.098  1.934  4.072  0.091   145.123    20.276
 142   1 H      0.210  0.790  0.000  0.000     1.057     1.610
 143   1 H      0.080  0.920  0.000  0.000     1.980     2.201
 144   1 H      0.076  0.924  0.000  0.000     2.018     2.221
 145   1 H      0.082  0.918  0.000  0.000     1.954     2.186
 146   7 N     -0.142  1.229  3.913  0.000    24.078     7.288
 147   6 C      0.017  1.062  2.921  0.000    20.294     6.415
 148   6 C      0.192  1.087  2.721  0.000    23.890     8.005
 149   8 O     -0.356  1.755  4.601  0.000    20.820     6.118
 150   6 C     -0.023  1.059  2.963  0.000    20.937     6.507
 151   6 C     -0.119  1.043  3.075  0.000    22.827     6.812
 152   6 C     -0.135  1.044  3.091  0.000    23.156     6.861
 153   1 H      0.215  0.785  0.000  0.000     1.034     1.593
 154   1 H      0.096  0.904  0.000  0.000     1.820     2.110
 155   1 H      0.061  0.939  0.000  0.000     2.189     2.314
 156   1 H      0.067  0.933  0.000  0.000     2.122     2.278
 157   1 H      0.043  0.957  0.000  0.000     2.406     2.426
 158   1 H      0.048  0.952  0.000  0.000     2.348     2.396
 159   1 H      0.069  0.931  0.000  0.000     2.097     2.265
 160   1 H      0.060  0.940  0.000  0.000     2.197     2.318
 161   1 H      0.047  0.953  0.000  0.000     2.358     2.401
 162   7 N     -0.388  1.328  4.060  0.000    30.051     8.142
 163   6 C      0.028  1.063  2.909  0.000    20.108     6.386
 164   6 C      0.270  1.048  2.683  0.000    22.442     7.757
 165   8 O     -0.509  1.755  4.754  0.000    23.987     6.566
 166   6 C     -0.019  1.059  2.960  0.000    20.883     6.499
 167   6 C     -0.063  1.049  3.014  0.000    21.706     6.632
 168   6 C     -0.110  1.041  3.069  0.000    22.654     6.786
 169   6 C     -0.121  1.042  3.079  0.000    22.876     6.821
 170   1 H      0.153  0.847  0.000  0.000     1.379     1.840
 171   1 H      0.032  0.968  0.000  0.000     2.556     2.500
 172   1 H      0.023  0.977  0.000  0.000     2.693     2.566
 173   1 H      0.037  0.963  0.000  0.000     2.489     2.467
 174   1 H      0.028  0.972  0.000  0.000     2.609     2.526
 175   1 H      0.044  0.956  0.000  0.000     2.400     2.422
 176   1 H      0.018  0.982  0.000  0.000     2.771     2.603
 177   1 H      0.055  0.945  0.000  0.000     2.259     2.351
 178   1 H      0.043  0.957  0.000  0.000     2.414     2.429
 179   1 H      0.046  0.954  0.000  0.000     2.373     2.409
 180   1 H      0.047  0.953  0.000  0.000     2.360     2.403
 181   7 N     -0.202  1.256  3.946  0.000    25.393     7.484
 182   6 C      0.021  1.059  2.920  0.000    20.232     6.405
 183   6 C      0.266  1.045  2.689  0.000    22.504     7.769
 184   8 O     -0.487  1.746  4.740  0.000    23.496     6.499
 185   6 C     -0.073  1.054  3.019  0.000    21.883     6.658
 186   6 C     -0.014  1.054  2.960  0.000    20.795     6.486
 187   6 C     -0.125  1.047  3.078  0.000    22.950     6.831
 188   6 C     -0.127  1.044  3.083  0.000    22.998     6.837
 189   1 H      0.231  0.769  0.000  0.000     0.962     1.536
 190   1 H      0.085  0.915  0.000  0.000     1.928     2.172
 191   1 H      0.038  0.962  0.000  0.000     2.473     2.459
 192   1 H      0.067  0.933  0.000  0.000     2.115     2.274
 193   1 H      0.021  0.979  0.000  0.000     2.724     2.581
 194   1 H      0.052  0.948  0.000  0.000     2.292     2.368
 195   1 H      0.034  0.966  0.000  0.000     2.530     2.487
 196   1 H      0.057  0.943  0.000  0.000     2.233     2.337
 197   1 H      0.051  0.949  0.000  0.000     2.301     2.372
 198   1 H      0.055  0.945  0.000  0.000     2.264     2.353
 199   1 H      0.040  0.960  0.000  0.000     2.445     2.445
 200   7 N     -0.166  1.236  3.931  0.000    24.602     7.367
 201   6 C      0.017  1.058  2.925  0.000    20.288     6.413
 202   6 C      0.267  1.044  2.689  0.000    22.491     7.766
 203   8 O     -0.484  1.756  4.728  0.000    23.429     6.490
 204   6 C     -0.057  1.047  3.010  0.000    21.592     6.615
 205   6 C     -0.098  1.058  3.040  0.000    22.363     6.732
 206   6 C      0.278  1.043  2.680  0.000    22.303     7.733
 207   8 O     -0.491  1.748  4.743  0.000    23.595     6.513
 208   7 N     -0.263  1.258  4.005  0.000    26.817     7.691
 209   1 H      0.210  0.790  0.000  0.000     1.055     1.609
 210   1 H      0.078  0.922  0.000  0.000     2.002     2.213
 211   1 H      0.062  0.938  0.000  0.000     2.177     2.307
 212   1 H      0.065  0.935  0.000  0.000     2.139     2.287
 213   1 H      0.077  0.923  0.000  0.000     2.014     2.219
 214   1 H      0.065  0.935  0.000  0.000     2.137     2.286
 215   1 H      0.202  0.798  0.000  0.000     1.097     1.641
 216   1 H      0.225  0.775  0.000  0.000     0.988     1.557
 217   7 N     -0.162  1.240  3.922  0.000    24.505     7.352
 218   6 C      0.032  1.056  2.912  0.000    20.042     6.375
 219   6 C      0.204  1.086  2.711  0.000    23.669     7.967
 220   8 O     -0.351  1.757  4.595  0.000    20.734     6.105
 221   6 C     -0.110  1.065  3.045  0.000    22.603     6.768
 222   6 C      0.287  1.032  2.681  0.000    22.140     7.704
 223   8 O     -0.493  1.760  4.732  0.000    23.620     6.516
 224   7 N     -0.270  1.266  4.004  0.000    26.997     7.717
 225   1 H      0.211  0.789  0.000  0.000     1.050     1.605
 226   1 H      0.092  0.908  0.000  0.000     1.856     2.130
 227   1 H      0.084  0.916  0.000  0.000     1.939     2.177
 228   1 H      0.104  0.896  0.000  0.000     1.750     2.069
 229   1 H      0.241  0.759  0.000  0.000     0.920     1.503
 230   1 H      0.233  0.767  0.000  0.000     0.954     1.530
 231   7 N     -0.387  1.318  4.069  0.000    30.002     8.135
 232   6 C      0.044  1.050  2.907  0.000    19.846     6.344
 233   6 C      0.203  1.090  2.706  0.000    23.682     7.970
 234   8 O     -0.382  1.759  4.624  0.000    21.330     6.192
 235   6 C     -0.013  1.055  2.957  0.000    20.759     6.480
 236   6 C     -0.122  1.042  3.080  0.000    22.891     6.820
 237   6 C     -0.118  1.044  3.075  0.000    22.821     6.811
 238   1 H      0.167  0.833  0.000  0.000     1.289     1.778
 239   1 H      0.042  0.958  0.000  0.000     2.422     2.434
 240   1 H      0.040  0.960  0.000  0.000     2.450     2.448
 241   1 H      0.061  0.939  0.000  0.000     2.185     2.312
 242   1 H      0.038  0.962  0.000  0.000     2.470     2.458
 243   1 H      0.051  0.949  0.000  0.000     2.305     2.374
 244   1 H      0.056  0.944  0.000  0.000     2.241     2.341
 245   1 H      0.036  0.964  0.000  0.000     2.508     2.477
 246   1 H      0.037  0.963  0.000  0.000     2.484     2.465
[...]
 452   1 H      0.070  0.930  0.000  0.000     2.088     2.260
 453   1 H      0.047  0.953  0.000  0.000     2.353     2.399
 454   1 H      0.075  0.925  0.000  0.000     2.026     2.226
 455   1 H      0.075  0.925  0.000  0.000     2.030     2.228
 456   1 H      0.096  0.904  0.000  0.000     1.821     2.111
 457   1 H      0.105  0.895  0.000  0.000     1.742     2.064
 458   1 H      0.220  0.780  0.000  0.000     1.010     1.574
 459   1 H      0.253  0.747  0.000  0.000     0.871     1.462
 460   1 H      0.256  0.744  0.000  0.000     0.861     1.453
 461   1 H      0.223  0.777  0.000  0.000     0.998     1.565
 462   1 H      0.247  0.753  0.000  0.000     0.894     1.481
 463   7 N     -0.168  1.246  3.922  0.000    24.643     7.373
 464   6 C      0.015  1.055  2.930  0.000    20.321     6.418
 465   6 C      0.277  1.043  2.681  0.000    22.316     7.736
 466   8 O     -0.495  1.724  4.771  0.000    23.675     6.524
 467   6 C     -0.081  1.060  3.021  0.000    22.026     6.680
 468   6 C     -0.011  1.053  2.958  0.000    20.737     6.477
 469   6 C     -0.118  1.044  3.075  0.000    22.820     6.812
 470   6 C     -0.122  1.045  3.076  0.000    22.885     6.821
 471   1 H      0.220  0.780  0.000  0.000     1.011     1.575
 472   1 H      0.083  0.917  0.000  0.000     1.944     2.180
 473   1 H      0.068  0.932  0.000  0.000     2.105     2.269
 474   1 H      0.058  0.942  0.000  0.000     2.219     2.330
 475   1 H      0.015  0.985  0.000  0.000     2.806     2.619
 476   1 H      0.033  0.967  0.000  0.000     2.541     2.493
 477   1 H      0.024  0.976  0.000  0.000     2.673     2.557
 478   1 H      0.049  0.951  0.000  0.000     2.333     2.389
 479   1 H      0.046  0.954  0.000  0.000     2.366     2.405
 480   1 H      0.055  0.945  0.000  0.000     2.256     2.349
 481   1 H      0.056  0.944  0.000  0.000     2.249     2.345
 482   7 N     -0.201  1.267  3.934  0.000    25.367     7.480
 483   6 C      0.036  1.054  2.910  0.000    19.963     6.362
 484   6 C      0.273  1.041  2.686  0.000    22.388     7.749
 485   8 O     -0.505  1.745  4.760  0.000    23.892     6.553
 486   6 C     -0.050  1.044  3.006  0.000    21.466     6.594
 487   6 C      0.006  1.079  2.915  0.000    27.887     8.662
 488   6 C     -0.032  1.081  2.951  0.000    28.797     8.801
 489   6 C     -0.042  1.080  2.962  0.000    29.040     8.838
 490   6 C     -0.063  1.071  2.991  0.000    29.557     8.915
 491   6 C     -0.076  1.077  2.998  0.000    29.891     8.965
 492   6 C      0.131  1.049  2.820  0.000    25.126     8.215
 493   8 O     -0.402  1.701  4.700  0.000    20.886     6.169
 494   1 H      0.233  0.767  0.000  0.000     0.951     1.528
 495   1 H      0.067  0.933  0.000  0.000     2.116     2.275
 496   1 H      0.029  0.971  0.000  0.000     2.599     2.521
 497   1 H      0.043  0.957  0.000  0.000     2.414     2.430
 498   1 H      0.017  0.983  0.000  0.000     2.781     2.608
 499   1 H      0.021  0.979  0.000  0.000     2.712     2.575
 500   1 H      0.064  0.936  0.000  0.000     2.150     2.293
 501   1 H      0.064  0.936  0.000  0.000     2.156     2.296
 502   1 H      0.349  0.651  0.000  0.000     0.592     1.209
 503   7 N     -0.190  1.255  3.935  0.000    25.130     7.445
 504   6 C      0.017  1.059  2.925  0.000    20.295     6.414
 505   6 C      0.275  1.044  2.681  0.000    22.350     7.743
 506   8 O     -0.499  1.738  4.761  0.000    23.772     6.537
 507   6 C     -0.080  1.059  3.021  0.000    22.026     6.681
 508   6 C     -0.065  1.046  3.019  0.000    21.744     6.639
 509   6 C     -0.095  1.055  3.040  0.000    22.305     6.723
 510   6 C     -0.048  1.057  2.990  0.000    21.519     6.621
 511   7 N     -0.149  1.237  3.912  0.000    24.219     7.309
 512   1 H      0.240  0.760  0.000  0.000     0.922     1.504
 513   1 H      0.073  0.927  0.000  0.000     2.051     2.240
 514   1 H      0.064  0.936  0.000  0.000     2.154     2.295
 515   1 H      0.074  0.926  0.000  0.000     2.043     2.235
 516   1 H      0.037  0.963  0.000  0.000     2.493     2.469
 517   1 H      0.047  0.953  0.000  0.000     2.362     2.403
 518   1 H      0.084  0.916  0.000  0.000     1.943     2.180
 519   1 H      0.082  0.918  0.000  0.000     1.957     2.188
 520   1 H      0.102  0.898  0.000  0.000     1.765     2.077
 521   1 H      0.118  0.882  0.000  0.000     1.633     1.998
 522   1 H      0.304  0.696  0.000  0.000     0.702     1.312
 523   1 H      0.301  0.699  0.000  0.000     0.709     1.319
 524   1 H      0.305  0.695  0.000  0.000     0.699     1.310
 525   7 N     -0.188  1.255  3.933  0.000    25.067     7.436
 526   6 C      0.024  1.052  2.923  0.000    20.161     6.391
 527   6 C      0.277  1.036  2.687  0.000    22.308     7.735
 528   8 O     -0.502  1.768  4.735  0.000    23.835     6.546
 529   6 C     -0.125  1.062  3.062  0.000    22.877     6.808
 530   6 C      0.288  1.036  2.677  0.000    22.126     7.702
 531   8 O     -0.496  1.742  4.754  0.000    23.701     6.527
 532   7 N     -0.256  1.264  3.992  0.000    26.656     7.668
 533   1 H      0.223  0.777  0.000  0.000     0.997     1.564
 534   1 H      0.101  0.899  0.000  0.000     1.775     2.084
 535   1 H      0.095  0.905  0.000  0.000     1.834     2.118
 536   1 H      0.102  0.898  0.000  0.000     1.768     2.079
 537   1 H      0.219  0.781  0.000  0.000     1.014     1.578
 538   1 H      0.236  0.764  0.000  0.000     0.938     1.517
 539   7 N     -0.187  1.249  3.938  0.000    25.049     7.433
 540   6 C      0.016  1.061  2.923  0.000    20.303     6.416
 541   6 C      0.271  1.039  2.689  0.000    22.414     7.753
 542   8 O     -0.485  1.740  4.745  0.000    23.445     6.492
 543   6 C     -0.085  1.059  3.026  0.000    22.121     6.695
 544   6 C     -0.077  1.055  3.021  0.000    21.966     6.673
 545   6 C     -0.101  1.059  3.043  0.000    22.434     6.744
 546   6 C     -0.054  1.064  2.990  0.000    21.651     6.643
 547   7 N     -0.144  1.237  3.907  0.000    24.107     7.292
 548   1 H      0.221  0.779  0.000  0.000     1.005     1.571
 549   1 H      0.080  0.920  0.000  0.000     1.979     2.200
 550   1 H      0.066  0.934  0.000  0.000     2.126     2.280
 551   1 H      0.084  0.916  0.000  0.000     1.939     2.178
 552   1 H      0.046  0.954  0.000  0.000     2.376     2.410
 553   1 H      0.059  0.941  0.000  0.000     2.207     2.323
 554   1 H      0.091  0.909  0.000  0.000     1.869     2.138
 555   1 H      0.087  0.913  0.000  0.000     1.909     2.161
 556   1 H      0.107  0.893  0.000  0.000     1.720     2.051
 557   1 H      0.120  0.880  0.000  0.000     1.617     1.989
 558   1 H      0.314  0.686  0.000  0.000     0.673     1.285
 559   1 H      0.301  0.699  0.000  0.000     0.711     1.321
 560   1 H      0.294  0.706  0.000  0.000     0.730     1.339
 561   7 N     -0.185  1.250  3.934  0.000    25.007     7.427
 562   6 C      0.040  1.051  2.909  0.000    19.910     6.353
 563   6 C      0.276  1.043  2.681  0.000    22.335     7.740
 564   8 O     -0.508  1.738  4.770  0.000    23.951     6.562
 565   6 C     -0.084  1.060  3.024  0.000    22.091     6.690
 566   6 C      0.373  1.014  2.613  0.000    20.673     7.441
 567   8 O     -0.647  1.770  4.877  0.000    27.304     7.006
 568   8 O     -0.643  1.768  4.876  0.000    27.205     6.993
 569   1 H      0.207  0.793  0.000  0.000     1.069     1.620
 570   1 H      0.072  0.928  0.000  0.000     2.065     2.247
 571   1 H      0.052  0.948  0.000  0.000     2.300     2.372
 572   1 H      0.033  0.967  0.000  0.000     2.539     2.492
 573   7 N     -0.172  1.248  3.925  0.000    24.733     7.386
 574   6 C      0.025  1.055  2.920  0.000    20.144     6.389
 575   6 C      0.283  1.034  2.683  0.000    22.209     7.718
 576   8 O     -0.501  1.749  4.752  0.000    23.806     6.542
 577   6 C     -0.076  1.050  3.026  0.000    21.913     6.658
 578   6 C     -0.017  1.056  2.961  0.000    20.879     6.505
 579  16 S     -0.194  1.901  4.242  0.051   149.276    20.564
 580   6 C     -0.053  1.054  2.999  0.000    21.598     6.630
 581   1 H      0.218  0.782  0.000  0.000     1.018     1.581
 582   1 H      0.054  0.946  0.000  0.000     2.271     2.357
 583   1 H      0.072  0.928  0.000  0.000     2.069     2.249
 584   1 H      0.074  0.926  0.000  0.000     2.046     2.237
 585   1 H      0.042  0.958  0.000  0.000     2.425     2.435
 586   1 H      0.083  0.917  0.000  0.000     1.943     2.180
 587   1 H      0.068  0.932  0.000  0.000     2.108     2.270
 588   1 H      0.059  0.941  0.000  0.000     2.211     2.325
 589   1 H      0.027  0.973  0.000  0.000     2.635     2.538
 590   7 N     -0.182  1.247  3.934  0.000    24.935     7.416
 591   6 C      0.024  1.054  2.922  0.000    20.154     6.390
 592   6 C      0.199  1.084  2.717  0.000    23.761     7.983
 593   8 O     -0.369  1.756  4.613  0.000    21.074     6.155
 594   6 C     -0.023  1.061  2.962  0.000    20.952     6.510
 595   6 C     -0.059  1.047  3.012  0.000    21.629     6.620
 596   6 C     -0.129  1.044  3.084  0.000    23.018     6.840
 597   6 C     -0.121  1.041  3.080  0.000    22.888     6.823
 598   1 H      0.230  0.770  0.000  0.000     0.963     1.538
 599   1 H      0.104  0.896  0.000  0.000     1.753     2.071
 600   1 H      0.069  0.931  0.000  0.000     2.096     2.264
 601   1 H      0.024  0.976  0.000  0.000     2.674     2.557
 602   1 H      0.030  0.970  0.000  0.000     2.581     2.512
 603   1 H      0.074  0.926  0.000  0.000     2.039     2.233
 604   1 H      0.052  0.948  0.000  0.000     2.295     2.369
 605   1 H      0.037  0.963  0.000  0.000     2.494     2.469
 606   1 H      0.052  0.948  0.000  0.000     2.300     2.372
 607   1 H      0.055  0.945  0.000  0.000     2.259     2.351
 608   1 H      0.043  0.957  0.000  0.000     2.415     2.430
 609   7 N     -0.387  1.322  4.065  0.000    30.026     8.138
 610   6 C      0.050  1.051  2.898  0.000    19.750     6.330
 611   6 C      0.275  1.050  2.675  0.000    22.355     7.743
 612   8 O     -0.493  1.730  4.763  0.000    23.631     6.518
 613   6 C     -0.087  1.068  3.019  0.000    22.161     6.702
 614   6 C      0.362  1.027  2.611  0.000    20.853     7.473
 615   8 O     -0.639  1.768  4.871  0.000    27.086     6.978
 616   8 O     -0.623  1.755  4.868  0.000    26.698     6.928
 617   1 H      0.149  0.851  0.000  0.000     1.406     1.857
 618   1 H      0.028  0.972  0.000  0.000     2.621     2.532
 619   1 H      0.030  0.970  0.000  0.000     2.586     2.515
 620   1 H      0.016  0.984  0.000  0.000     2.793     2.613
 621   7 N     -0.197  1.254  3.943  0.000    25.282     7.468
 622   6 C      0.020  1.057  2.924  0.000    20.246     6.406
 623   6 C      0.274  1.046  2.680  0.000    22.359     7.743
 624   8 O     -0.482  1.739  4.743  0.000    23.382     6.483
 625   6 C      0.109  1.051  2.840  0.000    18.890     6.206
 626   8 O     -0.485  1.739  4.746  0.000    22.577     6.414
 627   6 C     -0.141  1.046  3.095  0.000    23.285     6.881
 628   1 H      0.250  0.750  0.000  0.000     0.883     1.471
 629   1 H      0.083  0.917  0.000  0.000     1.949     2.183
 630   1 H      0.025  0.975  0.000  0.000     2.659     2.550
 631   1 H      0.318  0.682  0.000  0.000     0.671     1.287
 632   1 H      0.070  0.930  0.000  0.000     2.082     2.256
 633   1 H      0.055  0.945  0.000  0.000     2.260     2.351
 634   1 H      0.087  0.913  0.000  0.000     1.912     2.162
 635   7 N     -0.167  1.246  3.922  0.000    24.623     7.370
 636   6 C      0.018  1.060  2.922  0.000    20.275     6.411
 637   6 C      0.287  1.037  2.676  0.000    22.142     7.706
 638   8 O     -0.516  1.750  4.766  0.000    24.131     6.586
 639   6 C     -0.014  1.059  2.955  0.000    20.782     6.483
 640   6 C     -0.061  1.045  3.016  0.000    21.662     6.625
 641   6 C     -0.118  1.041  3.077  0.000    22.820     6.811
 642   6 C     -0.121  1.041  3.080  0.000    22.868     6.819
 643   1 H      0.202  0.798  0.000  0.000     1.098     1.641
 644   1 H      0.092  0.908  0.000  0.000     1.860     2.133
 645   1 H      0.029  0.971  0.000  0.000     2.598     2.520
 646   1 H      0.026  0.974  0.000  0.000     2.642     2.542
 647   1 H      0.053  0.947  0.000  0.000     2.287     2.365
 648   1 H      0.070  0.930  0.000  0.000     2.083     2.257
 649   1 H      0.024  0.976  0.000  0.000     2.673     2.557
 650   1 H      0.054  0.946  0.000  0.000     2.269     2.356
 651   1 H      0.054  0.946  0.000  0.000     2.271     2.356
 652   1 H      0.050  0.950  0.000  0.000     2.317     2.380
 653   1 H      0.054  0.946  0.000  0.000     2.267     2.354
 654   7 N     -0.192  1.254  3.938  0.000    25.168     7.451
 655   6 C      0.047  1.050  2.902  0.000    19.775     6.331
 656   6 C      0.272  1.046  2.682  0.000    22.396     7.750
 657   8 O     -0.475  1.723  4.752  0.000    23.245     6.464
 658   6 C     -0.054  1.059  2.995  0.000    21.532     6.606
 659   6 C      0.372  1.021  2.607  0.000    20.695     7.445
 660   8 O     -0.652  1.780  4.872  0.000    27.431     7.022
 661   8 O     -0.619  1.771  4.848  0.000    26.582     6.912
 662   1 H      0.221  0.779  0.000  0.000     1.004     1.570
 663   1 H      0.055  0.945  0.000  0.000     2.260     2.351
 664   1 H      0.014  0.986  0.000  0.000     2.821     2.627
 665   1 H      0.020  0.980  0.000  0.000     2.730     2.584
 666   7 N     -0.151  1.243  3.908  0.000    24.274     7.317
 667   6 C      0.025  1.058  2.918  0.000    20.166     6.395
 668   6 C      0.280  1.043  2.677  0.000    22.261     7.726
 669   8 O     -0.508  1.769  4.739  0.000    23.958     6.562
 670   6 C     -0.071  1.054  3.016  0.000    21.846     6.653
 671   6 C     -0.013  1.052  2.961  0.000    20.774     6.483
 672   6 C     -0.121  1.045  3.076  0.000    22.872     6.819
 673   6 C     -0.117  1.043  3.074  0.000    22.790     6.806
 674   1 H      0.194  0.806  0.000  0.000     1.139     1.671
 675   1 H      0.087  0.913  0.000  0.000     1.906     2.159
 676   1 H      0.051  0.949  0.000  0.000     2.307     2.375
 677   1 H      0.037  0.963  0.000  0.000     2.485     2.465
 678   1 H      0.031  0.969  0.000  0.000     2.574     2.509
 679   1 H      0.065  0.935  0.000  0.000     2.143     2.289
 680   1 H      0.031  0.969  0.000  0.000     2.566     2.505
 681   1 H      0.046  0.954  0.000  0.000     2.364     2.405
 682   1 H      0.062  0.938  0.000  0.000     2.171     2.304
 683   1 H      0.046  0.954  0.000  0.000     2.368     2.406
 684   1 H      0.040  0.960  0.000  0.000     2.446     2.446
 685   7 N     -0.175  1.247  3.928  0.000    24.793     7.395
 686   6 C      0.022  1.063  2.915  0.000    20.218     6.403
 687   6 C      0.259  1.047  2.694  0.000    22.635     7.791
 688   8 O     -0.462  1.727  4.735  0.000    22.952     6.423
 689   6 C     -0.021  1.063  2.958  0.000    20.918     6.504
 690   6 C     -0.038  1.037  3.001  0.000    21.253     6.563
 691   6 C     -0.133  1.046  3.087  0.000    23.117     6.856
 692   6 C     -0.094  1.033  3.061  0.000    22.345     6.741
 693   1 H      0.221  0.779  0.000  0.000     1.006     1.571
 694   1 H      0.052  0.948  0.000  0.000     2.299     2.371
 695   1 H      0.067  0.933  0.000  0.000     2.120     2.277
 696   1 H     -0.006  1.006  0.000  0.000     3.173     2.786
 697   1 H      0.033  0.967  0.000  0.000     2.538     2.491
 698   1 H      0.060  0.940  0.000  0.000     2.195     2.317
 699   1 H      0.075  0.925  0.000  0.000     2.029     2.228
 700   1 H      0.050  0.950  0.000  0.000     2.316     2.380
 701   1 H      0.010  0.990  0.000  0.000     2.889     2.658
 702   1 H      0.057  0.943  0.000  0.000     2.233     2.337
 703   1 H      0.018  0.982  0.000  0.000     2.764     2.600
 704   7 N     -0.147  1.239  3.909  0.000    24.192     7.305
 705   6 C      0.028  1.057  2.915  0.000    20.112     6.385
 706   6 C      0.192  1.091  2.716  0.000    23.893     8.005
 707   8 O     -0.357  1.767  4.591  0.000    20.850     6.122
 708   6 C     -0.082  1.052  3.029  0.000    22.042     6.682
 709   6 C      0.009  1.072  2.919  0.000    27.815     8.651
 710   6 C     -0.048  1.082  2.965  0.000    29.183     8.859
 711   6 C     -0.046  1.080  2.966  0.000    29.142     8.853
 712   6 C     -0.034  1.083  2.951  0.000    28.840     8.807
 713   6 C     -0.030  1.078  2.951  0.000    28.744     8.792
 714   6 C     -0.032  1.079  2.952  0.000    28.792     8.799
 715   1 H      0.201  0.799  0.000  0.000     1.101     1.644
 716   1 H      0.093  0.907  0.000  0.000     1.850     2.127
 717   1 H      0.071  0.929  0.000  0.000     2.080     2.255
 718   1 H      0.090  0.910  0.000  0.000     1.883     2.146
 719   1 H      0.068  0.932  0.000  0.000     2.105     2.269
 720   1 H      0.034  0.966  0.000  0.000     2.537     2.491
 721   1 H      0.048  0.952  0.000  0.000     2.350     2.397
 722   1 H      0.016  0.984  0.000  0.000     2.792     2.613
 723   1 H      0.024  0.976  0.000  0.000     2.667     2.554
 724   1 H      0.183  0.817  0.000  0.000     1.197     1.714
 725   1 H      0.109  0.891  0.000  0.000     1.706     2.042
 726   1 H      0.092  0.908  0.000  0.000     1.863     2.134
 727   1 H      0.180  0.820  0.000  0.000     1.216     1.727
 728   1 H      0.090  0.910  0.000  0.000     1.879     2.144
 729   1 H      0.190  0.810  0.000  0.000     1.158     1.686
 730   1 H      0.093  0.907  0.000  0.000     1.854     2.129
 731   1 H      0.165  0.835  0.000  0.000     1.306     1.790
 732   1 H      0.069  0.931  0.000  0.000     2.095     2.264
 733   1 H      0.184  0.816  0.000  0.000     1.191     1.709
 734   1 H      0.062  0.938  0.000  0.000     2.172     2.305
 735   1 H      0.174  0.826  0.000  0.000     1.249     1.751
 736   1 H      0.081  0.919  0.000  0.000     1.966     2.193
 737   1 H      0.190  0.810  0.000  0.000     1.158     1.686
 738   1 H      0.071  0.929  0.000  0.000     2.069     2.249

 Mol. C6AA /au·bohr⁶  :    5114207.300975
 Mol. C8AA /au·bohr⁸  :  116203476.579885
 Mol. α(0) /au        :       3388.434757

 
molecular dipole:
                 x           y           z       tot (Debye)
 q only:      -69.408     -72.319      97.704
   full:      -69.550     -71.210      94.347     348.601
molecular quadrupole (traceless):
                xx          xy          yy          xz          yz          zz
 q only:     3738.544   -7295.796    -593.649    6897.441    9992.170   -3144.895
  q+dip:     3450.869   -7251.202    -511.487    6673.919    9629.471   -2939.382
   full:     3463.017   -7250.473    -520.183    6672.904    9629.818   -2942.834
speedup  1.18
cpu  time for grad    2 m 22.0 s
wall time for grad    1 m 59.9 s

SCC energy    :   -1137.8510403
rep           :      13.4649286
ES            :       3.8364678
AES           :      -0.1353431
AXC           :       0.3678423
disp          :      -1.0293859
XB            :       0.0000000
fix           :       0.0000000
Gborn         :       0.0000000
Gsasa         :       0.0000000
Ghb           :       0.0000000
Gshift        :       0.0000000
Gsolv         :      -1.0796562     -677.49
Etot ala COSMO:   -1137.8510403
grad norm     :       0.6992444
total E       :   -1124.2746621
atomizationE  :     206.1310414   129349.18
(atE without considering molecular charge,
 total energy contains solvation terms)
H-L gap (eV)  :          1.1129

------------------------------------------------------------------------
 * finished run on 2019/05/04 at 19:11:33.255     
------------------------------------------------------------------------
 total:
 * wall-time:     0 d,  0 h,  2 min,  5.280 sec
 *  cpu-time:     0 d,  0 h,  2 min, 27.290 sec
 * ratio c/w:     1.176 speedup
 SCF:
 * wall-time:     0 d,  0 h,  2 min,  3.951 sec
 *  cpu-time:     0 d,  0 h,  2 min, 26.303 sec
 * ratio c/w:     1.180 speedup

