      -----------------------------------------------------------      
     |                   =====================                   |     
     |                           x T B                           |     
     |                   =====================                   |     
     |                         S. Grimme                         |     
     |          Mulliken Center for Theoretical Chemistry        |     
     |                    University of Bonn                     |     
     |                 Version 6.0.1 (SAW181210)                 |     
      -----------------------------------------------------------      

   This program is distributed in the hope that it will be useful,
   but WITHOUT ANY WARRANTY; without even the implied warranty of
   MERCHANTABILITY or FITNESS FOR A PARTICULAR PURPOSE.
   
   FOR NON-COMMERCIAL, ACADEMIA USE ONLY.
   
   Cite this work as:
   S. Grimme, C. Bannwarth, P. Shushkov, J. Comput. Theory Chem., 2017,
   13, 1989-2009.
   C. Bannwarth, S. Ehlert and S. Grimme., ChemRxiv, 2018, preprint.
   http://doi.org/10.26434/chemrxiv.7246238.v1
   
   for sTDA-xTB:
   S. Grimme and C. Bannwarth, J. Chem. Phys., 2016, 145, 054103.
   
   in the mass-spec context:
   V. Asgeirsson, C. Bauer and S. Grimme, Chem. Sci., 2017, 8, 4879.
   
   if GBSA is used:
   P. Shushkov, F. März and S. Grimme, unpublished.
   
   for ANC optimizer:
   S. Grimme, unpublished.
   Rational Function algorithm used in ANCopt:
   F. Eckert, P. Pulay, H.-J. Werner, J. Comput. Chem., 1997, 18, 1473.
   
   with help from (in alphabetical order)
   C. Bannwarth, F. Bohle, G. Brandenburg, E. Caldeweyher, M. Checinski,
   S. Dohm, S. Ehlert, S. Ehrlich, F. März, H. Neugebauer, J. Pisarek,
   P. Pracht, P. Shushkov, and S. Spicher.
   
 * started run on 2019/05/04 at 17:19:58.353     
========================================================================
 # omp threads = 2
========================================================================
number of atoms            : 796
number of electrons        : 2132
charge                     : 0
spin                       : .0
first test random number   : .8939

########################################################################
# WARNING! Please study the warnings concerning your input carefully
#  - Process number higher than OMP_NUM_THREADS, I hope you know what you are doing.
########################################################################

           ------------------------------------------------- 
          |                 G F N 2 - x T B                 |
          | Geometry, Frequencies, Noncovalent interactions |
          |            JCTC 2018 parametrisation            |
           ------------------------------------------------- 
 
      method parameters     
 k(s)        :  1.8500
 k(p)        :  2.2300
 k(d)        :  2.2300
 k(f)        :  2.0000
 kEN (H0ij)  : -2.0000
 D4 a1       :  0.5200
 D4 a2       :  5.0000
 D4 s6       :  1.0000
 D4 s8       :  2.7000
 D4 s9       :  5.0000
 alphaj      :  2.0000

 Solvent             : h2o
 Using internal parameter file: .param_gbsa2_h2o
 Gsolv ref. state (COSMO-RS): gsolv [1 M gas/solution]
 temperature (mdtemp)       :    298.150000000000     
 dielectric constant        :    80.2000000000000     
 rho                        :    1.00000000000000     
 mass                       :    18.0000000000000     
 surface tension            :    15.5689454083859     
 probe radius               :   0.975313790000000     
 vdW radii scaling          :    1.00000000000000     
 Gshift (Eh)                :   1.857443126794793E-003
 c1                         :    1.55243817000000     
 soset                      :   0.130326360000000     
 HB correction              :  T

            Z     q(EN)     CN     RAES       Cart. coordinates
     1  N   5.0   -0.21    3.19    1.95    95.70895    25.64736     3.17096
     2  C   4.0    0.02    4.39    4.37    95.30266    25.86846     5.90350
     3  C   4.0    0.14    3.47    3.10    97.79899    25.67571     7.33592
     4  O   6.0   -0.33    1.29    1.80    98.53787    27.38591     8.72109
     5  C   4.0   -0.03    4.35    4.29    93.53199    23.75952     6.93907
     6  C   4.0   -0.05    4.21    4.01    90.83724    24.13747     5.95831
     7  C   4.0   -0.07    4.15    3.90    93.57356    23.74441     9.83035
     8  C   4.0   -0.08    4.05    3.71    89.58246    26.52230     6.84270
     9  H   1.0    0.08    1.02    1.43    94.39370    24.58911     2.24121
    10  H   1.0    0.04    1.06    1.44    94.46362    27.72606     6.19830
    11  H   1.0    0.04    1.06    1.44    94.21796    21.93783     6.26633
    12  H   1.0    0.04    1.03    1.43    90.89015    24.19038     3.90039
    13  H   1.0    0.04    1.03    1.43    89.68072    22.55577     6.59325
    14  H   1.0    0.04    1.00    1.43    92.32256    22.25530    10.51066
    15  H   1.0    0.05    1.01    1.43    95.49919    23.39292    10.47097
    16  H   1.0    0.04    1.00    1.43    92.92727    25.57555    10.52010
    17  H   1.0    0.04    1.00    1.43    87.68517    26.61679     6.04712
    18  H   1.0    0.04    1.00    1.43    89.48041    26.50341     8.90061
    19  H   1.0    0.04    1.00    1.43    90.69173    28.13802     6.20964
    20  N   5.0   -0.15    3.52    2.09    99.10668    23.57622     6.95986
    21  C   4.0    0.03    4.48    4.51   101.47639    23.12836     8.26377
    22  C   4.0    0.16    3.47    3.10   103.58155    24.97651     7.55701
    23  O   6.0   -0.32    1.43    1.80   104.91381    25.92704     9.19541
    24  C   4.0   -0.04    4.09    3.78   102.29465    20.37314     7.83669
    25  S   6.0   -0.07    2.29    3.10   100.09689    18.03932     9.15005
    26  H   1.0    0.07    1.07    1.44    98.57944    22.15515     5.76933
    27  H   1.0    0.05    1.07    1.44   101.15136    23.43260    10.27444
    28  H   1.0    0.05    1.06    1.44   102.43637    20.03110     5.81091
    29  H   1.0    0.05    1.06    1.44   104.12768    20.08212     8.73053
    30  H   1.0    0.05    0.98    1.43   100.95483    15.78488     8.68707
    31  N   5.0   -0.15    3.51    2.08   103.88201    25.49240     5.13439
    32  C   4.0    0.04    4.44    4.45   105.82087    27.24040     4.33314
    33  C   4.0    0.18    3.54    3.14   105.83410    29.50240     6.09437
    34  O   6.0   -0.31    1.26    1.80   107.82965    30.32254     6.97876
    35  C   4.0    0.03    4.18    3.96   105.28797    28.14369     1.65729
    36  O   6.0   -0.25    2.07    1.83   106.82243    30.26207     1.06581
    37  H   1.0    0.07    1.06    1.44   102.82944    24.74218     3.70575
    38  H   1.0    0.06    1.05    1.44   107.65202    26.29554     4.34448
    39  H   1.0    0.04    1.01    1.43   105.70371    26.61868     0.33448
    40  H   1.0    0.04    1.02    1.43   103.30565    28.68415     1.50989
    41  H   1.0    0.12    1.01    1.43   106.47472    30.83466    -0.66140
    42  N   5.0   -0.13    3.50    2.08   103.56643    30.49073     6.56869
    43  C   4.0    0.03    4.40    4.38   103.14880    32.68659     8.20897
    44  C   4.0    0.16    3.48    3.11   104.07855    32.26140    10.90561
    45  O   6.0   -0.33    1.32    1.80   105.45427    33.81098    11.97708
    46  C   4.0   -0.05    4.40    4.39   100.32177    33.29508     8.31479
    47  C   4.0   -0.03    4.25    4.10    99.49974    34.98261    10.51066
    48  C   4.0   -0.08    4.13    3.87   100.16492    37.68869     9.90027
    49  C   4.0   -0.08    4.12    3.84    96.68594    34.72749    10.96608
    50  H   1.0    0.08    1.07    1.44   101.92615    29.80098     5.82791
    51  H   1.0    0.05    1.05    1.44   104.20327    34.25695     7.39450
    52  H   1.0    0.04    1.04    1.43    99.80210    34.25884     6.57058
    53  H   1.0    0.06    1.05    1.44    99.28431    31.52252     8.47731
    54  H   1.0    0.04    1.08    1.44   100.47106    34.41758    12.23787
    55  H   1.0    0.03    1.00    1.43    99.57911    38.89245    11.46497
    56  H   1.0    0.04    1.00    1.43   102.20205    37.83420     9.62626
    57  H   1.0    0.04    1.00    1.43    99.18416    38.24805     8.17873
    58  H   1.0    0.04    1.00    1.43    96.14737    35.94637    12.53644
    59  H   1.0    0.04    1.00    1.43    95.67682    35.29252     9.26155
    60  H   1.0    0.04    1.00    1.43    96.25508    32.76407    11.41961
    61  N   5.0   -0.14    3.58    2.14   103.25841    30.14680    11.97897
    62  C   4.0    0.03    4.52    4.56   103.91036    29.43815    14.53955
    63  C   4.0    0.16    3.50    3.12   106.71282    28.82021    14.87403
    64  O   6.0   -0.33    1.33    1.80   107.82965    29.47972    16.79210
    65  C   4.0   -0.03    4.31    4.21   102.31354    27.16292    15.39182
    66  C   4.0   -0.07    4.23    4.06    99.84934    27.11190    13.91972
    67  C   4.0   -0.07    4.22    4.03   103.76674    24.73462    15.04411
    68  H   1.0    0.09    1.12    1.45   102.11701    28.86367    11.10214
    69  H   1.0    0.04    1.09    1.44   103.49462    31.08977    15.69984
    70  H   1.0    0.04    1.06    1.44   101.87324    27.33867    17.39682
    71  H   1.0    0.04    1.00    1.43    98.73251    25.49429    14.53766
    72  H   1.0    0.04    1.02    1.43    98.81755    28.85800    14.28066
    73  H   1.0    0.07    1.06    1.44   100.27264    26.94749    11.91094
    74  H   1.0    0.04    1.00    1.43   102.59511    23.15670    15.66205
    75  H   1.0    0.06    1.02    1.43   104.24295    24.51730    13.05234
    76  H   1.0    0.05    1.02    1.43   105.48828    24.81588    16.17416
    77  N   5.0   -0.14    3.52    2.09   107.86934    27.55598    13.03722
    78  C   4.0    0.04    4.41    4.40   110.53574    26.90592    13.29611
    79  C   4.0    0.16    3.39    3.08   112.31775    29.11879    12.78022
    80  O   6.0   -0.29    1.23    1.80   114.31708    29.29264    13.95374
    81  C   4.0   -0.03    4.26    4.12   111.22927    24.66470    11.56890
    82  C   4.0   -0.03    4.16    3.91   110.17669    22.09279    12.42117
    83  C   4.0    0.25    3.10    3.02   110.72471    19.94039    10.55979
    84  O   6.0   -0.28    1.18    1.80   111.22171    20.47329     8.30724
    85  O   6.0   -0.28    1.16    1.80   110.61133    17.70862    11.34591
    86  H   1.0    0.12    1.12    1.45   107.04164    26.97206    11.39694
    87  H   1.0    0.06    1.07    1.44   110.82676    26.32577    15.25009
    88  H   1.0    0.07    1.03    1.43   110.49039    25.04076     9.68296
    89  H   1.0    0.06    1.03    1.43   113.28151    24.50219    11.50276
    90  H   1.0    0.05    1.03    1.43   111.02707    21.59390    14.22964
    91  H   1.0    0.05    1.03    1.43   108.13201    22.24585    12.62337
    92  N   5.0   -0.13    3.48    2.06   111.59210    30.82521    11.07757
    93  C   4.0    0.04    4.45    4.45   113.22860    32.95304    10.41995
    94  C   4.0    0.14    3.40    3.08   112.55775    35.50795    11.56134
    95  O   6.0   -0.31    1.25    1.80   114.16590    37.17847    11.76921
    96  C   4.0   -0.03    4.34    4.27   113.40056    33.13634     7.55890
    97  C   4.0    0.16    3.25    3.04   114.57030    30.80253     6.41373
    98  O   6.0   -0.28    1.20    1.80   116.79451    30.24317     6.85593
    99  N   5.0   -0.17    3.18    1.95   113.07742    29.39469     4.96998
   100  H   1.0    0.11    1.08    1.44   109.91024    30.78742    10.13649
   101  H   1.0    0.08    1.08    1.44   115.10132    32.56754    11.18529
   102  H   1.0    0.05    1.04    1.43   111.50706    33.35744     6.77845
   103  H   1.0    0.05    1.04    1.43   114.56653    34.75773     7.05246
   104  H   1.0    0.10    1.02    1.43   113.76528    27.79409     4.14606
   105  H   1.0    0.10    1.04    1.43   111.24250    29.91436     4.68652
   106  N   5.0   -0.14    3.50    2.07   110.19370    35.81787    12.31345
   107  C   4.0    0.04    4.53    4.58   109.41702    38.16868    13.48508
   108  C   4.0    0.14    3.47    3.10   108.71782    37.69436    16.24408
   109  O   6.0   -0.32    1.35    1.80   110.24283    38.18947    17.93539
   110  C   4.0   -0.03    4.38    4.35   107.15880    39.35921    12.08102
   111  C   4.0   -0.04    4.21    4.03   108.02807    40.27573     9.48453
   112  C   4.0   -0.08    4.17    3.94   106.08166    41.54940    13.59658
   113  C   4.0   -0.08    4.02    3.66   105.97961    41.56452     7.94252
   114  H   1.0    0.12    1.10    1.44   108.79908    34.49695    12.13960
   115  H   1.0    0.06    1.07    1.44   111.01006    39.47449    13.41894
   116  H   1.0    0.05    1.07    1.44   105.68481    37.94003    11.85047
   117  H   1.0    0.04    1.03    1.43   109.55875    41.62877     9.74343
   118  H   1.0    0.05    1.03    1.43   108.69515    38.65434     8.40361
   119  H   1.0    0.03    1.00    1.43   104.49051    42.35821    12.56857
   120  H   1.0    0.04    1.02    1.43   105.45049    40.85021    15.42961
   121  H   1.0    0.04    1.00    1.43   107.54808    42.97237    13.85358
   122  H   1.0    0.05    1.00    1.43   106.77141    42.15034     6.13405
   123  H   1.0    0.04    1.00    1.43   104.43570    40.23604     7.63638
   124  H   1.0    0.03    1.00    1.43   105.29742    43.21047     8.97620
   125  N   5.0   -0.14    3.49    2.07   106.44448    36.67958    16.66549
   126  C   4.0    0.03    4.44    4.44   105.42592    36.15046    19.19962
   127  C   4.0    0.16    3.44    3.09   107.30809    35.10544    21.16493
   128  O   6.0   -0.31    1.30    1.80   107.95059    36.39990    22.98852
   129  C   4.0   -0.03    4.33    4.26   103.12612    34.30231    19.05033
   130  C   4.0   -0.05    4.27    4.14   101.46883    34.90702    16.75053
   131  C   4.0   -0.08    4.13    3.87   101.54631    34.48939    21.47674
   132  C   4.0   -0.09    4.05    3.70    99.70194    37.12367    17.09068
   133  H   1.0    0.08    1.12    1.45   105.22561    36.18636    15.25576
   134  H   1.0    0.04    1.06    1.44   104.91758    38.02318    19.89126
   135  H   1.0    0.04    1.06    1.44   103.85367    32.38612    18.84813
   136  H   1.0    0.04    1.07    1.44   102.69905    35.33599    15.15371
   137  H   1.0    0.03    1.03    1.43   100.31421    33.25540    16.32534
   138  H   1.0    0.04    1.00    1.43    99.95327    33.19115    21.34068
   139  H   1.0    0.04    1.00    1.43   102.72739    33.98483    23.08678
   140  H   1.0    0.03    1.01    1.43   100.86223    36.42069    21.68461
   141  H   1.0    0.03    1.00    1.43    98.61913    37.39012    15.35969
   142  H   1.0    0.03    1.01    1.43    98.42827    36.73249    18.66104
   143  H   1.0    0.03    1.00    1.43   100.81310    38.81119    17.49130
   144  N   5.0   -0.15    3.49    2.07   108.16035    32.76407    20.81533
   145  C   4.0    0.03    4.43    4.43   109.92347    31.61134    22.59356
   146  C   4.0    0.16    3.57    3.15   112.07209    33.40658    23.18694
   147  O   6.0   -0.29    1.28    1.80   112.63145    33.86578    25.37146
   148  C   4.0   -0.04    4.30    4.19   110.94959    29.07721    21.59201
   149  C   4.0   -0.04    4.02    3.65   109.05986    26.86245    21.85090
   150  S   6.0   -0.03    2.38    3.10   110.27496    23.68771    21.16304
   151  C   4.0   -0.04    3.86    3.40   111.27840    22.60490    24.30754
   152  H   1.0    0.11    1.11    1.45   107.67092    31.63023    19.33568
   153  H   1.0    0.05    1.06    1.44   108.86711    31.14835    24.29999
   154  H   1.0    0.06    1.04    1.43   111.40312    29.28886    19.59457
   155  H   1.0    0.05    1.03    1.43   112.64656    28.58399    22.65026
   156  H   1.0    0.04    1.07    1.44   108.37011    26.83411    23.79165
   157  H   1.0    0.05    1.07    1.44   107.49706    27.20261    20.55266
   158  H   1.0    0.07    1.03    1.43   112.05130    20.70195    24.14692
   159  H   1.0    0.05    1.03    1.43   112.71837    23.88803    25.03131
   160  H   1.0    0.07    1.03    1.43   109.64757    22.59734    25.56610
   161  N   5.0   -0.09    3.73    2.31   113.30230    34.46293    21.25564
   162  C   4.0    0.04    4.64    4.71   115.36777    36.20526    21.81500
   163  C   4.0    0.16    3.48    3.11   114.47204    38.36333    23.51386
   164  O   6.0   -0.31    1.40    1.80   115.56430    38.81308    25.51697
   165  C   4.0   -0.04    4.43    4.42   116.14823    37.12745    19.21095
   166  C   4.0   -0.03    4.34    4.28   115.69469    34.87300    17.61980
   167  C   4.0    0.01    4.43    4.43   113.15490    33.95838    18.52876
   168  H   1.0    0.05    1.05    1.44   116.96081    35.22260    22.67482
   169  H   1.0    0.05    1.03    1.43   114.97660    38.71671    18.62514
   170  H   1.0    0.04    1.03    1.43   118.13433    37.67547    19.20151
   171  H   1.0    0.07    1.03    1.43   115.63800    35.39646    15.62803
   172  H   1.0    0.05    1.03    1.43   117.16112    33.46138    17.93539
   173  H   1.0    0.08    1.09    1.44   111.62422    35.02607    17.65571
   174  H   1.0    0.05    1.03    1.43   112.91302    31.94771    18.15649
   175  N   5.0   -0.13    3.47    2.06   112.47460    39.68424    22.72773
   176  C   4.0    0.03    4.42    4.41   111.49005    41.81775    24.20361
   177  C   4.0    0.15    3.59    3.16   111.31620    41.03729    26.94938
   178  O   6.0   -0.32    1.41    1.80   112.75995    41.94436    28.53864
   179  C   4.0   -0.05    4.38    4.34   108.88412    42.65867    23.22851
   180  C   4.0   -0.02    4.20    4.00   108.86711    43.88511    20.59234
   181  C   4.0   -0.08    4.12    3.83   106.17803    44.21581    19.68150
   182  C   4.0   -0.08    4.14    3.88   110.20315    46.40789    20.65093
   183  H   1.0    0.11    1.09    1.44   111.50517    39.33276    21.09879
   184  H   1.0    0.04    1.06    1.44   112.75239    43.43535    24.01653
   185  H   1.0    0.05    1.04    1.43   107.66147    41.00327    23.14347
   186  H   1.0    0.03    1.03    1.43   108.11311    44.03628    24.55132
   187  H   1.0    0.05    1.06    1.44   109.86489    42.66056    19.27143
   188  H   1.0    0.03    1.00    1.43   106.20449    45.08508    17.81445
   189  H   1.0    0.04    1.00    1.43   105.27096    42.36955    19.58323
   190  H   1.0    0.03    1.00    1.43   105.16514    45.42523    21.00619
   191  H   1.0    0.03    1.00    1.43   110.16157    47.23181    18.76309
   192  H   1.0    0.04    1.00    1.43   109.23561    47.64755    21.98129
   193  H   1.0    0.04    1.01    1.43   112.15335    46.12065    21.24997
   194  N   5.0   -0.14    3.55    2.11   109.57576    39.30819    27.47851
   195  C   4.0    0.03    4.49    4.53   109.19592    38.34065    30.02964
   196  C   4.0    0.16    3.50    3.11   111.73194    37.75106    31.29386
   197  O   6.0   -0.28    1.27    1.80   111.89634    37.54508    33.59933
   198  C   4.0   -0.02    4.34    4.27   107.58210    35.89912    29.98428
   199  C   4.0   -0.05    4.21    4.03   105.09144    36.38856    28.58588
   200  C   4.0   -0.07    4.14    3.88   107.12856    34.97883    32.67525
   201  C   4.0   -0.08    4.01    3.64   103.45872    34.05097    28.21172
   202  H   1.0    0.10    1.10    1.44   108.38901    38.53340    26.17081
   203  H   1.0    0.04    1.05    1.44   108.24728    39.81464    31.11056
   204  H   1.0    0.06    1.06    1.44   108.59499    34.42136    28.96761
   205  H   1.0    0.04    1.03    1.43   103.98784    37.75106    29.66681
   206  H   1.0    0.05    1.04    1.44   105.52419    37.15012    26.72261
   207  H   1.0    0.04    1.00    1.43   105.99284    33.26107    32.61478
   208  H   1.0    0.07    1.01    1.43   108.94459    34.58765    33.56531
   209  H   1.0    0.04    1.00    1.43   106.13268    36.44336    33.72594
   210  H   1.0    0.04    1.00    1.43   101.74285    34.58576    27.20638
   211  H   1.0    0.04    1.00    1.43   104.51318    32.66580    27.11190
   212  H   1.0    0.04    1.00    1.43   102.97873    33.26674    30.05420
   213  N   5.0   -0.11    3.55    2.11   113.70670    37.50539    29.76318
   214  C   4.0    0.04    4.28    4.16   116.18602    36.91202    30.76285
   215  C   4.0    0.17    3.32    3.06   117.78662    39.15512    31.54897
   216  O   6.0   -0.27    1.24    1.80   119.32486    38.93402    33.28185
   217  H   1.0    0.13    1.18    1.46   113.64245    37.70570    27.84700
   218  H   1.0    0.08    1.04    1.43   115.95169    35.71015    32.41825
   219  H   1.0    0.05    1.03    1.43   117.23860    35.87645    29.32666
   220  N   5.0   -0.13    3.53    2.10   117.47481    41.30752    30.29042
   221  C   4.0    0.04    4.43    4.43   118.96203    43.52795    30.96316
   222  C   4.0    0.15    3.41    3.08   117.51261    45.22492    32.75840
   223  O   6.0   -0.29    1.23    1.80   118.57463    47.05040    33.73350
   224  C   4.0   -0.04    4.27    4.14   119.74437    45.03028    28.60478
   225  C   4.0   -0.05    4.21    4.02   121.69646    43.69046    26.96072
   226  C   4.0   -0.05    4.18    3.95   122.54684    45.30051    24.73840
   227  C   4.0   -0.04    4.14    3.88   124.17200    43.75849    22.93182
   228  N   5.0   -0.12    4.02    2.91   126.37920    42.57553    24.20739
   229  H   1.0    0.12    1.10    1.44   116.23893    41.56452    28.83344
   230  H   1.0    0.07    1.07    1.44   120.71947    42.93268    31.85889
   231  H   1.0    0.05    1.03    1.43   118.07197    45.36287    27.44827
   232  H   1.0    0.05    1.03    1.43   120.55507    46.82552    29.20382
   233  H   1.0    0.04    1.03    1.43   123.35375    43.25016    28.10211
   234  H   1.0    0.05    1.03    1.43   120.87443    41.95570    26.21617
   235  H   1.0    0.04    1.03    1.43   120.89711    45.98648    23.71228
   236  H   1.0    0.05    1.03    1.43   123.65989    46.89166    25.42626
   237  H   1.0    0.04    1.02    1.43   123.02683    42.25427    22.11357
   238  H   1.0    0.03    1.03    1.43   124.88065    44.99437    21.44461
   239  H   1.0    0.05    1.01    1.43   127.63209    41.87255    22.86757
   240  H   1.0    0.05    1.02    1.43   127.30895    43.90778    25.31477
   241  H   1.0    0.05    1.02    1.43   125.78016    41.09776    25.35634
   242  N   5.0   -0.13    3.46    2.05   115.10699    44.60698    33.20815
   243  C   4.0    0.04    4.43    4.44   113.52718    46.11687    34.89946
   244  C   4.0    0.14    3.42    3.08   112.39523    44.72225    37.20303
   245  O   6.0   -0.28    1.32    1.80   113.70481    44.38777    39.09843
   246  C   4.0   -0.02    4.32    4.24   111.38612    47.53039    33.38957
   247  C   4.0   -0.05    4.30    4.20   109.54930    45.66334    32.15936
   248  C   4.0   -0.07    4.11    3.83   112.57286    49.19902    31.33544
   249  C   4.0   -0.08    4.02    3.65   107.25329    46.93512    30.93103
   250  H   1.0    0.10    1.07    1.44   114.20937    43.08575    32.43526
   251  H   1.0    0.07    1.08    1.44   114.85565    47.44157    35.74795
   252  H   1.0    0.04    1.05    1.44   110.33543    48.68879    34.72938
   253  H   1.0    0.06    1.04    1.43   110.54897    44.61643    30.69293
   254  H   1.0    0.03    1.25    1.48   108.85577    44.36699    33.60122
   255  H   1.0    0.04    1.00    1.43   111.07242    50.16655    30.30742
   256  H   1.0    0.05    1.00    1.43   113.81441    50.57852    32.22739
   257  H   1.0    0.05    1.00    1.43   113.65379    48.01038    30.04664
   258  H   1.0    0.04    1.00    1.43   106.04575    45.48570    30.10522
   259  H   1.0    0.04    1.00    1.43   106.21394    47.97825    32.37101
   260  H   1.0    0.04    1.00    1.43   107.90713    48.22581    29.46461
   261  N   5.0   -0.15    3.53    2.10   110.00473    43.92479    37.06320
   262  C   4.0    0.04    4.38    4.35   108.73861    42.62844    39.17780
   263  C   4.0    0.16    3.43    3.09   110.34488    40.67635    40.59698
   264  O   6.0   -0.29    1.24    1.80   109.59844    39.81842    42.62088
   265  C   4.0   -0.03    4.31    4.21   106.30842    41.29429    38.29719
   266  C   4.0   -0.02    3.49    3.11   104.05965    43.03284    37.86822
   267  C   4.0   -0.05    3.44    3.09   104.08800    44.86776    35.97093
   268  C   4.0   -0.04    3.43    3.09   101.83166    42.69647    39.24772
   269  C   4.0   -0.05    3.34    3.06   101.92615    46.34931    35.45693
   270  C   4.0   -0.04    3.34    3.06    99.66793    44.16479    38.75072
   271  C   4.0   -0.04    3.33    3.06    99.71517    45.98081    36.84399
   272  H   1.0    0.06    1.29    1.49   108.88223    44.14400    35.51173
   273  H   1.0    0.06    1.06    1.44   108.32098    44.14211    40.51006
   274  H   1.0    0.05    1.03    1.43   106.69771    40.33620    36.51517
   275  H   1.0    0.05    1.04    1.43   105.76229    39.92046    39.73149
   276  H   1.0    0.04    1.06    1.44   105.78875    45.15878    34.88056
   277  H   1.0    0.05    1.03    1.43   101.76930    41.28484    40.72170
   278  H   1.0    0.04    1.02    1.43   101.98662    47.76660    33.99050
   279  H   1.0    0.05    1.02    1.43    97.97095    43.88322    39.84865
   280  H   1.0    0.05    1.03    1.43    98.05221    47.09386    36.44336
   281  N   5.0   -0.10    3.45    2.05   112.50672    39.94692    39.53307
   282  C   4.0    0.03    4.26    4.12   114.12244    38.09876    40.77651
   283  C   4.0    0.16    3.30    3.05   115.68146    36.46604    38.99072
   284  O   6.0   -0.25    1.27    1.80   115.68713    36.91013    36.70793
   285  H   1.0    0.12    1.10    1.44   113.17191    40.59320    37.84365
   286  H   1.0    0.06    1.03    1.43   115.43013    39.09087    42.01995
   287  H   1.0    0.06    1.04    1.43   112.94514    36.84210    41.90656
   288  N   5.0   -0.13    3.41    2.03   117.00049    34.57821    40.02251
   289  C   4.0    0.04    4.38    4.34   118.57085    32.87178    38.49939
   290  C   4.0    0.17    3.42    3.09   116.96270    31.07465    36.91391
   291  O   6.0   -0.26    1.25    1.80   114.78384    30.55687    37.53563
   292  C   4.0    0.03    4.15    3.89   120.35287    31.33544    40.19069
   293  O   6.0   -0.25    2.05    1.83   121.86276    29.66870    38.72993
   294  H   1.0    0.08    1.06    1.44   117.02506    34.17569    41.90845
   295  H   1.0    0.06    1.06    1.44   119.70280    34.01129    37.21059
   296  H   1.0    0.04    1.01    1.43   121.58497    32.62990    41.21492
   297  H   1.0    0.05    1.01    1.43   119.23037    30.23184    41.51917
   298  H   1.0    0.12    1.01    1.43   122.99281    28.70494    39.83542
   299  N   5.0   -0.14    3.43    2.04   118.06630    30.09767    34.88056
   300  C   4.0    0.04    4.48    4.51   116.70758    28.42148    33.17414
   301  C   4.0    0.16    3.45    3.10   115.64367    25.96483    34.28530
   302  O   6.0   -0.27    1.24    1.80   113.36844    25.77964    34.74261
   303  C   4.0   -0.03    4.28    4.16   118.34409    27.80165    30.80442
   304  C   4.0   -0.07    4.18    3.95   120.82908    26.56766    31.57732
   305  C   4.0   -0.06    4.13    3.86   116.85309    26.12546    28.99595
   306  H   1.0    0.08    1.07    1.44   119.89366    30.43215    34.36845
   307  H   1.0    0.07    1.07    1.44   115.01439    29.50240    32.72060
   308  H   1.0    0.04    1.06    1.44   118.81274    29.54775    29.81799
   309  H   1.0    0.04    1.00    1.43   121.92890    26.15759    29.88413
   310  H   1.0    0.05    1.00    1.43   121.87032    27.86212    32.79619
   311  H   1.0    0.04    1.08    1.44   120.42279    24.82155    32.59210
   312  H   1.0    0.05    1.00    1.43   118.02094    25.70972    27.35000
   313  H   1.0    0.07    1.02    1.43   116.35043    24.37746    29.96160
   314  H   1.0    0.05    1.00    1.43   115.14667    27.11946    28.41203
   315  N   5.0   -0.13    3.51    2.08   117.24616    24.08456    34.72938
   316  C   4.0    0.04    4.45    4.46   116.31263    21.68461    35.70826
   317  C   4.0    0.14    3.38    3.07   117.76205    20.51109    37.90034
   318  O   6.0   -0.29    1.22    1.80   119.85776    21.29343    38.54285
   319  C   4.0   -0.03    4.29    4.19   116.13311    19.76275    33.55019
   320  C   4.0    0.25    3.13    3.03   113.84087    20.18983    31.87212
   321  O   6.0   -0.27    1.17    1.80   111.69792    19.84023    32.81131
   322  O   6.0   -0.29    1.18    1.80   114.17535    20.86824    29.62523
   323  H   1.0    0.08    1.12    1.45   119.14911    24.16582    34.43648
   324  H   1.0    0.07    1.09    1.44   114.49094    22.13436    36.55675
   325  H   1.0    0.05    1.03    1.43   117.81874    19.91204    32.37667
   326  H   1.0    0.05    1.04    1.43   115.99516    17.86925    34.34766
   327  N   5.0   -0.14    3.50    2.08   116.58097    18.59490    39.01906
   328  C   4.0    0.04    4.30    4.19   117.60898    17.18517    41.15256
   329  C   4.0    0.07    3.21    3.04   116.42980    14.53388    41.12611
   330  O   6.0   -0.29    1.15    1.80   114.19236    14.22397    41.68357
   331  C   4.0   -0.02    4.32    4.23   117.00238    18.59112    43.62243
   332  C   4.0   -0.00    3.56    3.14   114.34165    19.62102    43.74905
   333  C   4.0   -0.02    3.48    3.10   112.36877    18.16216    44.69013
   334  C   4.0   -0.03    3.46    3.10   113.80497    22.04743    42.89489
   335  C   4.0   -0.04    3.36    3.07   109.90079    19.10324    44.78462
   336  C   4.0   -0.03    3.36    3.07   111.34643    22.99985    42.98371
   337  C   4.0   -0.04    3.36    3.07   109.39435    21.51831    43.93235
   338  H   1.0    0.09    1.07    1.44   114.84809    17.95240    38.47104
   339  H   1.0    0.05    1.05    1.44   119.64989    16.96974    40.96926
   340  H   1.0    0.04    1.03    1.43   117.24616    17.28910    45.20035
   341  H   1.0    0.05    1.03    1.43   118.29873    20.18038    43.81330
   342  H   1.0    0.07    1.03    1.43   112.74861    16.27243    45.35909
   343  H   1.0    0.06    1.03    1.43   115.30919    23.20961    42.15412
   344  H   1.0    0.05    1.03    1.43   108.39279    17.94295    45.52350
   345  H   1.0    0.06    1.03    1.43   110.96093    24.88958    42.31474
   346  H   1.0    0.05    1.03    1.43   107.49139    22.25152    44.00227
   347  N   5.0   -0.22    3.24    1.96   107.35344     8.64172    36.18069
   348  C   4.0    0.03    4.35    4.28   108.08477    10.44074    34.25884
   349  C   4.0    0.15    3.45    3.09   106.28197    10.38026    32.02897
   350  O   6.0   -0.28    1.34    1.80   105.33899    12.31156    31.22583
   351  C   4.0   -0.04    4.33    4.26   110.75117     9.84547    33.41602
   352  C   4.0   -0.02    4.22    4.05   112.02106    11.89582    31.91747
   353  C   4.0    0.15    3.21    3.04   114.66290    11.10214    31.02930
   354  O   6.0   -0.28    1.19    1.80   116.35232    10.54656    32.56565
   355  N   5.0   -0.18    3.16    1.95   115.02762    11.03789    28.53297
   356  H   1.0    0.08    1.03    1.43   108.83121     7.67040    36.94603
   357  H   1.0    0.05    1.06    1.44   108.04508    12.34558    35.04308
   358  H   1.0    0.05    1.04    1.43   111.90201     9.49965    35.08843
   359  H   1.0    0.05    1.04    1.43   110.70015     8.15795    32.23495
   360  H   1.0    0.07    1.04    1.43   110.88345    12.32479    30.25451
   361  H   1.0    0.06    1.03    1.43   112.21382    13.57579    33.09288
   362  H   1.0    0.09    1.02    1.43   113.58954    11.50276    27.33678
   363  H   1.0    0.10    1.02    1.43   116.74349    10.52388    27.82244
   364  N   5.0   -0.15    3.51    2.08   105.77363     8.13527    31.05387
   365  C   4.0    0.04    4.40    4.39   104.07477     7.85748    28.90147
   366  C   4.0    0.17    3.46    3.10   101.44238     8.84770    29.49484
   367  O   6.0   -0.31    1.24    1.80   100.07422     9.69429    27.81677
   368  C   4.0    0.03    4.15    3.91   103.87257     5.07013    28.13613
   369  O   6.0   -0.25    2.04    1.83   102.43071     3.65284    29.90869
   370  H   1.0    0.07    1.06    1.44   106.49929     6.47231    31.70204
   371  H   1.0    0.06    1.06    1.44   104.85900     8.92896    27.32733
   372  H   1.0    0.05    1.01    1.43   102.95794     4.95297    26.29365
   373  H   1.0    0.04    1.02    1.43   105.76796     4.27078    28.03408
   374  H   1.0    0.11    1.01    1.43   103.35478     3.50922    31.50740
   375  N   5.0   -0.14    3.55    2.11   100.72239     8.70219    31.89290
   376  C   4.0    0.03    4.52    4.56    98.23362     9.56201    32.69982
   377  C   4.0    0.15    3.49    3.11    98.27709    12.42495    32.96249
   378  O   6.0   -0.33    1.41    1.80    96.61602    13.76287    32.00629
   379  C   4.0   -0.03    4.29    4.17    97.49474     8.38660    35.27362
   380  C   4.0   -0.08    4.11    3.82    94.75275     9.04423    35.89912
   381  C   4.0   -0.07    4.12    3.84    97.87647     5.52934    35.20748
   382  H   1.0    0.08    1.07    1.44   101.81276     8.00110    33.31965
   383  H   1.0    0.05    1.06    1.44    96.85790     8.96675    31.28630
   384  H   1.0    0.04    1.06    1.44    98.70039     9.15383    36.75706
   385  H   1.0    0.04    1.00    1.43    94.25953     8.20519    37.71515
   386  H   1.0    0.05    1.00    1.43    94.56000    11.09269    35.99739
   387  H   1.0    0.04    1.00    1.43    93.53010     8.29401    34.42136
   388  H   1.0    0.04    1.00    1.43    97.34545     4.73943    37.03485
   389  H   1.0    0.04    1.00    1.43    96.69161     4.72809    33.72594
   390  H   1.0    0.04    1.00    1.43    99.85879     5.12683    34.81631
   391  N   5.0   -0.14    3.52    2.09   100.20650    13.32635    34.29097
   392  C   4.0    0.03    4.48    4.50   100.60523    16.01165    34.74450
   393  C   4.0    0.16    3.50    3.11   100.35957    17.42894    32.23683
   394  O   6.0   -0.33    1.30    1.80    99.17471    19.42827    32.08755
   395  C   4.0   -0.02    4.33    4.25   103.25274    16.39526    35.98038
   396  C   4.0   -0.06    4.19    3.98   103.09589    15.61670    38.77529
   397  C   4.0   -0.06    4.12    3.84   104.20705    19.08623    35.59866
   398  C   4.0   -0.07    4.01    3.64   105.60356    15.52599    40.13967
   399  H   1.0    0.07    1.07    1.44   101.56143    12.21897    35.09977
   400  H   1.0    0.04    1.05    1.44    99.18605    16.74864    36.04463
   401  H   1.0    0.06    1.06    1.44   104.64168    15.18773    35.05631
   402  H   1.0    0.04    1.03    1.43   101.90158    16.97163    39.76550
   403  H   1.0    0.04    1.03    1.43   102.26441    13.73453    38.88300
   404  H   1.0    0.05    1.00    1.43   106.05520    19.27520    36.48683
   405  H   1.0    0.06    1.01    1.43   104.35634    19.46418    33.57854
   406  H   1.0    0.04    1.00    1.43   102.87479    20.39959    36.46226
   407  H   1.0    0.04    1.00    1.43   105.28419    14.95718    42.09365
   408  H   1.0    0.04    1.00    1.43   106.82810    14.15972    39.20236
   409  H   1.0    0.05    1.00    1.43   106.46527    17.39682    40.08298
   410  N   5.0   -0.13    3.56    2.12   101.45183    16.33101    30.26585
   411  C   4.0    0.04    4.42    4.41   101.36490    17.41760    27.74307
   412  C   4.0    0.15    3.51    3.12    98.74196    16.92817    26.63758
   413  O   6.0   -0.33    1.62    1.81    97.76308    18.46640    25.21272
   414  C   4.0   -0.03    4.27    4.14   103.41903    16.21385    26.08767
   415  C   4.0    0.25    3.12    3.03   106.09488    16.77699    27.03631
   416  O   6.0   -0.29    1.17    1.80   107.13234    18.80277    26.39191
   417  O   6.0   -0.26    1.23    1.80   107.16069    15.19340    28.44227
   418  H   1.0    0.11    1.09    1.44   102.42315    14.66805    30.35467
   419  H   1.0    0.05    1.07    1.44   101.74851    19.44150    27.77141
   420  H   1.0    0.06    1.03    1.43   103.16203    14.16917    26.08011
   421  H   1.0    0.05    1.03    1.43   103.25463    16.95084    24.17148
   422  N   5.0   -0.13    3.64    2.20    97.60624    14.77577    27.28953
   423  C   4.0    0.04    4.48    4.51    95.06833    14.19373    26.36357
   424  C   4.0    0.16    3.64    3.19    93.55088    16.45573    27.16103
   425  O   6.0   -0.31    1.25    1.80    91.80289    17.29288    25.85712
   426  C   4.0   -0.03    4.37    4.32    93.93450    11.87693    27.66937
   427  C   4.0   -0.01    3.56    3.14    91.16794    11.50276    27.08733
   428  C   4.0   -0.04    3.46    3.10    90.41016    10.01177    25.05966
   429  C   4.0   -0.03    3.47    3.10    89.32357    12.71975    28.50463
   430  C   4.0   -0.04    3.36    3.07    87.86470     9.76988    24.42849
   431  C   4.0   -0.04    3.37    3.07    86.78000    12.48542    27.88102
   432  C   4.0   -0.04    3.36    3.07    86.05245    11.00009    25.84956
   433  H   1.0    0.11    1.10    1.44    98.37346    13.42461    28.43093
   434  H   1.0    0.05    1.05    1.44    95.06644    13.77799    24.34723
   435  H   1.0    0.05    1.03    1.43    94.94739    10.19507    27.04387
   436  H   1.0    0.06    1.06    1.44    94.12914    12.09803    29.70838
   437  H   1.0    0.05    1.03    1.43    91.81611     9.02533    23.95606
   438  H   1.0    0.05    1.03    1.43    89.86970    13.85925    30.10711
   439  H   1.0    0.05    1.03    1.43    87.31101     8.62471    22.83356
   440  H   1.0    0.05    1.03    1.43    85.36837    13.46430    28.98273
   441  H   1.0    0.05    1.03    1.43    84.07580    10.80545    25.37902
   442  N   5.0   -0.13    3.63    2.19    94.25764    17.38548    29.38335
   443  C   4.0    0.04    4.49    4.52    93.05766    19.56433    30.49640
   444  C   4.0    0.15    3.46    3.10    93.77009    21.92838    28.99973
   445  O   6.0   -0.32    1.26    1.80    92.07501    23.19828    28.03408
   446  C   4.0   -0.02    4.33    4.26    93.74364    19.80811    33.35555
   447  C   4.0   -0.05    4.20    4.00    92.37547    17.72941    34.86544
   448  C   4.0   -0.07    4.17    3.93    92.97263    22.36869    34.35711
   449  C   4.0   -0.08    4.02    3.66    92.56634    17.97885    37.72271
   450  H   1.0    0.12    1.14    1.45    95.67682    16.65227    30.46238
   451  H   1.0    0.05    1.06    1.44    91.01487    19.33001    30.39246
   452  H   1.0    0.07    1.08    1.44    95.78265    19.59646    33.55775
   453  H   1.0    0.04    1.03    1.43    90.37614    17.77476    34.37412
   454  H   1.0    0.05    1.03    1.43    93.18617    15.90771    34.34955
   455  H   1.0    0.04    1.01    1.43    93.47151    22.48585    36.35266
   456  H   1.0    0.05    1.01    1.43    93.96473    23.82944    33.29697
   457  H   1.0    0.04    1.00    1.43    90.93739    22.59356    34.12656
   458  H   1.0    0.04    1.00    1.43    91.54021    16.42361    38.60143
   459  H   1.0    0.04    1.00    1.43    94.55055    17.90893    38.27073
   460  H   1.0    0.04    1.00    1.43    91.74242    19.77787    38.29530
   461  N   5.0   -0.14    3.46    2.05    96.20784    22.51042    28.70116
   462  C   4.0    0.03    4.46    4.47    96.85412    24.79320    27.25363
   463  C   4.0    0.15    3.39    3.07    96.31744    24.59856    24.37935
   464  O   6.0   -0.32    1.25    1.80    95.97351    26.51852    23.12080
   465  C   4.0   -0.03    4.33    4.26    99.65281    25.69460    27.73929
   466  C   4.0   -0.04    4.26    4.13   101.52553    24.12991    26.25207
   467  C   4.0   -0.07    4.19    3.98   100.31988    25.45650    30.50207
   468  C   4.0   -0.07    4.08    3.76   104.17870    25.00296    26.68860
   469  H   1.0    0.10    1.08    1.44    97.69883    21.50319    29.39469
   470  H   1.0    0.05    1.06    1.44    95.59179    26.24640    27.98873
   471  H   1.0    0.04    1.05    1.44    99.75296    27.66181    27.13457
   472  H   1.0    0.05    1.05    1.44   101.38569    22.16082    26.83789
   473  H   1.0    0.05    1.04    1.43   101.10979    24.29810    24.24140
   474  H   1.0    0.04    1.01    1.43   102.26063    26.08956    30.77986
   475  H   1.0    0.04    1.00    1.43    99.03298    26.62624    31.60567
   476  H   1.0    0.06    1.02    1.43   100.13658    23.48551    31.06898
   477  H   1.0    0.05    1.00    1.43   105.46183    23.82755    25.58500
   478  H   1.0    0.04    1.00    1.43   104.34311    26.97017    26.09712
   479  H   1.0    0.05    1.01    1.43   104.61901    24.83289    28.69360
   480  N   5.0   -0.14    3.55    2.11    96.18327    22.29121    23.37024
   481  C   4.0    0.03    4.45    4.46    95.64659    21.87736    20.67360
   482  C   4.0    0.15    3.47    3.10    92.84413    22.43861    20.17093
   483  O   6.0   -0.30    1.22    1.80    92.09957    23.12836    18.06011
   484  C   4.0   -0.02    4.30    4.19    96.26642    19.08623    19.85346
   485  C   4.0   -0.05    4.16    3.93    96.35524    18.86324    16.95084
   486  C   4.0   -0.06    4.17    3.93    94.29732    17.27965    20.94194
   487  C   4.0   -0.08    3.98    3.59    97.74041    16.50298    15.94929
   488  H   1.0    0.14    1.31    1.50    96.43649    20.65848    24.36235
   489  H   1.0    0.05    1.05    1.44    96.85223    23.13969    19.57945
   490  H   1.0    0.05    1.05    1.44    98.12213    18.58545    20.59423
   491  H   1.0    0.05    1.03    1.43    94.42205    18.79521    16.24030
   492  H   1.0    0.04    1.03    1.43    97.32467    20.51675    16.19684
   493  H   1.0    0.04    1.00    1.43    94.75464    15.35780    20.35613
   494  H   1.0    0.08    1.06    1.44    94.32756    17.41382    22.99796
   495  H   1.0    0.05    1.01    1.43    92.43783    17.80689    20.23141
   496  H   1.0    0.04    1.00    1.43    97.69694    16.52376    13.88949
   497  H   1.0    0.04    1.00    1.43    99.69060    16.53888    16.61069
   498  H   1.0    0.04    1.00    1.43    96.78987    14.81734    16.65604
   499  N   5.0   -0.13    3.58    2.14    91.30022    22.11168    22.12680
   500  C   4.0    0.04    4.38    4.34    88.61303    22.62947    21.93972
   501  C   4.0    0.16    3.49    3.11    88.48453    25.48295    21.74886
   502  O   6.0   -0.31    1.28    1.80    87.31668    26.52797    20.03110
   503  C   4.0   -0.07    4.13    3.87    87.26376    21.72996    24.30754
   504  H   1.0    0.10    1.08    1.44    91.85769    21.48996    23.86346
   505  H   1.0    0.05    1.05    1.44    87.70218    21.66571    20.36369
   506  H   1.0    0.04    1.00    1.43    85.25310    22.13625    24.12802
   507  H   1.0    0.06    1.00    1.43    87.55478    19.70228    24.51541
   508  H   1.0    0.06    1.01    1.43    88.03855    22.72206    25.93838
   509  N   5.0   -0.14    3.49    2.07    89.76576    26.70372    23.53276
   510  C   4.0    0.03    4.40    4.38    89.92261    29.44949    23.72551
   511  C   4.0    0.16    3.51    3.12    90.35158    30.80820    21.21406
   512  O   6.0   -0.32    1.41    1.80    88.86247    32.43715    20.48841
   513  C   4.0   -0.04    4.34    4.27    92.03154    30.14302    25.59067
   514  C   4.0   -0.01    3.55    3.14    92.82523    32.88690    25.49618
   515  C   4.0   -0.04    3.44    3.09    91.11692    34.80875    26.04609
   516  C   4.0   -0.04    3.44    3.09    95.31778    33.54453    24.90281
   517  C   4.0   -0.05    3.35    3.06    91.86714    37.35043    25.97995
   518  C   4.0   -0.05    3.35    3.06    96.08123    36.08243    24.83478
   519  C   4.0   -0.05    3.34    3.06    94.35591    37.98349    25.38847
   520  H   1.0    0.10    1.08    1.44    90.75409    25.81177    24.92737
   521  H   1.0    0.05    1.06    1.44    88.09902    30.10333    24.42660
   522  H   1.0    0.04    1.03    1.43    91.37581    29.74807    27.50307
   523  H   1.0    0.06    1.06    1.44    93.69072    28.99784    25.16548
   524  H   1.0    0.05    1.03    1.43    89.19129    34.33821    26.52986
   525  H   1.0    0.05    1.03    1.43    96.67460    32.07621    24.49085
   526  H   1.0    0.04    1.02    1.43    90.51220    38.82253    26.38813
   527  H   1.0    0.04    1.03    1.43    98.00686    36.55864    24.35290
   528  H   1.0    0.04    1.03    1.43    94.93983    39.93936    25.36012
   529  N   5.0   -0.14    3.49    2.07    92.39437    30.16947    19.89881
   530  C   4.0    0.03    4.38    4.34    92.96129    31.39969    17.49886
   531  C   4.0    0.16    3.52    3.12    90.63882    31.44882    15.82268
   532  O   6.0   -0.30    1.26    1.80    90.21363    33.28374    14.47152
   533  C   4.0   -0.08    4.15    3.89    95.10613    30.05798    16.16094
   534  H   1.0    0.10    1.07    1.44    93.67372    28.82966    20.43172
   535  H   1.0    0.04    1.06    1.44    93.56600    33.33288    17.87114
   536  H   1.0    0.04    1.00    1.43    95.48785    31.01607    14.37704
   537  H   1.0    0.04    1.00    1.43    96.78042    30.11089    17.35902
   538  H   1.0    0.05    1.00    1.43    94.55811    28.10400    15.80567
   539  N   5.0   -0.13    3.56    2.12    89.13270    29.43815    15.89448
   540  C   4.0    0.04    4.46    4.48    86.85747    29.37390    14.34491
   541  C   4.0    0.16    3.52    3.12    85.21152    31.54520    15.25765
   542  O   6.0   -0.27    1.26    1.80    84.28556    33.08154    13.75720
   543  C   4.0   -0.05    4.38    4.35    85.44207    26.87379    14.66049
   544  C   4.0   -0.02    4.21    4.02    83.19141    26.63569    12.85014
   545  C   4.0   -0.08    4.13    3.85    84.15328    26.51286    10.13838
   546  C   4.0   -0.08    4.11    3.81    81.65317    24.29999    13.46997
   547  H   1.0    0.11    1.08    1.44    89.42750    27.86968    16.97541
   548  H   1.0    0.05    1.06    1.44    87.32235    29.52508    12.34369
   549  H   1.0    0.05    1.03    1.43    86.73653    25.31666    14.28255
   550  H   1.0    0.06    1.04    1.43    84.72964    26.74529    16.58990
   551  H   1.0    0.05    1.06    1.44    81.96119    28.27597    13.05045
   552  H   1.0    0.04    1.00    1.43    82.54512    26.34278     8.86281
   553  H   1.0    0.04    1.00    1.43    85.20207    28.23629     9.72075
   554  H   1.0    0.04    1.00    1.43    85.38538    24.87446     9.93807
   555  H   1.0    0.04    1.00    1.43    80.06769    24.17337    12.16039
   556  H   1.0    0.04    1.00    1.43    82.85314    22.63703    13.28288
   557  H   1.0    0.04    1.00    1.43    80.95586    24.44927    15.40316
   558  N   5.0   -0.13    3.55    2.11    84.88649    31.64724    17.74642
   559  C   4.0    0.04    4.41    4.40    83.41061    33.61822    18.98041
   560  C   4.0    0.17    3.53    3.13    84.17973    36.12967    17.78610
   561  O   6.0   -0.26    1.27    1.80    82.82102    37.17469    16.20818
   562  C   4.0   -0.03    4.38    4.34    83.98887    33.59177    21.83389
   563  C   4.0   -0.02    3.53    3.13    82.50166    35.47771    23.37024
   564  C   4.0   -0.04    3.45    3.09    79.87494    35.40968    23.41748
   565  C   4.0   -0.04    3.45    3.10    83.74510    37.29752    24.81210
   566  C   4.0   -0.04    3.36    3.07    78.51433    37.12367    24.89147
   567  C   4.0   -0.04    3.36    3.07    82.39961    39.01528    26.28798
   568  C   4.0   -0.04    3.36    3.07    79.78612    38.93213    26.32577
   569  H   1.0    0.11    1.09    1.44    85.63482    30.36979    18.98041
   570  H   1.0    0.05    1.05    1.44    81.38105    33.34232    18.76120
   571  H   1.0    0.05    1.03    1.43    83.55990    31.71716    22.57089
   572  H   1.0    0.06    1.07    1.44    85.98820    34.01318    22.10034
   573  H   1.0    0.05    1.03    1.43    78.87905    34.01885    22.30444
   574  H   1.0    0.05    1.03    1.43    85.78411    37.37878    24.78565
   575  H   1.0    0.05    1.03    1.43    76.47532    37.04808    24.92171
   576  H   1.0    0.05    1.03    1.43    83.39550    40.40801    27.39914
   577  H   1.0    0.05    1.03    1.43    78.73543    40.26250    27.46150
   578  N   5.0   -0.14    3.50    2.08    86.39827    37.05942    18.48341
   579  C   4.0    0.04    4.40    4.38    87.27321    39.43480    17.45351
   580  C   4.0    0.10    3.29    3.05    87.05401    39.54063    14.56790
   581  O   6.0   -0.28    1.13    1.80    86.71385    41.56641    13.49075
   582  C   4.0   -0.03    4.31    4.22    90.04544    40.01873    18.32089
   583  C   4.0   -0.04    4.22    4.04    91.10369    42.27506    16.83179
   584  C   4.0   -0.07    4.15    3.90    91.68950    37.67358    18.07901
   585  C   4.0   -0.08    4.02    3.65    93.71340    43.11599    17.64815
   586  H   1.0    0.09    1.09    1.44    87.60581    36.22416    19.73252
   587  H   1.0    0.06    1.06    1.44    86.03544    40.89178    18.22074
   588  H   1.0    0.04    1.06    1.44    90.03599    40.54785    20.31077
   589  H   1.0    0.05    1.04    1.43    91.21140    41.75538    14.84191
   590  H   1.0    0.05    1.03    1.43    89.83001    43.87566    17.07367
   591  H   1.0    0.03    1.00    1.43    93.60191    38.12900    18.69128
   592  H   1.0    0.06    1.01    1.43    90.90905    36.18258    19.26576
   593  H   1.0    0.06    1.01    1.43    91.70840    37.06697    16.10991
   594  H   1.0    0.04    1.00    1.43    94.29544    44.71470    16.48786
   595  H   1.0    0.04    1.00    1.43    93.64915    43.67157    19.63047
   596  H   1.0    0.03    1.00    1.43    95.03054    41.55129    17.39871
   597  N   5.0   -0.21    3.27    1.97   140.46711    39.75983     9.09147
   598  C   4.0    0.03    4.25    4.10   138.26180    39.71259     7.51922
   599  C   4.0    0.08    3.29    3.05   138.00669    42.41112     6.61404
   600  O   6.0   -0.30    1.15    1.80   135.92988    43.37110     6.21720
   601  C   4.0   -0.04    4.30    4.20   135.92232    38.94347     8.99510
   602  C   4.0   -0.04    4.23    4.07   135.37808    40.76139    11.18718
   603  C   4.0   -0.06    4.15    3.91   133.42977    39.76361    13.06745
   604  C   4.0   -0.04    4.12    3.85   133.26536    41.47382    15.39182
   605  N   5.0   -0.12    4.02    2.90   130.98257    40.95225    16.95840
   606  H   1.0    0.08    1.04    1.43   140.10617    39.51606    10.96986
   607  H   1.0    0.04    1.05    1.44   138.41298    38.34821     5.98287
   608  H   1.0    0.05    1.03    1.43   134.29337    38.94914     7.73276
   609  H   1.0    0.04    1.03    1.43   136.20389    37.05753     9.77555
   610  H   1.0    0.04    1.04    1.43   137.12796    41.10154    12.21897
   611  H   1.0    0.06    1.03    1.43   134.65809    42.53206    10.41806
   612  H   1.0    0.04    1.03    1.43   131.57784    39.70314    12.16984
   613  H   1.0    0.04    1.03    1.43   133.97590    37.87578    13.68351
   614  H   1.0    0.04    1.02    1.43   134.92832    41.17335    16.56912
   615  H   1.0    0.04    1.02    1.43   133.18222    43.43913    14.77766
   616  H   1.0    0.05    1.01    1.43   130.94667    42.15223    18.51365
   617  H   1.0    0.05    1.09    1.44   129.35552    41.23949    15.89260
   618  H   1.0    0.05    1.01    1.43   131.01092    39.09087    17.58957
   619  N   5.0   -0.20    3.19    1.95   121.48670    46.21703    -0.87872
   620  C   4.0    0.03    4.34    4.28   121.40922    47.81196     1.43241
   621  C   4.0    0.15    3.33    3.06   123.34052    47.83841     3.62449
   622  O   6.0   -0.29    1.18    1.80   125.30206    46.61387     3.62071
   623  C   4.0   -0.03    4.37    4.33   118.82597    47.24504     2.61538
   624  C   4.0   -0.02    3.69    3.23   116.72837    48.39399     1.12817
   625  C   4.0   -0.01    3.63    3.19   116.84931    49.54483    -1.17730
   626  C   4.0    0.01    3.88    3.44   114.12622    48.56029     1.91429
   627  N   5.0   -0.12    3.48    2.07   114.50605    50.41789    -1.86327
   628  C   4.0    0.03    3.89    3.45   112.79963    49.83207    -0.01323
   629  C   4.0   -0.04    3.40    3.08   112.79774    47.75337     4.05346
   630  C   4.0   -0.05    3.40    3.08   110.21638    50.30073     0.11716
   631  C   4.0   -0.04    3.37    3.07   110.22960    48.21825     4.18196
   632  C   4.0   -0.04    3.38    3.07   108.96349    49.48247     2.21665
   633  H   1.0    0.08    1.02    1.43   121.02750    44.35187    -0.70676
   634  H   1.0    0.05    1.07    1.44   121.90811    49.62042     0.58015
   635  H   1.0    0.05    1.04    1.43   118.53684    45.20602     2.67396
   636  H   1.0    0.05    1.07    1.44   118.76739    48.01983     4.52400
   637  H   1.0    0.04    1.02    1.43   118.54251    49.73948    -2.29791
   638  H   1.0    0.07    1.04    1.43   114.09976    51.35708    -3.49788
   639  H   1.0    0.05    1.03    1.43   113.75772    46.78772     5.57280
   640  H   1.0    0.05    1.03    1.43   109.23939    51.27582    -1.38706
   641  H   1.0    0.05    1.03    1.43   109.17892    47.60031     5.81847
   642  H   1.0    0.05    1.03    1.43   106.95471    49.81318     2.37350
   643  N   5.0   -0.14    3.55    2.11   122.54117    49.35208     5.48776
   644  C   4.0    0.04    4.35    4.28   123.66178    49.98325     7.90850
   645  C   4.0    0.15    3.47    3.10   121.98559    52.02982     9.06879
   646  O   6.0   -0.30    1.28    1.80   120.91223    53.55672     7.66851
   647  C   4.0    0.04    4.16    3.91   126.36975    50.93567     7.61560
   648  O   6.0   -0.24    2.06    1.83   127.01037    52.64399     9.57335
   649  H   1.0    0.09    1.13    1.45   120.87065    50.30262     5.33659
   650  H   1.0    0.04    1.06    1.44   123.78272    48.32785     9.12927
   651  H   1.0    0.05    1.01    1.43   127.65477    49.32752     7.68552
   652  H   1.0    0.06    1.02    1.43   126.54550    51.89943     5.80335
   653  H   1.0    0.12    1.01    1.43   128.75270    53.23358     9.35603
   654  N   5.0   -0.14    3.43    2.04   121.75126    52.14321    11.57457
   655  C   4.0    0.04    4.37    4.33   120.08075    54.03293    12.75187
   656  C   4.0    0.15    3.45    3.10   120.60231    54.38820    15.60536
   657  O   6.0   -0.30    1.31    1.80   119.09242    53.53972    17.15493
   658  C   4.0   -0.02    4.36    4.30   117.33497    53.15988    12.30779
   659  C   4.0   -0.01    3.54    3.13   115.32242    54.93433    13.24320
   660  C   4.0   -0.04    3.44    3.09   114.98793    57.31917    12.17361
   661  C   4.0   -0.03    3.46    3.10   113.66324    54.14065    15.11781
   662  C   4.0   -0.04    3.35    3.06   112.99805    58.87063    12.94084
   663  C   4.0   -0.04    3.36    3.07   111.67524    55.66944    15.89826
   664  C   4.0   -0.04    3.35    3.07   111.34076    58.03537    14.82301
   665  H   1.0    0.12    1.15    1.45   122.66400    50.98859    12.81801
   666  H   1.0    0.05    1.05    1.44   120.40767    55.88109    11.90338
   667  H   1.0    0.05    1.04    1.43   117.04963    52.92366    10.28200
   668  H   1.0    0.05    1.04    1.43   117.06285    51.36086    13.27344
   669  H   1.0    0.05    1.03    1.43   116.28240    57.97301    10.73742
   670  H   1.0    0.05    1.03    1.43   113.92213    52.30950    15.98141
   671  H   1.0    0.05    1.02    1.43   112.73916    60.70556    12.08669
   672  H   1.0    0.05    1.03    1.43   110.39023    55.01370    17.34202
   673  H   1.0    0.05    1.03    1.43   109.80442    59.22968    15.43717
   674  N   5.0   -0.14    3.56    2.12   122.76038    55.62597    16.30645
   675  C   4.0    0.03    4.50    4.54   123.37832    56.05872    19.00686
   676  C   4.0    0.16    3.45    3.10   122.94557    53.58318    20.38447
   677  O   6.0   -0.29    1.19    1.80   122.23314    53.43389    22.60868
   678  C   4.0   -0.02    4.29    4.18   121.79851    58.25458    20.04432
   679  C   4.0   -0.02    3.80    3.33   121.68890    60.10273    17.91649
   680  C   4.0   -0.01    3.59    3.16   119.61398    61.01736    16.65604
   681  C   4.0    0.00    3.91    3.47   123.83563    61.25547    16.76187
   682  N   5.0   -0.12    3.46    2.06   120.35854    62.54993    14.68695
   683  C   4.0    0.03    3.88    3.44   122.94179    62.70111    14.70774
   684  C   4.0   -0.05    3.40    3.08   126.44345    61.16098    17.22863
   685  C   4.0   -0.05    3.39    3.08   124.57829    63.99557    13.07501
   686  C   4.0   -0.04    3.36    3.07   128.06106    62.49324    15.62803
   687  C   4.0   -0.04    3.37    3.07   127.12564    63.85195    13.57579
   688  H   1.0    0.08    1.04    1.44   124.06618    56.32328    15.07245
   689  H   1.0    0.04    1.06    1.44   125.33985    56.61430    19.29977
   690  H   1.0    0.06    1.03    1.43   119.89933    57.62719    20.54132
   691  H   1.0    0.05    1.02    1.43   122.70935    59.10874    21.68272
   692  H   1.0    0.05    1.01    1.43   117.67701    60.59595    17.13792
   693  H   1.0    0.07    1.04    1.43   119.18691    63.42298    13.43028
   694  H   1.0    0.05    1.02    1.43   127.18423    60.08006    18.79332
   695  H   1.0    0.05    1.02    1.43   123.86776    65.06326    11.48764
   696  H   1.0    0.05    1.03    1.43   130.06984    62.47056    15.98519
   697  H   1.0    0.05    1.03    1.43   128.43522    64.81760    12.34558
   698  N   5.0   -0.11    3.75    2.34   123.48036    51.65944    18.87080
   699  C   4.0    0.00    4.23    4.07   123.26115    48.99681    19.43016
   700  C   4.0    0.14    3.53    3.13   123.45958    48.17100    16.68061
   701  O   6.0   -0.34    1.60    1.81   124.30806    49.67334    15.10836
   702  H   1.0    0.12    1.28    1.49   124.13043    51.91644    17.07556
   703  H   1.0    0.04    1.02    1.43   124.79561    48.27116    20.59612
   704  H   1.0    0.04    1.02    1.43   121.46214    48.48281    20.29188
   705  N   5.0   -0.16    3.43    2.03   122.71313    45.87877    16.01165
   706  C   4.0    0.03    4.56    4.61   122.90022    45.19847    13.35847
   707  C   4.0    0.15    3.49    3.11   120.83475    43.41078    12.50243
   708  O   6.0   -0.30    1.31    1.80   121.18057    41.11099    12.42117
   709  C   4.0   -0.01    4.36    4.31   125.52883    44.08164    12.74242
   710  C   4.0   -0.04    4.22    4.03   125.73103    43.59976     9.89649
   711  C   4.0   -0.07    4.22    4.05   125.98614    41.69113    14.28444
   712  C   4.0   -0.07    4.01    3.63   128.38609    42.94591     8.99510
   713  H   1.0    0.07    1.05    1.44   122.01016    44.52950    17.19462
   714  H   1.0    0.05    1.09    1.44   122.60353    46.94457    12.30590
   715  H   1.0    0.05    1.06    1.44   126.99525    45.43090    13.26210
   716  H   1.0    0.07    1.04    1.43   124.49892    42.02373     9.40706
   717  H   1.0    0.05    1.04    1.43   125.13198    45.29862     8.89683
   718  H   1.0    0.03    1.03    1.43   127.84752    40.93902    13.81957
   719  H   1.0    0.04    1.00    1.43   125.89732    42.15790    16.28944
   720  H   1.0    0.07    1.03    1.43   124.53294    40.30596    13.82146
   721  H   1.0    0.06    1.00    1.43   128.34641    42.63789     6.95986
   722  H   1.0    0.05    1.00    1.43   129.65032    44.50872     9.44296
   723  H   1.0    0.04    1.00    1.43   129.01726    41.23571     9.95319
   724  N   5.0   -0.13    3.61    2.17   118.65778    44.48037    11.87882
   725  C   4.0    0.04    4.49    4.52   116.58286    42.92701    10.99821
   726  C   4.0    0.15    3.50    3.11   117.15734    42.54718     8.22598
   727  O   6.0   -0.29    1.31    1.80   119.25305    43.10843     7.38883
   728  C   4.0   -0.06    4.32    4.24   114.04874    44.27250    11.32891
   729  C   4.0   -0.05    4.26    4.11   113.97315    46.09231    13.53044
   730  C   4.0   -0.05    4.23    4.06   114.91990    44.91690    15.94929
   731  C   4.0   -0.04    4.15    3.90   115.59076    46.97292    17.83901
   732  N   5.0   -0.12    3.99    2.85   116.84553    45.99026    20.16338
   733  H   1.0    0.07    1.07    1.44   118.28740    46.37010    11.96197
   734  H   1.0    0.07    1.06    1.44   116.39956    41.15823    12.03566
   735  H   1.0    0.04    1.04    1.43   113.64245    45.34397     9.61682
   736  H   1.0    0.04    1.03    1.43   112.58609    42.85521    11.63693
   737  H   1.0    0.04    1.04    1.43   115.16368    47.71936    13.10147
   738  H   1.0    0.03    1.03    1.43   112.02862    46.70269    13.83468
   739  H   1.0    0.04    1.03    1.43   113.45159    43.72448    16.76376
   740  H   1.0    0.05    1.06    1.44   116.60554    43.79629    15.56378
   741  H   1.0    0.05    1.03    1.43   116.87955    48.30706    16.94328
   742  H   1.0    0.03    1.04    1.43   113.86544    47.93857    18.41349
   743  H   1.0    0.05    1.01    1.43   117.25938    47.47559    21.38225
   744  H   1.0    0.05    1.02    1.43   115.65879    44.72036    21.08178
   745  H   1.0    0.05    1.01    1.43   118.51605    45.07185    19.68716
   746  N   5.0   -0.14    3.46    2.05   115.25439    41.71192     6.78601
   747  C   4.0    0.04    4.34    4.27   115.77406    41.18847     4.13094
   748  C   4.0    0.06    3.18    3.03   113.57064    41.70814     2.32436
   749  O   6.0   -0.31    1.12    1.80   111.34265    41.54374     3.02734
   750  C   4.0   -0.03    4.31    4.22   116.72081    38.46537     3.95331
   751  C   4.0   -0.00    3.50    3.11   119.50438    38.04585     4.47676
   752  C   4.0   -0.02    3.46    3.10   120.36420    36.18258     6.12649
   753  C   4.0   -0.03    3.47    3.10   121.35442    39.51795     3.29379
   754  C   4.0   -0.02    3.40    3.08   122.90022    35.73472     6.55735
   755  C   4.0   -0.04    3.41    3.08   123.93768    39.14756     3.70764
   756  C   4.0    0.07    3.43    3.09   124.70113    37.22949     5.32903
   757  O   6.0   -0.24    2.08    1.84   127.25981    36.82131     5.71453
   758  H   1.0    0.08    1.05    1.44   113.44592    41.40201     7.37749
   759  H   1.0    0.04    1.08    1.44   117.16679    42.53773     3.43741
   760  H   1.0    0.05    1.05    1.44   115.67202    37.33343     5.31769
   761  H   1.0    0.04    1.04    1.43   116.35610    37.78507     2.04468
   762  H   1.0    0.07    1.03    1.43   118.99037    35.03930     7.11104
   763  H   1.0    0.05    1.03    1.43   120.76483    40.99383     2.01445
   764  H   1.0    0.07    1.03    1.43   123.48414    34.24750     7.82724
   765  H   1.0    0.06    1.03    1.43   125.31718    40.33242     2.78168
   766  H   1.0    0.12    1.02    1.43   128.25003    38.02507     4.71487
   767  N   5.0   -0.21    3.21    1.96   109.33198    36.43959    -0.88250
   768  C   4.0    0.03    4.25    4.09   106.67125    36.01062    -0.33637
   769  C   4.0    0.09    3.27    3.05   105.27285    36.23172    -2.81191
   770  O   6.0   -0.29    1.12    1.80   103.88579    34.53663    -3.58670
   771  C   4.0   -0.04    4.32    4.24   105.68292    38.03262     1.50800
   772  C   4.0   -0.02    3.54    3.13   102.83322    38.14223     1.70642
   773  C   4.0   -0.03    3.47    3.10   101.38758    35.93881     1.77823
   774  C   4.0   -0.04    3.45    3.09   101.59167    40.45525     1.81603
   775  C   4.0   -0.04    3.36    3.07    98.75897    36.05030     1.97098
   776  C   4.0   -0.04    3.35    3.06    98.94794    40.58375     2.01256
   777  C   4.0   -0.04    3.35    3.06    97.53820    38.38033     2.07870
   778  H   1.0    0.09    1.03    1.43   110.10110    37.86255     0.16630
   779  H   1.0    0.06    1.07    1.44   106.38590    34.17191     0.54613
   780  H   1.0    0.04    1.03    1.43   106.42559    37.63011     3.38639
   781  H   1.0    0.05    1.04    1.43   106.33677    39.87889     0.87305
   782  H   1.0    0.06    1.03    1.43   102.31354    34.12278     1.68375
   783  H   1.0    0.05    1.03    1.43   102.67826    42.18246     1.74800
   784  H   1.0    0.05    1.03    1.43    97.66860    34.32687     2.03712
   785  H   1.0    0.05    1.03    1.43    98.01631    42.39789     2.11271
   786  H   1.0    0.05    1.03    1.43    95.50297    38.46726     2.21287
   787  H   1.0    0.09    1.07    1.44    95.67992    27.19470     2.46564
   788  H   1.0    0.06    1.04    1.43   117.48129    13.03680    40.65266
   789  H   1.0    0.09    1.07    1.44   106.57482     9.45665    37.45435
   790  H   1.0    0.08    1.04    1.44    87.18806    37.95331    13.55128
   791  H   1.0    0.09    1.07    1.44   141.52558    38.51398     8.62237
   792  H   1.0    0.06    1.05    1.44   139.55130    43.46045     6.32400
   793  H   1.0    0.09    1.08    1.44   120.39966    46.83490    -2.03161
   794  H   1.0    0.05    1.04    1.43   113.91383    42.19315     0.53047
   795  H   1.0    0.10    1.07    1.44   110.21462    35.02359    -0.55314
   796  H   1.0    0.06    1.05    1.44   105.46220    37.78702    -3.86843

  Z AO/shell   Hii/eV     exponent
  1     Wed Apr 25 08:07:45 CEST 2018   EN: 2.200 GM2: 0.406  GM3: 0.0800  RAES: 1.40
     1s    -10.707211    1.230000
  6     Wed Apr 25 08:07:45 CEST 2018   EN: 2.550 GM2: 0.538  GM3: 0.1500  RAES: 3.00
     2s    -13.970922    2.096432
     2p    -10.063292    1.800000
  7     Wed Apr 25 08:07:45 CEST 2018   EN: 3.040 GM2: 0.461  GM3:-0.0640  RAES: 1.90
     2s    -16.686243    2.339881
     2p    -12.523956    2.014332
  8     Wed Apr 25 08:07:45 CEST 2018   EN: 3.440 GM2: 0.452  GM3:-0.0517  RAES: 1.80
     2s    -20.229985    2.439742
     2p    -15.503117    2.137023
 16     Tue Apr 24 11:44:34 CEST 2018   EN: 2.580 GM2: 0.340  GM3:-0.0502  RAES: 3.10
     3s    -20.029654    1.981333
     3p    -11.377694    2.025643
     3d     -0.420282    1.702555
 no old-style atom pair restraining (fixing) potential

molecular fragmentation (1/2 indicates fragments):
111111111111111111111111111111111111111111111111111111111111111111111111
111111111111111111111111111111111111111111111111111111111111111111111111
111111111111111111111111111111111111111111111111111111111111111111111111
111111111111111111111111111111111111111111111111111111111111111111111111
111111111111111111111111111111111111111111111111111111111122222222222222
222222222222222222222222222222222222222222222222222222222222222222222222
222222222222222222222222222222222222222222222222222222222222222222222222
222222222222222222222222222222222222222222222222222222222222222222222222
222222222222222222222222222222222222222222222222222222222222222222222222
222222222222222222222222222222222222222222222222222222222222222222222222
222222222222222222222222222222222222222222222222222222222222222222112222
2222
# atoms in fragment 1/2:   348   448
 fragment masses (1/2) :     2391.93     3044.73
CMA distance (Bohr)    :   6.545
constraining FC (au)   :  0.0500
           ------------------------------------------------- 
          |        Self-Consistent Charge Iterations        |
           ------------------------------------------------- 

 Ncao       : 1966
 Nao        : 1964
 Nshell     : 1184
 Nel        : 2132
 T(el)      :   500.0
 intcut     :    35.0
 scfconv/Eh :  0.100E-06
   qconv/e  :  0.100E-04
 intneglect :  0.100E-08
 broydamp   :      0.400
 iter      E             dE          RMSdq      gap      omega  full diag
   1  -1208.6046233 -0.120860E+04  0.443E+00    2.89       0.0  T
   2  -1211.2144056 -0.260978E+01  0.215E+00    1.37       1.0  T
   3  -1211.3670103 -0.152605E+00  0.117E+00    1.73       1.0  T
   4  -1211.5488951 -0.181885E+00  0.277E-01    1.13       1.0  T
   5  -1211.5625159 -0.136208E-01  0.150E-01    1.27       1.0  T
   6  -1211.5659691 -0.345322E-02  0.783E-02    1.15       1.0  T
   7  -1211.5676152 -0.164613E-02  0.383E-02    1.12       1.0  T
   8  -1211.5678316 -0.216309E-03  0.215E-02    1.10       1.0  T
   9  -1211.5679484 -0.116872E-03  0.942E-03    1.08       1.0  T
  10  -1211.5679686 -0.202215E-04  0.491E-03    1.08       1.0  T
  11  -1211.5679738 -0.514859E-05  0.218E-03    1.08       1.6  T
  12  -1211.5679749 -0.115238E-05  0.107E-03    1.08       3.3  T
  13  -1211.5679752 -0.209749E-06  0.520E-04    1.08       6.8  T
  14  -1211.5679752 -0.445286E-07  0.282E-04    1.08      12.6  T
  15  -1211.5679752 -0.198806E-07  0.133E-04    1.08      26.7  T
  16  -1211.5679752 -0.364457E-08  0.721E-05    1.08      49.1  T
  17  -1211.5679752 -0.939281E-09  0.349E-05    1.08     101.6  T
speedup  1.26
cpu  time for SCC    2 m 11.7 s
wall time for SCC    1 m 44.6 s

   *** convergence criteria satisfied after 17 iterations ***

          eigenvalues
 #    :        1054       1055       1056       1057       1058       1059       1060       1061
 occ. :        2.000      2.000      2.000      2.000      2.000      2.000      2.000      2.000
 eps  :       -10.283    -10.233    -10.193    -10.190    -10.125    -10.123    -10.113    -10.067
 #    :        1062       1063       1064       1065       1066       1067       1068       1069
 occ. :        2.000      2.000      2.000      2.000      2.000      0.000      0.000      0.000
 eps  :       -10.033     -9.894     -9.772     -9.706     -9.639     -8.562     -8.051     -7.705
 #    :        1070       1071       1072       1073       1074       1075       1076       1077
 occ. :        0.000      0.000      0.000      0.000      0.000      0.000      0.000      0.000
 eps  :        -7.439     -7.431     -7.340     -7.307     -7.066     -6.930     -6.885     -6.871


   #   Z            q   n(s)   n(p)   n(d)      C6AA      α(0)
   1   7 N     -0.400  1.323  4.077  0.000    30.363     8.184
   2   6 C      0.020  1.065  2.914  0.000    20.244     6.408
   3   6 C      0.273  1.047  2.680  0.000    22.384     7.748
   4   8 O     -0.490  1.739  4.751  0.000    23.558     6.508
   5   6 C     -0.031  1.071  2.959  0.000    21.083     6.531
   6   6 C     -0.061  1.047  3.014  0.000    21.662     6.626
   7   6 C     -0.110  1.041  3.070  0.000    22.671     6.790
   8   6 C     -0.112  1.038  3.075  0.000    22.708     6.795
   9   1 H      0.168  0.832  0.000  0.000     1.283     1.775
  10   1 H      0.049  0.951  0.000  0.000     2.330     2.387
  11   1 H      0.046  0.954  0.000  0.000     2.370     2.407
  12   1 H      0.042  0.958  0.000  0.000     2.425     2.435
  13   1 H      0.042  0.958  0.000  0.000     2.422     2.434
  14   1 H      0.047  0.953  0.000  0.000     2.356     2.400
  15   1 H      0.026  0.974  0.000  0.000     2.637     2.540
  16   1 H      0.046  0.954  0.000  0.000     2.371     2.408
  17   1 H      0.048  0.952  0.000  0.000     2.346     2.395
  18   1 H      0.038  0.962  0.000  0.000     2.482     2.464
  19   1 H      0.038  0.962  0.000  0.000     2.479     2.462
  20   7 N     -0.171  1.241  3.930  0.000    24.696     7.381
  21   6 C      0.023  1.055  2.922  0.000    20.177     6.393
  22   6 C      0.277  1.038  2.685  0.000    22.316     7.736
  23   8 O     -0.477  1.735  4.741  0.000    23.272     6.468
  24   6 C     -0.007  1.063  2.943  0.000    20.703     6.479
  25  16 S     -0.307  1.921  4.353  0.033   154.378    20.912
  26   1 H      0.227  0.773  0.000  0.000     0.977     1.549
  27   1 H      0.082  0.918  0.000  0.000     1.957     2.188
  28   1 H      0.076  0.924  0.000  0.000     2.017     2.221
  29   1 H      0.042  0.958  0.000  0.000     2.428     2.437
  30   1 H      0.211  0.789  0.000  0.000     1.044     1.598
  31   7 N     -0.175  1.245  3.930  0.000    24.787     7.394
  32   6 C      0.016  1.056  2.928  0.000    20.295     6.413
  33   6 C      0.291  1.034  2.676  0.000    22.075     7.694
  34   8 O     -0.482  1.735  4.747  0.000    23.384     6.483
  35   6 C      0.064  1.040  2.896  0.000    19.696     6.355
  36   8 O     -0.466  1.717  4.749  0.000    22.179     6.357
  37   1 H      0.232  0.768  0.000  0.000     0.957     1.532
  38   1 H      0.082  0.918  0.000  0.000     1.960     2.189
  39   1 H      0.061  0.939  0.000  0.000     2.184     2.311
  40   1 H      0.056  0.944  0.000  0.000     2.245     2.343
  41   1 H      0.347  0.653  0.000  0.000     0.597     1.213
  42   7 N     -0.172  1.243  3.928  0.000    24.717     7.384
  43   6 C      0.016  1.064  2.920  0.000    20.314     6.418
  44   6 C      0.274  1.043  2.683  0.000    22.373     7.746
  45   8 O     -0.487  1.725  4.762  0.000    23.508     6.501
  46   6 C     -0.095  1.063  3.033  0.000    22.300     6.721
  47   6 C     -0.020  1.052  2.968  0.000    20.901     6.502
  48   6 C     -0.125  1.045  3.080  0.000    22.954     6.830
  49   6 C     -0.114  1.045  3.070  0.000    22.734     6.798
  50   1 H      0.204  0.796  0.000  0.000     1.085     1.632
  51   1 H      0.094  0.906  0.000  0.000     1.845     2.124
  52   1 H      0.073  0.927  0.000  0.000     2.056     2.242
  53   1 H      0.067  0.933  0.000  0.000     2.117     2.275
  54   1 H      0.032  0.968  0.000  0.000     2.559     2.502
  55   1 H      0.061  0.939  0.000  0.000     2.183     2.310
  56   1 H      0.054  0.946  0.000  0.000     2.269     2.355
  57   1 H      0.048  0.952  0.000  0.000     2.348     2.397
  58   1 H      0.051  0.949  0.000  0.000     2.305     2.374
  59   1 H      0.048  0.952  0.000  0.000     2.351     2.398
  60   1 H      0.026  0.974  0.000  0.000     2.645     2.543
  61   7 N     -0.181  1.250  3.930  0.000    24.912     7.413
  62   6 C      0.010  1.063  2.927  0.000    20.416     6.433
  63   6 C      0.280  1.040  2.679  0.000    22.256     7.726
  64   8 O     -0.497  1.736  4.761  0.000    23.710     6.528
  65   6 C     -0.017  1.056  2.961  0.000    20.842     6.493
  66   6 C     -0.140  1.049  3.092  0.000    23.259     6.876
  67   6 C     -0.111  1.038  3.072  0.000    22.672     6.789
  68   1 H      0.227  0.773  0.000  0.000     0.976     1.548
  69   1 H      0.085  0.915  0.000  0.000     1.929     2.172
  70   1 H      0.034  0.966  0.000  0.000     2.532     2.489
  71   1 H      0.039  0.961  0.000  0.000     2.462     2.454
  72   1 H      0.070  0.930  0.000  0.000     2.084     2.257
  73   1 H      0.088  0.912  0.000  0.000     1.896     2.154
  74   1 H      0.031  0.969  0.000  0.000     2.570     2.507
  75   1 H      0.052  0.948  0.000  0.000     2.299     2.371
  76   1 H      0.021  0.979  0.000  0.000     2.723     2.580
  77   7 N     -0.194  1.258  3.935  0.000    25.201     7.456
  78   6 C      0.026  1.061  2.913  0.000    20.139     6.390
  79   6 C      0.275  1.041  2.683  0.000    22.341     7.740
  80   8 O     -0.489  1.746  4.743  0.000    23.536     6.504
  81   6 C     -0.048  1.052  2.996  0.000    21.436     6.592
  82   6 C     -0.085  1.063  3.023  0.000    22.124     6.697
  83   6 C      0.369  1.026  2.605  0.000    20.744     7.454
  84   8 O     -0.641  1.764  4.877  0.000    27.151     6.986
  85   8 O     -0.667  1.781  4.885  0.000    27.818     7.071
  86   1 H      0.238  0.762  0.000  0.000     0.930     1.511
  87   1 H      0.061  0.939  0.000  0.000     2.188     2.313
  88   1 H      0.050  0.950  0.000  0.000     2.316     2.380
  89   1 H      0.037  0.963  0.000  0.000     2.486     2.466
  90   1 H      0.011  0.989  0.000  0.000     2.867     2.648
  91   1 H      0.023  0.977  0.000  0.000     2.688     2.564
  92   7 N     -0.185  1.247  3.938  0.000    25.016     7.428
  93   6 C      0.023  1.055  2.923  0.000    20.195     6.398
  94   6 C      0.261  1.040  2.699  0.000    22.595     7.784
  95   8 O     -0.454  1.721  4.733  0.000    22.796     6.401
  96   6 C     -0.101  1.059  3.042  0.000    22.418     6.739
  97   6 C      0.287  1.035  2.679  0.000    22.142     7.705
  98   8 O     -0.511  1.759  4.752  0.000    24.036     6.573
  99   7 N     -0.275  1.267  4.008  0.000    27.117     7.734
 100   1 H      0.213  0.787  0.000  0.000     1.040     1.598
 101   1 H      0.099  0.901  0.000  0.000     1.790     2.092
 102   1 H      0.074  0.926  0.000  0.000     2.038     2.233
 103   1 H      0.099  0.901  0.000  0.000     1.793     2.094
 104   1 H      0.219  0.781  0.000  0.000     1.015     1.578
 105   1 H      0.226  0.774  0.000  0.000     0.984     1.554
 106   7 N     -0.169  1.245  3.924  0.000    24.656     7.375
 107   6 C     -0.000  1.070  2.930  0.000    20.582     6.458
 108   6 C      0.266  1.046  2.689  0.000    22.520     7.771
 109   8 O     -0.458  1.727  4.732  0.000    22.877     6.413
 110   6 C     -0.047  1.068  2.979  0.000    21.380     6.576
 111   6 C     -0.065  1.050  3.015  0.000    21.748     6.639
 112   6 C     -0.138  1.047  3.091  0.000    23.210     6.869
 113   6 C     -0.121  1.041  3.080  0.000    22.891     6.823
 114   1 H      0.206  0.794  0.000  0.000     1.076     1.625
 115   1 H      0.118  0.882  0.000  0.000     1.626     1.994
 116   1 H      0.051  0.949  0.000  0.000     2.305     2.374
 117   1 H      0.055  0.945  0.000  0.000     2.262     2.352
 118   1 H      0.022  0.978  0.000  0.000     2.700     2.570
 119   1 H      0.072  0.928  0.000  0.000     2.065     2.247
 120   1 H      0.044  0.956  0.000  0.000     2.399     2.422
 121   1 H      0.073  0.927  0.000  0.000     2.057     2.243
 122   1 H      0.052  0.948  0.000  0.000     2.300     2.371
 123   1 H      0.032  0.968  0.000  0.000     2.560     2.502
 124   1 H      0.061  0.939  0.000  0.000     2.188     2.313
 125   7 N     -0.191  1.258  3.933  0.000    25.146     7.448
 126   6 C      0.008  1.075  2.917  0.000    20.458     6.442
 127   6 C      0.279  1.041  2.680  0.000    22.275     7.728
 128   8 O     -0.480  1.732  4.748  0.000    23.341     6.477
 129   6 C     -0.034  1.070  2.964  0.000    21.143     6.540
 130   6 C     -0.073  1.052  3.020  0.000    21.885     6.660
 131   6 C     -0.120  1.044  3.077  0.000    22.862     6.818
 132   6 C     -0.126  1.040  3.086  0.000    22.982     6.837
 133   1 H      0.226  0.774  0.000  0.000     0.983     1.553
 134   1 H      0.091  0.909  0.000  0.000     1.865     2.135
 135   1 H      0.022  0.978  0.000  0.000     2.711     2.575
 136   1 H      0.060  0.940  0.000  0.000     2.203     2.321
 137   1 H      0.034  0.966  0.000  0.000     2.537     2.491
 138   1 H      0.047  0.953  0.000  0.000     2.360     2.403
 139   1 H      0.033  0.967  0.000  0.000     2.547     2.496
 140   1 H      0.079  0.921  0.000  0.000     1.991     2.207
 141   1 H      0.060  0.940  0.000  0.000     2.204     2.321
 142   1 H      0.051  0.949  0.000  0.000     2.302     2.373
 143   1 H      0.065  0.935  0.000  0.000     2.138     2.286
 144   7 N     -0.200  1.259  3.941  0.000    25.351     7.478
 145   6 C      0.041  1.056  2.903  0.000    19.885     6.350
 146   6 C      0.277  1.033  2.690  0.000    22.320     7.737
 147   8 O     -0.514  1.747  4.767  0.000    24.092     6.581
 148   6 C     -0.067  1.056  3.011  0.000    21.773     6.642
 149   6 C     -0.003  1.065  2.938  0.000    20.646     6.471
 150  16 S     -0.239  1.915  4.270  0.053   151.271    20.701
 151   6 C     -0.016  1.053  2.963  0.000    20.944     6.529
 152   1 H      0.224  0.776  0.000  0.000     0.991     1.560
 153   1 H      0.030  0.970  0.000  0.000     2.592     2.518
 154   1 H      0.079  0.921  0.000  0.000     1.991     2.206
 155   1 H      0.039  0.961  0.000  0.000     2.466     2.456
 156   1 H      0.032  0.968  0.000  0.000     2.553     2.499
 157   1 H      0.067  0.933  0.000  0.000     2.115     2.274
 158   1 H      0.029  0.971  0.000  0.000     2.600     2.522
 159   1 H      0.046  0.954  0.000  0.000     2.372     2.408
 160   1 H      0.031  0.969  0.000  0.000     2.571     2.507
 161   7 N     -0.087  1.238  3.849  0.000    22.928     7.112
 162   6 C      0.008  1.067  2.924  0.000    20.405     6.425
 163   6 C      0.268  1.042  2.691  0.000    22.483     7.765
 164   8 O     -0.473  1.738  4.735  0.000    23.195     6.457
 165   6 C     -0.097  1.059  3.038  0.000    22.310     6.717
 166   6 C     -0.069  1.042  3.027  0.000    21.781     6.637
 167   6 C     -0.017  1.054  2.964  0.000    20.903     6.512
 168   1 H      0.077  0.923  0.000  0.000     2.011     2.218
 169   1 H      0.100  0.900  0.000  0.000     1.788     2.091
 170   1 H      0.113  0.887  0.000  0.000     1.668     2.020
 171   1 H      0.077  0.923  0.000  0.000     2.008     2.216
 172   1 H      0.052  0.948  0.000  0.000     2.294     2.369
 173   1 H      0.080  0.920  0.000  0.000     1.979     2.200
 174   1 H      0.025  0.975  0.000  0.000     2.656     2.548
 175   7 N     -0.175  1.249  3.926  0.000    24.790     7.395
[...]
 510   6 C      0.024  1.061  2.915  0.000    20.175     6.396
 511   6 C      0.281  1.039  2.681  0.000    22.247     7.724
 512   8 O     -0.481  1.739  4.742  0.000    23.360     6.480
 513   6 C     -0.086  1.056  3.030  0.000    22.139     6.697
 514   6 C      0.003  1.085  2.911  0.000    27.948     8.671
 515   6 C     -0.042  1.083  2.959  0.000    29.037     8.836
 516   6 C     -0.044  1.086  2.958  0.000    29.100     8.846
 517   6 C     -0.035  1.086  2.949  0.000    28.868     8.810
 518   6 C     -0.039  1.086  2.953  0.000    28.972     8.826
 519   6 C     -0.037  1.085  2.951  0.000    28.914     8.817
 520   1 H      0.210  0.790  0.000  0.000     1.054     1.608
 521   1 H      0.074  0.926  0.000  0.000     2.047     2.237
 522   1 H      0.060  0.940  0.000  0.000     2.204     2.322
 523   1 H      0.066  0.934  0.000  0.000     2.136     2.285
 524   1 H      0.034  0.966  0.000  0.000     2.532     2.488
 525   1 H      0.025  0.975  0.000  0.000     2.660     2.551
 526   1 H      0.050  0.950  0.000  0.000     2.323     2.384
 527   1 H      0.056  0.944  0.000  0.000     2.252     2.347
 528   1 H      0.064  0.936  0.000  0.000     2.148     2.292
 529   7 N     -0.175  1.246  3.928  0.000    24.785     7.394
 530   6 C      0.019  1.057  2.923  0.000    20.250     6.407
 531   6 C      0.286  1.033  2.681  0.000    22.155     7.708
 532   8 O     -0.487  1.744  4.742  0.000    23.493     6.499
 533   6 C     -0.126  1.045  3.081  0.000    22.969     6.833
 534   1 H      0.209  0.791  0.000  0.000     1.062     1.614
 535   1 H      0.092  0.908  0.000  0.000     1.858     2.132
 536   1 H      0.081  0.919  0.000  0.000     1.968     2.194
 537   1 H      0.065  0.935  0.000  0.000     2.136     2.286
 538   1 H      0.051  0.949  0.000  0.000     2.304     2.374
 539   7 N     -0.179  1.244  3.935  0.000    24.874     7.407
 540   6 C      0.028  1.059  2.912  0.000    20.095     6.382
 541   6 C      0.290  1.036  2.673  0.000    22.077     7.695
 542   8 O     -0.509  1.760  4.749  0.000    23.993     6.567
 543   6 C     -0.081  1.061  3.020  0.000    22.041     6.682
 544   6 C     -0.010  1.053  2.957  0.000    20.722     6.475
 545   6 C     -0.120  1.046  3.073  0.000    22.844     6.814
 546   6 C     -0.118  1.045  3.073  0.000    22.808     6.809
 547   1 H      0.201  0.799  0.000  0.000     1.099     1.642
 548   1 H      0.068  0.932  0.000  0.000     2.103     2.268
 549   1 H      0.054  0.946  0.000  0.000     2.268     2.355
 550   1 H      0.057  0.943  0.000  0.000     2.237     2.339
 551   1 H      0.021  0.979  0.000  0.000     2.719     2.579
 552   1 H      0.048  0.952  0.000  0.000     2.342     2.393
 553   1 H      0.039  0.961  0.000  0.000     2.462     2.454
 554   1 H      0.051  0.949  0.000  0.000     2.308     2.376
 555   1 H      0.051  0.949  0.000  0.000     2.305     2.374
 556   1 H      0.046  0.954  0.000  0.000     2.364     2.405
 557   1 H      0.038  0.962  0.000  0.000     2.481     2.463
 558   7 N     -0.172  1.244  3.928  0.000    24.712     7.383
 559   6 C      0.032  1.059  2.909  0.000    20.038     6.374
 560   6 C      0.292  1.036  2.673  0.000    22.055     7.691
 561   8 O     -0.505  1.759  4.746  0.000    23.906     6.555
 562   6 C     -0.095  1.060  3.035  0.000    22.298     6.722
 563   6 C      0.006  1.085  2.909  0.000    27.893     8.663
 564   6 C     -0.041  1.082  2.959  0.000    29.012     8.833
 565   6 C     -0.044  1.084  2.960  0.000    29.104     8.847
 566   6 C     -0.035  1.085  2.950  0.000    28.865     8.810
 567   6 C     -0.035  1.083  2.952  0.000    28.861     8.809
 568   6 C     -0.037  1.082  2.954  0.000    28.912     8.817
 569   1 H      0.217  0.783  0.000  0.000     1.025     1.586
 570   1 H      0.055  0.945  0.000  0.000     2.253     2.348
 571   1 H      0.054  0.946  0.000  0.000     2.266     2.354
 572   1 H      0.085  0.915  0.000  0.000     1.926     2.170
 573   1 H      0.026  0.974  0.000  0.000     2.641     2.541
 574   1 H      0.040  0.960  0.000  0.000     2.446     2.446
 575   1 H      0.038  0.962  0.000  0.000     2.470     2.458
 576   1 H      0.050  0.950  0.000  0.000     2.324     2.384
 577   1 H      0.043  0.957  0.000  0.000     2.403     2.424
 578   7 N     -0.174  1.243  3.931  0.000    24.763     7.391
 579   6 C      0.026  1.063  2.911  0.000    20.140     6.390
 580   6 C      0.224  1.079  2.696  0.000    23.276     7.901
 581   8 O     -0.378  1.748  4.630  0.000    21.249     6.180
 582   6 C     -0.023  1.070  2.953  0.000    20.954     6.511
 583   6 C     -0.063  1.048  3.016  0.000    21.715     6.634
 584   6 C     -0.127  1.042  3.084  0.000    22.989     6.837
 585   6 C     -0.122  1.043  3.079  0.000    22.900     6.825
 586   1 H      0.226  0.774  0.000  0.000     0.984     1.554
 587   1 H      0.076  0.924  0.000  0.000     2.026     2.226
 588   1 H      0.059  0.941  0.000  0.000     2.215     2.327
 589   1 H      0.033  0.967  0.000  0.000     2.538     2.491
 590   1 H      0.044  0.956  0.000  0.000     2.401     2.423
 591   1 H      0.068  0.932  0.000  0.000     2.109     2.271
 592   1 H      0.041  0.959  0.000  0.000     2.435     2.440
 593   1 H      0.055  0.945  0.000  0.000     2.253     2.347
 594   1 H      0.060  0.940  0.000  0.000     2.202     2.321
 595   1 H      0.052  0.948  0.000  0.000     2.299     2.371
 596   1 H      0.055  0.945  0.000  0.000     2.262     2.352
 597   7 N     -0.396  1.325  4.071  0.000    30.268     8.171
 598   6 C      0.040  1.044  2.916  0.000    19.913     6.356
 599   6 C      0.200  1.092  2.708  0.000    23.745     7.982
 600   8 O     -0.378  1.756  4.623  0.000    21.252     6.181
 601   6 C     -0.073  1.053  3.020  0.000    21.887     6.660
 602   6 C     -0.076  1.050  3.025  0.000    21.945     6.669
 603   6 C     -0.092  1.055  3.037  0.000    22.251     6.716
 604   6 C     -0.057  1.063  2.995  0.000    21.698     6.649
 605   7 N     -0.164  1.238  3.926  0.000    24.538     7.357
 606   1 H      0.178  0.822  0.000  0.000     1.225     1.734
 607   1 H      0.051  0.949  0.000  0.000     2.305     2.374
 608   1 H      0.054  0.946  0.000  0.000     2.266     2.354
 609   1 H      0.049  0.951  0.000  0.000     2.337     2.391
 610   1 H      0.051  0.949  0.000  0.000     2.307     2.375
 611   1 H      0.060  0.940  0.000  0.000     2.204     2.322
 612   1 H      0.071  0.929  0.000  0.000     2.080     2.255
 613   1 H      0.067  0.933  0.000  0.000     2.117     2.275
 614   1 H      0.113  0.887  0.000  0.000     1.671     2.021
 615   1 H      0.119  0.881  0.000  0.000     1.624     1.993
 616   1 H      0.301  0.699  0.000  0.000     0.712     1.321
 617   1 H      0.275  0.725  0.000  0.000     0.792     1.394
 618   1 H      0.292  0.708  0.000  0.000     0.738     1.346
 619   7 N     -0.393  1.321  4.072  0.000    30.184     8.160
 620   6 C      0.021  1.059  2.920  0.000    20.232     6.406
 621   6 C      0.274  1.046  2.679  0.000    22.365     7.744
 622   8 O     -0.478  1.747  4.731  0.000    23.311     6.473
 623   6 C     -0.072  1.057  3.015  0.000    21.865     6.655
 624   6 C     -0.044  1.069  2.975  0.000    29.044     8.839
 625   6 C     -0.013  1.064  2.950  0.000    28.323     8.730
 626   6 C     -0.029  1.076  2.953  0.000    28.546     8.751
 627   7 N     -0.118  1.230  3.888  0.000    23.566     7.210
 628   6 C      0.045  1.062  2.893  0.000    26.913     8.506
 629   6 C     -0.046  1.080  2.966  0.000    29.141     8.852
 630   6 C     -0.055  1.070  2.985  0.000    29.357     8.884
 631   6 C     -0.048  1.081  2.967  0.000    29.188     8.859
 632   6 C     -0.039  1.078  2.961  0.000    28.975     8.828
 633   1 H      0.142  0.858  0.000  0.000     1.460     1.893
 634   1 H      0.054  0.946  0.000  0.000     2.266     2.354
 635   1 H      0.058  0.942  0.000  0.000     2.220     2.330
 636   1 H      0.053  0.947  0.000  0.000     2.286     2.365
 637   1 H      0.033  0.967  0.000  0.000     2.544     2.494
 638   1 H      0.184  0.816  0.000  0.000     1.191     1.710
 639   1 H      0.031  0.969  0.000  0.000     2.576     2.510
 640   1 H      0.022  0.978  0.000  0.000     2.706     2.572
 641   1 H      0.046  0.954  0.000  0.000     2.374     2.410
 642   1 H      0.028  0.972  0.000  0.000     2.618     2.530
 643   7 N     -0.193  1.240  3.953  0.000    25.189     7.454
 644   6 C      0.020  1.059  2.922  0.000    20.260     6.411
 645   6 C      0.278  1.040  2.682  0.000    22.298     7.733
 646   8 O     -0.506  1.761  4.745  0.000    23.919     6.557
 647   6 C      0.083  1.036  2.882  0.000    19.411     6.311
 648   8 O     -0.483  1.720  4.763  0.000    22.536     6.408
 649   1 H      0.211  0.789  0.000  0.000     1.050     1.605
 650   1 H      0.077  0.923  0.000  0.000     2.009     2.216
 651   1 H      0.054  0.946  0.000  0.000     2.266     2.354
 652   1 H      0.023  0.977  0.000  0.000     2.687     2.563
 653   1 H      0.352  0.648  0.000  0.000     0.585     1.201
 654   7 N     -0.188  1.257  3.931  0.000    25.069     7.436
 655   6 C      0.022  1.065  2.913  0.000    20.220     6.404
 656   6 C      0.260  1.053  2.687  0.000    22.618     7.787
 657   8 O     -0.425  1.733  4.692  0.000    22.186     6.315
 658   6 C     -0.075  1.053  3.022  0.000    21.926     6.665
 659   6 C      0.013  1.081  2.906  0.000    27.731     8.638
 660   6 C     -0.043  1.081  2.962  0.000    29.062     8.840
 661   6 C     -0.044  1.087  2.957  0.000    29.085     8.844
 662   6 C     -0.036  1.083  2.954  0.000    28.900     8.815
 663   6 C     -0.037  1.085  2.953  0.000    28.922     8.819
 664   6 C     -0.037  1.082  2.955  0.000    28.924     8.819
 665   1 H      0.247  0.753  0.000  0.000     0.895     1.482
 666   1 H      0.059  0.941  0.000  0.000     2.205     2.322
 667   1 H      0.062  0.938  0.000  0.000     2.171     2.304
 668   1 H      0.075  0.925  0.000  0.000     2.034     2.230
 669   1 H      0.020  0.980  0.000  0.000     2.736     2.587
 670   1 H      0.078  0.922  0.000  0.000     1.997     2.210
 671   1 H      0.015  0.985  0.000  0.000     2.817     2.625
 672   1 H      0.052  0.948  0.000  0.000     2.299     2.371
 673   1 H      0.020  0.980  0.000  0.000     2.734     2.586
 674   7 N     -0.184  1.251  3.933  0.000    24.982     7.423
 675   6 C      0.012  1.069  2.919  0.000    20.355     6.421
 676   6 C      0.279  1.032  2.689  0.000    22.278     7.729
 677   8 O     -0.495  1.757  4.738  0.000    23.670     6.523
 678   6 C     -0.063  1.045  3.017  0.000    21.696     6.631
 679   6 C     -0.033  1.069  2.964  0.000    28.765     8.795
 680   6 C     -0.009  1.069  2.940  0.000    28.208     8.712
 681   6 C     -0.023  1.072  2.951  0.000    28.429     8.735
 682   7 N     -0.114  1.229  3.885  0.000    23.489     7.198
 683   6 C      0.043  1.064  2.893  0.000    26.942     8.509
 684   6 C     -0.048  1.082  2.965  0.000    29.182     8.858
 685   6 C     -0.057  1.073  2.984  0.000    29.424     8.894
 686   6 C     -0.049  1.079  2.970  0.000    29.205     8.862
 687   6 C     -0.040  1.076  2.964  0.000    28.992     8.830
 688   1 H      0.197  0.803  0.000  0.000     1.122     1.659
 689   1 H      0.078  0.922  0.000  0.000     2.001     2.212
 690   1 H      0.064  0.936  0.000  0.000     2.156     2.296
 691   1 H      0.057  0.943  0.000  0.000     2.232     2.336
 692   1 H      0.039  0.961  0.000  0.000     2.459     2.452
 693   1 H      0.181  0.819  0.000  0.000     1.209     1.723
 694   1 H      0.037  0.963  0.000  0.000     2.492     2.469
 695   1 H      0.020  0.980  0.000  0.000     2.736     2.587
 696   1 H      0.025  0.975  0.000  0.000     2.655     2.548
 697   1 H      0.017  0.983  0.000  0.000     2.779     2.607
 698   7 N     -0.196  1.245  3.951  0.000    25.247     7.463
 699   6 C     -0.066  1.061  3.005  0.000    21.855     6.670
 700   6 C      0.257  1.042  2.701  0.000    22.682     7.806
 701   8 O     -0.457  1.753  4.705  0.000    22.851     6.409
 702   1 H      0.238  0.762  0.000  0.000     0.929     1.510
 703   1 H      0.138  0.862  0.000  0.000     1.475     1.899
 704   1 H      0.115  0.885  0.000  0.000     1.650     2.009
 705   7 N     -0.139  1.233  3.906  0.000    24.009     7.277
 706   6 C     -0.016  1.069  2.946  0.000    20.845     6.498
 707   6 C      0.267  1.033  2.700  0.000    22.485     7.766
 708   8 O     -0.452  1.756  4.696  0.000    22.749     6.395
 709   6 C     -0.037  1.066  2.971  0.000    21.197     6.548
 710   6 C     -0.063  1.046  3.018  0.000    21.716     6.634
 711   6 C     -0.178  1.058  3.120  0.000    24.042     6.992
 712   6 C     -0.111  1.041  3.070  0.000    22.689     6.793
 713   1 H      0.244  0.756  0.000  0.000     0.906     1.491
 714   1 H      0.070  0.930  0.000  0.000     2.080     2.256
 715   1 H      0.079  0.921  0.000  0.000     1.992     2.207
 716   1 H      0.042  0.958  0.000  0.000     2.420     2.433
 717   1 H      0.024  0.976  0.000  0.000     2.668     2.554
 718   1 H      0.082  0.918  0.000  0.000     1.963     2.191
 719   1 H      0.085  0.915  0.000  0.000     1.932     2.173
 720   1 H      0.112  0.888  0.000  0.000     1.678     2.026
 721   1 H      0.021  0.979  0.000  0.000     2.720     2.579
 722   1 H      0.046  0.954  0.000  0.000     2.375     2.410
 723   1 H      0.056  0.944  0.000  0.000     2.248     2.345
 724   7 N     -0.153  1.232  3.921  0.000    24.299     7.321
 725   6 C     -0.006  1.061  2.945  0.000    20.686     6.475
 726   6 C      0.277  1.039  2.684  0.000    22.317     7.738
 727   8 O     -0.473  1.754  4.719  0.000    23.200     6.458
 728   6 C     -0.093  1.054  3.039  0.000    22.270     6.717
 729   6 C     -0.085  1.050  3.035  0.000    22.120     6.695
 730   6 C     -0.120  1.056  3.064  0.000    22.787     6.796
 731   6 C     -0.081  1.068  3.013  0.000    22.134     6.714
 732   7 N     -0.125  1.227  3.898  0.000    23.707     7.232
 733   1 H      0.211  0.789  0.000  0.000     1.049     1.605
 734   1 H      0.121  0.879  0.000  0.000     1.604     1.981
 735   1 H      0.054  0.946  0.000  0.000     2.268     2.355
 736   1 H      0.066  0.934  0.000  0.000     2.134     2.284
 737   1 H      0.062  0.938  0.000  0.000     2.172     2.305
 738   1 H      0.087  0.913  0.000  0.000     1.910     2.161
 739   1 H      0.091  0.909  0.000  0.000     1.867     2.137
 740   1 H      0.084  0.916  0.000  0.000     1.942     2.179
 741   1 H      0.124  0.876  0.000  0.000     1.580     1.965
 742   1 H      0.137  0.863  0.000  0.000     1.483     1.905
 743   1 H      0.300  0.700  0.000  0.000     0.713     1.323
 744   1 H      0.270  0.730  0.000  0.000     0.810     1.410
 745   1 H      0.282  0.718  0.000  0.000     0.771     1.376
 746   7 N     -0.172  1.236  3.936  0.000    24.723     7.385
 747   6 C      0.028  1.054  2.918  0.000    20.108     6.385
 748   6 C      0.184  1.093  2.723  0.000    24.050     8.031
 749   8 O     -0.354  1.756  4.598  0.000    20.792     6.114
 750   6 C     -0.067  1.053  3.013  0.000    21.771     6.642
 751   6 C      0.002  1.078  2.920  0.000    27.974     8.675
 752   6 C     -0.036  1.083  2.953  0.000    28.884     8.814
 753   6 C     -0.033  1.083  2.950  0.000    28.826     8.805
 754   6 C     -0.053  1.075  2.978  0.000    29.323     8.879
 755   6 C     -0.067  1.080  2.987  0.000    29.678     8.933
 756   6 C      0.144  1.051  2.806  0.000    24.871     8.173
 757   8 O     -0.431  1.721  4.710  0.000    21.462     6.254
 758   1 H      0.209  0.791  0.000  0.000     1.060     1.613
 759   1 H      0.093  0.907  0.000  0.000     1.852     2.128
 760   1 H      0.060  0.940  0.000  0.000     2.199     2.319
 761   1 H      0.056  0.944  0.000  0.000     2.249     2.345
 762   1 H      0.035  0.965  0.000  0.000     2.519     2.482
 763   1 H      0.030  0.970  0.000  0.000     2.587     2.515
 764   1 H      0.053  0.947  0.000  0.000     2.287     2.365
 765   1 H      0.047  0.953  0.000  0.000     2.354     2.399
 766   1 H      0.334  0.666  0.000  0.000     0.627     1.244
 767   7 N     -0.384  1.324  4.060  0.000    29.933     8.126
 768   6 C      0.028  1.054  2.917  0.000    20.119     6.389
 769   6 C      0.205  1.091  2.704  0.000    23.643     7.964
 770   8 O     -0.396  1.762  4.635  0.000    21.611     6.233
 771   6 C     -0.080  1.060  3.021  0.000    22.027     6.680
 772   6 C      0.006  1.086  2.909  0.000    27.889     8.662
 773   6 C     -0.045  1.081  2.963  0.000    29.111     8.848
 774   6 C     -0.042  1.086  2.956  0.000    29.046     8.838
 775   6 C     -0.037  1.082  2.955  0.000    28.920     8.818
 776   6 C     -0.034  1.085  2.948  0.000    28.838     8.806
 777   6 C     -0.036  1.081  2.955  0.000    28.891     8.814
 778   1 H      0.168  0.832  0.000  0.000     1.286     1.776
 779   1 H      0.063  0.937  0.000  0.000     2.162     2.300
 780   1 H      0.073  0.927  0.000  0.000     2.052     2.240
 781   1 H      0.075  0.925  0.000  0.000     2.034     2.231
 782   1 H      0.028  0.972  0.000  0.000     2.609     2.526
 783   1 H      0.053  0.947  0.000  0.000     2.286     2.364
 784   1 H      0.025  0.975  0.000  0.000     2.666     2.553
 785   1 H      0.043  0.957  0.000  0.000     2.409     2.427
 786   1 H      0.029  0.971  0.000  0.000     2.607     2.525
 787   1 H      0.186  0.814  0.000  0.000     1.180     1.701
 788   1 H      0.093  0.907  0.000  0.000     1.852     2.128
 789   1 H      0.186  0.814  0.000  0.000     1.181     1.702
 790   1 H      0.059  0.941  0.000  0.000     2.209     2.324
 791   1 H      0.176  0.824  0.000  0.000     1.238     1.743
 792   1 H      0.068  0.932  0.000  0.000     2.102     2.267
 793   1 H      0.183  0.817  0.000  0.000     1.196     1.713
 794   1 H      0.079  0.921  0.000  0.000     1.984     2.202
 795   1 H      0.183  0.817  0.000  0.000     1.199     1.715
 796   1 H      0.077  0.923  0.000  0.000     2.014     2.219

 Mol. C6AA /au·bohr⁶  :    6066180.061444
 Mol. C8AA /au·bohr⁸  :  138000494.467104
 Mol. α(0) /au        :       3722.507121

 
molecular dipole:
                 x           y           z       tot (Debye)
 q only:       41.648      52.501     -14.760
   full:       41.490      45.399     -15.184     161.020
molecular quadrupole (traceless):
                xx          xy          yy          xz          yz          zz
 q only:     8228.225   11404.661    -804.609   -1321.713     645.880   -7423.616
  q+dip:     8330.378   10210.446   -1198.298   -1406.431     355.114   -7132.080
   full:     8319.113   10210.690   -1196.196   -1406.417     362.679   -7122.917
speedup  1.29
cpu  time for grad    2 m 39.6 s
wall time for grad    2 m  3.8 s

SCC energy    :   -1211.6062853
rep           :      15.1513598
ES            :       3.6763573
AES           :      -0.1860603
AXC           :       0.4255889
disp          :      -1.1303463
XB            :       0.0000000
fix           :       0.0000000
Gborn         :       0.0000000
Gsasa         :       0.0000000
Ghb           :       0.0000000
Gshift        :       0.0000000
Gsolv         :      -1.1670315     -732.32
Etot ala COSMO:   -1211.6062853
grad norm     :       0.6178587
total E       :   -1196.3351312
atomizationE  :     227.9363622   143032.23
(atE without considering molecular charge,
 total energy contains solvation terms)
H-L gap (eV)  :          1.0774

------------------------------------------------------------------------
 * finished run on 2019/05/04 at 17:22:05.200     
------------------------------------------------------------------------
 total:
 * wall-time:     0 d,  0 h,  2 min,  6.845 sec
 *  cpu-time:     0 d,  0 h,  2 min, 43.492 sec
 * ratio c/w:     1.289 speedup
 SCF:
 * wall-time:     0 d,  0 h,  2 min,  5.906 sec
 *  cpu-time:     0 d,  0 h,  2 min, 42.500 sec
 * ratio c/w:     1.291 speedup

