      -----------------------------------------------------------      
     |                   =====================                   |     
     |                           x T B                           |     
     |                   =====================                   |     
     |                         S. Grimme                         |     
     |          Mulliken Center for Theoretical Chemistry        |     
     |                    University of Bonn                     |     
     |                 Version 6.0.1 (SAW181210)                 |     
      -----------------------------------------------------------      

   This program is distributed in the hope that it will be useful,
   but WITHOUT ANY WARRANTY; without even the implied warranty of
   MERCHANTABILITY or FITNESS FOR A PARTICULAR PURPOSE.
   
   FOR NON-COMMERCIAL, ACADEMIA USE ONLY.
   
   Cite this work as:
   S. Grimme, C. Bannwarth, P. Shushkov, J. Comput. Theory Chem., 2017,
   13, 1989-2009.
   C. Bannwarth, S. Ehlert and S. Grimme., ChemRxiv, 2018, preprint.
   http://doi.org/10.26434/chemrxiv.7246238.v1
   
   for sTDA-xTB:
   S. Grimme and C. Bannwarth, J. Chem. Phys., 2016, 145, 054103.
   
   in the mass-spec context:
   V. Asgeirsson, C. Bauer and S. Grimme, Chem. Sci., 2017, 8, 4879.
   
   if GBSA is used:
   P. Shushkov, F. März and S. Grimme, unpublished.
   
   for ANC optimizer:
   S. Grimme, unpublished.
   Rational Function algorithm used in ANCopt:
   F. Eckert, P. Pulay, H.-J. Werner, J. Comput. Chem., 1997, 18, 1473.
   
   with help from (in alphabetical order)
   C. Bannwarth, F. Bohle, G. Brandenburg, E. Caldeweyher, M. Checinski,
   S. Dohm, S. Ehlert, S. Ehrlich, F. März, H. Neugebauer, J. Pisarek,
   P. Pracht, P. Shushkov, and S. Spicher.
   
 * started run on 2019/05/08 at 09:27:13.085     
========================================================================
 # omp threads = 2
========================================================================
number of atoms            : 376
number of electrons        : 1006
charge                     : 0
spin                       : .0
first test random number   : .2674

########################################################################
# WARNING! Please study the warnings concerning your input carefully
#  - Process number higher than OMP_NUM_THREADS, I hope you know what you are doing.
########################################################################

           ------------------------------------------------- 
          |                 G F N 2 - x T B                 |
          | Geometry, Frequencies, Noncovalent interactions |
          |            JCTC 2018 parametrisation            |
           ------------------------------------------------- 
 
      method parameters     
 k(s)        :  1.8500
 k(p)        :  2.2300
 k(d)        :  2.2300
 k(f)        :  2.0000
 kEN (H0ij)  : -2.0000
 D4 a1       :  0.5200
 D4 a2       :  5.0000
 D4 s6       :  1.0000
 D4 s8       :  2.7000
 D4 s9       :  5.0000
 alphaj      :  2.0000

 Solvent             : h2o
 Using internal parameter file: .param_gbsa2_h2o
 Gsolv ref. state (COSMO-RS): gsolv [1 M gas/solution]
 temperature (mdtemp)       :    298.150000000000     
 dielectric constant        :    80.2000000000000     
 rho                        :    1.00000000000000     
 mass                       :    18.0000000000000     
 surface tension            :    15.5689454083859     
 probe radius               :   0.975313790000000     
 vdW radii scaling          :    1.00000000000000     
 Gshift (Eh)                :   1.857443126794793E-003
 c1                         :    1.55243817000000     
 soset                      :   0.130326360000000     
 HB correction              :  T

            Z     q(EN)     CN     RAES       Cart. coordinates
     1  N   5.0   -0.22    3.28    1.98   -59.13030   127.67587    34.24972
     2  C   4.0    0.03    4.38    4.35   -61.65054   128.01104    33.25377
     3  C   4.0    0.15    3.47    3.10   -62.58280   125.75491    31.76371
     4  O   6.0   -0.31    1.26    1.80   -64.84008   125.27931    31.63368
     5  C   4.0   -0.05    4.36    4.32   -61.71553   130.36532    31.62858
     6  C   4.0   -0.03    4.16    3.93   -61.93902   132.78918    33.22333
     7  C   4.0   -0.08    4.11    3.83   -60.76941   132.67845    35.88631
     8  C   4.0   -0.08    4.09    3.78   -60.86796   134.99758    31.67070
     9  H   1.0    0.08    1.03    1.43   -57.80610   128.95761    33.76264
    10  H   1.0    0.04    1.06    1.44   -63.00063   128.19794    34.81748
    11  H   1.0    0.04    1.03    1.43   -60.02510   130.38213    30.46186
    12  H   1.0    0.04    1.03    1.43   -63.34282   130.26113    30.36980
    13  H   1.0    0.04    1.06    1.44   -63.95409   133.16158    33.50274
    14  H   1.0    0.04    1.00    1.43   -61.14047   134.47459    36.81353
    15  H   1.0    0.04    1.00    1.43   -61.59635   131.20489    37.04089
    16  H   1.0    0.04    1.00    1.43   -58.72820   132.42966    35.82296
    17  H   1.0    0.04    1.00    1.43   -61.27145   136.78368    32.60513
    18  H   1.0    0.04    1.00    1.43   -58.83251   134.85996    31.44776
    19  H   1.0    0.04    1.00    1.43   -61.76273   135.03600    29.82248
    20  N   5.0   -0.15    3.48    2.06   -60.82493   124.34543    30.65192
    21  C   4.0    0.04    4.49    4.53   -61.50775   121.82877    29.89830
    22  C   4.0    0.15    3.54    3.13   -61.99559   120.09759    32.17683
    23  O   6.0   -0.29    1.34    1.80   -64.03393   119.00575    32.36298
    24  C   4.0   -0.05    4.29    4.18   -59.50324   120.60714    28.25716
    25  C   4.0   -0.03    4.26    4.12   -60.22783   117.87561    27.63129
    26  C   4.0    0.15    3.23    3.04   -62.63275   117.72376    26.06167
    27  O   6.0   -0.30    1.22    1.80   -64.65299   118.64503    26.68475
    28  N   5.0   -0.18    3.19    1.95   -62.32972   116.57989    23.80979
    29  H   1.0    0.08    1.07    1.44   -59.00901   124.93163    30.60924
    30  H   1.0    0.08    1.08    1.44   -63.32083   121.91186    28.89738
    31  H   1.0    0.05    1.03    1.43   -59.29216   121.69781    26.51903
    32  H   1.0    0.04    1.03    1.43   -57.71605   120.61147    29.28347
    33  H   1.0    0.04    1.03    1.43   -58.68269   116.97140    26.61938
    34  H   1.0    0.06    1.04    1.43   -60.56200   116.82175    29.37369
    35  H   1.0    0.09    1.03    1.43   -60.75023   115.60838    23.39975
    36  H   1.0    0.10    1.03    1.43   -63.86446   116.27378    22.72376
    37  N   5.0   -0.15    3.46    2.05   -60.08505   119.74369    33.80614
    38  C   4.0    0.03    4.30    4.20   -60.24196   117.84670    35.82518
    39  C   4.0    0.16    3.41    3.08   -62.86512   118.05281    37.18037
    40  O   6.0   -0.29    1.20    1.80   -63.99736   116.21039    38.02937
    41  C   4.0   -0.04    4.14    3.88   -57.71491   117.67628    37.38526
    42  C   4.0   -0.03    4.13    3.86   -57.50324   118.74323    40.09853
    43  C   4.0    0.15    3.18    3.03   -55.35493   117.55838    41.68070
    44  O   6.0   -0.28    1.20    1.80   -54.78100   115.32554    41.60290
    45  N   5.0   -0.18    3.17    1.95   -54.05100   119.15620    43.19585
    46  H   1.0    0.07    1.06    1.44   -58.43944   120.70148    33.57522
    47  H   1.0    0.06    1.06    1.44   -60.41156   115.99285    34.88403
    48  H   1.0    0.06    1.03    1.43   -57.27023   115.66891    37.55645
    49  H   1.0    0.04    1.03    1.43   -56.25653   118.53985    36.21208
    50  H   1.0    0.04    1.02    1.43   -57.33801   120.79449    40.11060
    51  H   1.0    0.05    1.03    1.43   -59.24046   118.26231    41.11391
    52  H   1.0    0.08    1.02    1.43   -54.75122   120.83570    43.77806
    53  H   1.0    0.10    1.03    1.43   -52.83384   118.33808    44.41659
    54  N   5.0   -0.13    3.60    2.16   -63.82760   120.38479    37.17771
    55  C   4.0    0.04    4.47    4.49   -66.25280   120.95028    38.24190
    56  C   4.0    0.16    3.51    3.12   -68.30980   120.31047    36.37554
    57  O   6.0   -0.33    1.52    1.80   -69.91332   118.75023    37.06995
    58  C   4.0   -0.04    4.29    4.19   -66.21841   123.60599    39.34067
    59  C   4.0   -0.02    3.55    3.14   -64.48246   123.53614    41.63480
    60  C   4.0   -0.04    3.46    3.10   -65.33181   122.55871    43.92826
    61  C   4.0   -0.05    3.45    3.09   -61.96579   124.33153    41.55909
    62  C   4.0   -0.03    3.42    3.08   -63.82382   122.50011    46.07425
    63  C   4.0   -0.05    3.41    3.08   -60.41301   124.26426    43.67709
    64  C   4.0    0.07    3.42    3.09   -61.35008   123.41338    45.99406
    65  O   6.0   -0.23    2.09    1.84   -59.96472   123.47518    48.16296
    66  H   1.0    0.08    1.09    1.44   -62.71004   121.84232    36.64181
    67  H   1.0    0.06    1.08    1.44   -66.57452   119.60260    39.79809
    68  H   1.0    0.04    1.03    1.43   -65.53075   124.94290    37.93438
    69  H   1.0    0.04    1.03    1.43   -68.12089   124.14626    39.91322
    70  H   1.0    0.05    1.03    1.43   -67.25441   121.88398    44.07781
    71  H   1.0    0.05    1.03    1.43   -61.21319   125.06272    39.82198
    72  H   1.0    0.06    1.03    1.43   -64.55939   121.79126    47.83892
    73  H   1.0    0.05    1.03    1.43   -58.47762   124.92018    43.60843
    74  H   1.0    0.12    1.02    1.43   -58.19946   123.89366    47.75574
    75  N   5.0   -0.13    3.52    2.09   -68.42446   121.21634    34.06995
    76  C   4.0    0.04    4.53    4.58   -70.43914   120.22596    32.47922
    77  C   4.0    0.16    3.50    3.11   -70.80700   117.34117    32.78437
    78  O   6.0   -0.33    1.26    1.80   -72.94301   116.47782    33.08992
    79  C   4.0   -0.04    4.29    4.18   -69.95582   121.00583    29.74709
    80  C   4.0   -0.05    4.18    3.96   -72.37749   120.98088    28.17123
    81  C   4.0   -0.01    4.17    3.94   -71.76336   121.36335    25.35127
    82  N   5.0   -0.14    3.38    2.01   -74.10803   121.71494    23.90456
    83  C   4.0    0.09    3.32    3.06   -74.37127   121.93518    21.40331
    84  N   5.0   -0.18    3.24    1.96   -72.36689   121.79721    19.88264
    85  N   5.0   -0.19    3.23    1.96   -76.67706   122.36628    20.44432
    86  H   1.0    0.11    1.07    1.44   -67.17175   122.44902    33.30485
    87  H   1.0    0.05    1.10    1.44   -72.22597   121.03054    33.14477
    88  H   1.0    0.06    1.05    1.44   -69.19198   122.92029    29.78651
    89  H   1.0    0.07    1.03    1.43   -68.52575   119.77307    28.91717
    90  H   1.0    0.05    1.03    1.43   -73.34082   119.18232    28.44130
    91  H   1.0    0.04    1.03    1.43   -73.60613   122.49581    28.82928
    92  H   1.0    0.05    1.02    1.43   -70.56771   123.03593    25.14597
    93  H   1.0    0.05    1.02    1.43   -70.73751   119.70814    24.66708
    94  H   1.0    0.07    1.07    1.44   -75.69000   121.81666    24.96833
    95  H   1.0    0.09    1.03    1.43   -70.63985   121.46239    20.60480
    96  H   1.0    0.09    1.03    1.43   -72.55904   121.92546    17.99494
    97  H   1.0    0.08    1.03    1.43   -78.22350   122.37079    21.55076
    98  H   1.0    0.09    1.03    1.43   -76.93740   122.43337    18.56087
    99  N   5.0   -0.14    3.46    2.05   -68.72573   115.89730    32.53831
   100  C   4.0    0.04    4.36    4.31   -68.73147   113.14477    32.46590
   101  C   4.0    0.15    3.42    3.08   -69.11853   111.87169    35.04728
   102  O   6.0   -0.30    1.26    1.80   -68.94921   109.57668    35.30459
   103  C   4.0   -0.03    4.22    4.04   -66.38097   111.97377    31.20279
   104  C   4.0   -0.03    4.12    3.85   -66.82308   110.92351    28.54042
   105  C   4.0    0.25    3.06    3.02   -64.98755   108.72451    27.67034
   106  O   6.0   -0.27    1.16    1.80   -64.54119   108.63223    25.35402
   107  O   6.0   -0.27    1.16    1.80   -64.20928   107.21854    29.30351
   108  H   1.0    0.11    1.09    1.44   -67.03700   116.78009    32.34282
   109  H   1.0    0.05    1.06    1.44   -70.42347   112.57294    31.39458
   110  H   1.0    0.06    1.02    1.43   -64.86145   113.37067    31.16618
   111  H   1.0    0.08    1.04    1.44   -65.74168   110.38586    32.36485
   112  H   1.0    0.05    1.03    1.43   -68.69156   110.04199    28.45006
   113  H   1.0    0.06    1.02    1.43   -66.73312   112.41324    27.11888
   114  N   5.0   -0.13    3.55    2.11   -69.86275   113.41521    36.88200
   115  C   4.0    0.04    4.52    4.56   -70.79528   112.47245    39.24184
   116  C   4.0    0.15    3.59    3.16   -73.40057   113.57923    39.75337
   117  O   6.0   -0.30    1.41    1.80   -75.14265   112.25774    40.52047
   118  C   4.0   -0.04    4.28    4.17   -68.97895   112.91556    41.43254
   119  C   4.0   -0.04    4.09    3.78   -70.32395   112.51268    43.94621
   120  S   6.0    0.01    2.62    3.10   -72.31500   109.63411    44.23620
   121  C   4.0   -0.06    3.88    3.43   -70.64524   108.12977    46.88133
   122  H   1.0    0.12    1.14    1.45   -69.66339   115.30977    36.68142
   123  H   1.0    0.06    1.09    1.44   -71.03418   110.43152    39.01789
   124  H   1.0    0.06    1.02    1.43   -67.37509   111.63843    41.20937
   125  H   1.0    0.06    1.03    1.43   -68.25565   114.84761    41.36227
   126  H   1.0    0.04    1.07    1.44   -68.94018   112.39541    45.45683
   127  H   1.0    0.06    1.08    1.44   -71.61369   114.07331    44.30672
   128  H   1.0    0.06    1.05    1.44   -71.82085   106.53628    47.40159
   129  H   1.0    0.05    1.03    1.43   -68.80320   107.48231    46.25242
   130  H   1.0    0.04    1.04    1.43   -70.47057   109.47247    48.41517
   131  N   5.0   -0.14    3.58    2.14   -73.71229   116.01257    39.24920
   132  C   4.0    0.03    4.52    4.56   -76.18148   117.13954    39.51877
   133  C   4.0    0.17    3.61    3.17   -78.04002   115.39129    38.21891
   134  O   6.0   -0.31    1.36    1.80   -79.86301   114.35211    39.19428
   135  C   4.0   -0.05    4.41    4.40   -76.16797   119.72390    38.28806
   136  C   4.0   -0.03    4.20    4.00   -77.81071   121.64121    39.67555
   137  C   4.0   -0.07    4.16    3.93   -80.53538   121.21865    38.96318
   138  C   4.0   -0.08    4.12    3.85   -77.42751   121.63086    42.52617
   139  H   1.0    0.11    1.13    1.45   -72.27232   117.13107    38.67621
   140  H   1.0    0.05    1.06    1.44   -76.65462   117.22377    41.52883
   141  H   1.0    0.05    1.04    1.43   -74.21706   120.39471    38.27172
   142  H   1.0    0.04    1.04    1.43   -76.80501   119.58284    36.33316
   143  H   1.0    0.03    1.06    1.44   -77.23105   123.51063    38.99527
   144  H   1.0    0.05    1.02    1.43   -81.78811   122.34477    40.13308
   145  H   1.0    0.04    1.01    1.43   -80.84074   121.69798    36.99817
   146  H   1.0    0.06    1.02    1.43   -81.04368   119.25057    39.19959
   147  H   1.0    0.04    1.00    1.43   -78.10219   123.40088    43.32397
   148  H   1.0    0.04    1.00    1.43   -78.45447   120.11278    43.44741
   149  H   1.0    0.04    1.00    1.43   -75.43277   121.44653    42.98801
   150  N   5.0   -0.15    3.60    2.16   -77.49227   115.09387    35.77659
   151  C   4.0    0.04    4.58    4.64   -79.01311   113.32993    34.37157
   152  C   4.0    0.16    3.47    3.10   -79.09308   110.68883    35.58209
   153  O   6.0   -0.30    1.26    1.80   -81.11188   109.62438    35.96369
   154  C   4.0   -0.02    4.37    4.34   -78.00840   113.21346    31.67122
   155  C   4.0   -0.04    4.22    4.05   -78.30883   115.84296    30.50217
   156  C   4.0   -0.07    4.15    3.90   -79.41191   111.17417    30.20116
   157  C   4.0   -0.07    4.02    3.66   -77.45355   115.94318    27.75669
   158  H   1.0    0.11    1.11    1.44   -75.80109   115.64091    35.05456
   159  H   1.0    0.06    1.06    1.44   -80.97937   113.99984    34.38793
   160  H   1.0    0.05    1.05    1.44   -75.99385   112.73138    31.75134
   161  H   1.0    0.04    1.03    1.43   -80.29275   116.39231    30.63821
   162  H   1.0    0.05    1.04    1.43   -77.19165   117.17272    31.60343
   163  H   1.0    0.04    1.00    1.43   -78.59155   110.92602    28.33808
   164  H   1.0    0.06    1.01    1.43   -79.31340   109.36573    31.17635
   165  H   1.0    0.05    1.00    1.43   -81.39501   111.68220    30.01475
   166  H   1.0    0.04    1.00    1.43   -77.55921   117.88040    27.09585
   167  H   1.0    0.05    1.00    1.43   -75.52092   115.26147    27.59811
   168  H   1.0    0.04    1.00    1.43   -78.66024   114.77872    26.57604
   169  N   5.0   -0.14    3.43    2.04   -76.81691   109.63729    36.01712
   170  C   4.0    0.04    4.29    4.18   -76.30368   107.01528    36.66217
   171  C   4.0    0.16    3.44    3.09   -77.58113   105.95948    39.03407
   172  O   6.0   -0.28    1.26    1.80   -77.37273   103.68595    39.41822
   173  C   4.0   -0.05    4.14    3.88   -73.48860   106.46648    37.03384
   174  H   1.0    0.09    1.08    1.44   -75.26923   110.73848    35.83590
   175  H   1.0    0.06    1.05    1.44   -77.02226   105.82980    35.10995
   176  H   1.0    0.06    1.01    1.43   -73.23071   104.43363    37.11578
   177  H   1.0    0.07    1.01    1.43   -72.30824   107.23070    35.54032
   178  H   1.0    0.06    1.01    1.43   -72.89308   107.23637    38.84454
   179  N   5.0   -0.13    3.52    2.09   -78.93060   107.51099    40.51110
   180  C   4.0    0.04    4.44    4.45   -80.49500   106.44185    42.49881
   181  C   4.0    0.15    3.33    3.06   -83.37009   106.51351    41.85071
   182  O   6.0   -0.27    1.17    1.80   -84.95089   105.03275    42.71348
   183  C   4.0   -0.03    4.27    4.14   -79.88365   107.72325    44.98493
   184  C   4.0    0.25    3.11    3.03   -78.27669   105.98491    46.73666
   185  O   6.0   -0.27    1.16    1.80   -78.83356   103.71591    46.96599
   186  O   6.0   -0.33    1.38    1.80   -76.56018   107.15950    47.88710
   187  H   1.0    0.11    1.07    1.44   -78.51868   109.37974    40.53068
   188  H   1.0    0.09    1.08    1.44   -80.01290   104.42677    42.66098
   189  H   1.0    0.05    1.04    1.43   -78.79459   109.42669    44.64019
   190  H   1.0    0.05    1.03    1.43   -81.60898   108.14937    46.03341
   191  N   5.0   -0.14    3.47    2.06   -83.83446   108.48078    40.31030
   192  C   4.0    0.02    4.21    4.01   -86.23493   109.23349    39.22822
   193  C   4.0    0.15    3.36    3.07   -86.82553   111.90254    40.18017
   194  O   6.0   -0.30    1.24    1.80   -88.90135   112.45339    41.07505
   195  H   1.0    0.11    1.14    1.45   -82.31428   109.14986    39.35880
   196  H   1.0    0.06    1.02    1.43   -86.10228   109.19261    37.16990
   197  H   1.0    0.07    1.03    1.43   -87.71176   107.94817    39.87485
   198  N   5.0   -0.13    3.58    2.14   -84.87404   113.49993    40.21344
   199  C   4.0    0.04    4.61    4.67   -85.10770   115.77729    41.68458
   200  C   4.0    0.15    3.43    3.09   -85.74668   117.96039    39.94709
   201  O   6.0   -0.30    1.25    1.80   -85.02120   118.06216    37.76334
   202  C   4.0   -0.02    4.38    4.34   -82.78945   116.17924    43.34490
   203  C   4.0   -0.04    4.25    4.10   -82.21575   113.69305    44.68805
   204  C   4.0   -0.09    4.15    3.90   -83.32538   118.33433    45.15817
   205  C   4.0   -0.07    4.05    3.70   -79.83336   113.85481    46.25085
   206  H   1.0    0.12    1.10    1.44   -83.21001   113.19758    39.32352
   207  H   1.0    0.05    1.09    1.44   -86.74797   115.46927    42.91787
   208  H   1.0    0.06    1.08    1.44   -81.19155   116.65807    42.14811
   209  H   1.0    0.04    1.03    1.43   -83.82700   113.20173    45.88413
   210  H   1.0    0.06    1.05    1.44   -81.99905   112.20866    43.28381
   211  H   1.0    0.03    1.00    1.43   -81.68542   118.69476    46.33765
   212  H   1.0    0.04    1.01    1.43   -83.72256   120.06458    44.12407
   213  H   1.0    0.04    1.00    1.43   -84.91763   117.88984    46.37675
   214  H   1.0    0.04    1.00    1.43   -79.55305   112.13594    47.33274
   215  H   1.0    0.06    1.00    1.43   -78.22943   114.11739    44.98857
   216  H   1.0    0.04    1.00    1.43   -79.92822   115.43962    47.55597
   217  N   5.0   -0.15    3.48    2.06   -87.31888   119.65979    40.99614
   218  C   4.0    0.04    4.46    4.48   -88.28704   121.78646    39.59337
   219  C   4.0    0.16    3.65    3.20   -86.87548   124.14585    40.43955
   220  O   6.0   -0.31    1.32    1.80   -87.17956   125.03316    42.57144
   221  C   4.0   -0.02    4.27    4.14   -91.09634   122.19763    40.03836
   222  C   4.0    0.26    3.13    3.03   -92.03218   124.62801    38.63236
   223  O   6.0   -0.28    1.25    1.80   -90.37889   126.12369    37.82877
   224  O   6.0   -0.27    1.16    1.80   -94.36455   124.89212    38.47076
   225  H   1.0    0.07    1.07    1.44   -87.71078   119.63078    42.86081
   226  H   1.0    0.06    1.07    1.44   -87.93733   121.40312    37.59792
   227  H   1.0    0.06    1.02    1.43   -92.23185   120.60795    39.39163
   228  H   1.0    0.06    1.03    1.43   -91.47958   122.54635    42.03974
   229  N   5.0   -0.10    3.68    2.25   -85.04540   125.03160    38.94102
   230  C   4.0    0.04    4.53    4.58   -83.62788   127.18061    39.85736
   231  C   4.0    0.10    3.23    3.04   -85.28040   129.49132    40.44517
   232  O   6.0   -0.31    1.19    1.80   -84.82413   130.71187    42.35508
   233  C   4.0   -0.05    4.31    4.22   -81.69316   127.68662    37.78582
   234  C   4.0   -0.04    4.24    4.07   -82.89647   126.63131    35.37160
   235  C   4.0   -0.01    4.34    4.28   -84.83788   124.66946    36.22903
   236  H   1.0    0.05    1.05    1.44   -82.72322   126.69863    41.66003
   237  H   1.0    0.05    1.02    1.43   -81.28748   129.69585    37.60791
   238  H   1.0    0.03    1.02    1.43   -79.93750   126.70981    38.22771
   239  H   1.0    0.05    1.02    1.43   -83.83503   128.15279    34.35197
   240  H   1.0    0.04    1.02    1.43   -81.47979   125.82102    34.12186
   241  H   1.0    0.06    1.02    1.43   -86.68612   125.00758    35.36283
   242  H   1.0    0.05    1.02    1.43   -84.27463   122.73025    35.80189
   243  N   5.0   -0.20    3.28    1.98   -87.07914   130.14581    47.19450
   244  C   4.0    0.03    4.32    4.23   -85.63205   129.30680    49.36977
   245  C   4.0    0.15    3.42    3.08   -83.89562   131.45185    50.23860
   246  O   6.0   -0.28    1.24    1.80   -83.42241   131.86188    52.47939
   247  C   4.0   -0.04    4.30    4.20   -84.26625   126.82586    48.76495
   248  C   4.0   -0.02    4.16    3.91   -85.66068   124.43789    49.74226
   249  C   4.0   -0.07    4.10    3.81   -87.48137   123.31751    47.80312
   250  C   4.0   -0.08    4.11    3.81   -83.76364   122.41136    50.53114
   251  H   1.0    0.11    1.03    1.43   -87.41132   128.88152    45.80530
   252  H   1.0    0.05    1.05    1.44   -86.95870   129.00134    50.94924
   253  H   1.0    0.05    1.03    1.43   -84.01896   126.71128    46.72133
   254  H   1.0    0.05    1.03    1.43   -82.39031   126.89724    49.62289
   255  H   1.0    0.04    1.05    1.44   -86.75842   124.98268    51.41205
   256  H   1.0    0.04    1.00    1.43   -88.11580   121.46350    48.41754
   257  H   1.0    0.05    1.00    1.43   -89.15669   124.49069    47.60215
   258  H   1.0    0.06    1.02    1.43   -86.58478   123.15989    45.97203
   259  H   1.0    0.04    1.00    1.43   -84.72896   120.77651    51.30260
   260  H   1.0    0.04    1.00    1.43   -82.66413   121.84326    48.89490
   261  H   1.0    0.04    1.00    1.43   -82.47560   123.15843    51.94556
   262  N   5.0   -0.14    3.52    2.09   -82.93765   132.77225    48.34810
   263  C   4.0    0.03    4.27    4.13   -81.63412   135.16400    48.55169
   264  C   4.0    0.10    3.25    3.04   -82.16508   136.47772    51.10430
   265  O   6.0   -0.26    1.11    1.80   -80.49758   136.84312    52.66467
   266  C   4.0   -0.05    4.30    4.20   -82.32100   136.89634    46.30489
   267  C   4.0   -0.02    4.20    4.00   -82.70108   135.59602    43.71832
   268  C   4.0   -0.07    4.11    3.82   -82.96264   137.61181    41.65744
   269  C   4.0   -0.06    4.13    3.86   -80.60139   133.77424    42.94947
   270  H   1.0    0.09    1.12    1.45   -83.52747   132.31326    46.59045
   271  H   1.0    0.05    1.05    1.44   -79.59340   134.77200    48.51054
   272  H   1.0    0.04    1.03    1.43   -84.07554   137.90420    46.70113
   273  H   1.0    0.04    1.03    1.43   -80.81856   138.29857    46.13177
   274  H   1.0    0.06    1.07    1.44   -84.48492   134.57232    43.76599
   275  H   1.0    0.05    1.00    1.43   -83.32041   136.70423    39.84927
   276  H   1.0    0.05    1.00    1.43   -84.54354   138.85828    42.05116
   277  H   1.0    0.04    1.00    1.43   -81.23595   138.71846    41.49607
   278  H   1.0    0.05    1.01    1.43   -81.03151   132.96440    41.11451
   279  H   1.0    0.04    1.00    1.43   -78.80899   134.77036    42.77244
   280  H   1.0    0.05    1.00    1.43   -80.36145   132.23111    44.27719
   281  N   5.0   -0.21    3.23    1.96   -88.19083   110.34117    59.38918
   282  C   4.0    0.03    4.24    4.09   -87.87202   112.57057    57.88682
   283  C   4.0    0.08    3.23    3.04   -86.59002   114.60854    59.47660
   284  O   6.0   -0.31    1.20    1.80   -84.48004   115.38255    58.88527
   285  C   4.0   -0.05    4.25    4.10   -90.40822   113.40981    56.81910
   286  C   4.0   -0.05    4.18    3.96   -90.19354   115.87762    55.32347
   287  C   4.0   -0.01    4.16    3.92   -91.97464   116.10827    53.04842
   288  N   5.0   -0.14    3.38    2.01   -91.02456   114.65071    50.90880
   289  C   4.0    0.09    3.32    3.06   -91.12375   115.19568    48.44687
   290  N   5.0   -0.19    3.23    1.96   -91.79594   117.46949    47.59165
   291  N   5.0   -0.18    3.24    1.96   -90.34902   113.45649    46.78114
   292  H   1.0    0.08    1.03    1.43   -89.95235   110.01695    60.05489
   293  H   1.0    0.05    1.05    1.44   -86.55013   112.12362    56.34540
   294  H   1.0    0.04    1.03    1.43   -91.12297   111.86434    55.64789
   295  H   1.0    0.04    1.03    1.43   -91.73106   113.63567    58.38356
   296  H   1.0    0.04    1.03    1.43   -90.57053   117.46768    56.57533
   297  H   1.0    0.05    1.03    1.43   -88.25973   116.09376    54.63163
   298  H   1.0    0.04    1.02    1.43   -93.85113   115.39986    53.54385
   299  H   1.0    0.04    1.03    1.43   -92.12574   118.09484    52.52143
   300  H   1.0    0.08    1.07    1.44   -90.57003   112.84803    51.36053
   301  H   1.0    0.08    1.03    1.43   -92.50731   118.82705    48.72501
   302  H   1.0    0.09    1.03    1.43   -92.05204   117.71090    45.72160
   303  H   1.0    0.09    1.03    1.43   -89.99787   111.67339    47.35136
   304  H   1.0    0.11    1.03    1.43   -90.52302   113.68939    44.89134
   305  N   5.0   -0.19    3.25    1.97   -79.85136   114.51106    60.24905
   306  C   4.0    0.04    4.24    4.07   -78.35340   115.30044    58.13808
   307  C   4.0    0.08    3.20    3.04   -77.81353   118.14306    58.31111
   308  O   6.0   -0.31    1.15    1.80   -75.61624   118.85817    58.11802
   309  C   4.0   -0.05    4.24    4.07   -79.49735   114.50818    55.60929
   310  C   4.0   -0.05    4.18    3.96   -77.83274   112.61375    54.19210
   311  C   4.0   -0.05    4.13    3.87   -78.48642   109.84167    54.68265
   312  C   4.0   -0.03    4.10    3.79   -76.14617   108.12374    54.67917
   313  N   5.0   -0.12    4.02    2.91   -74.66355   108.21787    52.28879
   314  H   1.0    0.11    1.07    1.44   -81.59453   113.79732    59.91782
   315  H   1.0    0.05    1.07    1.44   -76.47244   114.44876    58.37336
   316  H   1.0    0.05    1.03    1.43   -81.37697   113.73164    55.92048
   317  H   1.0    0.04    1.03    1.43   -79.73343   116.19410    54.44801
   318  H   1.0    0.04    1.03    1.43   -78.02594   112.95569    52.16910
   319  H   1.0    0.04    1.03    1.43   -75.86890   112.96944    54.72532
   320  H   1.0    0.04    1.03    1.43   -79.47323   109.71192    56.48657
   321  H   1.0    0.05    1.02    1.43   -79.79909   109.18225    53.23465
   322  H   1.0    0.04    1.02    1.43   -74.86424   108.65111    56.21343
   323  H   1.0    0.05    1.02    1.43   -76.72113   106.15692    54.91984
   324  H   1.0    0.06    1.02    1.43   -73.11664   107.06285    52.44140
   325  H   1.0    0.11    1.13    1.45   -75.67536   107.59484    50.60385
   326  H   1.0    0.06    1.02    1.43   -74.06080   110.01952    51.91022
   327  N   5.0   -0.20    3.23    1.96   -69.79677   121.62376    57.11939
   328  C   4.0    0.03    4.22    4.04   -69.26603   123.55179    55.27805
   329  C   4.0    0.09    3.21    3.04   -68.45449   125.92934    56.70005
   330  O   6.0   -0.27    1.12    1.80   -66.31749   126.77986    56.34224
   331  C   4.0   -0.04    4.27    4.14   -71.63532   124.04048    53.63242
   332  C   4.0   -0.02    3.48    3.11   -72.36654   121.84877    51.90918
   333  C   4.0   -0.05    3.45    3.09   -71.58821   121.77784    49.38580
   334  C   4.0   -0.04    3.44    3.09   -73.85642   119.82763    52.73880
   335  C   4.0   -0.04    3.42    3.08   -72.24870   119.82662    47.75804
   336  C   4.0   -0.05    3.41    3.08   -74.49664   117.83521    51.13748
   337  C   4.0    0.06    3.41    3.08   -73.71115   117.80516    48.60993
   338  O   6.0   -0.26    2.11    1.84   -74.26328   115.90470    46.94296
   339  H   1.0    0.10    1.03    1.43   -71.57459   121.68936    57.83189
   340  H   1.0    0.06    1.05    1.44   -67.65595   122.94653    54.12496
   341  H   1.0    0.05    1.03    1.43   -73.20371   124.48622    54.89640
   342  H   1.0    0.05    1.03    1.43   -71.23154   125.69868    52.47807
   343  H   1.0    0.05    1.03    1.43   -70.42721   123.29335    48.66427
   344  H   1.0    0.08    1.06    1.44   -74.47531   119.80230    54.67399
   345  H   1.0    0.05    1.03    1.43   -71.58473   119.82698    45.83134
   346  H   1.0    0.05    1.03    1.43   -75.58692   116.28473    51.87800
   347  H   1.0    0.11    1.03    1.43   -75.17101   114.56274    47.78943
   348  N   5.0   -0.21    3.21    1.96   -72.15105   135.49483    32.43338
   349  C   4.0    0.03    4.22    4.03   -73.61902   133.43306    31.46936
   350  C   4.0    0.08    3.18    3.03   -76.43069   134.22122    31.23393
   351  O   6.0   -0.30    1.14    1.80   -78.12286   132.89496    32.05570
   352  C   4.0   -0.04    4.33    4.25   -73.26249   131.05604    33.09256
   353  C   4.0   -0.04    4.05    3.70   -71.86742   128.98218    31.67612
   354  S   6.0   -0.04    2.65    3.10   -71.93492   125.95203    33.27641
   355  C   4.0   -0.07    3.88    3.44   -75.30569   125.26958    33.29510
   356  H   1.0    0.08    1.03    1.43   -72.34642   135.89762    34.29482
   357  H   1.0    0.04    1.06    1.44   -72.96130   133.11426    29.52495
   358  H   1.0    0.04    1.03    1.43   -72.24657   131.56394    34.81181
   359  H   1.0    0.06    1.05    1.44   -75.14946   130.41252    33.63377
   360  H   1.0    0.04    1.07    1.44   -72.69212   128.71705    29.80421
   361  H   1.0    0.04    1.08    1.44   -69.87117   129.44131    31.48108
   362  H   1.0    0.04    1.04    1.43   -75.52652   123.30022    33.81444
   363  H   1.0    0.04    1.03    1.43   -76.24705   126.45357    34.68421
   364  H   1.0    0.04    1.04    1.43   -76.09047   125.63104    31.43390
   365  H   1.0    0.09    1.07    1.44   -59.18192   127.71289    35.94928
   366  H   1.0    0.07    1.04    1.43   -86.68958   129.96638    39.27916
   367  H   1.0    0.10    1.07    1.44   -88.61791   130.66315    47.70154
   368  H   1.0    0.06    1.04    1.44   -83.91418   137.05810    51.52246
   369  H   1.0    0.09    1.08    1.44   -87.77879   108.97212    58.46805
   370  H   1.0    0.05    1.04    1.43   -87.46602   115.31190    60.99613
   371  H   1.0    0.09    1.08    1.44   -79.03522   113.28314    61.09680
   372  H   1.0    0.06    1.04    1.43   -79.23466   119.36038    58.57486
   373  H   1.0    0.10    1.07    1.44   -69.59933   120.09094    56.40944
   374  H   1.0    0.06    1.04    1.43   -69.65111   126.76860    57.89789
   375  H   1.0    0.09    1.08    1.44   -70.49733   135.17012    32.20463
   376  H   1.0    0.06    1.04    1.44   -76.88805   135.85031    30.39253

  Z AO/shell   Hii/eV     exponent
  1     Wed Apr 25 08:07:45 CEST 2018   EN: 2.200 GM2: 0.406  GM3: 0.0800  RAES: 1.40
     1s    -10.707211    1.230000
  6     Wed Apr 25 08:07:45 CEST 2018   EN: 2.550 GM2: 0.538  GM3: 0.1500  RAES: 3.00
     2s    -13.970922    2.096432
     2p    -10.063292    1.800000
  7     Wed Apr 25 08:07:45 CEST 2018   EN: 3.040 GM2: 0.461  GM3:-0.0640  RAES: 1.90
     2s    -16.686243    2.339881
     2p    -12.523956    2.014332
  8     Wed Apr 25 08:07:45 CEST 2018   EN: 3.440 GM2: 0.452  GM3:-0.0517  RAES: 1.80
     2s    -20.229985    2.439742
     2p    -15.503117    2.137023
 16     Tue Apr 24 11:44:34 CEST 2018   EN: 2.580 GM2: 0.340  GM3:-0.0502  RAES: 3.10
     3s    -20.029654    1.981333
     3p    -11.377694    2.025643
     3d     -0.420282    1.702555
 no old-style atom pair restraining (fixing) potential

molecular fragmentation (1/2 indicates fragments):
111111111111111111111111111111111111111111111111111111111111111111111111
111111111111111111111111111111111111111111111111111111111111111111111111
111111111111111111111111111111111111111111111111111111111111111111111111
111111111111111111111111112222222222222222222222222222222222222222222222
222222222222222222222222222222222222222222222222222222222222222222222222
2222112222222222
# atoms in fragment 1/2:   244   132
 fragment masses (1/2) :     1743.99      817.14
CMA distance (Bohr)    :  14.836
constraining FC (au)   :  0.0500
           ------------------------------------------------- 
          |        Self-Consistent Charge Iterations        |
           ------------------------------------------------- 

 Ncao       : 922
 Nao        : 920
 Nshell     : 556
 Nel        : 1006
 T(el)      :   500.0
 intcut     :    35.0
 scfconv/Eh :  0.100E-06
   qconv/e  :  0.100E-04
 intneglect :  0.100E-08
 broydamp   :      0.400
 iter      E             dE          RMSdq      gap      omega  full diag
   1   -573.2117193 -0.573212E+03  0.455E+00    2.93       0.0  T
   2   -574.5219482 -0.131023E+01  0.215E+00    1.76       1.0  T
   3   -574.5994515 -0.775033E-01  0.121E+00    2.01       1.0  T
   4   -574.6941178 -0.946663E-01  0.246E-01    1.54       1.0  T
   5   -574.6991459 -0.502814E-02  0.124E-01    1.68       1.0  T
   6   -574.7000247 -0.878771E-03  0.540E-02    1.68       1.0  T
   7   -574.7003372 -0.312557E-03  0.213E-02    1.69       1.0  T
   8   -574.7003700 -0.327465E-04  0.110E-02    1.70       1.0  T
   9   -574.7003792 -0.922597E-05  0.503E-03    1.70       1.0  T
  10   -574.7003808 -0.156929E-05  0.224E-03    1.70       2.3  T
  11   -574.7003811 -0.294638E-06  0.109E-03    1.70       4.7  T
  12   -574.7003811 -0.688697E-07  0.528E-04    1.70       9.8  T
  13   -574.7003812 -0.265771E-07  0.251E-04    1.70      20.5  T
  14   -574.7003812 -0.292323E-08  0.120E-04    1.70      43.1  T
  15   -574.7003812 -0.867885E-09  0.507E-05    1.70     101.7  T
  16   -574.7003812 -0.158252E-09  0.235E-05    1.70     219.3  T
speedup  2.00
cpu  time for SCC   15.82 s
wall time for SCC    7.91 s

   *** convergence criteria satisfied after 16 iterations ***

          eigenvalues
 #    :         491        492        493        494        495        496        497        498
 occ. :        2.000      2.000      2.000      2.000      2.000      2.000      2.000      2.000
 eps  :       -10.332    -10.229    -10.183    -10.145    -10.027     -9.953     -9.909     -9.794
 #    :         499        500        501        502        503        504        505        506
 occ. :        2.000      2.000      2.000      2.000      2.000      0.000      0.000      0.000
 eps  :        -9.784     -9.717     -9.576     -9.537     -9.387     -7.692     -7.685     -7.678
 #    :         507        508        509        510        511        512        513        514
 occ. :        0.000      0.000      0.000      0.000      0.000      0.000      0.000      0.000
 eps  :        -7.605     -7.592     -7.475     -6.794     -6.628     -6.556     -6.453     -6.398


   #   Z            q   n(s)   n(p)   n(d)      C6AA      α(0)
   1   7 N     -0.393  1.305  4.088  0.000    30.182     8.159
   2   6 C      0.029  1.052  2.919  0.000    20.100     6.385
   3   6 C      0.260  1.046  2.693  0.000    22.612     7.788
   4   8 O     -0.491  1.742  4.749  0.000    23.588     6.512
   5   6 C     -0.071  1.057  3.014  0.000    21.847     6.653
   6   6 C     -0.012  1.061  2.951  0.000    20.761     6.481
   7   6 C     -0.112  1.040  3.072  0.000    22.700     6.795
   8   6 C     -0.116  1.043  3.073  0.000    22.773     6.804
   9   1 H      0.169  0.831  0.000  0.000     1.277     1.770
  10   1 H      0.041  0.959  0.000  0.000     2.431     2.438
  11   1 H      0.052  0.948  0.000  0.000     2.292     2.368
  12   1 H      0.041  0.959  0.000  0.000     2.438     2.442
  13   1 H      0.033  0.967  0.000  0.000     2.546     2.495
  14   1 H      0.038  0.962  0.000  0.000     2.475     2.460
  15   1 H      0.038  0.962  0.000  0.000     2.472     2.459
  16   1 H      0.042  0.958  0.000  0.000     2.427     2.436
  17   1 H      0.038  0.962  0.000  0.000     2.480     2.463
  18   1 H      0.040  0.960  0.000  0.000     2.451     2.448
  19   1 H      0.041  0.959  0.000  0.000     2.431     2.438
  20   7 N     -0.178  1.240  3.938  0.000    24.845     7.403
  21   6 C      0.012  1.058  2.930  0.000    20.373     6.424
  22   6 C      0.269  1.048  2.683  0.000    22.452     7.759
  23   8 O     -0.486  1.751  4.735  0.000    23.475     6.496
  24   6 C     -0.078  1.055  3.022  0.000    21.976     6.673
  25   6 C     -0.095  1.055  3.040  0.000    22.303     6.723
  26   6 C      0.285  1.040  2.675  0.000    22.176     7.711
  27   8 O     -0.474  1.738  4.735  0.000    23.215     6.460
  28   7 N     -0.289  1.272  4.017  0.000    27.444     7.780
  29   1 H      0.222  0.778  0.000  0.000     0.998     1.565
  30   1 H      0.116  0.884  0.000  0.000     1.645     2.006
  31   1 H      0.086  0.914  0.000  0.000     1.923     2.169
  32   1 H      0.070  0.930  0.000  0.000     2.087     2.259
  33   1 H      0.065  0.935  0.000  0.000     2.139     2.287
  34   1 H      0.046  0.954  0.000  0.000     2.371     2.408
  35   1 H      0.217  0.783  0.000  0.000     1.024     1.585
  36   1 H      0.227  0.773  0.000  0.000     0.977     1.548
  37   7 N     -0.190  1.253  3.938  0.000    25.129     7.445
  38   6 C      0.012  1.078  2.910  0.000    20.388     6.432
  39   6 C      0.283  1.041  2.676  0.000    22.204     7.716
  40   8 O     -0.497  1.764  4.733  0.000    23.725     6.530
  41   6 C     -0.071  1.058  3.013  0.000    21.867     6.659
  42   6 C     -0.100  1.060  3.039  0.000    22.407     6.740
  43   6 C      0.291  1.043  2.665  0.000    22.058     7.690
  44   8 O     -0.497  1.762  4.736  0.000    23.722     6.530
  45   7 N     -0.289  1.283  4.006  0.000    27.462     7.783
  46   1 H      0.226  0.774  0.000  0.000     0.983     1.553
  47   1 H      0.059  0.941  0.000  0.000     2.206     2.323
  48   1 H      0.068  0.932  0.000  0.000     2.107     2.270
  49   1 H      0.082  0.918  0.000  0.000     1.962     2.191
  50   1 H      0.082  0.918  0.000  0.000     1.962     2.190
  51   1 H      0.065  0.935  0.000  0.000     2.139     2.287
  52   1 H      0.223  0.777  0.000  0.000     0.998     1.565
  53   1 H      0.229  0.771  0.000  0.000     0.969     1.542
  54   7 N     -0.167  1.237  3.930  0.000    24.607     7.367
  55   6 C      0.031  1.054  2.915  0.000    20.055     6.375
  56   6 C      0.270  1.041  2.688  0.000    22.439     7.759
  57   8 O     -0.518  1.736  4.782  0.000    24.189     6.594
  58   6 C     -0.080  1.056  3.024  0.000    22.027     6.681
  59   6 C     -0.005  1.081  2.924  0.000    28.142     8.701
  60   6 C     -0.040  1.085  2.955  0.000    28.991     8.830
  61   6 C     -0.045  1.081  2.964  0.000    29.130     8.851
  62   6 C     -0.057  1.078  2.980  0.000    29.428     8.896
  63   6 C     -0.080  1.081  2.999  0.000    29.988     8.980
  64   6 C      0.144  1.047  2.809  0.000    24.870     8.173
  65   8 O     -0.433  1.733  4.700  0.000    21.503     6.260
  66   1 H      0.206  0.794  0.000  0.000     1.077     1.625
  67   1 H      0.078  0.922  0.000  0.000     2.005     2.214
  68   1 H      0.068  0.932  0.000  0.000     2.111     2.272
  69   1 H      0.080  0.920  0.000  0.000     1.979     2.200
  70   1 H      0.041  0.959  0.000  0.000     2.431     2.438
  71   1 H      0.047  0.953  0.000  0.000     2.362     2.403
  72   1 H      0.049  0.951  0.000  0.000     2.328     2.386
  73   1 H      0.052  0.948  0.000  0.000     2.290     2.366
  74   1 H      0.348  0.652  0.000  0.000     0.593     1.210
  75   7 N     -0.132  1.245  3.887  0.000    23.860     7.255
  76   6 C      0.016  1.068  2.916  0.000    20.288     6.411
  77   6 C      0.284  1.046  2.669  0.000    22.181     7.712
  78   8 O     -0.494  1.733  4.761  0.000    23.650     6.520
  79   6 C     -0.089  1.056  3.033  0.000    22.196     6.707
  80   6 C     -0.084  1.055  3.029  0.000    22.102     6.693
  81   6 C     -0.028  1.059  2.969  0.000    21.155     6.564
  82   7 N     -0.139  1.210  3.929  0.000    24.012     7.278
  83   6 C      0.230  1.021  2.748  0.000    23.162     7.879
  84   7 N     -0.246  1.226  4.020  0.000    26.403     7.631
  85   7 N     -0.259  1.234  4.025  0.000    26.721     7.677
  86   1 H      0.239  0.761  0.000  0.000     0.929     1.509
  87   1 H      0.095  0.905  0.000  0.000     1.834     2.118
  88   1 H      0.095  0.905  0.000  0.000     1.833     2.117
  89   1 H      0.074  0.926  0.000  0.000     2.041     2.234
  90   1 H      0.062  0.938  0.000  0.000     2.174     2.306
  91   1 H      0.078  0.922  0.000  0.000     2.000     2.212
  92   1 H      0.095  0.905  0.000  0.000     1.831     2.116
  93   1 H      0.080  0.920  0.000  0.000     1.975     2.197
  94   1 H      0.223  0.777  0.000  0.000     0.998     1.565
  95   1 H      0.246  0.754  0.000  0.000     0.899     1.485
  96   1 H      0.256  0.744  0.000  0.000     0.861     1.453
  97   1 H      0.247  0.753  0.000  0.000     0.893     1.480
  98   1 H      0.254  0.746  0.000  0.000     0.866     1.458
  99   7 N     -0.190  1.249  3.941  0.000    25.117     7.443
 100   6 C      0.029  1.064  2.907  0.000    20.096     6.385
 101   6 C      0.274  1.041  2.685  0.000    22.368     7.745
 102   8 O     -0.514  1.759  4.755  0.000    24.098     6.582
 103   6 C     -0.047  1.049  2.999  0.000    21.417     6.589
 104   6 C     -0.095  1.073  3.022  0.000    22.321     6.728
 105   6 C      0.369  1.028  2.603  0.000    20.742     7.453
 106   8 O     -0.642  1.768  4.874  0.000    27.177     6.989
 107   8 O     -0.649  1.780  4.868  0.000    27.344     7.011
 108   1 H      0.221  0.779  0.000  0.000     1.005     1.570
 109   1 H      0.062  0.938  0.000  0.000     2.176     2.307
 110   1 H      0.032  0.968  0.000  0.000     2.554     2.499
 111   1 H      0.043  0.957  0.000  0.000     2.414     2.430
 112   1 H      0.017  0.983  0.000  0.000     2.784     2.609
 113   1 H      0.032  0.968  0.000  0.000     2.558     2.501
 114   7 N     -0.199  1.250  3.949  0.000    25.317     7.473
 115   6 C      0.032  1.051  2.917  0.000    20.028     6.371
 116   6 C      0.274  1.038  2.688  0.000    22.364     7.745
 117   8 O     -0.492  1.747  4.744  0.000    23.602     6.514
 118   6 C     -0.064  1.052  3.012  0.000    21.710     6.632
 119   6 C     -0.029  1.071  2.958  0.000    21.101     6.541
 120  16 S     -0.242  1.945  4.229  0.068   151.420    20.711
 121   6 C     -0.077  1.062  3.015  0.000    22.042     6.698
 122   1 H      0.229  0.771  0.000  0.000     0.969     1.542
 123   1 H      0.065  0.935  0.000  0.000     2.143     2.289
 124   1 H      0.045  0.955  0.000  0.000     2.381     2.413
 125   1 H      0.057  0.943  0.000  0.000     2.230     2.335
 126   1 H      0.073  0.927  0.000  0.000     2.056     2.242
 127   1 H      0.074  0.926  0.000  0.000     2.044     2.236
 128   1 H      0.072  0.928  0.000  0.000     2.060     2.244
 129   1 H      0.052  0.948  0.000  0.000     2.294     2.368
 130   1 H      0.078  0.922  0.000  0.000     1.996     2.210
 131   7 N     -0.197  1.257  3.941  0.000    25.281     7.468
 132   6 C      0.027  1.054  2.919  0.000    20.110     6.383
 133   6 C      0.291  1.037  2.672  0.000    22.068     7.694
 134   8 O     -0.482  1.737  4.745  0.000    23.391     6.484
 135   6 C     -0.082  1.059  3.023  0.000    22.057     6.684
 136   6 C     -0.015  1.055  2.960  0.000    20.800     6.487
 137   6 C     -0.118  1.037  3.081  0.000    22.797     6.806
 138   6 C     -0.121  1.040  3.081  0.000    22.883     6.821
 139   1 H      0.241  0.759  0.000  0.000     0.920     1.502
 140   1 H      0.084  0.916  0.000  0.000     1.940     2.178
 141   1 H      0.065  0.935  0.000  0.000     2.143     2.289
 142   1 H      0.053  0.947  0.000  0.000     2.281     2.362
 143   1 H      0.049  0.951  0.000  0.000     2.330     2.387
 144   1 H      0.036  0.964  0.000  0.000     2.498     2.471
 145   1 H      0.045  0.955  0.000  0.000     2.377     2.411
 146   1 H      0.034  0.966  0.000  0.000     2.524     2.484
 147   1 H      0.051  0.949  0.000  0.000     2.311     2.377
 148   1 H      0.043  0.957  0.000  0.000     2.407     2.426
 149   1 H      0.047  0.953  0.000  0.000     2.357     2.401
 150   7 N     -0.202  1.257  3.945  0.000    25.389     7.484
 151   6 C      0.025  1.062  2.913  0.000    20.134     6.386
 152   6 C      0.280  1.047  2.673  0.000    22.262     7.726
 153   8 O     -0.490  1.742  4.748  0.000    23.560     6.508
 154   6 C     -0.022  1.064  2.958  0.000    20.925     6.506
 155   6 C     -0.072  1.053  3.020  0.000    21.873     6.658
 156   6 C     -0.114  1.037  3.077  0.000    22.742     6.799
 157   6 C     -0.119  1.039  3.080  0.000    22.836     6.815
 158   1 H      0.228  0.772  0.000  0.000     0.973     1.545
 159   1 H      0.074  0.926  0.000  0.000     2.045     2.236
 160   1 H      0.030  0.970  0.000  0.000     2.582     2.513
 161   1 H      0.047  0.953  0.000  0.000     2.355     2.400
 162   1 H      0.058  0.942  0.000  0.000     2.217     2.328
 163   1 H      0.063  0.937  0.000  0.000     2.169     2.303
 164   1 H      0.016  0.984  0.000  0.000     2.797     2.615
 165   1 H      0.054  0.946  0.000  0.000     2.269     2.356
 166   1 H      0.065  0.935  0.000  0.000     2.140     2.287
 167   1 H      0.039  0.961  0.000  0.000     2.461     2.453
 168   1 H      0.051  0.949  0.000  0.000     2.311     2.377
 169   7 N     -0.182  1.242  3.940  0.000    24.940     7.417
 170   6 C      0.035  1.057  2.908  0.000    19.997     6.369
 171   6 C      0.284  1.041  2.675  0.000    22.184     7.714
 172   8 O     -0.504  1.754  4.751  0.000    23.884     6.552
 173   6 C     -0.112  1.039  3.072  0.000    22.678     6.788
 174   1 H      0.186  0.814  0.000  0.000     1.180     1.701
 175   1 H      0.060  0.940  0.000  0.000     2.199     2.319
 176   1 H      0.066  0.934  0.000  0.000     2.133     2.284
 177   1 H      0.068  0.932  0.000  0.000     2.106     2.270
 178   1 H      0.050  0.950  0.000  0.000     2.319     2.381
 179   7 N     -0.183  1.250  3.933  0.000    24.963     7.420
 180   6 C      0.029  1.060  2.911  0.000    20.091     6.381
 181   6 C      0.267  1.050  2.683  0.000    22.485     7.764
 182   8 O     -0.492  1.754  4.738  0.000    23.618     6.516
 183   6 C     -0.107  1.071  3.037  0.000    22.547     6.760
 184   6 C      0.369  1.024  2.607  0.000    20.746     7.454
 185   8 O     -0.615  1.783  4.832  0.000    26.487     6.900
 186   8 O     -0.575  1.728  4.847  0.000    25.506     6.771
 187   1 H      0.215  0.785  0.000  0.000     1.033     1.592
 188   1 H      0.069  0.931  0.000  0.000     2.099     2.266
 189   1 H      0.075  0.925  0.000  0.000     2.031     2.228
 190   1 H      0.052  0.948  0.000  0.000     2.296     2.369
 191   7 N     -0.187  1.252  3.935  0.000    25.052     7.434
 192   6 C     -0.033  1.053  2.980  0.000    21.237     6.576
 193   6 C      0.270  1.044  2.686  0.000    22.443     7.759
 194   8 O     -0.492  1.732  4.760  0.000    23.606     6.514
 195   1 H      0.220  0.780  0.000  0.000     1.012     1.576
 196   1 H      0.078  0.922  0.000  0.000     2.001     2.212
 197   1 H      0.093  0.907  0.000  0.000     1.848     2.126
 198   7 N     -0.161  1.239  3.922  0.000    24.487     7.349
 199   6 C      0.013  1.063  2.924  0.000    20.338     6.417
 200   6 C      0.279  1.039  2.682  0.000    22.277     7.729
 201   8 O     -0.480  1.746  4.734  0.000    23.344     6.478
 202   6 C     -0.027  1.060  2.967  0.000    21.018     6.520
 203   6 C     -0.065  1.048  3.018  0.000    21.746     6.638
 204   6 C     -0.126  1.041  3.085  0.000    22.973     6.833
 205   6 C     -0.118  1.036  3.082  0.000    22.817     6.811
 206   1 H      0.224  0.776  0.000  0.000     0.993     1.561
 207   1 H      0.075  0.925  0.000  0.000     2.036     2.231
 208   1 H      0.063  0.937  0.000  0.000     2.161     2.299
 209   1 H      0.042  0.958  0.000  0.000     2.419     2.432
 210   1 H      0.028  0.972  0.000  0.000     2.619     2.531
 211   1 H      0.067  0.933  0.000  0.000     2.116     2.275
 212   1 H      0.035  0.965  0.000  0.000     2.521     2.483
 213   1 H      0.061  0.939  0.000  0.000     2.187     2.312
 214   1 H      0.046  0.954  0.000  0.000     2.373     2.409
 215   1 H      0.040  0.960  0.000  0.000     2.447     2.446
 216   1 H      0.060  0.940  0.000  0.000     2.201     2.320
 217   7 N     -0.191  1.253  3.938  0.000    25.151     7.448
 218   6 C      0.041  1.049  2.909  0.000    19.886     6.349
 219   6 C      0.275  1.047  2.678  0.000    22.358     7.745
 220   8 O     -0.510  1.743  4.767  0.000    24.002     6.569
 221   6 C     -0.100  1.068  3.031  0.000    22.403     6.738
 222   6 C      0.370  1.025  2.605  0.000    20.720     7.449
 223   8 O     -0.631  1.771  4.860  0.000    26.887     6.952
 224   8 O     -0.640  1.775  4.865  0.000    27.112     6.981
 225   1 H      0.210  0.790  0.000  0.000     1.058     1.611
 226   1 H      0.052  0.948  0.000  0.000     2.296     2.370
 227   1 H      0.032  0.968  0.000  0.000     2.552     2.498
 228   1 H      0.046  0.954  0.000  0.000     2.375     2.410
 229   7 N     -0.083  1.239  3.844  0.000    22.860     7.101
 230   6 C      0.033  1.060  2.907  0.000    19.995     6.362
 231   6 C      0.206  1.082  2.713  0.000    23.633     7.961
 232   8 O     -0.339  1.741  4.598  0.000    20.498     6.070
 233   6 C     -0.069  1.054  3.015  0.000    21.794     6.643
 234   6 C     -0.071  1.052  3.019  0.000    21.838     6.650
 235   6 C     -0.006  1.050  2.956  0.000    20.746     6.494
 236   1 H      0.076  0.924  0.000  0.000     2.018     2.221
 237   1 H      0.066  0.934  0.000  0.000     2.131     2.283
 238   1 H      0.082  0.918  0.000  0.000     1.959     2.189
 239   1 H      0.061  0.939  0.000  0.000     2.190     2.314
 240   1 H      0.077  0.923  0.000  0.000     2.015     2.220
 241   1 H      0.050  0.950  0.000  0.000     2.319     2.382
 242   1 H      0.069  0.931  0.000  0.000     2.098     2.265
 243   7 N     -0.387  1.308  4.080  0.000    30.022     8.138
 244   6 C      0.035  1.062  2.903  0.000    20.004     6.370
 245   6 C      0.268  1.046  2.686  0.000    22.468     7.762
 246   8 O     -0.519  1.761  4.758  0.000    24.208     6.597
 247   6 C     -0.072  1.062  3.010  0.000    21.866     6.657
 248   6 C     -0.011  1.062  2.949  0.000    20.737     6.477
 249   6 C     -0.119  1.042  3.077  0.000    22.833     6.813
 250   6 C     -0.125  1.045  3.080  0.000    22.954     6.831
 251   1 H      0.161  0.839  0.000  0.000     1.331     1.808
 252   1 H      0.026  0.974  0.000  0.000     2.644     2.543
 253   1 H      0.054  0.946  0.000  0.000     2.265     2.353
 254   1 H      0.039  0.961  0.000  0.000     2.465     2.455
 255   1 H      0.029  0.971  0.000  0.000     2.606     2.524
 256   1 H      0.047  0.953  0.000  0.000     2.353     2.399
 257   1 H      0.023  0.977  0.000  0.000     2.690     2.565
 258   1 H      0.053  0.947  0.000  0.000     2.286     2.365
 259   1 H      0.058  0.942  0.000  0.000     2.226     2.333
 260   1 H      0.048  0.952  0.000  0.000     2.339     2.391
 261   1 H      0.036  0.964  0.000  0.000     2.497     2.471
 262   7 N     -0.168  1.246  3.923  0.000    24.644     7.373
 263   6 C      0.025  1.063  2.912  0.000    20.172     6.397
 264   6 C      0.216  1.082  2.703  0.000    23.439     7.928
 265   8 O     -0.375  1.756  4.619  0.000    21.197     6.173
 266   6 C     -0.081  1.062  3.019  0.000    22.045     6.684
 267   6 C     -0.021  1.059  2.962  0.000    20.913     6.505
 268   6 C     -0.116  1.043  3.073  0.000    22.766     6.803
 269   6 C     -0.119  1.041  3.079  0.000    22.843     6.815
 270   1 H      0.241  0.759  0.000  0.000     0.920     1.502
 271   1 H      0.079  0.921  0.000  0.000     1.985     2.203
 272   1 H      0.052  0.948  0.000  0.000     2.300     2.372
 273   1 H      0.065  0.935  0.000  0.000     2.144     2.290
 274   1 H      0.057  0.943  0.000  0.000     2.234     2.337
 275   1 H      0.042  0.958  0.000  0.000     2.420     2.433
 276   1 H      0.037  0.963  0.000  0.000     2.483     2.464
 277   1 H      0.047  0.953  0.000  0.000     2.354     2.399
 278   1 H      0.040  0.960  0.000  0.000     2.450     2.448
 279   1 H      0.049  0.951  0.000  0.000     2.335     2.390
 280   1 H      0.046  0.954  0.000  0.000     2.371     2.408
 281   7 N     -0.391  1.314  4.077  0.000    30.136     8.153
 282   6 C      0.037  1.054  2.909  0.000    19.974     6.366
 283   6 C      0.190  1.091  2.719  0.000    23.926     8.011
 284   8 O     -0.356  1.757  4.600  0.000    20.827     6.119
 285   6 C     -0.084  1.060  3.025  0.000    22.106     6.693
 286   6 C     -0.086  1.053  3.033  0.000    22.137     6.699
 287   6 C     -0.025  1.056  2.969  0.000    21.116     6.559
 288   7 N     -0.135  1.211  3.924  0.000    23.925     7.265
 289   6 C      0.231  1.021  2.748  0.000    23.158     7.879
 290   7 N     -0.236  1.222  4.014  0.000    26.185     7.600
 291   7 N     -0.248  1.234  4.014  0.000    26.454     7.639
 292   1 H      0.167  0.833  0.000  0.000     1.294     1.782
 293   1 H      0.058  0.942  0.000  0.000     2.218     2.329
 294   1 H      0.062  0.938  0.000  0.000     2.176     2.307
 295   1 H      0.058  0.942  0.000  0.000     2.225     2.333
 296   1 H      0.068  0.932  0.000  0.000     2.108     2.270
 297   1 H      0.071  0.929  0.000  0.000     2.077     2.254
 298   1 H      0.089  0.911  0.000  0.000     1.886     2.148
 299   1 H      0.084  0.916  0.000  0.000     1.933     2.174
 300   1 H      0.233  0.767  0.000  0.000     0.953     1.529
 301   1 H      0.244  0.756  0.000  0.000     0.907     1.492
 302   1 H      0.226  0.774  0.000  0.000     0.982     1.553
 303   1 H      0.242  0.758  0.000  0.000     0.916     1.499
 304   1 H      0.235  0.765  0.000  0.000     0.945     1.523
 305   7 N     -0.392  1.311  4.081  0.000    30.161     8.156
 306   6 C      0.039  1.057  2.904  0.000    19.944     6.361
 307   6 C      0.197  1.094  2.708  0.000    23.793     7.988
 308   8 O     -0.380  1.753  4.627  0.000    21.279     6.185
 309   6 C     -0.076  1.057  3.019  0.000    21.957     6.671
 310   6 C     -0.078  1.055  3.023  0.000    21.984     6.676
 311   6 C     -0.084  1.052  3.032  0.000    22.105     6.694
 312   6 C     -0.036  1.058  2.978  0.000    21.320     6.592
 313   7 N     -0.170  1.245  3.925  0.000    24.675     7.378
 314   1 H      0.180  0.820  0.000  0.000     1.212     1.725
 315   1 H      0.056  0.944  0.000  0.000     2.247     2.344
 316   1 H      0.076  0.924  0.000  0.000     2.021     2.223
 317   1 H      0.048  0.952  0.000  0.000     2.343     2.394
 318   1 H      0.048  0.952  0.000  0.000     2.345     2.395
 319   1 H      0.057  0.943  0.000  0.000     2.233     2.337
 320   1 H      0.083  0.917  0.000  0.000     1.951     2.184
 321   1 H      0.061  0.939  0.000  0.000     2.184     2.311
 322   1 H      0.105  0.895  0.000  0.000     1.738     2.062
 323   1 H      0.098  0.902  0.000  0.000     1.806     2.102
 324   1 H      0.266  0.734  0.000  0.000     0.823     1.421
 325   1 H      0.303  0.697  0.000  0.000     0.704     1.314
 326   1 H      0.260  0.740  0.000  0.000     0.845     1.440
 327   7 N     -0.385  1.319  4.066  0.000    29.964     8.130
 328   6 C      0.042  1.058  2.900  0.000    19.888     6.353
 329   6 C      0.202  1.092  2.706  0.000    23.710     7.975
 330   8 O     -0.381  1.763  4.618  0.000    21.299     6.188
 331   6 C     -0.077  1.060  3.017  0.000    21.966     6.672
 332   6 C      0.001  1.084  2.915  0.000    28.005     8.680
 333   6 C     -0.042  1.086  2.956  0.000    29.055     8.839
 334   6 C     -0.046  1.090  2.956  0.000    29.150     8.854
 335   6 C     -0.059  1.074  2.985  0.000    29.460     8.900
 336   6 C     -0.081  1.081  3.000  0.000    30.025     8.985
 337   6 C      0.139  1.047  2.814  0.000    24.962     8.188
 338   8 O     -0.421  1.720  4.701  0.000    21.255     6.224
 339   1 H      0.173  0.827  0.000  0.000     1.257     1.756
 340   1 H      0.057  0.943  0.000  0.000     2.235     2.338
 341   1 H      0.052  0.948  0.000  0.000     2.298     2.371
 342   1 H      0.042  0.958  0.000  0.000     2.428     2.437
 343   1 H      0.038  0.962  0.000  0.000     2.477     2.461
 344   1 H      0.066  0.934  0.000  0.000     2.127     2.281
 345   1 H      0.035  0.965  0.000  0.000     2.513     2.479
 346   1 H      0.057  0.943  0.000  0.000     2.231     2.336
 347   1 H      0.324  0.676  0.000  0.000     0.653     1.270
 348   7 N     -0.385  1.311  4.073  0.000    29.948     8.128
 349   6 C      0.032  1.060  2.908  0.000    20.063     6.381
 350   6 C      0.197  1.094  2.709  0.000    23.792     7.988
 351   8 O     -0.366  1.755  4.611  0.000    21.008     6.145
 352   6 C     -0.078  1.053  3.026  0.000    21.970     6.669
 353   6 C     -0.014  1.067  2.947  0.000    20.824     6.498
 354  16 S     -0.227  1.920  4.251  0.056   150.747    20.665
 355   6 C     -0.066  1.055  3.011  0.000    21.833     6.666
 356   1 H      0.160  0.840  0.000  0.000     1.337     1.811
 357   1 H      0.079  0.921  0.000  0.000     1.990     2.206
 358   1 H      0.049  0.951  0.000  0.000     2.331     2.388
 359   1 H      0.064  0.936  0.000  0.000     2.155     2.296
 360   1 H      0.056  0.944  0.000  0.000     2.250     2.346
 361   1 H      0.060  0.940  0.000  0.000     2.198     2.318
 362   1 H      0.055  0.945  0.000  0.000     2.263     2.353
 363   1 H      0.052  0.948  0.000  0.000     2.295     2.369
 364   1 H      0.066  0.934  0.000  0.000     2.127     2.281
 365   1 H      0.173  0.827  0.000  0.000     1.252     1.752
 366   1 H      0.056  0.944  0.000  0.000     2.247     2.344
 367   1 H      0.170  0.830  0.000  0.000     1.275     1.768
 368   1 H      0.065  0.935  0.000  0.000     2.145     2.290
 369   1 H      0.190  0.810  0.000  0.000     1.159     1.686
 370   1 H      0.072  0.928  0.000  0.000     2.063     2.246
 371   1 H      0.181  0.819  0.000  0.000     1.208     1.722
 372   1 H      0.067  0.933  0.000  0.000     2.120     2.277
 373   1 H      0.191  0.809  0.000  0.000     1.151     1.681
 374   1 H      0.074  0.926  0.000  0.000     2.045     2.236
 375   1 H      0.190  0.810  0.000  0.000     1.156     1.684
 376   1 H      0.077  0.923  0.000  0.000     2.015     2.220

 Mol. C6AA /au·bohr⁶  :    1307512.410483
 Mol. C8AA /au·bohr⁸  :   29523582.027050
 Mol. α(0) /au        :       1716.273591

 
molecular dipole:
                 x           y           z       tot (Debye)
 q only:        5.038      17.947      -0.013
   full:        5.317      17.409      -1.611      46.448
molecular quadrupole (traceless):
                xx          xy          yy          xz          yz          zz
 q only:    -2931.016    -674.973    4134.086      90.820     506.981   -1203.070
  q+dip:    -2785.507    -561.326    4078.425     263.620     195.238   -1292.918
   full:    -2789.004    -563.465    4080.329     267.699     193.945   -1291.325
speedup  2.00
cpu  time for grad   20.57 s
wall time for grad   10.29 s

SCC energy    :    -574.7183268
rep           :       6.9637581
ES            :       1.7987675
AES           :      -0.0611343
AXC           :       0.2052861
disp          :      -0.4803916
XB            :       0.0000000
fix           :       0.0000000
Gborn         :       0.0000000
Gsasa         :       0.0000000
Ghb           :       0.0000000
Gshift        :       0.0000000
Gsolv         :      -0.5003240     -313.96
Etot ala COSMO:    -574.7183268
grad norm     :       0.5502401
total E       :    -567.7124840
atomizationE  :     104.2226034    65400.67
(atE without considering molecular charge,
 total energy contains solvation terms)
H-L gap (eV)  :          1.6957

------------------------------------------------------------------------
 * finished run on 2019/05/08 at 09:27:23.902     
------------------------------------------------------------------------
 total:
 * wall-time:     0 d,  0 h,  0 min, 10.814 sec
 *  cpu-time:     0 d,  0 h,  0 min, 21.557 sec
 * ratio c/w:     1.993 speedup
 SCF:
 * wall-time:     0 d,  0 h,  0 min, 10.634 sec
 *  cpu-time:     0 d,  0 h,  0 min, 21.263 sec
 * ratio c/w:     1.999 speedup

