      -----------------------------------------------------------      
     |                   =====================                   |     
     |                           x T B                           |     
     |                   =====================                   |     
     |                         S. Grimme                         |     
     |          Mulliken Center for Theoretical Chemistry        |     
     |                    University of Bonn                     |     
     |                 Version 6.0.1 (SAW181210)                 |     
      -----------------------------------------------------------      

   This program is distributed in the hope that it will be useful,
   but WITHOUT ANY WARRANTY; without even the implied warranty of
   MERCHANTABILITY or FITNESS FOR A PARTICULAR PURPOSE.
   
   FOR NON-COMMERCIAL, ACADEMIA USE ONLY.
   
   Cite this work as:
   S. Grimme, C. Bannwarth, P. Shushkov, J. Comput. Theory Chem., 2017,
   13, 1989-2009.
   C. Bannwarth, S. Ehlert and S. Grimme., ChemRxiv, 2018, preprint.
   http://doi.org/10.26434/chemrxiv.7246238.v1
   
   for sTDA-xTB:
   S. Grimme and C. Bannwarth, J. Chem. Phys., 2016, 145, 054103.
   
   in the mass-spec context:
   V. Asgeirsson, C. Bauer and S. Grimme, Chem. Sci., 2017, 8, 4879.
   
   if GBSA is used:
   P. Shushkov, F. März and S. Grimme, unpublished.
   
   for ANC optimizer:
   S. Grimme, unpublished.
   Rational Function algorithm used in ANCopt:
   F. Eckert, P. Pulay, H.-J. Werner, J. Comput. Chem., 1997, 18, 1473.
   
   with help from (in alphabetical order)
   C. Bannwarth, F. Bohle, G. Brandenburg, E. Caldeweyher, M. Checinski,
   S. Dohm, S. Ehlert, S. Ehrlich, F. März, H. Neugebauer, J. Pisarek,
   P. Pracht, P. Shushkov, and S. Spicher.
   
 * started run on 2019/05/09 at 21:08:05.778     
========================================================================
 # omp threads = 2
========================================================================
number of atoms            : 556
number of electrons        : 1464
charge                     : 0
spin                       : .0
first test random number   : .7270

########################################################################
# WARNING! Please study the warnings concerning your input carefully
#  - Process number higher than OMP_NUM_THREADS, I hope you know what you are doing.
########################################################################

           ------------------------------------------------- 
          |                 G F N 2 - x T B                 |
          | Geometry, Frequencies, Noncovalent interactions |
          |            JCTC 2018 parametrisation            |
           ------------------------------------------------- 
 
      method parameters     
 k(s)        :  1.8500
 k(p)        :  2.2300
 k(d)        :  2.2300
 k(f)        :  2.0000
 kEN (H0ij)  : -2.0000
 D4 a1       :  0.5200
 D4 a2       :  5.0000
 D4 s6       :  1.0000
 D4 s8       :  2.7000
 D4 s9       :  5.0000
 alphaj      :  2.0000

 Solvent             : h2o
 Using internal parameter file: .param_gbsa2_h2o
 Gsolv ref. state (COSMO-RS): gsolv [1 M gas/solution]
 temperature (mdtemp)       :    298.150000000000     
 dielectric constant        :    80.2000000000000     
 rho                        :    1.00000000000000     
 mass                       :    18.0000000000000     
 surface tension            :    15.5689454083859     
 probe radius               :   0.975313790000000     
 vdW radii scaling          :    1.00000000000000     
 Gshift (Eh)                :   1.857443126794793E-003
 c1                         :    1.55243817000000     
 soset                      :   0.130326360000000     
 HB correction              :  T

            Z     q(EN)     CN     RAES       Cart. coordinates
     1  N   5.0   -0.21    3.18    1.95   117.25500    98.87120   377.90803
     2  C   4.0    0.02    4.21    4.02   116.34270   101.43633   377.62796
     3  C   4.0    0.08    3.21    3.04   118.55763   103.28340   378.12383
     4  O   6.0   -0.33    1.16    1.80   119.25047   104.72710   376.48732
     5  C   4.0   -0.05    4.31    4.21   114.08648   101.97478   379.42327
     6  C   4.0   -0.04    4.09    3.79   113.29656   104.76291   379.15240
     7  S   6.0   -0.06    2.52    3.10   111.24663   105.74540   381.68048
     8  C   4.0   -0.08    3.89    3.45   113.71345   106.06620   384.08230
     9  H   1.0    0.08    1.02    1.43   116.31045    97.74805   379.17333
    10  H   1.0    0.04    1.06    1.44   115.69781   101.74377   375.70852
    11  H   1.0    0.04    1.03    1.43   112.50148   100.76779   378.96021
    12  H   1.0    0.04    1.04    1.43   114.66243   101.58285   381.35343
    13  H   1.0    0.04    1.08    1.44   114.95817   105.98594   379.19844
    14  H   1.0    0.04    1.08    1.44   112.26719   105.05835   377.42234
    15  H   1.0    0.03    1.04    1.43   112.82070   106.72010   385.79653
    16  H   1.0    0.04    1.02    1.43   114.59496   104.21615   384.44339
    17  H   1.0    0.03    1.04    1.43   115.10503   107.41020   383.42810
    18  N   5.0   -0.20    3.17    1.95   123.87976   102.48734   372.55926
    19  C   4.0    0.03    4.29    4.19   122.72394   103.67133   370.31581
    20  C   4.0    0.15    3.47    3.10   122.76866   106.56840   370.60522
    21  O   6.0   -0.29    1.25    1.80   123.52563   107.88688   368.81656
    22  C   4.0   -0.05    4.32    4.24   120.01282   102.69295   369.87321
    23  C   4.0   -0.02    4.23    4.06   118.60558   104.35590   368.01986
    24  C   4.0   -0.07    4.11    3.82   119.69509   104.27682   365.34320
    25  C   4.0   -0.08    4.14    3.89   115.83270   103.64447   367.89515
    26  H   1.0    0.09    1.01    1.43   122.63149   101.31839   373.53380
    27  H   1.0    0.05    1.05    1.44   123.89074   103.23899   368.65375
    28  H   1.0    0.04    1.02    1.43   120.07049   100.71951   369.26740
    29  H   1.0    0.05    1.02    1.43   119.05430   102.76255   371.72207
    30  H   1.0    0.05    1.07    1.44   118.73040   106.32007   368.69246
    31  H   1.0    0.04    0.99    1.43   118.67880   105.61805   364.12436
    32  H   1.0    0.06    1.00    1.43   121.65977   104.88196   365.31381
    33  H   1.0    0.05    1.01    1.43   119.54789   102.39631   364.58083
    34  H   1.0    0.04    1.01    1.43   114.83834   104.93171   366.65344
    35  H   1.0    0.05    1.01    1.43   115.58749   101.73650   367.23874
    36  H   1.0    0.03    1.01    1.43   114.99426   103.86204   369.76054
    37  N   5.0   -0.15    3.45    2.04   122.08028   107.60163   372.74424
    38  C   4.0    0.04    4.32    4.23   122.17221   110.30344   372.99104
    39  C   4.0    0.09    3.17    3.03   124.92138   111.36476   373.12564
    40  O   6.0   -0.29    1.12    1.80   125.41087   113.43305   372.19484
    41  C   4.0   -0.05    4.32    4.23   120.57694   111.19560   375.29996
    42  C   4.0   -0.02    4.15    3.91   117.72018   110.66712   375.18020
    43  C   4.0   -0.08    4.13    3.86   116.67603   110.94800   377.85171
    44  C   4.0   -0.08    4.08    3.76   116.29178   112.54866   373.44292
    45  H   1.0    0.11    1.10    1.44   121.34208   106.60603   374.20076
    46  H   1.0    0.06    1.06    1.44   121.43609   111.19634   371.25628
    47  H   1.0    0.04    1.04    1.43   121.31861   110.20095   376.91371
    48  H   1.0    0.04    1.03    1.43   120.88153   113.19595   375.54676
    49  H   1.0    0.05    1.05    1.44   117.37752   108.75893   374.48634
    50  H   1.0    0.03    1.00    1.43   114.63888   110.64460   377.85966
    51  H   1.0    0.04    1.01    1.43   117.56869   109.61507   379.08960
    52  H   1.0    0.03    1.00    1.43   117.03411   112.85257   378.52963
    53  H   1.0    0.03    0.99    1.43   114.25351   112.10145   373.50768
    54  H   1.0    0.03    1.00    1.43   116.53243   114.46166   374.16902
    55  H   1.0    0.04    1.01    1.43   116.90388   112.46692   371.53457
    56  N   5.0   -0.19    3.18    1.95   125.60241   119.13675   369.90566
    57  C   4.0    0.03    4.38    4.34   123.75274   120.48420   371.35258
    58  C   4.0    0.16    3.43    3.09   124.67371   121.20050   373.98120
    59  O   6.0   -0.31    1.24    1.80   124.80902   123.36329   374.49818
    60  C   4.0   -0.05    4.40    4.38   121.21280   119.15275   371.78876
    61  C   4.0   -0.03    4.21    4.01   119.34044   120.04425   369.74749
    62  C   4.0   -0.08    4.11    3.83   119.70811   118.51385   367.36499
    63  C   4.0   -0.08    4.11    3.82   116.65073   119.81068   370.80372
    64  H   1.0    0.10    1.02    1.43   125.50518   117.19483   369.85040
    65  H   1.0    0.05    1.07    1.44   123.43809   122.28064   370.36698
    66  H   1.0    0.05    1.03    1.43   121.44678   117.10393   371.64761
    67  H   1.0    0.04    1.05    1.44   120.50751   119.59915   373.64238
    68  H   1.0    0.04    1.05    1.44   119.73397   122.04655   369.35558
    69  H   1.0    0.04    1.01    1.43   118.46047   119.16210   365.89789
    70  H   1.0    0.04    1.00    1.43   121.64070   118.68643   366.67034
    71  H   1.0    0.04    1.00    1.43   119.32647   116.52896   367.73205
    72  H   1.0    0.05    1.01    1.43   115.35699   120.62701   369.47652
    73  H   1.0    0.04    1.01    1.43   116.24319   117.84420   371.08352
    74  H   1.0    0.04    1.00    1.43   116.52705   120.82220   372.58025
    75  N   5.0   -0.14    3.45    2.04   125.05972   119.23617   375.53704
    76  C   4.0    0.03    4.30    4.20   126.11226   119.43951   378.09190
    77  C   4.0    0.08    3.29    3.05   128.98785   119.46103   378.14703
    78  O   6.0   -0.28    1.18    1.80   130.04488   117.64821   377.17509
    79  C   4.0   -0.04    4.50    4.54   125.67096   117.01964   379.61187
    80  C   4.0   -0.03    4.17    3.94   122.98991   116.33376   380.39181
    81  C   4.0   -0.08    4.13    3.86   123.22684   113.96592   382.02568
    82  C   4.0   -0.08    4.11    3.82   121.77249   118.47660   381.89354
    83  H   1.0    0.10    1.06    1.44   125.33731   117.48995   374.71703
    84  H   1.0    0.04    1.04    1.43   125.32860   121.15498   378.96423
    85  H   1.0    0.06    1.04    1.44   126.44909   115.48456   378.46905
    86  H   1.0    0.04    1.06    1.44   126.81883   117.17269   381.29160
    87  H   1.0    0.04    1.06    1.44   121.83231   115.96024   378.75365
    88  H   1.0    0.03    1.00    1.43   121.38199   113.27640   382.54887
    89  H   1.0    0.04    1.00    1.43   124.26293   112.51520   381.01947
    90  H   1.0    0.04    1.00    1.43   124.25652   114.43140   383.75697
    91  H   1.0    0.03    1.01    1.43   119.90810   118.00875   382.50729
    92  H   1.0    0.04    0.99    1.43   122.92160   118.96435   383.55060
    93  H   1.0    0.04    0.99    1.43   121.65475   120.20621   380.75640
    94  N   5.0   -0.21    3.23    1.96   121.19552   119.74490   388.52140
    95  C   4.0    0.03    4.26    4.11   118.73596   118.80440   388.04047
    96  C   4.0    0.08    3.29    3.05   117.00443   119.44531   390.15556
    97  O   6.0   -0.32    1.16    1.80   114.71501   119.22968   390.00045
    98  C   4.0   -0.05    4.37    4.33   118.84090   115.93875   387.69812
    99  C   4.0   -0.02    4.19    3.98   116.22360   114.70259   387.13330
   100  C   4.0   -0.09    4.16    3.92   116.65628   112.31574   385.57986
   101  C   4.0   -0.08    4.14    3.87   114.98866   113.64457   389.62952
   102  H   1.0    0.08    1.02    1.43   122.56343   118.39160   388.96887
   103  H   1.0    0.05    1.07    1.44   117.92513   119.67809   386.37013
   104  H   1.0    0.03    1.05    1.44   120.05894   115.52064   386.15916
   105  H   1.0    0.04    1.03    1.43   119.62390   115.06185   389.39853
   106  H   1.0    0.05    1.05    1.44   115.00025   116.03180   386.22385
   107  H   1.0    0.03    1.02    1.43   114.88348   111.36697   385.41341
   108  H   1.0    0.03    1.02    1.43   117.44669   112.73662   383.84481
   109  H   1.0    0.03    1.00    1.43   117.95433   111.10070   386.69274
   110  H   1.0    0.03    1.02    1.43   113.29836   112.73387   389.09322
   111  H   1.0    0.04    1.01    1.43   116.33732   112.28307   390.37598
   112  H   1.0    0.06    1.03    1.43   114.68578   115.09032   390.92734
   113  N   5.0   -0.21    3.06    1.93   112.35187   132.62953   387.55680
   114  C   4.0    0.01    4.09    3.78   113.45844   133.41346   385.06663
   115  C   4.0    0.16    3.26    3.05   113.11961   131.48917   382.79578
   116  O   6.0   -0.31    1.25    1.80   112.51997   131.98273   380.78983
   117  H   1.0    0.09    1.03    1.43   113.54374   132.76367   388.98741
   118  H   1.0    0.06    1.02    1.43   112.66873   135.20656   384.45992
   119  H   1.0    0.05    1.02    1.43   115.50862   133.62760   385.28717
   120  N   5.0   -0.14    3.60    2.15   113.81114   129.11765   383.47649
   121  C   4.0    0.04    4.44    4.45   114.28237   127.26551   381.62178
   122  C   4.0    0.15    3.48    3.11   111.88374   125.81515   381.05275
   123  O   6.0   -0.32    1.28    1.80   111.79740   124.34653   379.10274
   124  C   4.0    0.03    4.19    3.98   116.43506   125.62847   382.58277
   125  O   6.0   -0.26    2.05    1.83   115.72832   124.23523   384.72405
   126  H   1.0    0.08    1.06    1.44   114.46647   128.75825   385.28674
   127  H   1.0    0.05    1.08    1.44   114.88163   128.20020   379.88285
   128  H   1.0    0.05    1.02    1.43   117.00092   124.24725   381.17313
   129  H   1.0    0.04    1.00    1.43   118.10197   126.86541   382.97179
   130  H   1.0    0.11    1.00    1.43   115.80063   125.29528   386.26299
   131  N   5.0   -0.14    3.52    2.10   109.92283   126.12136   382.50354
   132  C   4.0    0.04    4.49    4.53   107.78177   124.45799   382.19860
   133  C   4.0    0.16    3.46    3.10   106.45955   124.89560   379.69571
   134  O   6.0   -0.31    1.28    1.80   105.79537   122.97919   378.50503
   135  C   4.0   -0.04    4.25    4.11   105.89016   124.60745   384.39697
   136  C   4.0   -0.02    3.71    3.25   107.19120   124.09060   386.91276
   137  C   4.0   -0.01    3.65    3.20   109.53904   123.06026   387.29719
   138  C   4.0    0.00    3.91    3.48   106.18493   124.63121   389.34552
   139  N   5.0   -0.12    3.51    2.08   110.02774   122.89780   389.75476
   140  C   4.0    0.03    3.94    3.52   107.94748   123.74178   391.10185
   141  C   4.0   -0.05    3.42    3.08   103.92098   125.68948   390.16672
   142  C   4.0   -0.05    3.41    3.08   107.30971   123.45498   393.64605
   143  C   4.0   -0.04    3.38    3.07   103.35122   125.48076   392.73772
   144  C   4.0   -0.04    3.41    3.08   104.97862   124.25216   394.33120
   145  H   1.0    0.09    1.08    1.44   109.93540   127.38537   383.92024
   146  H   1.0    0.05    1.06    1.44   108.51447   122.50213   382.13513
   147  H   1.0    0.05    1.03    1.43   105.03573   126.45398   384.44867
   148  H   1.0    0.04    1.02    1.43   104.39754   123.18628   384.07303
   149  H   1.0    0.06    1.02    1.43   110.95187   122.49187   385.94983
   150  H   1.0    0.09    1.05    1.44   111.60227   122.11327   390.50285
   151  H   1.0    0.05    1.03    1.43   102.67028   126.58178   388.83813
   152  H   1.0    0.05    1.02    1.43   108.66568   122.57102   394.91580
   153  H   1.0    0.05    1.03    1.43   101.58466   126.25566   393.41773
   154  H   1.0    0.06    1.03    1.43   104.37987   123.91634   396.26803
   155  N   5.0   -0.14    3.44    2.04   106.09146   127.22856   378.88324
   156  C   4.0    0.04    4.40    4.38   104.63765   127.81005   376.62216
   157  C   4.0    0.15    3.45    3.10   106.03339   126.72478   374.25967
   158  O   6.0   -0.30    1.27    1.80   105.06302   124.89700   373.10075
   159  C   4.0   -0.04    4.16    3.92   103.64235   130.48593   376.54023
   160  C   4.0    0.26    3.05    3.02   100.84230   130.64167   377.80069
   161  O   6.0   -0.29    1.19    1.80    99.88434   128.66881   378.47891
   162  O   6.0   -0.27    1.15    1.80    99.94547   132.84622   377.93711
   163  H   1.0    0.08    1.06    1.44   106.50159   128.71329   380.05169
   164  H   1.0    0.08    1.08    1.44   102.89848   126.63546   376.67847
   165  H   1.0    0.05    1.02    1.43   104.84000   131.84698   377.52489
   166  H   1.0    0.05    1.00    1.43   103.43281   131.19673   374.57272
   167  N   5.0   -0.10    3.62    2.18   108.32207   127.57817   373.70990
   168  C   4.0    0.03    4.61    4.67   110.22015   126.33875   372.11216
   169  C   4.0    0.17    3.47    3.10   110.08911   123.49251   371.89427
   170  O   6.0   -0.33    1.36    1.80   110.06461   122.47309   369.95320
   171  C   4.0   -0.05    4.39    4.37   112.70136   127.12312   373.43472
   172  C   4.0   -0.04    4.26    4.12   112.18080   129.91936   373.91890
   173  C   4.0   -0.01    4.41    4.39   109.39911   129.85631   374.81535
   174  H   1.0    0.05    1.06    1.44   110.14704   127.13228   370.23936
   175  H   1.0    0.06    1.03    1.43   112.92076   126.14386   375.22848
   176  H   1.0    0.04    1.03    1.43   114.30427   126.80161   372.25741
   177  H   1.0    0.05    1.02    1.43   113.36710   130.73350   375.37646
   178  H   1.0    0.04    1.03    1.43   112.36006   131.00315   372.19746
   179  H   1.0    0.06    1.03    1.43   109.36423   129.75636   376.86805
   180  H   1.0    0.04    1.02    1.43   108.36737   131.52186   374.21056
   181  N   5.0   -0.14    3.58    2.14   110.27205   122.24189   374.08817
   182  C   4.0    0.04    4.60    4.67   110.25605   119.51527   374.06472
   183  C   4.0    0.16    3.58    3.16   107.82576   118.62541   372.87949
   184  O   6.0   -0.32    1.34    1.80   107.85102   117.01575   371.17440
   185  C   4.0   -0.02    4.39    4.36   110.61716   118.46400   376.65497
   186  C   4.0   -0.05    4.23    4.05   113.37981   119.05088   377.44200
   187  C   4.0   -0.08    4.15    3.90   110.09631   115.64999   376.75361
   188  C   4.0   -0.07    4.03    3.67   113.59538   119.08863   380.33643
   189  H   1.0    0.11    1.09    1.44   110.33365   123.10968   375.78153
   190  H   1.0    0.05    1.05    1.44   111.82769   118.85963   372.81280
   191  H   1.0    0.06    1.05    1.44   109.33756   119.44686   377.98746
   192  H   1.0    0.03    1.04    1.43   114.61083   117.65117   376.66039
   193  H   1.0    0.05    1.04    1.43   113.91406   120.90160   376.73379
   194  H   1.0    0.04    1.00    1.43   110.47610   114.85328   378.61469
   195  H   1.0    0.05    1.01    1.43   108.14982   115.28192   376.28260
   196  H   1.0    0.04    1.00    1.43   111.30051   114.70021   375.37265
   197  H   1.0    0.04    1.01    1.43   115.47305   119.44666   380.89972
   198  H   1.0    0.06    1.01    1.43   112.35740   120.56980   381.06397
   199  H   1.0    0.04    1.00    1.43   112.92625   117.30296   381.08944
   200  N   5.0   -0.13    3.51    2.09   105.74329   119.53103   373.78270
   201  C   4.0    0.04    4.53    4.58   103.31701   118.63898   372.84226
   202  C   4.0    0.17    3.48    3.11   103.08705   118.86597   369.93487
   203  O   6.0   -0.32    1.35    1.80   102.64183   117.22474   368.59328
   204  C   4.0    0.05    4.23    4.06   101.11997   120.02304   374.19841
   205  O   6.0   -0.26    2.13    1.84   101.31223   120.05340   376.90455
   206  C   4.0   -0.06    4.18    3.96    98.80455   118.52758   373.61610
   207  H   1.0    0.11    1.08    1.44   105.76446   120.96205   375.10858
   208  H   1.0    0.05    1.05    1.44   103.18162   116.62356   373.35166
   209  H   1.0    0.06    1.03    1.43   101.01867   121.98389   373.49657
   210  H   1.0    0.15    1.04    1.43   102.59094   121.23458   377.41604
   211  H   1.0    0.05    1.01    1.43    97.14201   119.51438   374.25932
   212  H   1.0    0.05    1.01    1.43    98.65026   118.22076   371.57373
   213  H   1.0    0.05    1.06    1.44    98.91637   116.70324   374.55023
   214  N   5.0   -0.14    3.53    2.10   103.52940   121.21554   369.22013
   215  C   4.0    0.04    4.34    4.27   104.10885   121.84332   366.60471
   216  C   4.0    0.17    3.50    3.12   105.51472   119.68059   365.22577
   217  O   6.0   -0.31    1.28    1.80   104.62562   118.64763   363.34673
   218  C   4.0   -0.07    4.14    3.88   105.76277   124.22091   366.53370
   219  H   1.0    0.11    1.12    1.45   104.00266   122.55883   370.44696
   220  H   1.0    0.05    1.03    1.43   102.35043   122.20813   365.50306
   221  H   1.0    0.05    0.99    1.43   106.17018   124.76612   364.55819
   222  H   1.0    0.05    1.00    1.43   104.78266   125.78396   367.39692
   223  H   1.0    0.07    1.03    1.43   107.54046   123.91980   367.49619
   224  N   5.0   -0.13    3.56    2.12   107.75912   119.25856   366.08713
   225  C   4.0    0.04    4.36    4.31   109.57745   117.93508   364.52065
   226  C   4.0    0.16    3.44    3.09   108.93191   115.09606   364.54899
   227  O   6.0   -0.32    1.31    1.80   108.84134   113.87719   362.69697
   228  C   4.0   -0.07    4.06    3.73   112.26047   118.78038   365.19430
   229  H   1.0    0.11    1.09    1.44   108.48597   120.15309   367.66002
   230  H   1.0    0.06    1.08    1.44   109.23240   118.46226   362.57532
   231  H   1.0    0.04    1.01    1.43   113.63947   117.93944   364.02667
   232  H   1.0    0.05    0.99    1.43   112.32576   120.86896   364.98219
   233  H   1.0    0.05    1.00    1.43   112.64673   118.37501   367.18323
   234  N   5.0   -0.15    3.52    2.09   108.20127   114.08322   366.84516
   235  C   4.0    0.04    4.49    4.53   107.32507   111.50929   366.67445
   236  C   4.0    0.15    3.46    3.10   104.82915   111.21626   365.26702
   237  O   6.0   -0.32    1.25    1.80   104.39660   109.10809   364.26533
   238  C   4.0   -0.05    4.40    4.37   107.05632   110.43480   369.36671
   239  C   4.0   -0.02    4.20    4.00   109.61384   110.26798   370.68632
   240  C   4.0   -0.08    4.10    3.80   109.13078   109.70049   373.47608
   241  C   4.0   -0.08    4.11    3.82   111.26441   108.30443   369.40596
   242  H   1.0    0.12    1.12    1.45   108.08781   115.08289   368.40104
   243  H   1.0    0.05    1.07    1.44   108.68649   110.40349   365.60003
   244  H   1.0    0.05    1.04    1.43   105.81800   111.65806   370.41309
   245  H   1.0    0.04    1.03    1.43   106.22291   108.55811   369.24250
   246  H   1.0    0.04    1.06    1.44   110.54865   112.10820   370.53966
   247  H   1.0    0.03    0.99    1.43   110.89068   109.66740   374.55430
   248  H   1.0    0.04    0.99    1.43   107.94566   111.21185   374.29687
   249  H   1.0    0.04    1.01    1.43   108.16982   107.93237   373.73229
   250  H   1.0    0.03    1.01    1.43   112.98045   108.00206   370.43465
   251  H   1.0    0.04    1.00    1.43   110.26708   106.50089   369.24959
   252  H   1.0    0.04    0.99    1.43   111.77446   108.90894   367.48432
   253  N   5.0   -0.13    3.45    2.05   103.20753   113.10846   365.17449
   254  C   4.0    0.04    4.41    4.39   101.02765   113.03936   363.55187
   255  C   4.0    0.16    3.48    3.11   101.71852   112.71946   360.76916
   256  O   6.0   -0.29    1.28    1.80   100.88239   111.00804   359.52527
   257  C   4.0    0.05    4.17    3.95    99.38578   115.43453   363.81285
   258  O   6.0   -0.24    2.06    1.83    97.94420   115.33429   365.94702
   259  H   1.0    0.12    1.09    1.44   103.56762   114.76397   366.12656
   260  H   1.0    0.06    1.06    1.44    99.81233   111.44886   364.08320
   261  H   1.0    0.06    1.00    1.43   100.60084   117.15792   363.64704
   262  H   1.0    0.06    1.01    1.43    98.05059   115.49622   362.19570
   263  H   1.0    0.13    1.04    1.43    99.13592   115.58330   367.36721
   264  N   5.0   -0.14    3.50    2.08   103.17393   114.52180   359.76208
   265  C   4.0    0.04    4.45    4.46   104.19483   114.20265   357.27784
   266  C   4.0    0.16    3.53    3.13   105.23802   111.56004   356.85759
   267  O   6.0   -0.26    1.25    1.80   104.48936   110.25982   354.94772
   268  C   4.0   -0.04    4.31    4.22   106.28597   116.15124   356.83488
   269  C   4.0   -0.03    4.26    4.12   105.09000   118.78017   356.49364
   270  C   4.0    0.16    3.24    3.04   104.50108   119.17394   353.72330
   271  O   6.0   -0.28    1.22    1.80   106.19577   119.35865   352.24157
   272  N   5.0   -0.18    3.18    1.95   102.05341   119.23094   353.14160
   273  H   1.0    0.11    1.08    1.44   103.92754   115.92493   360.89223
   274  H   1.0    0.06    1.04    1.43   102.67693   114.47590   355.83720
   275  H   1.0    0.06    1.03    1.43   107.56806   116.06955   358.42314
   276  H   1.0    0.06    1.03    1.43   107.33393   115.69583   355.10240
   277  H   1.0    0.05    1.03    1.43   103.39375   118.91913   357.68335
   278  H   1.0    0.05    1.04    1.43   106.42335   120.18524   357.06824
   279  H   1.0    0.08    1.03    1.43   100.72029   119.31477   354.50525
   280  H   1.0    0.10    1.01    1.43   101.44668   119.66046   351.33157
   281  N   5.0   -0.14    3.47    2.06   106.89913   110.67704   358.43307
   282  C   4.0    0.04    4.42    4.41   107.89323   108.11641   358.05966
   283  C   4.0    0.17    3.48    3.11   105.72518   106.18513   357.70020
   284  O   6.0   -0.27    1.26    1.80   105.75714   104.68854   355.95680
   285  C   4.0   -0.05    4.27    4.14   109.63518   107.46485   360.28528
   286  C   4.0   -0.04    4.26    4.11   110.77401   104.79971   359.92170
   287  C   4.0   -0.01    4.29    4.18   111.54600   103.77253   362.47152
   288  N   5.0   -0.13    3.43    2.04   113.07696   101.56802   362.28347
   289  C   4.0    0.09    3.40    3.08   115.23025   101.58260   361.02654
   290  N   5.0   -0.18    3.35    2.00   116.02562   103.61813   359.96105
   291  N   5.0   -0.17    3.26    1.97   116.40713    99.42134   360.62865
   292  H   1.0    0.11    1.10    1.44   107.55571   111.69377   359.88024
   293  H   1.0    0.06    1.04    1.43   108.96068   108.05515   356.25255
   294  H   1.0    0.05    1.02    1.43   111.11227   108.92203   360.37761
   295  H   1.0    0.05    1.05    1.44   108.52355   107.53557   361.95112
   296  H   1.0    0.06    1.05    1.44   109.37130   103.61539   359.07141
   297  H   1.0    0.05    1.04    1.43   112.36287   104.94847   358.59687
   298  H   1.0    0.03    1.03    1.43   112.51574   105.22880   363.56977
   299  H   1.0    0.05    1.03    1.43   109.82966   103.26803   363.51918
   300  H   1.0    0.11    1.07    1.44   112.57802   100.07223   363.54804
   301  H   1.0    0.07    1.03    1.43   115.60026   105.39867   360.69396
   302  H   1.0    0.08    1.03    1.43   117.71880   103.62093   359.00144
   303  H   1.0    0.09    1.02    1.43   115.82138    97.82930   361.60518
   304  H   1.0    0.09    1.03    1.43   118.14732    99.31720   359.86069
   305  N   5.0   -0.13    3.43    2.04   103.81714   106.20791   359.35469
   306  C   4.0    0.05    4.26    4.12   101.60692   104.62218   358.88227
   307  C   4.0    0.12    3.21    3.04   100.38149   104.89378   356.26519
   308  O   6.0   -0.27    1.12    1.80    99.43339   103.13117   355.21326
   309  C   4.0   -0.06    4.09    3.79    99.64973   105.09056   360.96370
   310  H   1.0    0.11    1.08    1.44   103.73578   107.49194   360.77622
   311  H   1.0    0.06    1.06    1.44   102.24291   102.66849   358.98603
   312  H   1.0    0.05    1.00    1.43    97.99495   103.91994   360.62130
   313  H   1.0    0.05    0.99    1.43   100.44035   104.67117   362.82396
   314  H   1.0    0.06    1.00    1.43    99.07020   107.06982   360.93736
   315  N   5.0   -0.20    3.28    1.98   107.42317    98.27211   371.29129
   316  C   4.0    0.03    4.30    4.20   108.56507   100.40354   372.64573
   317  C   4.0    0.12    3.43    3.09   106.49619   102.23213   373.24759
   318  O   6.0   -0.31    1.27    1.80   106.03437   102.83182   375.76507
   319  C   4.0   -0.05    4.24    4.08   110.75838   101.38196   371.08682
   320  C   4.0   -0.04    4.21    4.02   112.76828    99.33005   370.75570
   321  C   4.0    0.25    3.09    3.02   112.69492    97.68509   368.30639
   322  O   6.0   -0.31    1.23    1.80   111.57051    98.42154   366.41823
   323  O   6.0   -0.29    1.20    1.80   113.82222    95.68488   368.55105
   324  H   1.0    0.11    1.06    1.44   108.16568    97.93010   369.63147
   325  H   1.0    0.04    1.03    1.43   109.30155    99.71504   374.52523
   326  H   1.0    0.06    1.03    1.43   110.06477   101.89333   369.21096
   327  H   1.0    0.03    1.02    1.43   111.55290   103.05490   371.99163
   328  H   1.0    0.04    1.02    1.43   114.70444   100.08569   370.86941
   329  H   1.0    0.05    1.03    1.43   112.65004    97.94282   372.30267
   330  N   5.0   -0.15    3.42    2.03   105.07449   103.20321   371.49596
   331  C   4.0    0.04    4.32    4.23   102.84259   104.71503   372.10456
   332  C   4.0    0.10    3.23    3.04   101.19772   103.54492   374.24866
   333  O   6.0   -0.31    1.15    1.80   100.48689   104.93644   375.90253
   334  C   4.0   -0.05    4.33    4.26   101.34175   105.15415   369.70766
   335  C   4.0   -0.02    4.17    3.94    99.20541   107.15507   369.93722
   336  C   4.0   -0.07    4.10    3.80   100.18371   109.83956   370.52274
   337  C   4.0   -0.07    4.13    3.87    97.84794   107.27588   367.38496
   338  H   1.0    0.10    1.12    1.45   105.40557   102.77294   369.75439
   339  H   1.0    0.05    1.04    1.43   103.43809   106.56759   372.92136
   340  H   1.0    0.05    1.03    1.43   102.62502   105.83350   368.23618
   341  H   1.0    0.05    1.04    1.43   100.49209   103.39266   369.13968
   342  H   1.0    0.05    1.05    1.44    97.91849   106.60233   371.43038
   343  H   1.0    0.04    1.00    1.43    98.60059   111.13148   370.55810
   344  H   1.0    0.04    1.00    1.43   101.08149   109.91172   372.36581
   345  H   1.0    0.05    1.01    1.43   101.50273   110.43410   369.09318
   346  H   1.0    0.05    1.01    1.43    96.39659   108.65896   367.44232
   347  H   1.0    0.05    1.01    1.43    99.22812   107.76958   365.94845
   348  H   1.0    0.04    1.01    1.43    97.06819   105.44946   366.95844
   349  N   5.0   -0.19    3.19    1.95   102.39943    99.63003   378.92416
   350  C   4.0    0.03    4.34    4.27   104.01691    99.68593   381.14792
   351  C   4.0    0.17    3.42    3.09   103.99745   102.39462   382.37105
   352  O   6.0   -0.34    1.33    1.80   103.63274   102.89623   384.31922
   353  C   4.0    0.05    4.20    4.00   106.79771    98.88734   380.65834
   354  O   6.0   -0.25    2.07    1.84   107.08615    96.38081   379.74011
   355  C   4.0   -0.07    4.12    3.84   108.25145    99.14390   383.13106
   356  H   1.0    0.10    1.03    1.43   103.20823    99.07042   377.28918
   357  H   1.0    0.05    1.05    1.44   103.25217    98.44148   382.61417
   358  H   1.0    0.05    1.03    1.43   107.60221   100.22977   379.25603
   359  H   1.0    0.11    1.02    1.43   108.90837    96.04829   379.72578
   360  H   1.0    0.04    1.00    1.43   110.22602    98.65631   382.84043
   361  H   1.0    0.05    1.01    1.43   108.11264   100.99952   383.93733
   362  H   1.0    0.05    0.99    1.43   107.45894    97.75168   384.46987
   363  N   5.0   -0.15    3.57    2.13   104.59613   104.19831   380.51294
   364  C   4.0    0.04    4.48    4.51   104.80256   106.78893   381.32767
   365  C   4.0    0.16    3.60    3.16   102.30823   107.71686   382.34956
   366  O   6.0   -0.31    1.31    1.80   102.24986   109.42308   384.03363
   367  C   4.0   -0.04    4.34    4.27   105.39414   108.55557   379.10019
   368  C   4.0   -0.01    3.74    3.27   104.89799   111.28000   379.69076
   369  C   4.0   -0.01    3.64    3.19   103.49381   112.90831   378.29389
   370  C   4.0    0.01    3.89    3.45   106.17304   112.80042   381.52815
   371  N   5.0   -0.12    3.50    2.08   103.92473   115.34702   379.00184
   372  C   4.0    0.03    3.89    3.45   105.47312   115.35262   381.04832
   373  C   4.0   -0.05    3.37    3.07   107.90916   112.27100   383.49357
   374  C   4.0   -0.05    3.39    3.08   106.31087   117.35385   382.55598
   375  C   4.0   -0.05    3.37    3.07   108.73851   114.30789   384.94157
   376  C   4.0   -0.05    3.37    3.07   107.90287   116.77432   384.53327
   377  H   1.0    0.12    1.12    1.45   104.89894   103.71658   378.72784
   378  H   1.0    0.05    1.07    1.44   106.23346   106.94805   382.80005
   379  H   1.0    0.04    1.04    1.43   107.35073   108.33383   378.58403
   380  H   1.0    0.05    1.04    1.43   104.19351   108.03187   377.51861
   381  H   1.0    0.05    1.03    1.43   102.24561   112.49044   376.76336
   382  H   1.0    0.09    1.07    1.44   102.94297   116.87311   378.39029
   383  H   1.0    0.05    1.03    1.43   108.55046   110.37633   383.82130
   384  H   1.0    0.06    1.03    1.43   105.73595   119.24423   382.10526
   385  H   1.0    0.04    1.03    1.43   110.07913   113.94169   386.41407
   386  H   1.0    0.05    1.04    1.43   108.60052   118.23628   385.74491
   387  N   5.0   -0.13    3.42    2.03   100.29229   106.76315   381.35627
   388  C   4.0    0.02    4.16    3.91    97.79320   107.52993   382.08054
   389  C   4.0    0.10    3.14    3.03    97.28065   106.92407   384.85410
   390  O   6.0   -0.29    1.12    1.80    96.54349   108.60290   386.34774
   391  H   1.0    0.10    1.08    1.44   100.50697   105.66291   379.72899
   392  H   1.0    0.06    1.02    1.43    97.55240   109.59065   381.82578
   393  H   1.0    0.05    1.02    1.43    96.37924   106.54981   380.91719
   394  N   5.0   -0.19    3.24    1.96   101.94798   105.53858   388.88920
   395  C   4.0    0.03    4.45    4.46   103.77884   106.80486   390.41151
   396  C   4.0    0.13    3.54    3.13   102.90127   109.42658   390.95778
   397  O   6.0   -0.32    1.26    1.80   103.08612   110.32357   393.34110
   398  C   4.0   -0.02    4.28    4.17   106.44969   106.94037   389.25321
   399  C   4.0   -0.08    4.14    3.89   108.12346   108.64292   390.83863
   400  C   4.0   -0.08    4.13    3.86   107.44469   104.20488   389.19081
   401  H   1.0    0.11    1.03    1.43   102.55850   104.77260   387.10712
   402  H   1.0    0.04    1.05    1.44   103.93102   105.77493   392.22961
   403  H   1.0    0.05    1.05    1.44   106.29296   107.70348   387.34081
   404  H   1.0    0.03    1.01    1.43   110.06956   108.45244   390.30563
   405  H   1.0    0.04    1.00    1.43   107.56206   110.61288   390.65064
   406  H   1.0    0.04    1.00    1.43   107.91860   108.13687   392.84516
   407  H   1.0    0.04    1.01    1.43   109.28518   104.17513   388.38660
   408  H   1.0    0.04    1.01    1.43   107.48461   103.50525   391.11031
   409  H   1.0    0.06    1.01    1.43   106.17330   103.04338   388.08407
   410  N   5.0   -0.14    3.53    2.10   102.13166   110.78428   389.12310
   411  C   4.0    0.03    4.46    4.47   101.50443   113.49361   389.31143
   412  C   4.0    0.16    3.52    3.12    99.36085   113.72376   391.17943
   413  O   6.0   -0.32    1.31    1.80    99.32061   115.38547   392.73733
   414  C   4.0   -0.04    4.31    4.21   100.86393   114.83131   386.81068
   415  C   4.0   -0.02    4.19    3.99   100.05971   117.57180   387.20751
   416  C   4.0   -0.08    4.13    3.87   101.97993   119.28064   388.51776
   417  C   4.0   -0.08    4.14    3.88    99.78596   118.81180   384.54957
   418  H   1.0    0.12    1.13    1.45   102.15593   109.98299   387.36358
   419  H   1.0    0.05    1.07    1.44   103.14155   114.42790   390.12387
   420  H   1.0    0.05    1.03    1.43   102.52543   114.72987   385.59598
   421  H   1.0    0.06    1.03    1.43    99.34758   113.80539   385.86179
   422  H   1.0    0.05    1.06    1.44    98.26890   117.59555   388.20270
   423  H   1.0    0.04    0.99    1.43   101.34865   121.26739   388.43174
   424  H   1.0    0.05    1.02    1.43   102.27105   118.79845   390.41794
   425  H   1.0    0.04    1.00    1.43   103.76919   119.19982   387.49016
   426  H   1.0    0.04    0.99    1.43    99.28905   120.83430   384.76788
   427  H   1.0    0.05    1.01    1.43   101.57346   118.73357   383.59375
   428  H   1.0    0.05    1.01    1.43    98.38503   117.92774   383.43354
   429  N   5.0   -0.13    3.44    2.04    97.69915   111.89862   390.98902
   430  C   4.0    0.02    4.23    4.05    95.61751   111.57896   392.73133
   431  C   4.0    0.17    3.30    3.05    96.38769   112.04350   395.61879
   432  O   6.0   -0.28    1.18    1.80    95.35343   113.61110   396.94456
   433  H   1.0    0.11    1.09    1.44    97.72104   110.62493   389.53864
   434  H   1.0    0.06    1.02    1.43    94.06121   112.84870   392.27329
   435  H   1.0    0.05    1.02    1.43    94.93983   109.61739   392.64354
   436  N   5.0   -0.13    3.49    2.07    98.19084   110.44535   396.24839
   437  C   4.0    0.04    4.32    4.24    99.47072   110.25485   398.62261
   438  C   4.0    0.17    3.55    3.14   100.71358   112.80851   399.18660
   439  O   6.0   -0.27    1.37    1.80   100.07069   114.06065   400.91030
   440  C   4.0   -0.07    4.10    3.80   101.40990   108.12046   398.71161
   441  H   1.0    0.09    1.08    1.44    98.75688   109.18069   394.89361
   442  H   1.0    0.06    1.05    1.44    98.05277   110.01494   400.14963
   443  H   1.0    0.05    0.99    1.43   102.31285   108.12311   400.59960
   444  H   1.0    0.05    1.01    1.43   100.49479   106.34348   398.42964
   445  H   1.0    0.06    1.01    1.43   102.83294   108.42798   397.27967
   446  N   5.0   -0.14    3.50    2.08   102.52883   113.54214   397.54309
   447  C   4.0    0.04    4.49    4.52   103.53873   116.01305   398.20031
   448  C   4.0    0.18    3.53    3.13   101.49385   117.96143   398.95544
   449  O   6.0   -0.27    1.27    1.80   101.82295   119.36502   400.64175
   450  C   4.0   -0.05    4.38    4.35   105.09958   117.03743   395.99159
   451  C   4.0   -0.02    4.20    4.00   107.07904   115.18934   394.96988
   452  C   4.0   -0.07    4.13    3.85   108.22160   116.34991   392.63733
   453  C   4.0   -0.08    4.10    3.81   109.10778   114.62152   396.97103
   454  H   1.0    0.11    1.10    1.44   102.87199   112.64070   395.90085
   455  H   1.0    0.06    1.05    1.44   104.77441   115.78228   399.87553
   456  H   1.0    0.05    1.05    1.44   103.84275   117.54083   394.48921
   457  H   1.0    0.04    1.03    1.43   106.08131   118.75048   396.61766
   458  H   1.0    0.05    1.05    1.44   106.15642   113.39365   394.45522
   459  H   1.0    0.04    1.01    1.43   109.64629   115.15281   391.81400
   460  H   1.0    0.04    1.00    1.43   106.77959   116.71911   391.20832
   461  H   1.0    0.04    1.00    1.43   109.10658   118.16214   393.08950
   462  H   1.0    0.04    1.01    1.43   110.51593   113.43133   396.18448
   463  H   1.0    0.04    1.00    1.43   109.93959   116.39518   397.57324
   464  H   1.0    0.04    1.00    1.43   108.24113   113.69706   398.60488
   465  N   5.0   -0.13    3.48    2.06    99.50042   118.15186   397.40167
   466  C   4.0    0.04    4.31    4.21    97.79182   120.30436   397.66776
   467  C   4.0    0.11    3.25    3.04    96.41920   120.12468   400.15620
   468  O   6.0   -0.26    1.12    1.80    96.29618   121.96864   401.53914
   469  C   4.0   -0.05    4.16    3.92    95.92220   120.56156   395.44939
   470  C   4.0   -0.05    4.08    3.77    97.23963   121.46663   392.84161
   471  C   4.0   -0.05    4.13    3.87    95.50849   121.48942   390.47690
   472  C   4.0   -0.04    4.11    3.82    94.45959   124.05889   389.78267
   473  N   5.0   -0.12    4.01    2.90    93.36132   124.03102   387.25937
   474  H   1.0    0.12    1.09    1.44    99.24157   116.98195   395.90947
   475  H   1.0    0.06    1.04    1.44    98.97437   122.04755   397.74002
   476  H   1.0    0.06    1.03    1.43    95.07324   118.74454   395.07945
   477  H   1.0    0.05    1.02    1.43    94.46011   121.89260   395.96922
   478  H   1.0    0.04    1.01    1.43    97.99601   123.36847   393.22765
   479  H   1.0    0.05    1.04    1.43    98.75791   120.20537   392.57432
   480  H   1.0    0.04    1.05    1.44    96.66094   120.84166   388.95587
   481  H   1.0    0.04    1.03    1.43    93.96576   120.16181   390.81778
   482  H   1.0    0.04    1.01    1.43    92.96629   124.67882   391.11220
   483  H   1.0    0.04    1.02    1.43    95.95978   125.49143   389.87071
   484  H   1.0    0.06    1.00    1.43    92.74932   125.85380   386.70209
   485  H   1.0    0.05    1.00    1.43    94.76210   123.56567   385.89016
   486  H   1.0    0.06    1.03    1.43    91.87560   122.84608   387.05250
   487  O   6.0   -0.31    1.95    1.82   106.41677   102.57713   366.09601
   488  H   1.0    0.12    0.97    1.43   106.34455   104.37947   365.88906
   489  H   1.0    0.13    0.96    1.43   106.02793   101.92233   364.40675
   490  N   5.0   -0.20    3.14    1.94   124.36504   133.44065   379.23722
   491  C   4.0    0.03    4.21    4.03   121.61512   133.81814   379.21514
   492  C   4.0    0.08    3.18    3.03   120.64267   135.73610   381.15302
   493  O   6.0   -0.28    1.11    1.80   118.90209   137.20605   380.66247
   494  C   4.0   -0.05    4.31    4.21   120.12621   131.29819   379.51049
   495  C   4.0   -0.04    4.11    3.82   119.71636   130.27366   376.86061
   496  S   6.0   -0.05    2.52    3.10   118.98363   126.97648   376.73521
   497  C   4.0   -0.06    3.90    3.46   119.81101   126.64752   373.39920
   498  H   1.0    0.08    1.00    1.43   125.09369   132.02450   380.40580
   499  H   1.0    0.05    1.07    1.44   121.21854   134.61131   377.34636
   500  H   1.0    0.04    1.04    1.43   121.23813   130.03170   380.66949
   501  H   1.0    0.05    1.04    1.43   118.35689   131.67180   380.43910
   502  H   1.0    0.04    1.07    1.44   118.18278   131.29315   375.94015
   503  H   1.0    0.04    1.08    1.44   121.46731   130.53891   375.77516
   504  H   1.0    0.04    1.05    1.44   119.29997   124.75862   372.83695
   505  H   1.0    0.04    1.03    1.43   118.74749   128.06740   372.33563
   506  H   1.0    0.06    1.02    1.43   121.85468   126.92809   373.13847
   507  N   5.0   -0.20    3.18    1.95    87.82108   113.10846   364.91309
   508  C   4.0    0.03    4.20    4.00    90.00096   113.03936   366.53571
   509  C   4.0    0.08    3.21    3.04    89.31010   112.71946   369.31842
   510  O   6.0   -0.31    1.14    1.80    90.14622   111.00804   370.56231
   511  C   4.0    0.03    4.15    3.91    91.64283   115.43453   366.27473
   512  O   6.0   -0.24    2.06    1.83    93.08442   115.33429   364.14056
   513  H   1.0    0.08    1.02    1.43    87.46099   114.76397   363.96102
   514  H   1.0    0.06    1.06    1.44    91.21628   111.44886   366.00438
   515  H   1.0    0.04    0.99    1.43    90.42777   117.15792   366.44054
   516  H   1.0    0.05    1.01    1.43    92.97802   115.49622   367.89188
   517  H   1.0    0.11    1.03    1.43    91.89269   115.58330   362.72037
   518  N   5.0   -0.20    3.26    1.97    90.72921   107.21408   374.80823
   519  C   4.0    0.04    4.32    4.24    91.86110   107.53431   377.21946
   520  C   4.0    0.08    3.21    3.04    90.10797   106.83539   379.39818
   521  O   6.0   -0.27    1.10    1.80    90.86057   105.05357   380.86805
   522  C   4.0   -0.04    4.48    4.50    92.70036   110.21905   377.55239
   523  C   4.0   -0.04    4.19    3.97    94.90414   110.51932   375.80397
   524  S   6.0   -0.05    2.64    3.10    96.59048   113.33543   376.75388
   525  C   4.0   -0.07    3.94    3.53    93.90745   115.40341   376.36180
   526  H   1.0    0.11    1.05    1.44    89.94873   108.70403   373.94030
   527  H   1.0    0.05    1.07    1.44    93.48189   106.24890   377.37059
   528  H   1.0    0.04    1.04    1.43    91.12524   111.46681   377.13646
   529  H   1.0    0.05    1.03    1.43    93.28526   110.55252   379.56079
   530  H   1.0    0.05    1.09    1.44    96.21226   108.96847   375.96945
   531  H   1.0    0.05    1.07    1.44    94.29197   110.75484   373.86784
   532  H   1.0    0.04    1.06    1.44    94.61715   117.29678   376.41460
   533  H   1.0    0.04    1.03    1.43    93.10975   115.01285   374.46108
   534  H   1.0    0.04    1.03    1.43    92.47542   115.13137   377.79732
   535  H   1.0    0.09    1.07    1.44   117.15683    98.06726   376.41250
   536  H   1.0    0.05    1.04    1.43   119.42518   103.28934   379.80264
   537  H   1.0    0.10    1.07    1.44   125.20963   101.54148   372.08036
   538  H   1.0    0.06    1.04    1.43   126.28170   110.36037   373.96931
   539  H   1.0    0.09    1.08    1.44   125.51287   119.62111   368.27780
   540  H   1.0    0.05    1.04    1.43   129.90675   120.90512   378.94784
   541  H   1.0    0.09    1.08    1.44   121.77011   120.56198   387.14489
   542  H   1.0    0.05    1.05    1.44   117.70548   120.08304   391.79045
   543  H   1.0    0.10    1.06    1.44   111.01538   133.61663   387.92010
   544  H   1.0    0.08    1.05    1.44   100.36342   106.57376   355.40008
   545  H   1.0    0.10    1.07    1.44   107.59996    96.85360   372.21278
   546  H   1.0    0.06    1.04    1.43   100.77148   101.70420   374.21484
   547  H   1.0    0.10    1.07    1.44   101.10642    98.55751   379.18945
   548  H   1.0    0.06    1.04    1.43    97.53326   105.16604   385.49954
   549  H   1.0    0.10    1.08    1.44   101.31468   104.21368   389.74719
   550  H   1.0    0.08    1.05    1.44    95.61032   118.49712   400.67373
   551  H   1.0    0.09    1.07    1.44   124.89567   133.03996   377.67183
   552  H   1.0    0.06    1.04    1.44   121.42272   135.82068   382.87216
   553  H   1.0    0.10    1.07    1.44    87.97474   111.92124   363.70500
   554  H   1.0    0.05    1.05    1.44    88.13788   113.94766   370.14818
   555  H   1.0    0.10    1.08    1.44    91.89392   106.64987   373.70474
   556  H   1.0    0.06    1.04    1.43    88.46960   107.74979   379.62325

  Z AO/shell   Hii/eV     exponent
  1     Wed Apr 25 08:07:45 CEST 2018   EN: 2.200 GM2: 0.406  GM3: 0.0800  RAES: 1.40
     1s    -10.707211    1.230000
  6     Wed Apr 25 08:07:45 CEST 2018   EN: 2.550 GM2: 0.538  GM3: 0.1500  RAES: 3.00
     2s    -13.970922    2.096432
     2p    -10.063292    1.800000
  7     Wed Apr 25 08:07:45 CEST 2018   EN: 3.040 GM2: 0.461  GM3:-0.0640  RAES: 1.90
     2s    -16.686243    2.339881
     2p    -12.523956    2.014332
  8     Wed Apr 25 08:07:45 CEST 2018   EN: 3.440 GM2: 0.452  GM3:-0.0517  RAES: 1.80
     2s    -20.229985    2.439742
     2p    -15.503117    2.137023
 16     Tue Apr 24 11:44:34 CEST 2018   EN: 2.580 GM2: 0.340  GM3:-0.0502  RAES: 3.10
     3s    -20.029654    1.981333
     3p    -11.377694    2.025643
     3d     -0.420282    1.702555
 no old-style atom pair restraining (fixing) potential

molecular fragmentation (1/2 indicates fragments):
111111111111111112222222222222222222222222222222222222222222222222222222
222222222222222222222222222222222222222222222222222222222222222222222222
222222222222222222222222222222222222222222222222222222222222222222222222
222222222222222222222222222222222222222222222222222222222222222222222222
222222222222222222222222222222222222222222222222222222222222222222222222
222222222222222222222222222222222222222222222222222222222222222222222222
222222222222222222222222222222222222222222222222222222222222222222222222
2222222222222222222222222222221122222222222222222222
# atoms in fragment 1/2:    19   537
 fragment masses (1/2) :      133.21     3576.43
CMA distance (Bohr)    :  13.758
constraining FC (au)   :  0.0500
           ------------------------------------------------- 
          |        Self-Consistent Charge Iterations        |
           ------------------------------------------------- 

 Ncao       : 1345
 Nao        : 1342
 Nshell     : 816
 Nel        : 1464
 T(el)      :   500.0
 intcut     :    35.0
 scfconv/Eh :  0.100E-06
   qconv/e  :  0.100E-04
 intneglect :  0.100E-08
 broydamp   :      0.400
 iter      E             dE          RMSdq      gap      omega  full diag
   1   -833.3076317 -0.833308E+03  0.450E+00    2.27       0.0  T
   2   -835.1529675 -0.184534E+01  0.214E+00    0.97       1.0  T
   3   -835.2514287 -0.984612E-01  0.120E+00    1.70       1.0  T
   4   -835.3918962 -0.140467E+00  0.269E-01    1.12       1.0  T
   5   -835.4022266 -0.103304E-01  0.139E-01    1.35       1.0  T
   6   -835.4047239 -0.249730E-02  0.633E-02    1.22       1.0  T
   7   -835.4053635 -0.639626E-03  0.281E-02    1.23       1.0  T
   8   -835.4054682 -0.104650E-03  0.139E-02    1.23       1.0  T
   9   -835.4054956 -0.274339E-04  0.604E-03    1.22       1.0  T
  10   -835.4054999 -0.431882E-05  0.300E-03    1.22       1.4  T
  11   -835.4055009 -0.986812E-06  0.130E-03    1.22       3.3  T
  12   -835.4055011 -0.198996E-06  0.685E-04    1.22       6.2  T
  13   -835.4055012 -0.588375E-07  0.338E-04    1.22      12.5  T
  14   -835.4055012 -0.202069E-07  0.178E-04    1.22      23.8  T
  15   -835.4055012 -0.421880E-08  0.833E-05    1.22      50.9  T
  16   -835.4055012 -0.111868E-08  0.396E-05    1.22     107.2  T
speedup  1.98
cpu  time for SCC   42.10 s
wall time for SCC   21.22 s

   *** convergence criteria satisfied after 16 iterations ***

          eigenvalues
 #    :         720        721        722        723        724        725        726        727
 occ. :        2.000      2.000      2.000      2.000      2.000      2.000      2.000      2.000
 eps  :        -9.924     -9.882     -9.841     -9.822     -9.783     -9.755     -9.744     -9.636
 #    :         728        729        730        731        732        733        734        735
 occ. :        2.000      2.000      2.000      2.000      2.000      0.000      0.000      0.000
 eps  :        -9.630     -9.623     -9.527     -9.433     -9.310     -8.094     -8.047     -8.044
 #    :         736        737        738        739        740        741        742        743
 occ. :        0.000      0.000      0.000      0.000      0.000      0.000      0.000      0.000
 eps  :        -7.976     -7.954     -7.842     -7.701     -7.685     -7.350     -7.292     -7.290


   #   Z            q   n(s)   n(p)   n(d)      C6AA      α(0)
   1   7 N     -0.381  1.313  4.068  0.000    29.853     8.115
   2   6 C      0.038  1.057  2.905  0.000    19.958     6.364
   3   6 C      0.199  1.094  2.707  0.000    23.763     7.983
   4   8 O     -0.346  1.733  4.613  0.000    20.638     6.091
   5   6 C     -0.066  1.057  3.009  0.000    21.747     6.635
   6   6 C     -0.014  1.061  2.952  0.000    20.827     6.498
   7  16 S     -0.201  1.922  4.229  0.050   149.612    20.587
   8   6 C     -0.066  1.058  3.008  0.000    21.842     6.668
   9   1 H      0.166  0.834  0.000  0.000     1.296     1.783
  10   1 H      0.040  0.960  0.000  0.000     2.446     2.446
  11   1 H      0.042  0.958  0.000  0.000     2.420     2.433
  12   1 H      0.055  0.945  0.000  0.000     2.260     2.351
  13   1 H      0.054  0.946  0.000  0.000     2.266     2.354
  14   1 H      0.053  0.947  0.000  0.000     2.288     2.365
  15   1 H      0.062  0.938  0.000  0.000     2.173     2.305
  16   1 H      0.050  0.950  0.000  0.000     2.325     2.384
  17   1 H      0.070  0.930  0.000  0.000     2.085     2.258
  18   7 N     -0.396  1.339  4.056  0.000    30.259     8.170
  19   6 C      0.028  1.067  2.905  0.000    20.120     6.390
  20   6 C      0.270  1.048  2.682  0.000    22.436     7.757
  21   8 O     -0.535  1.761  4.774  0.000    24.577     6.647
  22   6 C     -0.064  1.059  3.004  0.000    21.715     6.634
  23   6 C     -0.010  1.053  2.957  0.000    20.726     6.475
  24   6 C     -0.122  1.043  3.079  0.000    22.891     6.822
  25   6 C     -0.120  1.042  3.078  0.000    22.854     6.815
  26   1 H      0.151  0.849  0.000  0.000     1.398     1.852
  27   1 H      0.035  0.965  0.000  0.000     2.516     2.480
  28   1 H      0.033  0.967  0.000  0.000     2.546     2.495
  29   1 H      0.036  0.964  0.000  0.000     2.500     2.473
  30   1 H      0.030  0.970  0.000  0.000     2.592     2.518
  31   1 H      0.046  0.954  0.000  0.000     2.375     2.410
  32   1 H      0.042  0.958  0.000  0.000     2.418     2.432
  33   1 H      0.042  0.958  0.000  0.000     2.427     2.436
  34   1 H      0.053  0.947  0.000  0.000     2.286     2.364
  35   1 H      0.037  0.963  0.000  0.000     2.483     2.464
  36   1 H      0.040  0.960  0.000  0.000     2.452     2.449
  37   7 N     -0.158  1.237  3.921  0.000    24.412     7.338
  38   6 C      0.027  1.062  2.911  0.000    20.127     6.388
  39   6 C      0.203  1.093  2.704  0.000    23.682     7.969
  40   8 O     -0.368  1.753  4.615  0.000    21.052     6.152
  41   6 C     -0.078  1.061  3.017  0.000    21.991     6.676
  42   6 C     -0.015  1.060  2.955  0.000    20.807     6.488
  43   6 C     -0.115  1.040  3.076  0.000    22.756     6.800
  44   6 C     -0.118  1.043  3.076  0.000    22.824     6.813
  45   1 H      0.239  0.761  0.000  0.000     0.929     1.510
  46   1 H      0.085  0.915  0.000  0.000     1.931     2.173
  47   1 H      0.067  0.933  0.000  0.000     2.117     2.275
  48   1 H      0.067  0.933  0.000  0.000     2.115     2.274
  49   1 H      0.040  0.960  0.000  0.000     2.443     2.444
  50   1 H      0.049  0.951  0.000  0.000     2.335     2.390
  51   1 H      0.037  0.963  0.000  0.000     2.493     2.469
  52   1 H      0.055  0.945  0.000  0.000     2.263     2.352
  53   1 H      0.046  0.954  0.000  0.000     2.372     2.409
  54   1 H      0.044  0.956  0.000  0.000     2.390     2.418
  55   1 H      0.039  0.961  0.000  0.000     2.456     2.450
  56   7 N     -0.395  1.321  4.074  0.000    30.247     8.168
  57   6 C      0.030  1.058  2.912  0.000    20.078     6.381
  58   6 C      0.282  1.038  2.680  0.000    22.220     7.719
  59   8 O     -0.468  1.722  4.746  0.000    23.086     6.442
  60   6 C     -0.084  1.064  3.020  0.000    22.081     6.687
  61   6 C     -0.011  1.061  2.950  0.000    20.738     6.477
  62   6 C     -0.113  1.037  3.076  0.000    22.710     6.794
  63   6 C     -0.121  1.038  3.083  0.000    22.869     6.818
  64   1 H      0.165  0.835  0.000  0.000     1.305     1.790
  65   1 H      0.037  0.963  0.000  0.000     2.489     2.467
  66   1 H      0.054  0.946  0.000  0.000     2.274     2.358
  67   1 H      0.043  0.957  0.000  0.000     2.414     2.430
  68   1 H      0.020  0.980  0.000  0.000     2.734     2.586
  69   1 H      0.042  0.958  0.000  0.000     2.422     2.434
  70   1 H      0.033  0.967  0.000  0.000     2.549     2.497
  71   1 H      0.044  0.956  0.000  0.000     2.402     2.423
  72   1 H      0.042  0.958  0.000  0.000     2.419     2.432
  73   1 H      0.052  0.948  0.000  0.000     2.295     2.369
  74   1 H      0.037  0.963  0.000  0.000     2.494     2.470
  75   7 N     -0.181  1.258  3.923  0.000    24.929     7.415
  76   6 C      0.025  1.058  2.917  0.000    20.161     6.395
  77   6 C      0.199  1.085  2.716  0.000    23.760     7.986
  78   8 O     -0.368  1.757  4.611  0.000    21.058     6.152
  79   6 C     -0.069  1.060  3.010  0.000    21.779     6.637
  80   6 C     -0.014  1.053  2.960  0.000    20.782     6.484
  81   6 C     -0.120  1.043  3.077  0.000    22.841     6.812
  82   6 C     -0.118  1.039  3.078  0.000    22.808     6.810
  83   1 H      0.202  0.798  0.000  0.000     1.096     1.640
  84   1 H      0.077  0.923  0.000  0.000     2.013     2.219
  85   1 H      0.060  0.940  0.000  0.000     2.201     2.320
  86   1 H      0.057  0.943  0.000  0.000     2.232     2.336
  87   1 H      0.046  0.954  0.000  0.000     2.364     2.404
  88   1 H      0.057  0.943  0.000  0.000     2.235     2.338
  89   1 H      0.040  0.960  0.000  0.000     2.445     2.445
  90   1 H      0.042  0.958  0.000  0.000     2.427     2.436
  91   1 H      0.057  0.943  0.000  0.000     2.230     2.335
  92   1 H      0.038  0.962  0.000  0.000     2.483     2.464
  93   1 H      0.035  0.965  0.000  0.000     2.521     2.483
  94   7 N     -0.388  1.320  4.068  0.000    30.044     8.141
  95   6 C      0.041  1.040  2.918  0.000    19.893     6.352
  96   6 C      0.199  1.085  2.717  0.000    23.771     7.985
  97   8 O     -0.380  1.746  4.634  0.000    21.286     6.186
  98   6 C     -0.078  1.062  3.017  0.000    21.984     6.673
  99   6 C     -0.022  1.064  2.957  0.000    20.932     6.508
 100   6 C     -0.122  1.037  3.085  0.000    22.879     6.817
 101   6 C     -0.118  1.037  3.081  0.000    22.802     6.807
 102   1 H      0.156  0.844  0.000  0.000     1.364     1.830
 103   1 H      0.074  0.926  0.000  0.000     2.045     2.236
 104   1 H      0.068  0.932  0.000  0.000     2.105     2.269
 105   1 H      0.039  0.961  0.000  0.000     2.468     2.457
 106   1 H      0.049  0.951  0.000  0.000     2.335     2.390
 107   1 H      0.049  0.951  0.000  0.000     2.327     2.385
 108   1 H      0.051  0.949  0.000  0.000     2.308     2.376
 109   1 H      0.032  0.968  0.000  0.000     2.558     2.501
 110   1 H      0.040  0.960  0.000  0.000     2.446     2.445
 111   1 H      0.030  0.970  0.000  0.000     2.584     2.514
 112   1 H      0.041  0.959  0.000  0.000     2.429     2.437
 113   7 N     -0.395  1.320  4.074  0.000    30.228     8.165
 114   6 C     -0.035  1.062  2.972  0.000    21.303     6.591
 115   6 C      0.286  1.037  2.678  0.000    22.161     7.708
 116   8 O     -0.423  1.710  4.714  0.000    22.146     6.310
 117   1 H      0.177  0.823  0.000  0.000     1.234     1.740
 118   1 H      0.040  0.960  0.000  0.000     2.454     2.450
 119   1 H      0.049  0.951  0.000  0.000     2.335     2.390
 120   7 N     -0.212  1.249  3.963  0.000    25.617     7.517
 121   6 C      0.021  1.050  2.930  0.000    20.223     6.402
 122   6 C      0.260  1.048  2.691  0.000    22.616     7.789
 123   8 O     -0.520  1.768  4.752  0.000    24.235     6.600
 124   6 C      0.070  1.040  2.890  0.000    19.593     6.337
 125   8 O     -0.450  1.717  4.733  0.000    21.852     6.310
 126   1 H      0.210  0.790  0.000  0.000     1.058     1.611
 127   1 H      0.082  0.918  0.000  0.000     1.957     2.188
 128   1 H      0.083  0.917  0.000  0.000     1.943     2.180
 129   1 H      0.042  0.958  0.000  0.000     2.420     2.433
 130   1 H      0.326  0.674  0.000  0.000     0.649     1.265
 131   7 N     -0.149  1.230  3.918  0.000    24.218     7.309
 132   6 C      0.025  1.059  2.916  0.000    20.151     6.389
 133   6 C      0.279  1.040  2.681  0.000    22.274     7.729
 134   8 O     -0.503  1.738  4.765  0.000    23.858     6.549
 135   6 C     -0.072  1.053  3.019  0.000    21.876     6.659
 136   6 C     -0.048  1.063  2.985  0.000    29.092     8.842
 137   6 C     -0.005  1.063  2.942  0.000    28.095     8.693
 138   6 C     -0.015  1.067  2.948  0.000    28.211     8.698
 139   7 N     -0.093  1.220  3.874  0.000    23.063     7.133
 140   6 C      0.038  1.063  2.898  0.000    26.946     8.499
 141   6 C     -0.048  1.080  2.968  0.000    29.180     8.858
 142   6 C     -0.047  1.070  2.977  0.000    29.176     8.857
 143   6 C     -0.044  1.076  2.968  0.000    29.086     8.844
 144   6 C     -0.031  1.066  2.965  0.000    28.767     8.796
 145   1 H      0.213  0.787  0.000  0.000     1.041     1.598
 146   1 H      0.097  0.903  0.000  0.000     1.813     2.106
 147   1 H      0.052  0.948  0.000  0.000     2.299     2.371
 148   1 H      0.074  0.926  0.000  0.000     2.042     2.235
 149   1 H      0.050  0.950  0.000  0.000     2.323     2.384
 150   1 H      0.192  0.808  0.000  0.000     1.149     1.679
 151   1 H      0.038  0.962  0.000  0.000     2.471     2.458
 152   1 H      0.020  0.980  0.000  0.000     2.740     2.589
 153   1 H      0.031  0.969  0.000  0.000     2.568     2.506
 154   1 H      0.008  0.992  0.000  0.000     2.917     2.671
 155   7 N     -0.166  1.248  3.918  0.000    24.591     7.365
 156   6 C      0.036  1.058  2.906  0.000    19.990     6.368
 157   6 C      0.251  1.059  2.690  0.000    22.776     7.815
 158   8 O     -0.523  1.751  4.772  0.000    24.302     6.609
 159   6 C     -0.110  1.078  3.032  0.000    22.618     6.775
 160   6 C      0.373  1.024  2.603  0.000    20.686     7.442
 161   8 O     -0.580  1.749  4.831  0.000    25.635     6.788
 162   8 O     -0.655  1.786  4.870  0.000    27.514     7.033
 163   1 H      0.194  0.806  0.000  0.000     1.136     1.670
 164   1 H      0.080  0.920  0.000  0.000     1.977     2.199
 165   1 H      0.030  0.970  0.000  0.000     2.580     2.512
 166   1 H      0.018  0.982  0.000  0.000     2.767     2.602
 167   7 N     -0.078  1.235  3.842  0.000    22.748     7.084
 168   6 C      0.008  1.069  2.923  0.000    20.416     6.428
 169   6 C      0.295  1.021  2.684  0.000    22.005     7.682
 170   8 O     -0.448  1.696  4.752  0.000    22.666     6.383
 171   6 C     -0.077  1.055  3.022  0.000    21.938     6.663
 172   6 C     -0.069  1.051  3.018  0.000    21.799     6.643
 173   6 C     -0.011  1.052  2.959  0.000    20.798     6.497
 174   1 H      0.071  0.929  0.000  0.000     2.078     2.254
 175   1 H      0.080  0.920  0.000  0.000     1.978     2.199
 176   1 H      0.073  0.927  0.000  0.000     2.057     2.243
 177   1 H      0.067  0.933  0.000  0.000     2.123     2.279
 178   1 H      0.062  0.938  0.000  0.000     2.171     2.304
 179   1 H      0.061  0.939  0.000  0.000     2.191     2.315
 180   1 H      0.060  0.940  0.000  0.000     2.203     2.321
 181   7 N     -0.197  1.249  3.949  0.000    25.285     7.468
 182   6 C      0.027  1.058  2.915  0.000    20.098     6.380
 183   6 C      0.277  1.036  2.687  0.000    22.310     7.736
 184   8 O     -0.515  1.733  4.781  0.000    24.111     6.583
 185   6 C     -0.022  1.062  2.961  0.000    20.935     6.507
 186   6 C     -0.070  1.053  3.017  0.000    21.838     6.652
 187   6 C     -0.117  1.038  3.079  0.000    22.787     6.806
 188   6 C     -0.109  1.033  3.076  0.000    22.641     6.785
 189   1 H      0.219  0.781  0.000  0.000     1.014     1.577
 190   1 H      0.071  0.929  0.000  0.000     2.076     2.254
 191   1 H      0.048  0.952  0.000  0.000     2.345     2.395
 192   1 H      0.049  0.951  0.000  0.000     2.334     2.389
 193   1 H      0.043  0.957  0.000  0.000     2.413     2.429
 194   1 H      0.061  0.939  0.000  0.000     2.187     2.313
 195   1 H      0.035  0.965  0.000  0.000     2.520     2.482
 196   1 H      0.054  0.946  0.000  0.000     2.270     2.356
 197   1 H      0.047  0.953  0.000  0.000     2.357     2.401
 198   1 H      0.035  0.965  0.000  0.000     2.513     2.479
 199   1 H      0.043  0.957  0.000  0.000     2.410     2.427
 200   7 N     -0.162  1.242  3.920  0.000    24.508     7.353
 201   6 C     -0.004  1.077  2.926  0.000    20.634     6.465
 202   6 C      0.302  1.019  2.678  0.000    21.865     7.657
 203   8 O     -0.432  1.687  4.745  0.000    22.328     6.335
 204   6 C      0.112  1.045  2.843  0.000    18.848     6.200
 205   8 O     -0.452  1.710  4.743  0.000    21.889     6.316
 206   6 C     -0.134  1.040  3.094  0.000    23.113     6.852
 207   1 H      0.221  0.779  0.000  0.000     1.005     1.570
 208   1 H      0.078  0.922  0.000  0.000     2.000     2.212
 209   1 H      0.022  0.978  0.000  0.000     2.696     2.568
 210   1 H      0.315  0.685  0.000  0.000     0.677     1.293
 211   1 H      0.067  0.933  0.000  0.000     2.113     2.273
 212   1 H      0.042  0.958  0.000  0.000     2.427     2.436
 213   1 H      0.091  0.909  0.000  0.000     1.873     2.140
 214   7 N     -0.208  1.254  3.954  0.000    25.522     7.503
 215   6 C      0.020  1.066  2.914  0.000    20.249     6.408
 216   6 C      0.279  1.035  2.687  0.000    22.288     7.732
 217   8 O     -0.509  1.737  4.773  0.000    23.995     6.568
 218   6 C     -0.139  1.046  3.093  0.000    23.235     6.873
 219   1 H      0.222  0.778  0.000  0.000     1.000     1.566
 220   1 H      0.058  0.942  0.000  0.000     2.218     2.329
 221   1 H      0.057  0.943  0.000  0.000     2.236     2.339
 222   1 H      0.058  0.942  0.000  0.000     2.226     2.333
 223   1 H      0.079  0.921  0.000  0.000     1.993     2.208
 224   7 N     -0.169  1.248  3.920  0.000    24.648     7.374
 225   6 C      0.015  1.060  2.925  0.000    20.314     6.416
 226   6 C      0.278  1.044  2.678  0.000    22.290     7.732
 227   8 O     -0.456  1.711  4.745  0.000    22.830     6.406
 228   6 C     -0.133  1.044  3.089  0.000    23.109     6.856
 229   1 H      0.234  0.766  0.000  0.000     0.947     1.525
 230   1 H      0.069  0.931  0.000  0.000     2.095     2.264
 231   1 H      0.081  0.919  0.000  0.000     1.971     2.196
 232   1 H      0.064  0.936  0.000  0.000     2.157     2.297
 233   1 H      0.073  0.927  0.000  0.000     2.053     2.241
 234   7 N     -0.214  1.255  3.959  0.000    25.655     7.523
 235   6 C      0.022  1.059  2.919  0.000    20.191     6.396
 236   6 C      0.259  1.050  2.690  0.000    22.631     7.790
 237   8 O     -0.523  1.748  4.775  0.000    24.302     6.609
 238   6 C     -0.080  1.059  3.020  0.000    22.003     6.676
 239   6 C     -0.017  1.055  2.961  0.000    20.836     6.492
 240   6 C     -0.113  1.041  3.072  0.000    22.720     6.796
 241   6 C     -0.123  1.041  3.082  0.000    22.911     6.825
 242   1 H      0.237  0.763  0.000  0.000     0.936     1.515
 243   1 H      0.083  0.917  0.000  0.000     1.948     2.182
 244   1 H      0.060  0.940  0.000  0.000     2.202     2.320
 245   1 H      0.059  0.941  0.000  0.000     2.210     2.325
 246   1 H      0.049  0.951  0.000  0.000     2.327     2.386
 247   1 H      0.041  0.959  0.000  0.000     2.441     2.443
 248   1 H      0.042  0.958  0.000  0.000     2.423     2.434
 249   1 H      0.039  0.961  0.000  0.000     2.458     2.452
 250   1 H      0.053  0.947  0.000  0.000     2.288     2.365
 251   1 H      0.042  0.958  0.000  0.000     2.422     2.434
 252   1 H      0.038  0.962  0.000  0.000     2.475     2.460
 253   7 N     -0.166  1.242  3.925  0.000    24.596     7.366
 254   6 C      0.005  1.064  2.931  0.000    20.494     6.446
 255   6 C      0.275  1.038  2.688  0.000    22.359     7.744
 256   8 O     -0.471  1.738  4.734  0.000    23.160     6.452
 257   6 C      0.072  1.037  2.891  0.000    19.595     6.343
 258   8 O     -0.425  1.705  4.720  0.000    21.333     6.235
 259   1 H      0.223  0.777  0.000  0.000     0.998     1.565
 260   1 H      0.090  0.910  0.000  0.000     1.878     2.143
 261   1 H      0.038  0.962  0.000  0.000     2.476     2.461
 262   1 H      0.051  0.949  0.000  0.000     2.302     2.373
 263   1 H      0.321  0.679  0.000  0.000     0.662     1.278
 264   7 N     -0.194  1.255  3.939  0.000    25.215     7.458
 265   6 C      0.030  1.057  2.913  0.000    20.063     6.377
 266   6 C      0.271  1.044  2.685  0.000    22.426     7.756
 267   8 O     -0.552  1.786  4.766  0.000    24.974     6.700
 268   6 C     -0.070  1.056  3.014  0.000    21.836     6.651
 269   6 C     -0.108  1.059  3.049  0.000    22.550     6.759
 270   6 C      0.301  1.026  2.673  0.000    21.889     7.661
 271   8 O     -0.491  1.739  4.751  0.000    23.580     6.511
 272   7 N     -0.294  1.277  4.017  0.000    27.576     7.799
 273   1 H      0.226  0.774  0.000  0.000     0.984     1.554
 274   1 H      0.065  0.935  0.000  0.000     2.143     2.289
 275   1 H      0.071  0.929  0.000  0.000     2.074     2.252
 276   1 H      0.061  0.939  0.000  0.000     2.190     2.314
 277   1 H      0.062  0.938  0.000  0.000     2.171     2.304
 278   1 H      0.083  0.917  0.000  0.000     1.946     2.181
 279   1 H      0.224  0.776  0.000  0.000     0.991     1.560
 280   1 H      0.227  0.773  0.000  0.000     0.980     1.551
 281   7 N     -0.164  1.241  3.923  0.000    24.547     7.358
 282   6 C      0.017  1.073  2.910  0.000    20.296     6.414
 283   6 C      0.288  1.039  2.673  0.000    22.110     7.700
 284   8 O     -0.498  1.749  4.749  0.000    23.739     6.532
 285   6 C     -0.091  1.059  3.032  0.000    22.234     6.712
 286   6 C     -0.096  1.051  3.045  0.000    22.322     6.726
 287   6 C     -0.023  1.046  2.977  0.000    21.033     6.539
 288   7 N     -0.147  1.225  3.923  0.000    24.184     7.304
 289   6 C      0.245  1.005  2.750  0.000    22.888     7.834
 290   7 N     -0.237  1.241  3.996  0.000    26.201     7.602
 291   7 N     -0.263  1.242  4.021  0.000    26.814     7.691
 292   1 H      0.231  0.769  0.000  0.000     0.961     1.535
 293   1 H      0.075  0.925  0.000  0.000     2.032     2.229
 294   1 H      0.075  0.925  0.000  0.000     2.036     2.231
 295   1 H      0.073  0.927  0.000  0.000     2.047     2.237
 296   1 H      0.064  0.936  0.000  0.000     2.152     2.294
 297   1 H      0.082  0.918  0.000  0.000     1.963     2.191
 298   1 H      0.066  0.934  0.000  0.000     2.131     2.283
 299   1 H      0.092  0.908  0.000  0.000     1.858     2.132
 300   1 H      0.240  0.760  0.000  0.000     0.925     1.507
 301   1 H      0.242  0.758  0.000  0.000     0.916     1.499
 302   1 H      0.247  0.753  0.000  0.000     0.894     1.481
 303   1 H      0.227  0.773  0.000  0.000     0.977     1.548
 304   1 H      0.249  0.751  0.000  0.000     0.889     1.477
 305   7 N     -0.176  1.246  3.930  0.000    24.803     7.397
 306   6 C      0.032  1.057  2.911  0.000    20.043     6.375
 307   6 C      0.225  1.076  2.699  0.000    23.263     7.899
 308   8 O     -0.363  1.738  4.626  0.000    20.965     6.139
 309   6 C     -0.130  1.045  3.085  0.000    23.056     6.847
 310   1 H      0.222  0.778  0.000  0.000     0.998     1.565
 311   1 H      0.083  0.917  0.000  0.000     1.944     2.181
 312   1 H      0.069  0.931  0.000  0.000     2.097     2.264
 313   1 H      0.086  0.914  0.000  0.000     1.916     2.164
 314   1 H      0.074  0.926  0.000  0.000     2.045     2.236
 315   7 N     -0.397  1.308  4.089  0.000    30.283     8.173
 316   6 C      0.060  1.053  2.887  0.000    19.589     6.304
 317   6 C      0.231  1.079  2.690  0.000    23.163     7.882
 318   8 O     -0.578  1.811  4.767  0.000    25.593     6.783
 319   6 C     -0.064  1.053  3.011  0.000    21.717     6.634
 320   6 C     -0.092  1.070  3.022  0.000    22.258     6.718
 321   6 C      0.380  1.015  2.605  0.000    20.562     7.421
 322   8 O     -0.607  1.743  4.864  0.000    26.297     6.875
 323   8 O     -0.653  1.771  4.882  0.000    27.469     7.027
 324   1 H      0.169  0.831  0.000  0.000     1.277     1.770
 325   1 H      0.022  0.978  0.000  0.000     2.702     2.571
 326   1 H      0.068  0.932  0.000  0.000     2.106     2.269
 327   1 H      0.036  0.964  0.000  0.000     2.502     2.474
 328   1 H      0.029  0.971  0.000  0.000     2.596     2.519
 329   1 H      0.000  1.000  0.000  0.000     3.051     2.732
 330   7 N     -0.120  1.233  3.887  0.000    23.607     7.216
 331   6 C      0.020  1.068  2.912  0.000    20.246     6.408
 332   6 C      0.216  1.082  2.702  0.000    23.435     7.928
 333   8 O     -0.340  1.727  4.613  0.000    20.509     6.072
 334   6 C     -0.088  1.060  3.027  0.000    22.164     6.701
 335   6 C     -0.015  1.059  2.956  0.000    20.816     6.490
 336   6 C     -0.122  1.039  3.082  0.000    22.887     6.821
 337   6 C     -0.126  1.038  3.087  0.000    22.953     6.829
 338   1 H      0.244  0.756  0.000  0.000     0.906     1.491
 339   1 H      0.094  0.906  0.000  0.000     1.844     2.124
 340   1 H      0.074  0.926  0.000  0.000     2.040     2.234
 341   1 H      0.066  0.934  0.000  0.000     2.133     2.284
 342   1 H      0.034  0.966  0.000  0.000     2.529     2.487
 343   1 H      0.050  0.950  0.000  0.000     2.316     2.380
 344   1 H      0.041  0.959  0.000  0.000     2.436     2.441
 345   1 H      0.043  0.957  0.000  0.000     2.406     2.426
 346   1 H      0.052  0.948  0.000  0.000     2.295     2.369
 347   1 H      0.047  0.953  0.000  0.000     2.357     2.401
 348   1 H      0.045  0.955  0.000  0.000     2.381     2.413
 349   7 N     -0.380  1.308  4.071  0.000    29.816     8.110
 350   6 C      0.011  1.070  2.919  0.000    20.407     6.435
 351   6 C      0.297  1.035  2.668  0.000    21.968     7.675
 352   8 O     -0.369  1.661  4.708  0.000    21.072     6.155
 353   6 C      0.117  1.048  2.835  0.000    18.774     6.189
 354   8 O     -0.495  1.738  4.756  0.000    22.778     6.443
 355   6 C     -0.126  1.046  3.080  0.000    22.975     6.835
 356   1 H      0.152  0.848  0.000  0.000     1.391     1.847
 357   1 H      0.025  0.975  0.000  0.000     2.662     2.552
 358   1 H      0.025  0.975  0.000  0.000     2.660     2.551
 359   1 H      0.323  0.677  0.000  0.000     0.655     1.271
 360   1 H      0.046  0.954  0.000  0.000     2.367     2.406
 361   1 H      0.053  0.947  0.000  0.000     2.285     2.364
 362   1 H      0.045  0.955  0.000  0.000     2.378     2.412
 363   7 N     -0.256  1.268  3.988  0.000    26.651     7.667
 364   6 C      0.036  1.053  2.911  0.000    19.966     6.361
 365   6 C      0.270  1.044  2.686  0.000    22.448     7.760
 366   8 O     -0.513  1.750  4.762  0.000    24.066     6.577
 367   6 C     -0.069  1.049  3.020  0.000    21.803     6.645
 368   6 C     -0.032  1.065  2.967  0.000    28.746     8.793
 369   6 C     -0.010  1.063  2.948  0.000    28.211     8.710
 370   6 C     -0.015  1.078  2.937  0.000    28.188     8.692
 371   7 N     -0.112  1.230  3.882  0.000    23.449     7.192
 372   6 C      0.045  1.061  2.894  0.000    26.882     8.499
 373   6 C     -0.041  1.082  2.959  0.000    29.025     8.834
 374   6 C     -0.059  1.069  2.990  0.000    29.454     8.899
 375   6 C     -0.048  1.075  2.973  0.000    29.185     8.859
 376   6 C     -0.042  1.073  2.970  0.000    29.050     8.839
 377   1 H      0.230  0.770  0.000  0.000     0.965     1.539
 378   1 H      0.065  0.935  0.000  0.000     2.141     2.288
 379   1 H      0.068  0.932  0.000  0.000     2.109     2.271
 380   1 H      0.051  0.949  0.000  0.000     2.304     2.374
 381   1 H      0.033  0.967  0.000  0.000     2.546     2.495
 382   1 H      0.194  0.806  0.000  0.000     1.136     1.670
 383   1 H      0.022  0.978  0.000  0.000     2.697     2.568
 384   1 H      0.030  0.970  0.000  0.000     2.588     2.516
 385   1 H      0.025  0.975  0.000  0.000     2.653     2.547
 386   1 H      0.034  0.966  0.000  0.000     2.534     2.489
 387   7 N     -0.141  1.233  3.908  0.000    24.047     7.283
 388   6 C     -0.019  1.047  2.972  0.000    20.983     6.534
 389   6 C      0.204  1.090  2.706  0.000    23.668     7.967
 390   8 O     -0.363  1.753  4.610  0.000    20.951     6.137
 391   1 H      0.226  0.774  0.000  0.000     0.983     1.554
 392   1 H      0.106  0.894  0.000  0.000     1.734     2.060
 393   1 H      0.105  0.895  0.000  0.000     1.741     2.063
 394   7 N     -0.405  1.324  4.081  0.000    30.523     8.205
 395   6 C      0.047  1.052  2.901  0.000    19.793     6.334
 396   6 C      0.244  1.065  2.691  0.000    22.911     7.839
 397   8 O     -0.604  1.793  4.811  0.000    26.217     6.865
 398   6 C     -0.015  1.064  2.952  0.000    20.808     6.488
 399   6 C     -0.107  1.036  3.070  0.000    22.595     6.777
 400   6 C     -0.118  1.037  3.081  0.000    22.800     6.807
 401   1 H      0.169  0.831  0.000  0.000     1.279     1.772
 402   1 H      0.026  0.974  0.000  0.000     2.641     2.542
 403   1 H      0.036  0.964  0.000  0.000     2.496     2.471
 404   1 H      0.048  0.952  0.000  0.000     2.349     2.397
 405   1 H      0.039  0.961  0.000  0.000     2.465     2.455
 406   1 H      0.037  0.963  0.000  0.000     2.487     2.466
 407   1 H      0.047  0.953  0.000  0.000     2.363     2.404
 408   1 H      0.041  0.959  0.000  0.000     2.433     2.439
 409   1 H      0.046  0.954  0.000  0.000     2.368     2.406
 410   7 N     -0.144  1.250  3.894  0.000    24.115     7.293
 411   6 C      0.015  1.063  2.922  0.000    20.316     6.417
 412   6 C      0.293  1.024  2.682  0.000    22.023     7.685
 413   8 O     -0.476  1.723  4.754  0.000    23.269     6.467
 414   6 C     -0.078  1.057  3.020  0.000    21.979     6.674
 415   6 C     -0.020  1.059  2.961  0.000    20.902     6.503
 416   6 C     -0.119  1.038  3.081  0.000    22.818     6.809
 417   6 C     -0.129  1.047  3.082  0.000    23.026     6.839
 418   1 H      0.249  0.751  0.000  0.000     0.889     1.477
 419   1 H      0.078  0.922  0.000  0.000     1.999     2.211
 420   1 H      0.067  0.933  0.000  0.000     2.115     2.274
 421   1 H      0.061  0.939  0.000  0.000     2.186     2.312
 422   1 H      0.048  0.952  0.000  0.000     2.343     2.394
 423   1 H      0.052  0.948  0.000  0.000     2.292     2.368
 424   1 H      0.036  0.964  0.000  0.000     2.506     2.475
 425   1 H      0.042  0.958  0.000  0.000     2.418     2.432
 426   1 H      0.042  0.958  0.000  0.000     2.422     2.434
 427   1 H      0.047  0.953  0.000  0.000     2.358     2.401
 428   1 H      0.055  0.945  0.000  0.000     2.263     2.353
 429   7 N     -0.167  1.234  3.932  0.000    24.607     7.367
 430   6 C     -0.044  1.063  2.981  0.000    21.450     6.608
 431   6 C      0.280  1.037  2.683  0.000    22.254     7.724
 432   8 O     -0.478  1.748  4.730  0.000    23.302     6.472
 433   1 H      0.222  0.778  0.000  0.000     0.999     1.566
 434   1 H      0.090  0.910  0.000  0.000     1.883     2.146
 435   1 H      0.075  0.925  0.000  0.000     2.036     2.232
 436   7 N     -0.168  1.240  3.928  0.000    24.625     7.370
 437   6 C      0.023  1.057  2.920  0.000    20.202     6.401
 438   6 C      0.291  1.032  2.678  0.000    22.079     7.697
 439   8 O     -0.477  1.735  4.742  0.000    23.281     6.469
 440   6 C     -0.135  1.044  3.092  0.000    23.160     6.862
 441   1 H      0.213  0.787  0.000  0.000     1.043     1.600
 442   1 H      0.052  0.948  0.000  0.000     2.298     2.371
 443   1 H      0.055  0.945  0.000  0.000     2.261     2.352
 444   1 H      0.072  0.928  0.000  0.000     2.065     2.247
 445   1 H      0.083  0.917  0.000  0.000     1.946     2.182
 446   7 N     -0.212  1.265  3.947  0.000    25.625     7.518
 447   6 C      0.030  1.066  2.904  0.000    20.050     6.372
 448   6 C      0.304  1.032  2.664  0.000    21.835     7.652
 449   8 O     -0.491  1.727  4.764  0.000    23.586     6.511
 450   6 C     -0.070  1.055  3.015  0.000    21.822     6.649
 451   6 C     -0.012  1.057  2.955  0.000    20.752     6.479
 452   6 C     -0.109  1.037  3.072  0.000    22.629     6.781
 453   6 C     -0.117  1.038  3.079  0.000    22.800     6.808
 454   1 H      0.241  0.759  0.000  0.000     0.917     1.500
 455   1 H      0.040  0.960  0.000  0.000     2.445     2.446
 456   1 H      0.052  0.948  0.000  0.000     2.289     2.366
 457   1 H      0.044  0.956  0.000  0.000     2.395     2.420
 458   1 H      0.041  0.959  0.000  0.000     2.431     2.438
 459   1 H      0.048  0.952  0.000  0.000     2.341     2.392
 460   1 H      0.038  0.962  0.000  0.000     2.479     2.462
 461   1 H      0.042  0.958  0.000  0.000     2.420     2.433
 462   1 H      0.052  0.948  0.000  0.000     2.290     2.366
 463   1 H      0.039  0.961  0.000  0.000     2.459     2.452
 464   1 H      0.026  0.974  0.000  0.000     2.645     2.543
 465   7 N     -0.206  1.251  3.954  0.000    25.470     7.495
 466   6 C      0.038  1.060  2.902  0.000    19.951     6.361
 467   6 C      0.218  1.079  2.703  0.000    23.402     7.923
 468   8 O     -0.381  1.752  4.630  0.000    21.309     6.189
 469   6 C     -0.083  1.065  3.018  0.000    22.095     6.695
 470   6 C     -0.082  1.062  3.020  0.000    22.078     6.693
 471   6 C     -0.096  1.050  3.046  0.000    22.329     6.727
 472   6 C     -0.045  1.053  2.992  0.000    21.479     6.616
 473   7 N     -0.138  1.229  3.909  0.000    23.977     7.273
 474   1 H      0.226  0.774  0.000  0.000     0.985     1.554
 475   1 H      0.070  0.930  0.000  0.000     2.082     2.256
 476   1 H      0.069  0.931  0.000  0.000     2.100     2.266
 477   1 H      0.067  0.933  0.000  0.000     2.123     2.279
 478   1 H      0.057  0.943  0.000  0.000     2.237     2.339
 479   1 H      0.075  0.925  0.000  0.000     2.033     2.230
 480   1 H      0.092  0.908  0.000  0.000     1.863     2.134
 481   1 H      0.081  0.919  0.000  0.000     1.972     2.196
 482   1 H      0.114  0.886  0.000  0.000     1.664     2.017
 483   1 H      0.111  0.889  0.000  0.000     1.691     2.034
 484   1 H      0.300  0.700  0.000  0.000     0.715     1.325
 485   1 H      0.288  0.712  0.000  0.000     0.749     1.356
 486   1 H      0.301  0.699  0.000  0.000     0.710     1.320
 487   8 O     -0.609  1.762  4.847  0.000    25.403     6.802
 488   1 H      0.308  0.692  0.000  0.000     0.697     1.311
 489   1 H      0.321  0.679  0.000  0.000     0.663     1.279
 490   7 N     -0.387  1.331  4.056  0.000    30.015     8.137
 491   6 C      0.031  1.064  2.905  0.000    20.071     6.382
 492   6 C      0.198  1.091  2.711  0.000    23.782     7.986
 493   8 O     -0.382  1.767  4.615  0.000    21.325     6.191
 494   6 C     -0.064  1.053  3.011  0.000    21.708     6.629
 495   6 C     -0.006  1.063  2.943  0.000    20.683     6.475
 496  16 S     -0.209  1.912  4.251  0.046   149.979    20.612
 497   6 C     -0.058  1.060  2.998  0.000    21.696     6.645
 498   1 H      0.168  0.832  0.000  0.000     1.288     1.778
 499   1 H      0.066  0.934  0.000  0.000     2.125     2.280
 500   1 H      0.069  0.931  0.000  0.000     2.093     2.263
 501   1 H      0.039  0.961  0.000  0.000     2.457     2.451
 502   1 H      0.042  0.958  0.000  0.000     2.422     2.434
 503   1 H      0.051  0.949  0.000  0.000     2.310     2.377
 504   1 H      0.064  0.936  0.000  0.000     2.152     2.294
 505   1 H      0.050  0.950  0.000  0.000     2.319     2.381
 506   1 H      0.059  0.941  0.000  0.000     2.206     2.323
 507   7 N     -0.388  1.316  4.071  0.000    30.030     8.139
 508   6 C      0.021  1.059  2.920  0.000    20.239     6.409
 509   6 C      0.197  1.089  2.714  0.000    23.798     7.989
 510   8 O     -0.354  1.735  4.620  0.000    20.787     6.113
 511   6 C      0.082  1.036  2.883  0.000    19.439     6.318
 512   8 O     -0.445  1.726  4.719  0.000    21.744     6.295
 513   1 H      0.165  0.835  0.000  0.000     1.305     1.789
 514   1 H      0.061  0.939  0.000  0.000     2.186     2.312
 515   1 H      0.025  0.975  0.000  0.000     2.658     2.550
 516   1 H      0.045  0.955  0.000  0.000     2.380     2.413
 517   1 H      0.334  0.666  0.000  0.000     0.626     1.244
 518   7 N     -0.389  1.299  4.090  0.000    30.064     8.143
 519   6 C      0.048  1.047  2.905  0.000    19.765     6.329
 520   6 C      0.182  1.107  2.710  0.000    24.087     8.038
 521   8 O     -0.403  1.791  4.613  0.000    21.750     6.253
 522   6 C     -0.068  1.055  3.013  0.000    21.748     6.630
 523   6 C     -0.011  1.059  2.952  0.000    20.761     6.484
 524  16 S     -0.199  1.915  4.236  0.047   149.500    20.579
 525   6 C     -0.071  1.056  3.014  0.000    21.924     6.679
 526   1 H      0.180  0.820  0.000  0.000     1.212     1.724
 527   1 H      0.053  0.947  0.000  0.000     2.284     2.364
 528   1 H      0.063  0.937  0.000  0.000     2.160     2.298
 529   1 H      0.047  0.953  0.000  0.000     2.364     2.404
 530   1 H      0.058  0.942  0.000  0.000     2.221     2.330
 531   1 H      0.056  0.944  0.000  0.000     2.241     2.341
 532   1 H      0.071  0.929  0.000  0.000     2.071     2.250
 533   1 H      0.042  0.958  0.000  0.000     2.422     2.434
 534   1 H      0.064  0.936  0.000  0.000     2.154     2.295
 535   1 H      0.175  0.825  0.000  0.000     1.243     1.746
 536   1 H      0.083  0.917  0.000  0.000     1.952     2.185
 537   1 H      0.181  0.819  0.000  0.000     1.206     1.720
 538   1 H      0.071  0.929  0.000  0.000     2.070     2.250
 539   1 H      0.176  0.824  0.000  0.000     1.238     1.743
 540   1 H      0.073  0.927  0.000  0.000     2.057     2.243
 541   1 H      0.182  0.818  0.000  0.000     1.202     1.717
 542   1 H      0.060  0.940  0.000  0.000     2.193     2.316
 543   1 H      0.182  0.818  0.000  0.000     1.205     1.719
 544   1 H      0.056  0.944  0.000  0.000     2.245     2.343
 545   1 H      0.168  0.832  0.000  0.000     1.287     1.777
 546   1 H      0.069  0.931  0.000  0.000     2.094     2.263
 547   1 H      0.184  0.816  0.000  0.000     1.192     1.710
 548   1 H      0.081  0.919  0.000  0.000     1.967     2.193
 549   1 H      0.175  0.825  0.000  0.000     1.244     1.747
 550   1 H      0.059  0.941  0.000  0.000     2.213     2.326
 551   1 H      0.185  0.815  0.000  0.000     1.184     1.704
 552   1 H      0.082  0.918  0.000  0.000     1.960     2.189
 553   1 H      0.190  0.810  0.000  0.000     1.159     1.686
 554   1 H      0.072  0.928  0.000  0.000     2.058     2.243
 555   1 H      0.184  0.816  0.000  0.000     1.193     1.711
 556   1 H      0.089  0.911  0.000  0.000     1.886     2.147

 Mol. C6AA /au·bohr⁶  :    2794054.286514
 Mol. C8AA /au·bohr⁸  :   62733865.361679
 Mol. α(0) /au        :       2506.915023

 
molecular dipole:
                 x           y           z       tot (Debye)
 q only:        1.558       2.617       3.234
   full:        3.815       2.831       2.511      13.658
molecular quadrupole (traceless):
                xx          xy          yy          xz          yz          zz
 q only:     -707.265     610.182    -917.564    1431.832    2030.088    1624.829
  q+dip:       14.768    1009.054    -737.948    2625.681    1964.204     723.180
   full:       19.267    1011.906    -739.977    2623.906    1962.716     720.710
speedup  1.99
cpu  time for grad   50.38 s
wall time for grad   25.37 s

SCC energy    :    -835.4247554
rep           :      10.4979347
ES            :       2.1388127
AES           :      -0.0607062
AXC           :       0.2960620
disp          :      -0.7673945
XB            :       0.0000000
fix           :       0.0000000
Gborn         :       0.0000000
Gsasa         :       0.0000000
Ghb           :       0.0000000
Gshift        :       0.0000000
Gsolv         :      -0.4005844     -251.37
Etot ala COSMO:    -835.4247554
grad norm     :       1.0942977
total E       :    -824.8368636
atomizationE  :     151.8894296    95312.06
(atE without considering molecular charge,
 total energy contains solvation terms)
H-L gap (eV)  :          1.2158

------------------------------------------------------------------------
 * finished run on 2019/05/09 at 21:08:32.929     
------------------------------------------------------------------------
 total:
 * wall-time:     0 d,  0 h,  0 min, 27.149 sec
 *  cpu-time:     0 d,  0 h,  0 min, 53.711 sec
 * ratio c/w:     1.978 speedup
 SCF:
 * wall-time:     0 d,  0 h,  0 min, 26.811 sec
 *  cpu-time:     0 d,  0 h,  0 min, 53.140 sec
 * ratio c/w:     1.982 speedup

