      -----------------------------------------------------------      
     |                   =====================                   |     
     |                           x T B                           |     
     |                   =====================                   |     
     |                         S. Grimme                         |     
     |          Mulliken Center for Theoretical Chemistry        |     
     |                    University of Bonn                     |     
     |                 Version 6.0.1 (SAW181210)                 |     
      -----------------------------------------------------------      

   This program is distributed in the hope that it will be useful,
   but WITHOUT ANY WARRANTY; without even the implied warranty of
   MERCHANTABILITY or FITNESS FOR A PARTICULAR PURPOSE.
   
   FOR NON-COMMERCIAL, ACADEMIA USE ONLY.
   
   Cite this work as:
   S. Grimme, C. Bannwarth, P. Shushkov, J. Comput. Theory Chem., 2017,
   13, 1989-2009.
   C. Bannwarth, S. Ehlert and S. Grimme., ChemRxiv, 2018, preprint.
   http://doi.org/10.26434/chemrxiv.7246238.v1
   
   for sTDA-xTB:
   S. Grimme and C. Bannwarth, J. Chem. Phys., 2016, 145, 054103.
   
   in the mass-spec context:
   V. Asgeirsson, C. Bauer and S. Grimme, Chem. Sci., 2017, 8, 4879.
   
   if GBSA is used:
   P. Shushkov, F. März and S. Grimme, unpublished.
   
   for ANC optimizer:
   S. Grimme, unpublished.
   Rational Function algorithm used in ANCopt:
   F. Eckert, P. Pulay, H.-J. Werner, J. Comput. Chem., 1997, 18, 1473.
   
   with help from (in alphabetical order)
   C. Bannwarth, F. Bohle, G. Brandenburg, E. Caldeweyher, M. Checinski,
   S. Dohm, S. Ehlert, S. Ehrlich, F. März, H. Neugebauer, J. Pisarek,
   P. Pracht, P. Shushkov, and S. Spicher.
   
 * started run on 2019/05/06 at 07:35:34.324     
========================================================================
 # omp threads = 2
========================================================================
number of atoms            : 606
number of electrons        : 1574
charge                     : 1
spin                       : .0
first test random number   : .3607

########################################################################
# WARNING! Please study the warnings concerning your input carefully
#  - Process number higher than OMP_NUM_THREADS, I hope you know what you are doing.
########################################################################

           ------------------------------------------------- 
          |                 G F N 2 - x T B                 |
          | Geometry, Frequencies, Noncovalent interactions |
          |            JCTC 2018 parametrisation            |
           ------------------------------------------------- 
 
      method parameters     
 k(s)        :  1.8500
 k(p)        :  2.2300
 k(d)        :  2.2300
 k(f)        :  2.0000
 kEN (H0ij)  : -2.0000
 D4 a1       :  0.5200
 D4 a2       :  5.0000
 D4 s6       :  1.0000
 D4 s8       :  2.7000
 D4 s9       :  5.0000
 alphaj      :  2.0000

 Solvent             : h2o
 Using internal parameter file: .param_gbsa2_h2o
 Gsolv ref. state (COSMO-RS): gsolv [1 M gas/solution]
 temperature (mdtemp)       :    298.150000000000     
 dielectric constant        :    80.2000000000000     
 rho                        :    1.00000000000000     
 mass                       :    18.0000000000000     
 surface tension            :    15.5689454083859     
 probe radius               :   0.975313790000000     
 vdW radii scaling          :    1.00000000000000     
 Gshift (Eh)                :   1.857443126794793E-003
 c1                         :    1.55243817000000     
 soset                      :   0.130326360000000     
 HB correction              :  T

            Z     q(EN)     CN     RAES       Cart. coordinates
     1  N   5.0   -0.22    3.20    1.96    80.43674     6.05156   -10.99191
     2  C   4.0    0.03    4.33    4.26    82.94169     5.25660   -10.14673
     3  C   4.0    0.15    3.39    3.08    84.95650     7.13403   -11.13627
     4  O   6.0   -0.31    1.27    1.80    86.44647     8.10606    -9.64853
     5  C   4.0   -0.02    4.19    3.98    83.34434     2.38440   -10.58690
     6  C   4.0   -0.07    4.11    3.81    84.95246     1.87822   -12.92742
     7  C   4.0   -0.08    4.05    3.71    84.36180     1.00937    -8.18876
     8  H   1.0    0.08    1.02    1.43    79.17829     4.78234   -11.67913
     9  H   1.0    0.04    1.06    1.44    82.98006     5.58129    -8.08639
    10  H   1.0    0.04    1.06    1.44    81.45753     1.60836   -10.94534
    11  H   1.0    0.04    1.00    1.43    85.22116    -0.13698   -13.21142
    12  H   1.0    0.04    1.00    1.43    84.03574     2.65832   -14.59046
    13  H   1.0    0.05    1.00    1.43    86.79678     2.76444   -12.73697
    14  H   1.0    0.04    1.00    1.43    84.53363    -0.99270    -8.59479
    15  H   1.0    0.05    1.00    1.43    86.20401     1.75354    -7.66689
    16  H   1.0    0.04    1.00    1.43    83.05783     1.27435    -6.62839
    17  N   5.0   -0.15    3.46    2.05    85.01914     7.58327   -13.60291
    18  C   4.0    0.04    4.55    4.60    86.91519     9.13332   -14.79454
    19  C   4.0    0.15    3.57    3.15    87.33609    11.73786   -13.72590
    20  O   6.0   -0.32    1.27    1.80    89.51898    12.54145   -13.60706
    21  C   4.0   -0.02    4.36    4.31    86.20025     9.67507   -17.53270
    22  C   4.0   -0.06    4.22    4.03    87.94078    11.71165   -18.59445
    23  C   4.0   -0.07    4.12    3.83    86.37513     7.26943   -19.11199
    24  H   1.0    0.07    1.07    1.44    83.52296     7.04525   -14.67303
    25  H   1.0    0.07    1.06    1.44    88.75297     8.16856   -14.71151
    26  H   1.0    0.04    1.05    1.44    84.24010    10.35496   -17.56041
    27  H   1.0    0.05    1.00    1.43    87.74794    11.82068   -20.64266
    28  H   1.0    0.05    1.02    1.43    87.52684    13.57851   -17.85331
    29  H   1.0    0.06    1.00    1.43    89.89821    11.26644   -18.14949
    30  H   1.0    0.05    1.00    1.43    86.00492     7.68790   -21.08477
    31  H   1.0    0.05    1.00    1.43    88.25359     6.45686   -18.94748
    32  H   1.0    0.04    1.00    1.43    85.00049     5.88633   -18.46796
    33  N   5.0   -0.15    3.50    2.08    85.23367    13.10477   -13.24058
    34  C   4.0    0.03    4.46    4.48    85.34296    15.66479   -12.28467
    35  C   4.0    0.15    3.43    3.09    85.21256    15.87516    -9.41259
    36  O   6.0   -0.32    1.24    1.80    85.76866    17.83181    -8.29461
    37  C   4.0   -0.05    4.30    4.19    83.32924    17.37741   -13.36802
    38  C   4.0   -0.04    4.03    3.67    83.64536    17.80369   -16.19228
    39  S   6.0   -0.03    2.45    3.10    86.72163    18.85270   -17.56205
    40  C   4.0   -0.06    3.95    3.54    87.07983    21.99785   -16.29065
    41  H   1.0    0.07    1.06    1.44    83.50380    12.29889   -13.37151
    42  H   1.0    0.06    1.08    1.44    87.21413    16.39938   -12.84687
    43  H   1.0    0.04    1.03    1.43    81.48089    16.51328   -13.08925
    44  H   1.0    0.05    1.03    1.43    83.39730    19.16846   -12.34449
    45  H   1.0    0.04    1.08    1.44    83.33812    16.01941   -17.17696
    46  H   1.0    0.04    1.06    1.44    82.24542    19.16585   -16.85007
    47  H   1.0    0.06    1.06    1.44    88.92495    22.65613   -16.86818
    48  H   1.0    0.05    1.05    1.44    85.58360    23.16962   -17.04371
    49  H   1.0    0.05    1.07    1.44    86.98956    21.84789   -14.25140
    50  N   5.0   -0.14    3.46    2.05    84.52204    13.74187    -8.28044
    51  C   4.0    0.01    4.28    4.16    84.72211    13.32684    -5.59353
    52  C   4.0    0.16    3.36    3.07    87.49898    13.46677    -4.90406
    53  O   6.0   -0.32    1.27    1.80    88.17085    15.09054    -3.40078
    54  H   1.0    0.09    1.09    1.44    83.89872    12.28226    -9.34413
    55  H   1.0    0.05    1.02    1.43    83.71752    14.80929    -4.54866
    56  H   1.0    0.04    1.02    1.43    83.89782    11.48743    -5.16484
    57  N   5.0   -0.14    3.46    2.05    88.91009    11.78232    -6.16838
    58  C   4.0    0.03    4.35    4.28    91.63946    11.67996    -6.47579
    59  C   4.0    0.16    3.54    3.13    92.79046    14.25322    -6.44621
    60  O   6.0   -0.30    1.25    1.80    94.34736    14.88323    -4.87237
    61  C   4.0   -0.06    4.20    4.01    92.47720    10.62725    -9.03756
    62  H   1.0    0.11    1.10    1.44    87.97728    10.49524    -7.25819
    63  H   1.0    0.05    1.05    1.44    92.46310    10.55584    -4.93547
    64  H   1.0    0.05    1.01    1.43    94.49252    10.95162    -9.26167
    65  H   1.0    0.06    0.99    1.43    92.13380     8.58944    -9.11365
    66  H   1.0    0.08    1.03    1.43    91.51029    11.45047   -10.64012
    67  N   5.0   -0.14    3.59    2.14    91.98797    15.65622    -8.37840
    68  C   4.0    0.03    4.36    4.31    92.91688    18.17253    -8.95519
    69  C   4.0    0.16    3.49    3.11    92.76126    19.81755    -6.60888
    70  O   6.0   -0.31    1.22    1.80    94.48497    21.18493    -5.88671
    71  C   4.0   -0.07    4.14    3.88    91.33132    19.43769   -10.99675
    72  H   1.0    0.09    1.09    1.44    90.82543    14.88435    -9.68042
    73  H   1.0    0.05    1.05    1.44    94.90297    18.05413    -9.55135
    74  H   1.0    0.04    1.00    1.43    92.06317    21.31552   -11.38599
    75  H   1.0    0.04    1.00    1.43    91.39468    18.33062   -12.73192
    76  H   1.0    0.06    1.00    1.43    89.37873    19.62919   -10.37702
    77  N   5.0   -0.13    3.57    2.13    90.47049    19.60870    -5.53786
    78  C   4.0    0.04    4.48    4.50    89.67532    21.23205    -3.47534
    79  C   4.0    0.16    3.49    3.11    91.49871    20.71268    -1.26596
    80  O   6.0   -0.31    1.32    1.80    92.78572    22.38039    -0.29749
    81  C   4.0   -0.03    4.27    4.14    86.81488    20.95116    -2.90379
    82  C   4.0   -0.02    3.58    3.15    86.20690    22.84682    -0.84806
    83  C   4.0   -0.04    3.53    3.13    87.38445    25.21578    -0.82233
    84  C   4.0   -0.04    3.46    3.10    84.74701    22.14757     1.21599
    85  C   4.0   -0.04    3.38    3.07    87.26812    26.75469     1.27027
    86  C   4.0   -0.05    3.39    3.08    84.63465    23.70051     3.31179
    87  C   4.0   -0.05    3.40    3.08    85.92170    25.96072     3.35396
    88  H   1.0    0.11    1.10    1.44    89.10537    18.55342    -6.35643
    89  H   1.0    0.05    1.07    1.44    90.08186    23.17697    -4.07467
    90  H   1.0    0.05    1.02    1.43    85.78415    21.30537    -4.65440
    91  H   1.0    0.06    1.03    1.43    86.40623    19.04125    -2.26123
    92  H   1.0    0.04    1.04    1.43    88.37317    25.90799    -2.46504
    93  H   1.0    0.05    1.03    1.43    83.79397    20.33985     1.21416
    94  H   1.0    0.05    1.03    1.43    88.19984    28.56716     1.27322
    95  H   1.0    0.04    1.03    1.43    83.54867    23.16433     4.94463
    96  H   1.0    0.04    1.03    1.43    85.74979    27.19395     4.96495
    97  N   5.0   -0.14    3.52    2.09    91.59530    18.25922    -0.64755
    98  C   4.0    0.04    4.44    4.45    93.07935    17.43785     1.45995
    99  C   4.0    0.16    3.59    3.16    95.79535    18.39017     1.16216
   100  O   6.0   -0.30    1.39    1.80    96.81499    19.48323     2.97624
   101  C   4.0   -0.03    4.31    4.22    92.77438    14.63654     1.92900
   102  C   4.0    0.16    3.24    3.04    93.80705    13.99926     4.52728
   103  O   6.0   -0.30    1.20    1.80    92.76692    14.57607     6.49959
   104  N   5.0   -0.18    3.19    1.95    96.01391    12.74339     4.41133
   105  H   1.0    0.11    1.11    1.44    90.49989    16.99560    -1.59083
   106  H   1.0    0.06    1.06    1.44    92.40595    18.43242     3.17106
   107  H   1.0    0.05    1.03    1.43    90.75920    14.20646     1.87454
   108  H   1.0    0.05    1.03    1.43    93.72108    13.55519     0.45072
   109  H   1.0    0.10    1.03    1.43    96.88275    12.26441     6.04353
   110  H   1.0    0.09    1.03    1.43    96.83107    12.25701     2.77025
   111  N   5.0   -0.14    3.44    2.04    97.06101    18.13194    -1.00768
   112  C   4.0    0.04    4.48    4.51    99.51568    19.36161    -0.89596
   113  C   4.0    0.17    3.68    3.22    99.07139    22.09731    -0.08826
   114  O   6.0   -0.31    1.46    1.80   100.45073    23.03318     1.53769
   115  C   4.0   -0.05    4.17    3.95   101.23890    19.14636    -3.19463
   116  C   4.0   -0.05    4.10    3.81   103.68724    20.74579    -2.99607
   117  C   4.0   -0.05    4.02    3.65   105.49826    20.29676    -0.68080
   118  C   4.0   -0.04    3.98    3.59   108.07891    21.87349    -0.63667
   119  N   5.0   -0.11    3.94    2.70   109.37796    22.19406     1.98211
   120  H   1.0    0.11    1.06    1.44    96.34598    17.32121    -2.59058
   121  H   1.0    0.06    1.07    1.44   100.51396    18.52406     0.72496
   122  H   1.0    0.05    1.02    1.43   101.72012    17.15606    -3.44622
   123  H   1.0    0.05    1.03    1.43   100.22479    19.79441    -4.87184
   124  H   1.0    0.04    1.02    1.43   104.75930    20.40096    -4.72606
   125  H   1.0    0.04    1.03    1.43   103.14879    22.73672    -2.97952
   126  H   1.0    0.06    1.02    1.43   104.44666    20.80579     1.02060
   127  H   1.0    0.04    1.02    1.43   105.96662    18.29619    -0.58838
   128  H   1.0    0.04    1.01    1.43   109.45329    20.95505    -1.85263
   129  H   1.0    0.04    1.02    1.43   107.68609    23.76573    -1.33423
   130  H   1.0    0.06    1.02    1.43   110.84429    23.44843     1.81589
   131  H   1.0    0.07    1.01    1.43   108.14364    22.81604     3.34793
   132  H   1.0    0.08    1.01    1.43   110.07787    20.50679     2.66145
   133  N   5.0   -0.13    3.53    2.10    97.35817    23.60093    -1.15437
   134  C   4.0    0.04    4.61    4.67    97.78555    26.26229    -0.57927
   135  C   4.0    0.17    3.60    3.17    97.63902    26.64655     2.25182
   136  O   6.0   -0.31    1.34    1.80    99.34658    27.78913     3.34392
   137  C   4.0   -0.02    4.36    4.31    96.26801    28.12674    -2.18985
   138  C   4.0   -0.05    4.23    4.05    93.53481    28.31690    -1.43104
   139  C   4.0   -0.06    4.19    3.98    96.46874    27.51535    -4.99951
   140  C   4.0   -0.08    4.10    3.81    92.28402    30.10737    -3.28472
   141  H   1.0    0.11    1.07    1.44    96.25454    23.07247    -2.62142
   142  H   1.0    0.06    1.07    1.44    99.78626    26.66283    -1.02529
   143  H   1.0    0.05    1.06    1.44    97.18481    29.96144    -1.86484
   144  H   1.0    0.06    1.04    1.43    92.64313    26.46472    -1.45009
   145  H   1.0    0.04    1.03    1.43    93.38070    29.08719     0.48324
   146  H   1.0    0.04    1.01    1.43    96.02656    29.14508    -6.14906
   147  H   1.0    0.06    1.01    1.43    98.38549    26.93660    -5.46854
   148  H   1.0    0.06    1.00    1.43    95.21680    25.96527    -5.51496
   149  H   1.0    0.04    0.99    1.43    90.41108    30.66418    -2.59558
   150  H   1.0    0.04    1.00    1.43    93.39396    31.82272    -3.48344
   151  H   1.0    0.04    1.00    1.43    92.01116    29.26364    -5.13067
   152  N   5.0   -0.14    3.46    2.05    95.61868    25.67065     3.40279
   153  C   4.0    0.04    4.54    4.59    95.51466    25.68242     6.14579
   154  C   4.0    0.17    3.71    3.25    98.08438    25.24309     7.32827
   155  O   6.0   -0.33    1.32    1.80    98.92121    26.62474     8.99021
   156  C   4.0   -0.02    4.38    4.35    93.92080    23.63398     7.43226
   157  C   4.0   -0.05    4.16    3.92    91.05460    24.06708     7.01635
   158  C   4.0   -0.07    4.19    3.99    94.59029    23.48540    10.25920
   159  C   4.0   -0.08    4.04    3.69    90.16735    26.71787     7.57017
   160  H   1.0    0.11    1.09    1.44    94.41940    24.55305     2.41901
   161  H   1.0    0.04    1.06    1.44    94.88517    27.55561     6.79263
   162  H   1.0    0.06    1.06    1.44    94.40307    21.81208     6.57608
   163  H   1.0    0.05    1.03    1.43    90.58275    23.59350     5.06253
   164  H   1.0    0.03    1.03    1.43    90.07250    22.73109     8.23540
   165  H   1.0    0.04    1.00    1.43    93.16142    22.37273    11.23996
   166  H   1.0    0.05    1.01    1.43    96.39276    22.56699    10.56779
   167  H   1.0    0.04    1.00    1.43    94.64429    25.35027    11.11431
   168  H   1.0    0.03    1.00    1.43    88.14615    26.73653     7.90818
   169  H   1.0    0.04    1.00    1.43    91.06692    27.46568     9.27131
   170  H   1.0    0.04    1.00    1.43    90.56876    27.99519     6.00947
   171  N   5.0   -0.14    3.56    2.12    99.21061    23.07419     6.68025
   172  C   4.0    0.05    4.51    4.55   101.76154    22.70285     7.56330
   173  C   4.0    0.16    3.45    3.09   103.78349    24.77123     6.84431
   174  O   6.0   -0.30    1.37    1.80   105.35276    25.44874     8.41942
   175  C   4.0   -0.03    4.06    3.73   102.50791    19.96110     7.04320
   176  S   6.0   -0.05    2.34    3.10   100.87171    18.11095     9.56837
   177  H   1.0    0.12    1.10    1.44    98.62453    22.08853     5.15160
   178  H   1.0    0.05    1.11    1.45   101.71693    22.91997     9.62900
   179  H   1.0    0.06    1.05    1.44   101.80287    19.34909     5.20917
   180  H   1.0    0.06    1.05    1.44   104.53957    19.64844     7.24352
   181  H   1.0    0.06    0.98    1.43   102.82658    16.63698    10.11871
   182  N   5.0   -0.14    3.53    2.10   103.89533    25.82748     4.57285
   183  C   4.0    0.05    4.54    4.59   105.99234    27.48305     4.26351
   184  C   4.0    0.17    3.52    3.12   105.85893    29.77767     6.00703
   185  O   6.0   -0.31    1.28    1.80   107.73975    30.97338     6.67612
   186  C   4.0    0.03    4.18    3.97   106.07653    28.47796     1.57643
   187  O   6.0   -0.25    2.06    1.83   108.37956    29.88180     1.32748
   188  H   1.0    0.12    1.10    1.44   102.55100    25.54871     3.22460
   189  H   1.0    0.06    1.06    1.44   107.76206    26.52510     4.75494
   190  H   1.0    0.04    1.01    1.43   106.04072    26.90375     0.23607
   191  H   1.0    0.06    1.02    1.43   104.40730    29.65352     1.21193
   192  H   1.0    0.13    1.02    1.43   108.59594    30.41904    -0.41146
   193  N   5.0   -0.14    3.50    2.08   103.50414    30.48479     6.54868
   194  C   4.0    0.03    4.35    4.30   102.96759    32.43311     8.44454
   195  C   4.0    0.15    3.41    3.08   104.06288    31.84592    11.14632
   196  O   6.0   -0.32    1.24    1.80   105.30522    33.48138    12.29663
   197  C   4.0   -0.05    4.39    4.37   100.08558    32.60075     8.63899
   198  C   4.0   -0.02    4.19    3.97    99.05347    33.89867    11.03309
   199  C   4.0   -0.08    4.09    3.79    99.48131    36.74395    10.77682
   200  C   4.0   -0.08    4.08    3.76    96.25444    33.13174    11.34521
   201  H   1.0    0.11    1.10    1.44   102.01555    29.47655     5.89228
   202  H   1.0    0.05    1.04    1.44   103.83019    34.21520     7.84421
   203  H   1.0    0.04    1.03    1.43    99.36870    33.58452     6.98151
   204  H   1.0    0.06    1.05    1.44    99.37261    30.65965     8.59366
   205  H   1.0    0.05    1.07    1.44   100.09535    33.20894    12.67061
   206  H   1.0    0.04    1.00    1.43    98.71409    37.75560    12.39307
   207  H   1.0    0.04    1.00    1.43   101.48589    37.14388    10.63811
   208  H   1.0    0.04    1.00    1.43    98.55919    37.44596     9.08113
   209  H   1.0    0.04    1.00    1.43    95.42774    33.99897    13.00636
   210  H   1.0    0.04    1.00    1.43    95.18428    33.74589     9.70171
   211  H   1.0    0.04    1.00    1.43    96.10477    31.08934    11.47486
   212  N   5.0   -0.14    3.49    2.07   103.35482    29.58901    12.13130
   213  C   4.0    0.04    4.50    4.54   103.96227    28.88710    14.68612
   214  C   4.0    0.15    3.47    3.10   106.65943    28.01194    15.04457
   215  O   6.0   -0.32    1.30    1.80   107.68990    28.72026    16.98373
   216  C   4.0   -0.03    4.25    4.09   101.93873    27.22538    15.91874
   217  C   4.0   -0.07    4.21    4.02   100.46976    25.83276    13.90629
   218  C   4.0   -0.07    4.12    3.85   102.98068    25.43642    17.93504
   219  H   1.0    0.10    1.09    1.44   102.44105    28.34981    10.99775
   220  H   1.0    0.06    1.08    1.44   103.99182    30.69827    15.74385
   221  H   1.0    0.04    1.05    1.44   100.59902    28.49350    16.88668
   222  H   1.0    0.04    1.00    1.43    99.24107    24.41605    14.78787
   223  H   1.0    0.06    1.03    1.43    99.27658    27.08355    12.82195
   224  H   1.0    0.05    1.01    1.43   101.76077    24.82193    12.66567
   225  H   1.0    0.04    1.00    1.43   101.43938    24.34981    18.75157
   226  H   1.0    0.05    1.00    1.43   104.33744    24.11550    17.12578
   227  H   1.0    0.05    1.00    1.43   103.91923    26.47976    19.43091
   228  N   5.0   -0.14    3.39    2.02   107.89409    26.81034    13.20885
   229  C   4.0    0.04    4.35    4.29   110.61484    26.52677    13.47147
   230  C   4.0    0.15    3.40    3.08   112.15318    28.98484    12.90046
   231  O   6.0   -0.29    1.27    1.80   114.35978    29.05020    13.56971
   232  C   4.0   -0.03    4.21    4.01   111.93339    24.43247    11.89460
   233  C   4.0   -0.03    4.06    3.72   111.20285    21.65099    12.21914
   234  C   4.0    0.25    3.03    3.02   110.30583    20.33586     9.59240
   235  O   6.0   -0.29    1.16    1.80   110.32232    21.58183     7.56325
   236  O   6.0   -0.28    1.15    1.80   109.56438    18.09449     9.78191
   237  H   1.0    0.11    1.08    1.44   107.06109    26.24139    11.57807
   238  H   1.0    0.06    1.06    1.44   110.97519    26.15190    15.48131
   239  H   1.0    0.07    1.04    1.43   111.60993    24.88892     9.88087
   240  H   1.0    0.06    1.04    1.43   113.95178    24.65638    12.25542
   241  H   1.0    0.05    1.02    1.43   112.75409    20.51229    12.93677
   242  H   1.0    0.05    1.02    1.43   109.59874    21.40634    13.48939
   243  N   5.0   -0.13    3.44    2.04   111.14726    31.01975    11.71762
   244  C   4.0    0.04    4.47    4.49   112.88016    32.94800    10.74442
   245  C   4.0    0.14    3.35    3.07   112.46530    35.65134    11.73610
   246  O   6.0   -0.32    1.19    1.80   114.20311    37.17359    11.85068
   247  C   4.0   -0.03    4.33    4.25   112.75400    32.92508     7.86195
   248  C   4.0    0.15    3.23    3.04   114.20772    30.65132     6.83192
   249  O   6.0   -0.28    1.19    1.80   116.43056    30.28798     7.37869
   250  N   5.0   -0.19    3.19    1.95   112.87211    29.15359     5.25008
   251  H   1.0    0.10    1.06    1.44   109.46747    30.84363    10.82051
   252  H   1.0    0.08    1.08    1.44   114.77876    32.38263    11.34399
   253  H   1.0    0.07    1.06    1.44   110.80975    32.93240     7.22026
   254  H   1.0    0.05    1.04    1.43   113.72497    34.60609     7.16438
   255  H   1.0    0.10    1.03    1.43   113.64665    27.50412     4.70059
   256  H   1.0    0.11    1.05    1.44   111.01876    29.52964     4.95081
   257  N   5.0   -0.14    3.54    2.10   110.03759    36.09326    12.30369
   258  C   4.0    0.04    4.49    4.52   109.03325    38.23789    13.64139
   259  C   4.0    0.08    3.25    3.04   108.43478    37.65372    16.40681
   260  O   6.0   -0.30    1.18    1.80   109.88294    38.44030    18.05559
   261  C   4.0   -0.02    4.40    4.37   106.82468    39.22134    12.13883
   262  C   4.0   -0.04    4.29    4.18   108.09108    40.60158     9.97553
   263  C   4.0   -0.07    4.16    3.93   105.19468    40.94231    13.68762
   264  C   4.0   -0.07    4.01    3.64   106.40362    40.95448     7.67306
   265  H   1.0    0.11    1.12    1.45   108.78042    34.66235    12.07310
   266  H   1.0    0.06    1.08    1.44   110.54954    39.65114    13.72183
   267  H   1.0    0.06    1.07    1.44   105.72533    37.62874    11.42517
   268  H   1.0    0.04    1.03    1.43   108.72181    42.45303    10.62451
   269  H   1.0    0.05    1.05    1.44   109.74344    39.52971     9.35228
   270  H   1.0    0.04    1.00    1.43   103.83446    41.90043    12.47338
   271  H   1.0    0.04    1.00    1.43   104.12416    39.93590    15.11894
   272  H   1.0    0.05    1.00    1.43   106.33986    42.37911    14.61803
   273  H   1.0    0.06    1.01    1.43   107.46437    41.78792     6.12594
   274  H   1.0    0.04    1.00    1.43   105.66078    39.13702     7.04935
   275  H   1.0    0.04    1.00    1.43   104.80554    42.17680     8.09254
   276  N   5.0   -0.19    3.22    1.96   108.66875    33.34999    20.73115
   277  C   4.0    0.04    4.37    4.33   110.38907    32.24835    22.50385
   278  C   4.0    0.14    3.65    3.20   112.93142    33.51680    22.69232
   279  O   6.0   -0.29    1.30    1.80   114.20653    32.92837    24.53801
   280  C   4.0   -0.03    4.46    4.47   111.12012    29.54908    21.88176
   281  C   4.0   -0.04    4.08    3.77   108.97302    27.82233    22.51525
   282  S   6.0   -0.03    2.43    3.10   109.92484    24.51858    21.95559
   283  C   4.0   -0.06    3.84    3.38   111.26288    23.59621    25.10321
   284  H   1.0    0.10    1.03    1.43   108.40454    32.44706    19.04162
   285  H   1.0    0.05    1.06    1.44   109.54797    32.30821    24.40498
   286  H   1.0    0.06    1.04    1.43   111.55565    29.35034    19.87438
   287  H   1.0    0.06    1.06    1.44   112.77784    29.01837    22.98428
   288  H   1.0    0.04    1.06    1.44   108.40647    27.98004    24.48905
   289  H   1.0    0.06    1.08    1.44   107.38374    28.12737    21.25465
   290  H   1.0    0.05    1.03    1.43   112.77071    22.26209    24.71386
   291  H   1.0    0.05    1.03    1.43   111.98051    25.26763    26.04693
   292  H   1.0    0.05    1.03    1.43   109.77229    22.68681    26.19564
   293  N   5.0   -0.09    3.73    2.31   113.68166    35.22864    20.96718
   294  C   4.0    0.05    4.67    4.73   115.66370    36.80916    21.88038
   295  C   4.0    0.09    3.28    3.05   114.43782    38.54808    23.80269
   296  O   6.0   -0.27    1.11    1.80   115.62652    39.36402    25.63700
   297  C   4.0   -0.04    4.38    4.35   116.71551    38.11609    19.58408
   298  C   4.0   -0.04    4.30    4.20   116.47855    36.08505    17.60824
   299  C   4.0    0.01    4.43    4.43   113.88071    35.01048    18.25639
   300  H   1.0    0.07    1.06    1.44   117.11664    35.70218    22.86279
   301  H   1.0    0.05    1.03    1.43   115.47956    39.68857    19.05990
   302  H   1.0    0.05    1.02    1.43   118.65756    38.75221    19.86267
   303  H   1.0    0.06    1.02    1.43   116.51748    36.78706    15.67346
   304  H   1.0    0.05    1.02    1.43   117.93260    34.63398    17.82015
   305  H   1.0    0.08    1.09    1.44   112.45878    36.13653    17.32144
   306  H   1.0    0.06    1.01    1.43   113.66971    33.02857    17.63542
   307  N   5.0   -0.21    3.16    1.95    96.43746    22.61394    23.16429
   308  C   4.0    0.03    4.27    4.13    95.46687    21.99924    20.66870
   309  C   4.0    0.07    3.24    3.04    92.56839    22.30444    20.54991
   310  O   6.0   -0.31    1.11    1.80    91.50323    22.92982    18.56333
   311  C   4.0   -0.02    4.29    4.18    96.13480    19.24690    19.80572
   312  C   4.0   -0.05    4.19    3.97    95.99631    19.12825    16.91067
   313  C   4.0   -0.07    4.19    3.98    94.31436    17.28979    20.87245
   314  C   4.0   -0.07    4.02    3.65    95.45531    16.51280    15.72231
   315  H   1.0    0.08    1.02    1.43    97.03580    21.10610    24.19811
   316  H   1.0    0.04    1.05    1.44    96.26569    23.33980    19.30333
   317  H   1.0    0.04    1.05    1.44    98.04862    18.84375    20.47051
   318  H   1.0    0.05    1.04    1.43    94.47610    20.38999    16.29489
   319  H   1.0    0.04    1.02    1.43    97.76114    19.85438    16.11720
   320  H   1.0    0.04    1.01    1.43    95.07985    15.41629    20.54713
   321  H   1.0    0.05    1.01    1.43    94.08626    17.60355    22.85027
   322  H   1.0    0.05    1.01    1.43    92.48519    17.43488    19.94607
   323  H   1.0    0.05    1.00    1.43    95.70669    16.66336    13.68863
   324  H   1.0    0.05    1.00    1.43    96.76825    15.10464    16.43581
   325  H   1.0    0.05    1.00    1.43    93.52828    15.90091    16.06044
   326  N   5.0   -0.21    3.20    1.95    89.00776    28.65834    16.59896
   327  C   4.0    0.03    4.21    4.02    86.84847    28.33416    14.90903
   328  C   4.0    0.08    3.25    3.04    85.42998    30.83238    15.02144
   329  O   6.0   -0.31    1.12    1.80    84.75952    32.07079    13.17691
   330  C   4.0   -0.05    4.27    4.14    85.05964    26.11678    15.55293
   331  C   4.0   -0.02    4.18    3.97    82.73932    25.97701    13.76817
   332  C   4.0   -0.08    4.15    3.91    83.41098    26.20174    10.99344
   333  C   4.0   -0.07    4.13    3.86    81.30211    23.50523    13.97901
   334  H   1.0    0.10    1.02    1.43    89.30503    27.31092    17.91995
   335  H   1.0    0.04    1.05    1.44    87.58913    28.08681    12.98665
   336  H   1.0    0.04    1.02    1.43    86.16012    24.37812    15.40907
   337  H   1.0    0.05    1.02    1.43    84.43103    26.28763    17.50253
   338  H   1.0    0.05    1.05    1.44    81.46913    27.54650    14.25526
   339  H   1.0    0.04    1.00    1.43    81.73274    25.95466     9.83230
   340  H   1.0    0.05    1.00    1.43    84.19904    28.05076    10.53718
   341  H   1.0    0.03    1.00    1.43    84.78583    24.75898    10.48099
   342  H   1.0    0.04    1.01    1.43    79.77904    23.50829    12.61818
   343  H   1.0    0.04    1.00    1.43    82.56330    21.93063    13.57452
   344  H   1.0    0.04    1.00    1.43    80.53824    23.23149    15.87181
   345  N   5.0   -0.20    3.20    1.96    87.59003    37.23023    13.15545
   346  C   4.0    0.04    4.25    4.11    87.47263    37.28631    10.44035
   347  C   4.0    0.09    3.33    3.06    84.73407    37.69631     9.60656
   348  O   6.0   -0.28    1.16    1.80    84.36626    39.03291     7.72878
   349  C   4.0   -0.04    4.30    4.20    88.58889    34.91122     9.21335
   350  C   4.0   -0.01    3.61    3.17    87.94163    34.84479     6.42486
   351  C   4.0   -0.04    3.45    3.09    89.81105    35.04434     4.59066
   352  C   4.0   -0.02    3.59    3.16    85.42939    34.52656     5.69996
   353  C   4.0   -0.04    3.38    3.07    89.15222    34.96048     2.08030
   354  C   4.0   -0.03    3.37    3.07    84.75229    34.57433     3.20292
   355  C   4.0   -0.04    3.40    3.08    86.62379    34.76267     1.40611
   356  H   1.0    0.09    1.03    1.43    88.04228    35.57619    14.00730
   357  H   1.0    0.05    1.06    1.44    88.49452    38.95944     9.76005
   358  H   1.0    0.03    1.03    1.43    90.62747    34.89320     9.49460
   359  H   1.0    0.06    1.03    1.43    87.78733    33.25328    10.15496
   360  H   1.0    0.04    1.03    1.43    91.76200    35.25221     5.15560
   361  H   1.0    0.06    1.05    1.44    84.02917    34.14190     7.13845
   362  H   1.0    0.04    1.03    1.43    90.57767    35.05834     0.62277
   363  H   1.0    0.06    1.03    1.43    82.79812    34.40713     2.63983
   364  H   1.0    0.05    1.03    1.43    86.12378    34.75586    -0.57881
   365  N   5.0   -0.21    3.18    1.95    75.36779    18.01117     2.93329
   366  C   4.0    0.03    4.16    3.92    77.86201    18.65676     3.83074
   367  C   4.0    0.08    3.23    3.04    78.44405    17.70313     6.47929
   368  O   6.0   -0.32    1.17    1.80    80.37810    16.47742     6.86274
   369  C   4.0   -0.08    4.13    3.86    78.31317    21.47676     3.86956
   370  H   1.0    0.08    1.02    1.43    74.04937    19.36484     2.65102
   371  H   1.0    0.04    1.06    1.44    79.23762    17.71408     2.58630
   372  H   1.0    0.04    1.01    1.43    80.11971    21.86824     4.74789
   373  H   1.0    0.04    1.00    1.43    78.32797    22.24378     1.96207
   374  H   1.0    0.04    1.00    1.43    76.83452    22.39319     4.96364
   375  N   5.0   -0.19    3.21    1.96    80.43674    10.99191     6.05156
   376  C   4.0    0.03    4.33    4.26    82.94169    10.14673     5.25660
   377  C   4.0    0.15    3.39    3.08    84.95650    11.13627     7.13403
   378  O   6.0   -0.31    1.26    1.80    86.44647     9.64853     8.10606
   379  C   4.0   -0.02    4.19    3.98    83.34434    10.58690     2.38440
   380  C   4.0   -0.07    4.11    3.82    84.95246    12.92742     1.87822
   381  C   4.0   -0.08    4.05    3.71    84.36180     8.18876     1.00937
   382  H   1.0    0.09    1.02    1.43    79.17829    11.67913     4.78234
   383  H   1.0    0.05    1.06    1.44    82.98006     8.08639     5.58129
   384  H   1.0    0.04    1.06    1.44    81.45753    10.94534     1.60836
   385  H   1.0    0.05    1.00    1.43    85.22116    13.21142    -0.13698
   386  H   1.0    0.05    1.00    1.43    84.03574    14.59046     2.65832
   387  H   1.0    0.05    1.00    1.43    86.79678    12.73697     2.76444
   388  H   1.0    0.04    1.00    1.43    84.53363     8.59479    -0.99270
   389  H   1.0    0.05    1.00    1.43    86.20401     7.66689     1.75354
   390  H   1.0    0.04    1.00    1.43    83.05783     6.62839     1.27435
   391  N   5.0   -0.15    3.45    2.05    85.01914    13.60291     7.58327
   392  C   4.0    0.04    4.45    4.46    86.91519    14.79454     9.13332
   393  C   4.0    0.09    3.38    3.07    87.33609    13.72590    11.73786
   394  O   6.0   -0.30    1.18    1.80    89.51898    13.60706    12.54145
   395  C   4.0   -0.02    4.34    4.27    86.20025    17.53270     9.67507
   396  C   4.0   -0.07    4.21    4.02    87.94078    18.59445    11.71165
   397  C   4.0   -0.07    4.12    3.84    86.37513    19.11199     7.26943
   398  H   1.0    0.11    1.10    1.44    83.52296    14.67303     7.04525
   399  H   1.0    0.07    1.06    1.44    88.75297    14.71151     8.16856
   400  H   1.0    0.05    1.05    1.44    84.24010    17.56041    10.35496
   401  H   1.0    0.03    1.00    1.43    87.74794    20.64266    11.82068
   402  H   1.0    0.05    1.01    1.43    87.52684    17.85331    13.57851
   403  H   1.0    0.06    1.00    1.43    89.89821    18.14949    11.26644
   404  H   1.0    0.03    1.00    1.43    86.00492    21.08477     7.68790
   405  H   1.0    0.04    1.00    1.43    88.25359    18.94748     6.45686
   406  H   1.0    0.05    1.00    1.43    85.00049    18.46796     5.88633
   407  N   5.0   -0.19    3.18    1.95    88.91009     6.16838    11.78232
   408  C   4.0    0.04    4.16    3.92    91.63946     6.47579    11.67996
   409  C   4.0    0.09    3.28    3.05    92.79046     6.44621    14.25322
   410  O   6.0   -0.27    1.12    1.80    94.34736     4.87237    14.88323
   411  C   4.0   -0.05    4.14    3.89    92.47720     9.03756    10.62725
   412  H   1.0    0.12    1.05    1.44    87.97728     7.25819    10.49524
   413  H   1.0    0.05    1.05    1.44    92.46310     4.93547    10.55584
   414  H   1.0    0.05    1.01    1.43    94.49252     9.26167    10.95162
   415  H   1.0    0.06    0.99    1.43    92.13380     9.11365     8.58944
   416  H   1.0    0.08    1.03    1.43    91.51029    10.64012    11.45047
   417  N   5.0   -0.21    3.22    1.96    91.59530    -0.64755   -18.25922
   418  C   4.0    0.04    4.26    4.12    93.07935     1.45995   -17.43785
   419  C   4.0    0.09    3.20    3.04    95.79535     1.16216   -18.39017
   420  O   6.0   -0.27    1.11    1.80    96.81499     2.97624   -19.48323
   421  C   4.0   -0.04    4.31    4.22    92.77438     1.92900   -14.63654
   422  C   4.0    0.16    3.24    3.04    93.80705     4.52728   -13.99926
   423  O   6.0   -0.30    1.20    1.80    92.76692     6.49959   -14.57607
   424  N   5.0   -0.18    3.19    1.95    96.01391     4.41133   -12.74339
   425  H   1.0    0.08    1.02    1.43    90.49989    -1.59083   -16.99560
   426  H   1.0    0.06    1.06    1.44    92.40595     3.17106   -18.43242
   427  H   1.0    0.04    1.03    1.43    90.75920     1.87454   -14.20646
   428  H   1.0    0.04    1.03    1.43    93.72108     0.45072   -13.55519
   429  H   1.0    0.10    1.03    1.43    96.88275     6.04353   -12.26441
   430  H   1.0    0.09    1.03    1.43    96.83107     2.77025   -12.25701
   431  N   5.0   -0.19    3.28    1.98   118.98376    45.41768    12.12667
   432  C   4.0    0.03    4.36    4.30   117.10873    43.72533    11.11718
   433  C   4.0    0.15    3.38    3.07   117.64557    43.15137     8.32569
   434  O   6.0   -0.28    1.21    1.80   119.69512    43.44543     7.33967
   435  C   4.0   -0.05    4.33    4.25   114.41781    44.73411    11.62130
   436  C   4.0   -0.05    4.29    4.17   114.26948    46.34467    13.96730
   437  C   4.0   -0.05    4.22    4.04   114.95012    44.80406    16.27685
   438  C   4.0   -0.04    4.15    3.90   115.68952    46.64281    18.34196
   439  N   5.0   -0.12    3.99    2.84   116.58238    45.41004    20.72946
   440  H   1.0    0.09    1.03    1.43   119.11527    47.13661    11.30375
   441  H   1.0    0.05    1.06    1.44   117.37021    41.91067    12.08934
   442  H   1.0    0.05    1.03    1.43   113.78849    45.86178    10.00629
   443  H   1.0    0.04    1.03    1.43   113.13075    43.13701    11.82536
   444  H   1.0    0.04    1.04    1.43   115.53428    47.95531    13.76571
   445  H   1.0    0.04    1.03    1.43   112.35690    47.09483    14.12711
   446  H   1.0    0.05    1.02    1.43   113.34975    43.63430    16.83771
   447  H   1.0    0.04    1.04    1.43   116.52723    43.54819    15.85652
   448  H   1.0    0.04    1.03    1.43   117.21285    47.85385    17.65616
   449  H   1.0    0.04    1.02    1.43   114.07980    47.85242    18.80101
   450  H   1.0    0.06    1.02    1.43   116.81375    46.74070    22.13193
   451  H   1.0    0.06    1.02    1.43   115.27443    44.08465    21.32687
   452  H   1.0    0.06    1.02    1.43   118.24109    44.43007    20.40268
   453  N   5.0   -0.14    3.49    2.07   115.46481    42.47222     7.13574
   454  C   4.0    0.03    4.25    4.10   115.33696    41.46506     4.60157
   455  C   4.0    0.07    3.11    3.03   112.88462    41.79381     2.91699
   456  O   6.0   -0.31    1.11    1.80   110.70979    41.26867     3.38908
   457  C   4.0   -0.03    4.34    4.28   116.07143    38.67133     4.89087
   458  C   4.0   -0.00    3.55    3.14   118.89458    38.26760     4.98708
   459  C   4.0   -0.03    3.44    3.09   120.05659    36.77182     6.81924
   460  C   4.0   -0.03    3.48    3.10   120.34683    39.14871     2.98628
   461  C   4.0   -0.02    3.41    3.08   122.58430    36.11219     6.62080
   462  C   4.0   -0.04    3.43    3.09   122.87901    38.51611     2.79674
   463  C   4.0    0.07    3.42    3.08   124.04847    36.97708     4.59281
   464  O   6.0   -0.23    2.09    1.84   126.58044    36.43735     4.40384
   465  H   1.0    0.08    1.09    1.44   114.01355    41.93014     8.25397
   466  H   1.0    0.05    1.07    1.44   116.84589    42.40960     3.56371
   467  H   1.0    0.05    1.04    1.43   115.22814    37.97079     6.64091
   468  H   1.0    0.04    1.03    1.43   115.32044    37.54779     3.33022
   469  H   1.0    0.07    1.03    1.43   118.96743    36.06098     8.38603
   470  H   1.0    0.05    1.03    1.43   119.53243    40.29329     1.49961
   471  H   1.0    0.07    1.03    1.43   123.45358    34.92541     8.02568
   472  H   1.0    0.06    1.02    1.43   123.98453    39.27385     1.24249
   473  H   1.0    0.12    1.04    1.43   127.28577    37.34669     2.98959
   474  N   5.0   -0.21    3.20    1.96   114.25919    38.38003    -2.16890
   475  C   4.0    0.03    4.30    4.21   114.02779    35.61924    -2.48025
   476  C   4.0    0.15    3.38    3.07   111.32531    34.60474    -2.08893
   477  O   6.0   -0.31    1.22    1.80   110.50808    32.93384    -3.44182
   478  C   4.0   -0.05    4.42    4.41   115.76661    34.39601    -0.56411
   479  C   4.0   -0.02    4.20    4.00   116.68307    31.82299    -1.41976
   480  C   4.0   -0.07    4.10    3.80   119.55884    31.69233    -1.06918
   481  C   4.0   -0.07    4.11    3.83   115.28821    29.75591     0.02590
   482  H   1.0    0.08    1.03    1.43   115.24444    38.97330    -0.63934
   483  H   1.0    0.05    1.05    1.44   114.57366    35.14147    -4.41905
   484  H   1.0    0.04    1.05    1.44   117.41145    35.62433    -0.31732
   485  H   1.0    0.04    1.04    1.43   114.81450    34.23346     1.25563
   486  H   1.0    0.05    1.06    1.44   116.27989    31.58885    -3.44297
   487  H   1.0    0.05    1.00    1.43   120.26940    29.85724    -1.66041
   488  H   1.0    0.04    1.00    1.43   120.48904    33.14524    -2.18378
   489  H   1.0    0.05    1.00    1.43   120.03151    31.96778     0.91237
   490  H   1.0    0.05    1.00    1.43   115.78231    27.91331    -0.73739
   491  H   1.0    0.06    1.02    1.43   115.84189    29.84070     1.99656
   492  H   1.0    0.06    1.00    1.43   113.26180    30.03799    -0.14250
   493  N   5.0   -0.14    3.38    2.01   109.93360    35.66456    -0.20975
   494  C   4.0    0.04    4.29    4.19   107.15876    35.69343    -0.17513
   495  C   4.0    0.09    3.36    3.07   105.99027    36.16769    -2.71880
   496  O   6.0   -0.32    1.27    1.80   104.25014    34.87821    -3.56329
   497  C   4.0   -0.03    4.33    4.26   106.00187    37.94218     1.32034
   498  C   4.0   -0.01    3.54    3.13   103.12046    37.71564     1.48532
   499  C   4.0   -0.03    3.47    3.10   101.90855    35.55448     2.39265
   500  C   4.0   -0.04    3.46    3.10   101.57106    39.73836     0.87980
   501  C   4.0   -0.04    3.40    3.08    99.29951    35.37570     2.50207
   502  C   4.0   -0.04    3.40    3.08    98.95168    39.53253     0.99481
   503  C   4.0   -0.05    3.35    3.06    97.76614    37.33547     1.73283
   504  H   1.0    0.09    1.07    1.44   110.73107    37.04713     0.85558
   505  H   1.0    0.06    1.05    1.44   106.46778    33.91479     0.61210
   506  H   1.0    0.05    1.02    1.43   106.78331    37.92319     3.24050
   507  H   1.0    0.05    1.03    1.43   106.50318    39.72850     0.44481
   508  H   1.0    0.06    1.03    1.43   103.01145    33.92911     2.96361
   509  H   1.0    0.05    1.03    1.43   102.39964    41.51346     0.28555
   510  H   1.0    0.05    1.03    1.43    98.46910    33.58814     3.06971
   511  H   1.0    0.05    1.03    1.43    97.83673    41.17424     0.49197
   512  H   1.0    0.05    1.03    1.43    95.73918    37.19519     1.77789
   513  N   5.0   -0.20    3.30    1.98   105.30490    31.44887    -7.69306
   514  C   4.0    0.03    4.26    4.11   103.67531    29.33426    -7.21284
   515  C   4.0    0.15    3.34    3.06   101.11682    29.84544    -8.52772
   516  O   6.0   -0.32    1.24    1.80    99.92875    28.08447    -9.46536
   517  C   4.0    0.03    4.12    3.83   103.85094    28.74243    -4.36068
   518  O   6.0   -0.26    2.06    1.83   102.62472    30.34288    -2.67727
   519  H   1.0    0.11    1.04    1.43   105.84973    32.62588    -6.25194
   520  H   1.0    0.05    1.06    1.44   104.43190    27.67810    -8.21840
   521  H   1.0    0.04    1.02    1.43   103.04406    26.86257    -4.05094
   522  H   1.0    0.04    1.01    1.43   105.90211    28.68332    -3.98240
   523  H   1.0    0.16    1.12    1.45   103.09632    32.10150    -2.94598
   524  N   5.0   -0.14    3.45    2.04   100.41259    32.29320    -8.62099
   525  C   4.0    0.03    4.38    4.34    98.10843    33.22298    -9.84378
   526  C   4.0    0.08    3.19    3.03    98.18697    33.29629   -12.77483
   527  O   6.0   -0.29    1.14    1.80    96.53273    32.19800   -13.98425
   528  C   4.0   -0.03    4.23    4.06    97.28432    35.78925    -8.75281
   529  C   4.0   -0.07    4.10    3.81    94.63325    36.39618    -9.81917
   530  C   4.0   -0.07    4.12    3.84    97.34709    35.59743    -5.86093
   531  H   1.0    0.09    1.08    1.44   101.60632    33.66651    -8.04698
   532  H   1.0    0.05    1.06    1.44    96.63554    31.81868    -9.43732
   533  H   1.0    0.04    1.05    1.44    98.61250    37.24171    -9.37826
   534  H   1.0    0.04    1.00    1.43    94.02961    38.24441    -9.16470
   535  H   1.0    0.06    1.01    1.43    94.69021    36.39965   -11.86373
   536  H   1.0    0.04    1.00    1.43    93.28128    34.98280    -9.19677
   537  H   1.0    0.04    1.00    1.43    96.41441    37.23229    -5.03774
   538  H   1.0    0.04    1.00    1.43    96.37464    33.89861    -5.25128
   539  H   1.0    0.06    1.00    1.43    99.27695    35.53579    -5.17526
   540  N   5.0   -0.19    3.18    1.95    97.33959    27.09492   -14.34190
   541  C   4.0    0.03    4.18    3.95    94.64762    26.36736   -14.22935
   542  C   4.0    0.08    3.30    3.05    93.43471    26.95337   -16.76147
   543  O   6.0   -0.32    1.20    1.80    91.81773    25.62855   -17.76947
   544  C   4.0   -0.03    4.29    4.19    92.99604    27.85657   -12.30549
   545  C   4.0   -0.02    3.52    3.12    90.36229    26.78887   -11.83626
   546  C   4.0   -0.04    3.49    3.11    89.71212    26.05778    -9.40074
   547  C   4.0   -0.03    3.51    3.12    88.46191    26.74933   -13.62609
   548  C   4.0   -0.04    3.39    3.08    87.29267    25.28068    -8.79412
   549  C   4.0   -0.04    3.47    3.10    86.04571    25.95609   -13.00810
   550  C   4.0   -0.04    3.36    3.07    85.42086    25.17111   -10.60755
   551  H   1.0    0.12    1.04    1.43    98.18822    27.81574   -12.77923
   552  H   1.0    0.04    1.05    1.44    94.52417    24.34743   -13.79360
   553  H   1.0    0.05    1.03    1.43    94.02378    27.86207   -10.50954
   554  H   1.0    0.06    1.03    1.43    92.83701    29.80559   -12.95229
   555  H   1.0    0.05    1.03    1.43    91.14417    26.11402    -7.93842
   556  H   1.0    0.07    1.05    1.44    88.80109    27.45071   -15.50794
   557  H   1.0    0.05    1.03    1.43    86.86035    24.78284    -6.85166
   558  H   1.0    0.05    1.03    1.43    84.59068    26.06733   -14.44038
   559  H   1.0    0.05    1.03    1.43    83.53304    24.56494   -10.14082
   560  N   5.0   -0.20    3.16    1.95    96.43746    23.16429   -22.61394
   561  C   4.0    0.03    4.27    4.13    95.46687    20.66870   -21.99924
   562  C   4.0    0.08    3.24    3.04    92.56839    20.54991   -22.30444
   563  O   6.0   -0.29    1.11    1.80    91.50323    18.56333   -22.92982
   564  C   4.0   -0.02    4.29    4.18    96.13480    19.80572   -19.24690
   565  C   4.0   -0.04    4.19    3.97    95.99631    16.91067   -19.12825
   566  C   4.0   -0.07    4.22    4.03    94.31436    20.87245   -17.28979
   567  C   4.0   -0.07    4.02    3.65    95.45531    15.72231   -16.51280
   568  H   1.0    0.09    1.02    1.43    97.03580    24.19811   -21.10610
   569  H   1.0    0.05    1.05    1.44    96.26569    19.30333   -23.33980
   570  H   1.0    0.04    1.05    1.44    98.04862    20.47051   -18.84375
   571  H   1.0    0.06    1.04    1.43    94.47610    16.29489   -20.38999
   572  H   1.0    0.05    1.02    1.43    97.76114    16.11720   -19.85438
   573  H   1.0    0.04    1.01    1.43    95.07985    20.54713   -15.41629
   574  H   1.0    0.07    1.07    1.44    94.08626    22.85027   -17.60355
   575  H   1.0    0.05    1.01    1.43    92.48519    19.94607   -17.43488
   576  H   1.0    0.05    1.00    1.43    95.70669    13.68863   -16.66336
   577  H   1.0    0.04    1.00    1.43    96.76825    16.43581   -15.10464
   578  H   1.0    0.05    1.00    1.43    93.52828    16.06044   -15.90091
   579  H   1.0    0.09    1.07    1.44    79.60275     6.77221    -9.69665
   580  H   1.0    0.06    1.04    1.43   106.89458    36.65208    16.84903
   581  H   1.0    0.10    1.08    1.44   107.11999    33.44568    21.42739
   582  H   1.0    0.07    1.05    1.44   112.62931    39.05674    23.59864
   583  H   1.0    0.09    1.07    1.44    97.77003    23.65991    23.01338
   584  H   1.0    0.06    1.04    1.43    91.52178    21.99576    22.09276
   585  H   1.0    0.09    1.07    1.44    90.44083    28.71404    15.68475
   586  H   1.0    0.06    1.05    1.44    84.97408    31.58566    16.69350
   587  H   1.0    0.09    1.07    1.44    88.76310    38.33672    13.69595
   588  H   1.0    0.07    1.04    1.43    83.32200    36.89433    10.57297
   589  H   1.0    0.09    1.07    1.44    75.48921    17.25128     1.41659
   590  H   1.0    0.05    1.04    1.43    77.25456    18.07459     7.89992
   591  H   1.0    0.10    1.07    1.44    79.60275     9.69665     6.77221
   592  H   1.0    0.06    1.04    1.43    85.86458    13.13576    12.76618
   593  H   1.0    0.10    1.07    1.44    88.50941     4.54549    11.46886
   594  H   1.0    0.06    1.05    1.44    92.28885     7.74820    15.52769
   595  H   1.0    0.10    1.08    1.44    90.50118    -0.13874   -19.45780
   596  H   1.0    0.06    1.04    1.43    96.71496    -0.46786   -18.12859
   597  H   1.0    0.09    1.11    1.44   118.65531    45.71455    13.76878
   598  H   1.0    0.06    1.05    1.44   113.02118    42.53443     1.18382
   599  H   1.0    0.09    1.07    1.44   115.04906    39.03983    -3.52291
   600  H   1.0    0.06    1.05    1.44   106.62474    37.58064    -3.80142
   601  H   1.0    0.10    1.08    1.44   106.77906    30.89517    -8.33558
   602  H   1.0    0.06    1.04    1.43    99.57173    34.22912   -13.65989
   603  H   1.0    0.09    1.07    1.44    98.27936    25.73409   -14.73884
   604  H   1.0    0.07    1.05    1.44    93.94351    28.50231   -17.71697
   605  H   1.0    0.10    1.07    1.44    97.77003    23.01338   -23.65991
   606  H   1.0    0.07    1.04    1.43    91.52178    22.09276   -21.99576

  Z AO/shell   Hii/eV     exponent
  1     Wed Apr 25 08:07:45 CEST 2018   EN: 2.200 GM2: 0.406  GM3: 0.0800  RAES: 1.40
     1s    -10.707211    1.230000
  6     Wed Apr 25 08:07:45 CEST 2018   EN: 2.550 GM2: 0.538  GM3: 0.1500  RAES: 3.00
     2s    -13.970922    2.096432
     2p    -10.063292    1.800000
  7     Wed Apr 25 08:07:45 CEST 2018   EN: 3.040 GM2: 0.461  GM3:-0.0640  RAES: 1.90
     2s    -16.686243    2.339881
     2p    -12.523956    2.014332
  8     Wed Apr 25 08:07:45 CEST 2018   EN: 3.440 GM2: 0.452  GM3:-0.0517  RAES: 1.80
     2s    -20.229985    2.439742
     2p    -15.503117    2.137023
 16     Tue Apr 24 11:44:34 CEST 2018   EN: 2.580 GM2: 0.340  GM3:-0.0502  RAES: 3.10
     3s    -20.029654    1.981333
     3p    -11.377694    2.025643
     3d     -0.420282    1.702555
 no old-style atom pair restraining (fixing) potential

molecular fragmentation (1/2 indicates fragments):
111111111111111111111111111111111111111111111111111111111111111111111111
111111111111111111111111111111111111111111111111111111111111111111111111
111111111111111111111111111111111111111111111111111111111111111111111111
111111111111111111111111111111111111111111111111111111111112222222222222
222222222222222222222222222222222222222222222222222222222222222222222222
222222222222222222222222222222222222222222222222222222222222222222222222
222222222222222222222222222222222222222222222222222222222222222222222222
222222222222222222222222222222222222222222222222222222222222222222222222
221122222222222222222222222222
# atoms in fragment 1/2:   277   329
 fragment masses (1/2) :     1905.34     2081.77
CMA distance (Bohr)    :   5.403
constraining FC (au)   :  0.0500
           ------------------------------------------------- 
          |        Self-Consistent Charge Iterations        |
           ------------------------------------------------- 

 Ncao       : 1458
 Nao        : 1455
 Nshell     : 887
 Nel        : 1574
 T(el)      :   500.0
 intcut     :    35.0
 scfconv/Eh :  0.100E-06
   qconv/e  :  0.100E-04
 intneglect :  0.100E-08
 broydamp   :      0.400
 iter      E             dE          RMSdq      gap      omega  full diag
   1   -891.3267730 -0.891327E+03  0.447E+00    2.87       0.0  T
   2   -893.2583391 -0.193157E+01  0.214E+00    1.44       1.0  T
   3   -893.3772306 -0.118892E+00  0.124E+00    1.72       1.0  T
   4   -893.5436055 -0.166375E+00  0.239E-01    1.18       1.0  T
   5   -893.5510272 -0.742169E-02  0.114E-01    1.36       1.0  T
   6   -893.5525540 -0.152678E-02  0.496E-02    1.38       1.0  T
   7   -893.5529217 -0.367750E-03  0.217E-02    1.39       1.0  T
   8   -893.5529690 -0.472920E-04  0.102E-02    1.40       1.0  T
   9   -893.5529838 -0.148146E-04  0.484E-03    1.39       1.0  T
  10   -893.5529866 -0.281423E-05  0.222E-03    1.40       1.8  T
  11   -893.5529871 -0.490699E-06  0.107E-03    1.40       3.8  T
  12   -893.5529872 -0.119828E-06  0.489E-04    1.40       8.3  T
  13   -893.5529873 -0.386789E-07  0.241E-04    1.40      16.9  T
  14   -893.5529873 -0.489399E-08  0.105E-04    1.40      38.8  T
  15   -893.5529873 -0.174691E-08  0.434E-05    1.40      93.6  T
  16   -893.5529873 -0.265686E-09  0.192E-05    1.40     211.4  T
speedup  1.97
cpu  time for SCC   52.26 s
wall time for SCC   26.49 s

   *** convergence criteria satisfied after 16 iterations ***

          eigenvalues
 #    :         775        776        777        778        779        780        781        782
 occ. :        2.000      2.000      2.000      2.000      2.000      2.000      2.000      2.000
 eps  :       -10.042    -10.031    -10.007     -9.998     -9.995     -9.975     -9.877     -9.821
 #    :         783        784        785        786        787        788        789        790
 occ. :        2.000      2.000      2.000      2.000      2.000      0.000      0.000      0.000
 eps  :        -9.810     -9.808     -9.672     -9.650     -9.632     -8.234     -8.159     -8.025
 #    :         791        792        793        794        795        796        797        798
 occ. :        0.000      0.000      0.000      0.000      0.000      0.000      0.000      0.000
 eps  :        -7.921     -7.889     -7.790     -7.760     -7.734     -7.607     -7.559     -7.520


   #   Z            q   n(s)   n(p)   n(d)      C6AA      α(0)
   1   7 N     -0.404  1.309  4.095  0.000    30.476     8.199
   2   6 C      0.020  1.072  2.908  0.000    20.262     6.413
   3   6 C      0.265  1.050  2.685  0.000    22.535     7.773
   4   8 O     -0.503  1.740  4.763  0.000    23.855     6.548
   5   6 C     -0.022  1.073  2.949  0.000    20.927     6.507
   6   6 C     -0.116  1.039  3.077  0.000    22.789     6.807
   7   6 C     -0.120  1.045  3.074  0.000    22.856     6.819
   8   1 H      0.164  0.836  0.000  0.000     1.308     1.792
   9   1 H      0.039  0.961  0.000  0.000     2.462     2.454
  10   1 H      0.047  0.953  0.000  0.000     2.358     2.401
  11   1 H      0.050  0.950  0.000  0.000     2.318     2.381
  12   1 H      0.048  0.952  0.000  0.000     2.348     2.396
  13   1 H      0.033  0.967  0.000  0.000     2.545     2.495
  14   1 H      0.050  0.950  0.000  0.000     2.325     2.384
  15   1 H      0.042  0.958  0.000  0.000     2.419     2.432
  16   1 H      0.043  0.957  0.000  0.000     2.413     2.429
  17   7 N     -0.165  1.243  3.921  0.000    24.560     7.360
  18   6 C      0.011  1.060  2.930  0.000    20.391     6.428
  19   6 C      0.281  1.042  2.677  0.000    22.240     7.724
  20   8 O     -0.471  1.749  4.722  0.000    23.158     6.452
  21   6 C     -0.019  1.064  2.955  0.000    20.860     6.494
  22   6 C     -0.115  1.038  3.077  0.000    22.750     6.800
  23   6 C     -0.121  1.042  3.080  0.000    22.879     6.820
  24   1 H      0.217  0.783  0.000  0.000     1.024     1.585
  25   1 H      0.100  0.900  0.000  0.000     1.789     2.091
  26   1 H      0.045  0.955  0.000  0.000     2.385     2.415
  27   1 H      0.049  0.951  0.000  0.000     2.335     2.390
  28   1 H      0.046  0.954  0.000  0.000     2.370     2.408
  29   1 H      0.051  0.949  0.000  0.000     2.301     2.372
  30   1 H      0.057  0.943  0.000  0.000     2.238     2.340
  31   1 H      0.049  0.951  0.000  0.000     2.334     2.389
  32   1 H      0.049  0.951  0.000  0.000     2.332     2.388
  33   7 N     -0.188  1.241  3.947  0.000    25.071     7.436
  34   6 C      0.011  1.056  2.933  0.000    20.388     6.429
  35   6 C      0.261  1.043  2.696  0.000    22.602     7.785
  36   8 O     -0.476  1.743  4.732  0.000    23.250     6.465
  37   6 C     -0.071  1.051  3.020  0.000    21.845     6.652
  38   6 C     -0.025  1.070  2.955  0.000    21.032     6.531
  39  16 S     -0.248  1.928  4.258  0.061   151.691    20.729
  40   6 C     -0.057  1.057  3.000  0.000    21.663     6.639
  41   1 H      0.203  0.797  0.000  0.000     1.090     1.636
  42   1 H      0.096  0.904  0.000  0.000     1.820     2.110
  43   1 H      0.073  0.927  0.000  0.000     2.058     2.243
  44   1 H      0.073  0.927  0.000  0.000     2.053     2.241
  45   1 H      0.067  0.933  0.000  0.000     2.116     2.275
  46   1 H      0.062  0.938  0.000  0.000     2.172     2.305
  47   1 H      0.075  0.925  0.000  0.000     2.030     2.228
  48   1 H      0.054  0.946  0.000  0.000     2.275     2.359
  49   1 H      0.057  0.943  0.000  0.000     2.232     2.336
  50   7 N     -0.169  1.233  3.936  0.000    24.659     7.375
  51   6 C     -0.033  1.054  2.980  0.000    21.232     6.572
  52   6 C      0.272  1.036  2.691  0.000    22.396     7.749
  53   8 O     -0.469  1.735  4.734  0.000    23.107     6.445
  54   1 H      0.207  0.793  0.000  0.000     1.073     1.623
  55   1 H      0.103  0.897  0.000  0.000     1.757     2.073
  56   1 H      0.088  0.912  0.000  0.000     1.895     2.153
  57   7 N     -0.190  1.251  3.938  0.000    25.113     7.443
  58   6 C      0.017  1.056  2.927  0.000    20.295     6.414
  59   6 C      0.285  1.031  2.684  0.000    22.182     7.714
  60   8 O     -0.488  1.735  4.754  0.000    23.527     6.503
  61   6 C     -0.140  1.047  3.093  0.000    23.232     6.867
  62   1 H      0.239  0.761  0.000  0.000     0.926     1.507
  63   1 H      0.077  0.923  0.000  0.000     2.014     2.219
  64   1 H      0.063  0.937  0.000  0.000     2.165     2.301
  65   1 H      0.069  0.931  0.000  0.000     2.098     2.265
  66   1 H      0.092  0.908  0.000  0.000     1.859     2.132
  67   7 N     -0.186  1.244  3.942  0.000    25.040     7.432
  68   6 C      0.024  1.057  2.919  0.000    20.173     6.395
  69   6 C      0.279  1.037  2.684  0.000    22.276     7.729
  70   8 O     -0.486  1.741  4.745  0.000    23.480     6.497
  71   6 C     -0.124  1.042  3.083  0.000    22.932     6.827
  72   1 H      0.210  0.790  0.000  0.000     1.057     1.610
  73   1 H      0.067  0.933  0.000  0.000     2.122     2.278
  74   1 H      0.063  0.937  0.000  0.000     2.162     2.299
  75   1 H      0.070  0.930  0.000  0.000     2.083     2.257
  76   1 H      0.065  0.935  0.000  0.000     2.139     2.287
  77   7 N     -0.187  1.252  3.935  0.000    25.050     7.433
  78   6 C      0.023  1.069  2.908  0.000    20.190     6.398
  79   6 C      0.276  1.043  2.681  0.000    22.328     7.738
  80   8 O     -0.478  1.740  4.738  0.000    23.298     6.471
  81   6 C     -0.084  1.060  3.024  0.000    22.094     6.692
  82   6 C      0.005  1.084  2.911  0.000    27.895     8.663
  83   6 C     -0.041  1.081  2.960  0.000    29.027     8.836
  84   6 C     -0.043  1.080  2.963  0.000    29.074     8.842
  85   6 C     -0.029  1.078  2.951  0.000    28.735     8.790
  86   6 C     -0.035  1.079  2.957  0.000    28.880     8.813
  87   6 C     -0.036  1.079  2.956  0.000    28.892     8.815
  88   1 H      0.219  0.781  0.000  0.000     1.013     1.576
  89   1 H      0.071  0.929  0.000  0.000     2.078     2.254
  90   1 H      0.080  0.920  0.000  0.000     1.983     2.202
  91   1 H      0.073  0.927  0.000  0.000     2.048     2.238
  92   1 H      0.038  0.962  0.000  0.000     2.474     2.460
  93   1 H      0.040  0.960  0.000  0.000     2.448     2.447
  94   1 H      0.037  0.963  0.000  0.000     2.483     2.464
  95   1 H      0.043  0.957  0.000  0.000     2.412     2.428
  96   1 H      0.043  0.957  0.000  0.000     2.410     2.428
  97   7 N     -0.191  1.251  3.940  0.000    25.150     7.448
  98   6 C      0.043  1.049  2.908  0.000    19.845     6.342
  99   6 C      0.272  1.047  2.681  0.000    22.404     7.754
 100   8 O     -0.499  1.749  4.750  0.000    23.767     6.536
 101   6 C     -0.107  1.060  3.047  0.000    22.532     6.756
 102   6 C      0.290  1.032  2.678  0.000    22.080     7.694
 103   8 O     -0.469  1.747  4.721  0.000    23.099     6.444
 104   7 N     -0.287  1.265  4.022  0.000    27.408     7.775
 105   1 H      0.237  0.763  0.000  0.000     0.934     1.514
 106   1 H      0.068  0.932  0.000  0.000     2.113     2.273
 107   1 H      0.088  0.912  0.000  0.000     1.901     2.156
 108   1 H      0.072  0.928  0.000  0.000     2.064     2.247
 109   1 H      0.222  0.778  0.000  0.000     0.999     1.566
 110   1 H      0.230  0.770  0.000  0.000     0.966     1.540
 111   7 N     -0.174  1.246  3.927  0.000    24.756     7.390
 112   6 C      0.027  1.059  2.914  0.000    20.090     6.377
 113   6 C      0.284  1.045  2.671  0.000    22.194     7.717
 114   8 O     -0.507  1.734  4.774  0.000    23.946     6.561
 115   6 C     -0.080  1.056  3.024  0.000    22.036     6.684
 116   6 C     -0.072  1.057  3.015  0.000    21.881     6.662
 117   6 C     -0.091  1.063  3.027  0.000    22.247     6.719
 118   6 C     -0.054  1.080  2.974  0.000    21.687     6.656
 119   7 N     -0.129  1.227  3.902  0.000    23.796     7.245
 120   1 H      0.222  0.778  0.000  0.000     1.002     1.568
 121   1 H      0.076  0.924  0.000  0.000     2.024     2.225
 122   1 H      0.076  0.924  0.000  0.000     2.025     2.226
 123   1 H      0.066  0.934  0.000  0.000     2.132     2.283
 124   1 H      0.078  0.922  0.000  0.000     1.996     2.209
 125   1 H      0.044  0.956  0.000  0.000     2.401     2.423
 126   1 H      0.066  0.934  0.000  0.000     2.129     2.282
 127   1 H      0.082  0.918  0.000  0.000     1.961     2.190
 128   1 H      0.139  0.861  0.000  0.000     1.468     1.895
 129   1 H      0.115  0.885  0.000  0.000     1.654     2.011
 130   1 H      0.289  0.711  0.000  0.000     0.746     1.353
 131   1 H      0.256  0.744  0.000  0.000     0.860     1.453
 132   1 H      0.292  0.708  0.000  0.000     0.737     1.345
 133   7 N     -0.168  1.253  3.916  0.000    24.640     7.372
 134   6 C      0.028  1.064  2.909  0.000    20.084     6.376
 135   6 C      0.289  1.039  2.672  0.000    22.094     7.698
 136   8 O     -0.503  1.735  4.768  0.000    23.855     6.548
 137   6 C     -0.020  1.061  2.959  0.000    20.882     6.498
 138   6 C     -0.065  1.045  3.021  0.000    21.748     6.638
 139   6 C     -0.107  1.036  3.070  0.000    22.593     6.777
 140   6 C     -0.106  1.037  3.070  0.000    22.574     6.773
 141   1 H      0.218  0.782  0.000  0.000     1.020     1.582
 142   1 H      0.069  0.931  0.000  0.000     2.093     2.263
 143   1 H      0.054  0.946  0.000  0.000     2.270     2.356
 144   1 H      0.052  0.948  0.000  0.000     2.291     2.367
 145   1 H      0.027  0.973  0.000  0.000     2.635     2.539
 146   1 H      0.051  0.949  0.000  0.000     2.305     2.374
 147   1 H      0.040  0.960  0.000  0.000     2.450     2.448
 148   1 H      0.041  0.959  0.000  0.000     2.440     2.443
 149   1 H      0.038  0.962  0.000  0.000     2.476     2.461
 150   1 H      0.042  0.958  0.000  0.000     2.423     2.434
 151   1 H      0.040  0.960  0.000  0.000     2.450     2.448
 152   7 N     -0.181  1.250  3.931  0.000    24.913     7.413
 153   6 C      0.024  1.056  2.920  0.000    20.162     6.392
 154   6 C      0.295  1.040  2.665  0.000    22.001     7.684
 155   8 O     -0.498  1.732  4.765  0.000    23.736     6.532
 156   6 C     -0.022  1.067  2.954  0.000    20.917     6.503
 157   6 C     -0.065  1.050  3.015  0.000    21.751     6.640
 158   6 C     -0.110  1.039  3.071  0.000    22.664     6.788
 159   6 C     -0.110  1.035  3.075  0.000    22.666     6.789
 160   1 H      0.222  0.778  0.000  0.000     0.998     1.565
 161   1 H      0.071  0.929  0.000  0.000     2.073     2.252
 162   1 H      0.040  0.960  0.000  0.000     2.452     2.449
 163   1 H      0.032  0.968  0.000  0.000     2.554     2.499
 164   1 H      0.055  0.945  0.000  0.000     2.258     2.350
 165   1 H      0.054  0.946  0.000  0.000     2.265     2.353
 166   1 H      0.034  0.966  0.000  0.000     2.531     2.488
 167   1 H      0.047  0.953  0.000  0.000     2.362     2.403
 168   1 H      0.052  0.948  0.000  0.000     2.295     2.369
 169   1 H      0.038  0.962  0.000  0.000     2.476     2.461
 170   1 H      0.039  0.961  0.000  0.000     2.463     2.454
 171   7 N     -0.187  1.260  3.927  0.000    25.046     7.433
 172   6 C      0.038  1.058  2.904  0.000    19.889     6.342
 173   6 C      0.265  1.055  2.681  0.000    22.541     7.777
 174   8 O     -0.502  1.745  4.757  0.000    23.821     6.544
 175   6 C     -0.017  1.074  2.943  0.000    20.888     6.509
 176  16 S     -0.284  1.939  4.318  0.028   153.325    20.841
 177   1 H      0.226  0.774  0.000  0.000     0.985     1.555
 178   1 H      0.072  0.928  0.000  0.000     2.069     2.249
 179   1 H      0.077  0.923  0.000  0.000     2.010     2.217
 180   1 H      0.061  0.939  0.000  0.000     2.191     2.315
 181   1 H      0.183  0.817  0.000  0.000     1.188     1.704
 182   7 N     -0.178  1.246  3.933  0.000    24.860     7.405
 183   6 C      0.022  1.053  2.925  0.000    20.176     6.389
 184   6 C      0.280  1.039  2.681  0.000    22.261     7.727
 185   8 O     -0.484  1.735  4.749  0.000    23.436     6.491
 186   6 C      0.055  1.045  2.900  0.000    19.844     6.378
 187   8 O     -0.462  1.719  4.743  0.000    22.093     6.345
 188   1 H      0.248  0.752  0.000  0.000     0.891     1.478
 189   1 H      0.077  0.923  0.000  0.000     2.008     2.216
 190   1 H      0.057  0.943  0.000  0.000     2.234     2.338
 191   1 H      0.071  0.929  0.000  0.000     2.071     2.250
 192   1 H      0.328  0.672  0.000  0.000     0.644     1.260
 193   7 N     -0.180  1.252  3.928  0.000    24.897     7.411
 194   6 C      0.021  1.070  2.908  0.000    20.229     6.406
 195   6 C      0.262  1.060  2.678  0.000    22.589     7.782
 196   8 O     -0.481  1.744  4.737  0.000    23.375     6.482
 197   6 C     -0.092  1.065  3.027  0.000    22.244     6.713
 198   6 C     -0.012  1.058  2.954  0.000    20.761     6.481
 199   6 C     -0.121  1.041  3.080  0.000    22.883     6.821
 200   6 C     -0.114  1.042  3.072  0.000    22.748     6.801
 201   1 H      0.221  0.779  0.000  0.000     1.004     1.570
 202   1 H      0.084  0.916  0.000  0.000     1.939     2.178
 203   1 H      0.072  0.928  0.000  0.000     2.066     2.248
 204   1 H      0.066  0.934  0.000  0.000     2.126     2.280
 205   1 H      0.024  0.976  0.000  0.000     2.677     2.558
 206   1 H      0.048  0.952  0.000  0.000     2.346     2.395
 207   1 H      0.049  0.951  0.000  0.000     2.337     2.391
 208   1 H      0.050  0.950  0.000  0.000     2.323     2.384
 209   1 H      0.048  0.952  0.000  0.000     2.348     2.396
 210   1 H      0.042  0.958  0.000  0.000     2.419     2.432
 211   1 H      0.034  0.966  0.000  0.000     2.524     2.484
 212   7 N     -0.179  1.247  3.932  0.000    24.869     7.406
 213   6 C      0.025  1.059  2.916  0.000    20.161     6.393
 214   6 C      0.278  1.039  2.682  0.000    22.295     7.733
 215   8 O     -0.496  1.739  4.756  0.000    23.690     6.526
 216   6 C     -0.017  1.059  2.958  0.000    20.840     6.493
 217   6 C     -0.117  1.039  3.077  0.000    22.790     6.806
 218   6 C     -0.104  1.037  3.067  0.000    22.539     6.770
 219   1 H      0.219  0.781  0.000  0.000     1.014     1.577
 220   1 H      0.079  0.921  0.000  0.000     1.993     2.208
 221   1 H      0.055  0.945  0.000  0.000     2.258     2.350
 222   1 H      0.046  0.954  0.000  0.000     2.370     2.407
 223   1 H      0.080  0.920  0.000  0.000     1.977     2.199
 224   1 H      0.030  0.970  0.000  0.000     2.583     2.513
 225   1 H      0.051  0.949  0.000  0.000     2.309     2.376
 226   1 H      0.025  0.975  0.000  0.000     2.660     2.551
 227   1 H      0.043  0.957  0.000  0.000     2.403     2.424
 228   7 N     -0.191  1.249  3.942  0.000    25.149     7.448
 229   6 C      0.033  1.064  2.903  0.000    20.032     6.373
 230   6 C      0.273  1.056  2.671  0.000    22.383     7.747
 231   8 O     -0.487  1.748  4.739  0.000    23.488     6.498
 232   6 C     -0.055  1.052  3.003  0.000    21.566     6.612
 233   6 C     -0.097  1.068  3.029  0.000    22.368     6.737
 234   6 C      0.356  1.042  2.601  0.000    20.951     7.490
 235   8 O     -0.618  1.752  4.866  0.000    26.555     6.909
 236   8 O     -0.638  1.779  4.859  0.000    27.060     6.974
 237   1 H      0.217  0.783  0.000  0.000     1.023     1.585
 238   1 H      0.065  0.935  0.000  0.000     2.136     2.286
 239   1 H      0.048  0.952  0.000  0.000     2.350     2.397
 240   1 H      0.043  0.957  0.000  0.000     2.407     2.426
 241   1 H      0.020  0.980  0.000  0.000     2.740     2.589
 242   1 H      0.018  0.982  0.000  0.000     2.763     2.599
 243   7 N     -0.194  1.262  3.932  0.000    25.209     7.457
 244   6 C      0.023  1.062  2.914  0.000    20.181     6.396
 245   6 C      0.264  1.042  2.693  0.000    22.540     7.774
 246   8 O     -0.461  1.732  4.729  0.000    22.937     6.421
 247   6 C     -0.119  1.065  3.054  0.000    22.772     6.793
 248   6 C      0.286  1.041  2.674  0.000    22.158     7.707
 249   8 O     -0.502  1.760  4.742  0.000    23.834     6.545
 250   7 N     -0.284  1.269  4.015  0.000    27.322     7.763
 251   1 H      0.195  0.805  0.000  0.000     1.134     1.668
 252   1 H      0.093  0.907  0.000  0.000     1.853     2.129
 253   1 H      0.108  0.892  0.000  0.000     1.710     2.045
 254   1 H      0.083  0.917  0.000  0.000     1.950     2.184
 255   1 H      0.209  0.791  0.000  0.000     1.062     1.614
 256   1 H      0.238  0.762  0.000  0.000     0.933     1.513
 257   7 N     -0.167  1.244  3.923  0.000    24.621     7.369
 258   6 C      0.018  1.063  2.919  0.000    20.254     6.405
 259   6 C      0.191  1.089  2.720  0.000    23.925     8.010
 260   8 O     -0.329  1.748  4.582  0.000    20.321     6.044
 261   6 C     -0.029  1.057  2.972  0.000    21.045     6.524
 262   6 C     -0.070  1.053  3.017  0.000    21.806     6.644
 263   6 C     -0.123  1.037  3.086  0.000    22.902     6.822
 264   6 C     -0.119  1.040  3.080  0.000    22.849     6.817
 265   1 H      0.213  0.787  0.000  0.000     1.044     1.601
 266   1 H      0.095  0.905  0.000  0.000     1.831     2.116
 267   1 H      0.066  0.934  0.000  0.000     2.135     2.285
 268   1 H      0.055  0.945  0.000  0.000     2.262     2.352
 269   1 H      0.034  0.966  0.000  0.000     2.530     2.487
 270   1 H      0.064  0.936  0.000  0.000     2.154     2.295
 271   1 H      0.039  0.961  0.000  0.000     2.459     2.452
 272   1 H      0.053  0.947  0.000  0.000     2.284     2.364
 273   1 H      0.063  0.937  0.000  0.000     2.168     2.302
 274   1 H      0.030  0.970  0.000  0.000     2.580     2.512
 275   1 H      0.044  0.956  0.000  0.000     2.394     2.419
 276   7 N     -0.375  1.301  4.074  0.000    29.675     8.090
 277   6 C      0.041  1.048  2.911  0.000    19.894     6.351
 278   6 C      0.266  1.052  2.682  0.000    22.513     7.775
 279   8 O     -0.514  1.757  4.757  0.000    24.105     6.583
 280   6 C     -0.043  1.044  2.999  0.000    21.299     6.562
 281   6 C     -0.001  1.068  2.934  0.000    20.603     6.463
 282  16 S     -0.263  1.933  4.285  0.046   152.394    20.777
 283   6 C     -0.064  1.065  2.999  0.000    21.818     6.666
 284   1 H      0.152  0.848  0.000  0.000     1.389     1.846
 285   1 H      0.040  0.960  0.000  0.000     2.452     2.449
 286   1 H      0.035  0.965  0.000  0.000     2.514     2.480
 287   1 H      0.034  0.966  0.000  0.000     2.525     2.485
 288   1 H      0.047  0.953  0.000  0.000     2.352     2.398
 289   1 H      0.063  0.937  0.000  0.000     2.163     2.300
 290   1 H      0.064  0.936  0.000  0.000     2.157     2.296
 291   1 H      0.062  0.938  0.000  0.000     2.176     2.307
 292   1 H      0.066  0.934  0.000  0.000     2.126     2.280
 293   7 N     -0.093  1.235  3.859  0.000    23.064     7.133
 294   6 C      0.026  1.055  2.918  0.000    20.073     6.368
 295   6 C      0.195  1.091  2.714  0.000    23.838     7.997
 296   8 O     -0.370  1.758  4.612  0.000    21.092     6.157
 297   6 C     -0.079  1.056  3.024  0.000    21.976     6.667
 298   6 C     -0.069  1.049  3.020  0.000    21.783     6.639
 299   6 C     -0.002  1.049  2.953  0.000    20.604     6.462
 300   1 H      0.081  0.919  0.000  0.000     1.973     2.197
 301   1 H      0.090  0.910  0.000  0.000     1.876     2.142
 302   1 H      0.090  0.910  0.000  0.000     1.879     2.144
 303   1 H      0.081  0.919  0.000  0.000     1.965     2.192
 304   1 H      0.044  0.956  0.000  0.000     2.396     2.421
 305   1 H      0.087  0.913  0.000  0.000     1.910     2.161
 306   1 H      0.019  0.981  0.000  0.000     2.749     2.593
 307   7 N     -0.387  1.321  4.067  0.000    30.025     8.138
 308   6 C      0.033  1.065  2.902  0.000    20.044     6.378
 309   6 C      0.199  1.098  2.704  0.000    23.767     7.984
 310   8 O     -0.381  1.758  4.623  0.000    21.305     6.188
 311   6 C     -0.019  1.072  2.947  0.000    20.880     6.500
 312   6 C     -0.062  1.054  3.008  0.000    21.687     6.630
 313   6 C     -0.118  1.035  3.083  0.000    22.812     6.809
 314   6 C     -0.107  1.039  3.068  0.000    22.614     6.783
 315   1 H      0.164  0.836  0.000  0.000     1.312     1.794
 316   1 H      0.051  0.949  0.000  0.000     2.304     2.374
 317   1 H      0.038  0.962  0.000  0.000     2.480     2.462
 318   1 H      0.045  0.955  0.000  0.000     2.382     2.414
 319   1 H      0.026  0.974  0.000  0.000     2.647     2.544
 320   1 H      0.052  0.948  0.000  0.000     2.289     2.366
 321   1 H      0.049  0.951  0.000  0.000     2.333     2.389
 322   1 H      0.041  0.959  0.000  0.000     2.439     2.442
 323   1 H      0.039  0.961  0.000  0.000     2.463     2.454
 324   1 H      0.033  0.967  0.000  0.000     2.539     2.492
 325   1 H      0.045  0.955  0.000  0.000     2.382     2.413
 326   7 N     -0.384  1.312  4.072  0.000    29.931     8.125
 327   6 C      0.039  1.057  2.904  0.000    19.937     6.361
 328   6 C      0.199  1.093  2.708  0.000    23.761     7.984
 329   8 O     -0.379  1.755  4.624  0.000    21.268     6.183
 330   6 C     -0.073  1.062  3.011  0.000    21.889     6.661
 331   6 C     -0.009  1.055  2.954  0.000    20.701     6.472
 332   6 C     -0.111  1.040  3.071  0.000    22.657     6.784
 333   6 C     -0.116  1.042  3.074  0.000    22.757     6.799
 334   1 H      0.163  0.837  0.000  0.000     1.315     1.796
 335   1 H      0.053  0.947  0.000  0.000     2.277     2.360
 336   1 H      0.056  0.944  0.000  0.000     2.251     2.346
 337   1 H      0.047  0.953  0.000  0.000     2.364     2.404
 338   1 H      0.022  0.978  0.000  0.000     2.705     2.572
 339   1 H      0.043  0.957  0.000  0.000     2.411     2.428
 340   1 H      0.037  0.963  0.000  0.000     2.493     2.469
 341   1 H      0.039  0.961  0.000  0.000     2.457     2.451
 342   1 H      0.049  0.951  0.000  0.000     2.332     2.388
 343   1 H      0.044  0.956  0.000  0.000     2.393     2.419
 344   1 H      0.034  0.966  0.000  0.000     2.535     2.490
 345   7 N     -0.388  1.314  4.074  0.000    30.039     8.140
 346   6 C      0.048  1.054  2.898  0.000    19.790     6.336
 347   6 C      0.207  1.093  2.700  0.000    23.612     7.958
 348   8 O     -0.394  1.763  4.631  0.000    21.566     6.226
 349   6 C     -0.073  1.058  3.015  0.000    21.886     6.659
 350   6 C      0.008  1.085  2.907  0.000    27.833     8.654
 351   6 C     -0.040  1.078  2.962  0.000    29.000     8.831
 352   6 C     -0.030  1.080  2.950  0.000    28.755     8.794
 353   6 C     -0.035  1.078  2.957  0.000    28.876     8.812
 354   6 C     -0.029  1.075  2.954  0.000    28.723     8.788
 355   6 C     -0.036  1.079  2.957  0.000    28.901     8.817
 356   1 H      0.158  0.842  0.000  0.000     1.346     1.817
 357   1 H      0.053  0.947  0.000  0.000     2.279     2.361
 358   1 H      0.055  0.945  0.000  0.000     2.257     2.349
 359   1 H      0.061  0.939  0.000  0.000     2.185     2.312
 360   1 H      0.039  0.961  0.000  0.000     2.469     2.457
 361   1 H      0.025  0.975  0.000  0.000     2.659     2.550
 362   1 H      0.043  0.957  0.000  0.000     2.413     2.429
 363   1 H      0.031  0.969  0.000  0.000     2.576     2.510
 364   1 H      0.033  0.967  0.000  0.000     2.543     2.494
 365   7 N     -0.396  1.307  4.090  0.000    30.264     8.170
 366   6 C      0.047  1.048  2.905  0.000    19.805     6.339
 367   6 C      0.195  1.094  2.711  0.000    23.837     7.996
 368   8 O     -0.364  1.747  4.617  0.000    20.968     6.139
 369   6 C     -0.126  1.042  3.084  0.000    22.951     6.828
 370   1 H      0.169  0.831  0.000  0.000     1.281     1.773
 371   1 H      0.048  0.952  0.000  0.000     2.348     2.397
 372   1 H      0.056  0.944  0.000  0.000     2.242     2.342
 373   1 H      0.066  0.934  0.000  0.000     2.128     2.281
 374   1 H      0.057  0.943  0.000  0.000     2.237     2.339
 375   7 N     -0.394  1.311  4.083  0.000    30.197     8.161
 376   6 C      0.025  1.071  2.904  0.000    20.167     6.398
 377   6 C      0.271  1.049  2.680  0.000    22.418     7.753
 378   8 O     -0.516  1.751  4.765  0.000    24.138     6.587
 379   6 C     -0.023  1.074  2.949  0.000    20.951     6.511
 380   6 C     -0.116  1.039  3.078  0.000    22.790     6.808
 381   6 C     -0.118  1.046  3.073  0.000    22.833     6.815
 382   1 H      0.159  0.841  0.000  0.000     1.342     1.815
 383   1 H      0.030  0.970  0.000  0.000     2.582     2.513
 384   1 H      0.048  0.952  0.000  0.000     2.342     2.393
 385   1 H      0.050  0.950  0.000  0.000     2.318     2.381
 386   1 H      0.052  0.948  0.000  0.000     2.297     2.370
 387   1 H      0.027  0.973  0.000  0.000     2.629     2.536
 388   1 H      0.047  0.953  0.000  0.000     2.357     2.401
 389   1 H      0.038  0.962  0.000  0.000     2.477     2.461
 390   1 H      0.045  0.955  0.000  0.000     2.388     2.417
 391   7 N     -0.170  1.245  3.925  0.000    24.675     7.378
 392   6 C      0.024  1.055  2.921  0.000    20.170     6.394
 393   6 C      0.210  1.078  2.713  0.000    23.560     7.951
 394   8 O     -0.378  1.757  4.621  0.000    21.237     6.179
 395   6 C     -0.015  1.061  2.954  0.000    20.792     6.483
 396   6 C     -0.108  1.037  3.070  0.000    22.609     6.779
 397   6 C     -0.120  1.044  3.077  0.000    22.860     6.817
 398   1 H      0.242  0.758  0.000  0.000     0.914     1.498
 399   1 H      0.094  0.906  0.000  0.000     1.841     2.122
 400   1 H      0.054  0.946  0.000  0.000     2.266     2.354
 401   1 H      0.051  0.949  0.000  0.000     2.303     2.373
 402   1 H      0.033  0.967  0.000  0.000     2.543     2.494
 403   1 H      0.050  0.950  0.000  0.000     2.322     2.383
 404   1 H      0.062  0.938  0.000  0.000     2.180     2.309
 405   1 H      0.047  0.953  0.000  0.000     2.359     2.402
 406   1 H      0.055  0.945  0.000  0.000     2.264     2.353
 407   7 N     -0.403  1.327  4.076  0.000    30.447     8.195
 408   6 C      0.050  1.046  2.904  0.000    19.750     6.330
 409   6 C      0.209  1.086  2.705  0.000    23.567     7.952
 410   8 O     -0.396  1.752  4.644  0.000    21.603     6.232
 411   6 C     -0.118  1.043  3.075  0.000    22.780     6.800
 412   1 H      0.186  0.814  0.000  0.000     1.178     1.700
 413   1 H      0.029  0.971  0.000  0.000     2.594     2.519
 414   1 H      0.042  0.958  0.000  0.000     2.428     2.437
 415   1 H      0.056  0.944  0.000  0.000     2.243     2.342
 416   1 H      0.083  0.917  0.000  0.000     1.946     2.182
 417   7 N     -0.386  1.305  4.082  0.000    29.999     8.134
 418   6 C      0.052  1.047  2.901  0.000    19.709     6.323
 419   6 C      0.192  1.096  2.711  0.000    23.886     8.004
 420   8 O     -0.381  1.774  4.607  0.000    21.312     6.189
 421   6 C     -0.104  1.063  3.041  0.000    22.474     6.747
 422   6 C      0.287  1.035  2.678  0.000    22.138     7.704
 423   8 O     -0.478  1.747  4.731  0.000    23.309     6.473
 424   7 N     -0.291  1.268  4.023  0.000    27.509     7.790
 425   1 H      0.178  0.822  0.000  0.000     1.224     1.733
 426   1 H      0.050  0.950  0.000  0.000     2.315     2.380
 427   1 H      0.083  0.917  0.000  0.000     1.949     2.183
 428   1 H      0.071  0.929  0.000  0.000     2.076     2.253
 429   1 H      0.223  0.777  0.000  0.000     0.994     1.562
 430   1 H      0.229  0.771  0.000  0.000     0.971     1.544
 431   7 N     -0.387  1.317  4.070  0.000    30.006     8.135
 432   6 C      0.018  1.061  2.921  0.000    20.285     6.414
 433   6 C      0.276  1.047  2.676  0.000    22.325     7.737
 434   8 O     -0.466  1.754  4.712  0.000    23.052     6.437
 435   6 C     -0.088  1.057  3.031  0.000    22.171     6.703
 436   6 C     -0.072  1.045  3.027  0.000    21.875     6.657
 437   6 C     -0.097  1.050  3.048  0.000    22.349     6.730
 438   6 C     -0.054  1.062  2.991  0.000    21.625     6.636
 439   7 N     -0.140  1.228  3.911  0.000    24.016     7.279
 440   1 H      0.149  0.851  0.000  0.000     1.406     1.857
 441   1 H      0.064  0.936  0.000  0.000     2.148     2.292
 442   1 H      0.044  0.956  0.000  0.000     2.392     2.418
 443   1 H      0.045  0.955  0.000  0.000     2.378     2.412
 444   1 H      0.059  0.941  0.000  0.000     2.213     2.327
 445   1 H      0.064  0.936  0.000  0.000     2.148     2.292
 446   1 H      0.078  0.922  0.000  0.000     1.997     2.210
 447   1 H      0.074  0.926  0.000  0.000     2.039     2.233
 448   1 H      0.114  0.886  0.000  0.000     1.660     2.015
 449   1 H      0.124  0.876  0.000  0.000     1.579     1.965
 450   1 H      0.308  0.692  0.000  0.000     0.690     1.301
 451   1 H      0.277  0.723  0.000  0.000     0.786     1.389
 452   1 H      0.291  0.709  0.000  0.000     0.740     1.348
 453   7 N     -0.190  1.254  3.936  0.000    25.126     7.445
 454   6 C      0.018  1.061  2.922  0.000    20.298     6.418
 455   6 C      0.185  1.098  2.717  0.000    24.024     8.026
 456   8 O     -0.330  1.739  4.590  0.000    20.325     6.044
 457   6 C     -0.067  1.056  3.011  0.000    21.777     6.642
 458   6 C      0.005  1.078  2.917  0.000    27.914     8.666
 459   6 C     -0.035  1.083  2.952  0.000    28.871     8.811
 460   6 C     -0.040  1.080  2.960  0.000    29.001     8.831
 461   6 C     -0.055  1.076  2.979  0.000    29.365     8.886
 462   6 C     -0.073  1.081  2.992  0.000    29.822     8.955
 463   6 C      0.142  1.048  2.810  0.000    24.903     8.178
 464   8 O     -0.447  1.728  4.719  0.000    21.788     6.301
 465   1 H      0.203  0.797  0.000  0.000     1.089     1.634
 466   1 H      0.082  0.918  0.000  0.000     1.955     2.186
 467   1 H      0.056  0.944  0.000  0.000     2.250     2.346
 468   1 H      0.054  0.946  0.000  0.000     2.275     2.359
 469   1 H      0.041  0.959  0.000  0.000     2.429     2.437
 470   1 H      0.044  0.956  0.000  0.000     2.394     2.419
 471   1 H      0.040  0.960  0.000  0.000     2.446     2.446
 472   1 H      0.040  0.960  0.000  0.000     2.445     2.445
 473   1 H      0.348  0.652  0.000  0.000     0.592     1.208
 474   7 N     -0.396  1.317  4.079  0.000    30.271     8.171
 475   6 C      0.023  1.066  2.911  0.000    20.212     6.404
 476   6 C      0.269  1.055  2.675  0.000    22.448     7.758
 477   8 O     -0.479  1.741  4.739  0.000    23.332     6.476
 478   6 C     -0.075  1.061  3.014  0.000    21.910     6.661
 479   6 C     -0.015  1.058  2.957  0.000    20.807     6.488
 480   6 C     -0.115  1.044  3.071  0.000    22.756     6.802
 481   6 C     -0.130  1.045  3.085  0.000    23.058     6.846
 482   1 H      0.150  0.850  0.000  0.000     1.399     1.853
 483   1 H      0.053  0.947  0.000  0.000     2.280     2.361
 484   1 H      0.051  0.949  0.000  0.000     2.304     2.374
 485   1 H      0.041  0.959  0.000  0.000     2.441     2.444
 486   1 H      0.036  0.964  0.000  0.000     2.505     2.475
 487   1 H      0.039  0.961  0.000  0.000     2.463     2.454
 488   1 H      0.039  0.961  0.000  0.000     2.458     2.452
 489   1 H      0.033  0.967  0.000  0.000     2.541     2.493
 490   1 H      0.043  0.957  0.000  0.000     2.404     2.425
 491   1 H      0.043  0.957  0.000  0.000     2.410     2.427
 492   1 H      0.052  0.948  0.000  0.000     2.294     2.368
 493   7 N     -0.175  1.252  3.923  0.000    24.783     7.394
 494   6 C      0.022  1.058  2.920  0.000    20.220     6.405
 495   6 C      0.207  1.085  2.707  0.000    23.604     7.959
 496   8 O     -0.368  1.743  4.625  0.000    21.052     6.152
 497   6 C     -0.086  1.065  3.021  0.000    22.112     6.690
 498   6 C      0.007  1.083  2.910  0.000    27.867     8.659
 499   6 C     -0.041  1.079  2.962  0.000    29.026     8.835
 500   6 C     -0.041  1.083  2.958  0.000    29.025     8.835
 501   6 C     -0.030  1.079  2.951  0.000    28.744     8.792
 502   6 C     -0.031  1.081  2.950  0.000    28.775     8.797
 503   6 C     -0.032  1.077  2.955  0.000    28.796     8.799
 504   1 H      0.207  0.793  0.000  0.000     1.073     1.623
 505   1 H      0.098  0.902  0.000  0.000     1.808     2.102
 506   1 H      0.101  0.899  0.000  0.000     1.774     2.083
 507   1 H      0.083  0.917  0.000  0.000     1.948     2.183
 508   1 H      0.032  0.968  0.000  0.000     2.557     2.501
 509   1 H      0.047  0.953  0.000  0.000     2.357     2.401
 510   1 H      0.033  0.967  0.000  0.000     2.544     2.494
 511   1 H      0.041  0.959  0.000  0.000     2.440     2.443
 512   1 H      0.042  0.958  0.000  0.000     2.425     2.435
 513   7 N     -0.397  1.305  4.092  0.000    30.277     8.172
 514   6 C      0.016  1.067  2.918  0.000    20.334     6.424
 515   6 C      0.270  1.050  2.679  0.000    22.433     7.755
 516   8 O     -0.490  1.749  4.740  0.000    23.556     6.507
 517   6 C      0.083  1.038  2.879  0.000    19.414     6.312
 518   8 O     -0.490  1.711  4.778  0.000    22.671     6.428
 519   1 H      0.165  0.835  0.000  0.000     1.305     1.789
 520   1 H      0.047  0.953  0.000  0.000     2.358     2.401
 521   1 H      0.029  0.971  0.000  0.000     2.605     2.524
 522   1 H      0.028  0.972  0.000  0.000     2.620     2.531
 523   1 H      0.340  0.660  0.000  0.000     0.613     1.230
 524   7 N     -0.162  1.243  3.919  0.000    24.507     7.352
 525   6 C      0.015  1.070  2.914  0.000    20.329     6.421
 526   6 C      0.192  1.089  2.719  0.000    23.893     8.005
 527   8 O     -0.341  1.760  4.581  0.000    20.535     6.076
 528   6 C     -0.020  1.067  2.953  0.000    20.905     6.503
 529   6 C     -0.121  1.041  3.079  0.000    22.872     6.820
 530   6 C     -0.123  1.041  3.081  0.000    22.904     6.824
 531   1 H      0.223  0.777  0.000  0.000     0.996     1.563
 532   1 H      0.081  0.919  0.000  0.000     1.973     2.197
 533   1 H      0.054  0.946  0.000  0.000     2.273     2.357
 534   1 H      0.059  0.941  0.000  0.000     2.206     2.323
 535   1 H      0.038  0.962  0.000  0.000     2.472     2.459
 536   1 H      0.053  0.947  0.000  0.000     2.287     2.365
 537   1 H      0.061  0.939  0.000  0.000     2.192     2.315
 538   1 H      0.048  0.952  0.000  0.000     2.344     2.394
 539   1 H      0.057  0.943  0.000  0.000     2.236     2.338
 540   7 N     -0.391  1.315  4.076  0.000    30.133     8.153
 541   6 C      0.048  1.057  2.896  0.000    19.800     6.340
 542   6 C      0.203  1.091  2.706  0.000    23.686     7.971
 543   8 O     -0.382  1.754  4.628  0.000    21.334     6.193
 544   6 C     -0.070  1.059  3.012  0.000    21.837     6.651
 545   6 C      0.009  1.085  2.906  0.000    27.814     8.650
 546   6 C     -0.040  1.080  2.960  0.000    29.001     8.832
 547   6 C     -0.037  1.079  2.958  0.000    28.925     8.820
 548   6 C     -0.035  1.080  2.954  0.000    28.860     8.810
 549   6 C     -0.032  1.081  2.950  0.000    28.791     8.800
 550   6 C     -0.037  1.077  2.960  0.000    28.917     8.818
 551   1 H      0.175  0.825  0.000  0.000     1.240     1.745
 552   1 H      0.041  0.959  0.000  0.000     2.432     2.439
 553   1 H      0.063  0.937  0.000  0.000     2.168     2.302
 554   1 H      0.072  0.928  0.000  0.000     2.064     2.247
 555   1 H      0.027  0.973  0.000  0.000     2.626     2.534
 556   1 H      0.034  0.966  0.000  0.000     2.526     2.486
 557   1 H      0.039  0.961  0.000  0.000     2.456     2.451
 558   1 H      0.035  0.965  0.000  0.000     2.523     2.484
 559   1 H      0.041  0.959  0.000  0.000     2.431     2.438
 560   7 N     -0.390  1.324  4.065  0.000    30.085     8.146
 561   6 C      0.033  1.066  2.902  0.000    20.045     6.378
 562   6 C      0.205  1.095  2.700  0.000    23.639     7.962
 563   8 O     -0.387  1.764  4.622  0.000    21.417     6.205
 564   6 C     -0.018  1.072  2.946  0.000    20.870     6.498
 565   6 C     -0.065  1.055  3.010  0.000    21.745     6.639
 566   6 C     -0.123  1.037  3.086  0.000    22.909     6.824
 567   6 C     -0.107  1.039  3.067  0.000    22.608     6.782
 568   1 H      0.157  0.843  0.000  0.000     1.352     1.822
 569   1 H      0.050  0.950  0.000  0.000     2.317     2.380
 570   1 H      0.037  0.963  0.000  0.000     2.493     2.469
 571   1 H      0.041  0.959  0.000  0.000     2.440     2.443
 572   1 H      0.030  0.970  0.000  0.000     2.585     2.514
 573   1 H      0.043  0.957  0.000  0.000     2.403     2.424
 574   1 H      0.063  0.937  0.000  0.000     2.161     2.299
 575   1 H      0.038  0.962  0.000  0.000     2.473     2.459
 576   1 H      0.040  0.960  0.000  0.000     2.448     2.447
 577   1 H      0.038  0.962  0.000  0.000     2.479     2.462
 578   1 H      0.043  0.957  0.000  0.000     2.409     2.427
 579   1 H      0.180  0.820  0.000  0.000     1.213     1.725
 580   1 H      0.073  0.927  0.000  0.000     2.051     2.239
 581   1 H      0.185  0.815  0.000  0.000     1.188     1.707
 582   1 H      0.089  0.911  0.000  0.000     1.888     2.149
 583   1 H      0.183  0.817  0.000  0.000     1.198     1.715
 584   1 H      0.078  0.922  0.000  0.000     2.001     2.212
 585   1 H      0.181  0.819  0.000  0.000     1.208     1.721
 586   1 H      0.069  0.931  0.000  0.000     2.097     2.264
 587   1 H      0.189  0.811  0.000  0.000     1.163     1.689
 588   1 H      0.073  0.927  0.000  0.000     2.050     2.239
 589   1 H      0.184  0.816  0.000  0.000     1.189     1.708
 590   1 H      0.076  0.924  0.000  0.000     2.025     2.225
 591   1 H      0.175  0.825  0.000  0.000     1.244     1.747
 592   1 H      0.063  0.937  0.000  0.000     2.167     2.302
 593   1 H      0.179  0.821  0.000  0.000     1.218     1.729
 594   1 H      0.068  0.932  0.000  0.000     2.107     2.270
 595   1 H      0.189  0.811  0.000  0.000     1.162     1.688
 596   1 H      0.089  0.911  0.000  0.000     1.887     2.148
 597   1 H      0.202  0.798  0.000  0.000     1.094     1.638
 598   1 H      0.094  0.906  0.000  0.000     1.837     2.120
 599   1 H      0.188  0.812  0.000  0.000     1.167     1.692
 600   1 H      0.088  0.912  0.000  0.000     1.896     2.153
 601   1 H      0.181  0.819  0.000  0.000     1.206     1.720
 602   1 H      0.076  0.924  0.000  0.000     2.016     2.220
 603   1 H      0.172  0.828  0.000  0.000     1.263     1.760
 604   1 H      0.074  0.926  0.000  0.000     2.041     2.234
 605   1 H      0.188  0.812  0.000  0.000     1.167     1.692
 606   1 H      0.074  0.926  0.000  0.000     2.041     2.234

 Mol. C6AA /au·bohr⁶  :    3326060.089653
 Mol. C8AA /au·bohr⁸  :   75032624.966053
 Mol. α(0) /au        :       2749.022597

 
molecular dipole:
                 x           y           z       tot (Debye)
 q only:       96.892      41.783      -2.970
   full:       95.795      37.532      -4.567     261.770
molecular quadrupole (traceless):
                xx          xy          yy          xz          yz          zz
 q only:     8610.013    6865.979   -2799.286    -253.041     662.418   -5810.727
  q+dip:     8538.917    6216.785   -2908.581    -496.286     558.446   -5630.336
   full:     8529.875    6214.052   -2899.932    -498.078     561.771   -5629.943
speedup  1.97
cpu  time for grad    1 m  2.4 s
wall time for grad    0 m 31.6 s

SCC energy    :    -893.5857034
rep           :      11.4017891
ES            :       2.0907277
AES           :      -0.0525066
AXC           :       0.3625061
disp          :      -0.8113328
XB            :       0.0000000
fix           :       0.0000000
Gborn         :       0.0000000
Gsasa         :       0.0000000
Ghb           :       0.0000000
Gshift        :       0.0000000
Gsolv         :      -0.4073978     -255.65
Etot ala COSMO:    -893.5857034
grad norm     :       0.8652093
total E       :    -882.0962982
atomizationE  :     165.8003087   104041.26
(atE without considering molecular charge,
 total energy contains solvation terms)
H-L gap (eV)  :          1.3976

------------------------------------------------------------------------
 * finished run on 2019/05/06 at 07:36:08.108     
------------------------------------------------------------------------
 total:
 * wall-time:     0 d,  0 h,  0 min, 33.782 sec
 *  cpu-time:     0 d,  0 h,  1 min,  6.262 sec
 * ratio c/w:     1.961 speedup
 SCF:
 * wall-time:     0 d,  0 h,  0 min, 33.291 sec
 *  cpu-time:     0 d,  0 h,  1 min,  5.504 sec
 * ratio c/w:     1.968 speedup

