      -----------------------------------------------------------      
     |                   =====================                   |     
     |                           x T B                           |     
     |                   =====================                   |     
     |                         S. Grimme                         |     
     |          Mulliken Center for Theoretical Chemistry        |     
     |                    University of Bonn                     |     
     |                 Version 6.0.1 (SAW181210)                 |     
      -----------------------------------------------------------      

   This program is distributed in the hope that it will be useful,
   but WITHOUT ANY WARRANTY; without even the implied warranty of
   MERCHANTABILITY or FITNESS FOR A PARTICULAR PURPOSE.
   
   FOR NON-COMMERCIAL, ACADEMIA USE ONLY.
   
   Cite this work as:
   S. Grimme, C. Bannwarth, P. Shushkov, J. Comput. Theory Chem., 2017,
   13, 1989-2009.
   C. Bannwarth, S. Ehlert and S. Grimme., ChemRxiv, 2018, preprint.
   http://doi.org/10.26434/chemrxiv.7246238.v1
   
   for sTDA-xTB:
   S. Grimme and C. Bannwarth, J. Chem. Phys., 2016, 145, 054103.
   
   in the mass-spec context:
   V. Asgeirsson, C. Bauer and S. Grimme, Chem. Sci., 2017, 8, 4879.
   
   if GBSA is used:
   P. Shushkov, F. März and S. Grimme, unpublished.
   
   for ANC optimizer:
   S. Grimme, unpublished.
   Rational Function algorithm used in ANCopt:
   F. Eckert, P. Pulay, H.-J. Werner, J. Comput. Chem., 1997, 18, 1473.
   
   with help from (in alphabetical order)
   C. Bannwarth, F. Bohle, G. Brandenburg, E. Caldeweyher, M. Checinski,
   S. Dohm, S. Ehlert, S. Ehrlich, F. März, H. Neugebauer, J. Pisarek,
   P. Pracht, P. Shushkov, and S. Spicher.
   
 * started run on 2019/05/10 at 02:12:30.074     
========================================================================
 # omp threads = 2
========================================================================
number of atoms            : 306
number of electrons        : 786
charge                     : 3
spin                       : .0
first test random number   : .5113

########################################################################
# WARNING! Please study the warnings concerning your input carefully
#  - Process number higher than OMP_NUM_THREADS, I hope you know what you are doing.
########################################################################

           ------------------------------------------------- 
          |                 G F N 2 - x T B                 |
          | Geometry, Frequencies, Noncovalent interactions |
          |            JCTC 2018 parametrisation            |
           ------------------------------------------------- 
 
      method parameters     
 k(s)        :  1.8500
 k(p)        :  2.2300
 k(d)        :  2.2300
 k(f)        :  2.0000
 kEN (H0ij)  : -2.0000
 D4 a1       :  0.5200
 D4 a2       :  5.0000
 D4 s6       :  1.0000
 D4 s8       :  2.7000
 D4 s9       :  5.0000
 alphaj      :  2.0000

 Solvent             : h2o
 Using internal parameter file: .param_gbsa2_h2o
 Gsolv ref. state (COSMO-RS): gsolv [1 M gas/solution]
 temperature (mdtemp)       :    298.150000000000     
 dielectric constant        :    80.2000000000000     
 rho                        :    1.00000000000000     
 mass                       :    18.0000000000000     
 surface tension            :    15.5689454083859     
 probe radius               :   0.975313790000000     
 vdW radii scaling          :    1.00000000000000     
 Gshift (Eh)                :   1.857443126794793E-003
 c1                         :    1.55243817000000     
 soset                      :   0.130326360000000     
 HB correction              :  T

            Z     q(EN)     CN     RAES       Cart. coordinates
     1  N   5.0   -0.20    3.25    1.97    85.05811    31.57866    17.35313
     2  C   4.0    0.03    4.32    4.23    83.37258    33.52485    18.25967
     3  C   4.0    0.15    3.49    3.11    84.22934    36.23300    17.57434
     4  O   6.0   -0.31    1.33    1.80    82.87260    37.46947    16.14666
     5  C   4.0   -0.03    4.40    4.37    83.10006    32.90146    21.05573
     6  C   4.0   -0.00    3.61    3.17    82.23054    35.08966    22.57004
     7  C   4.0   -0.03    3.46    3.10    79.69709    35.27974    23.20587
     8  C   4.0   -0.03    3.49    3.11    83.99884    36.83380    23.46142
     9  C   4.0   -0.02    3.37    3.07    78.91880    37.17580    24.83105
    10  C   4.0   -0.03    3.40    3.08    83.22486    38.67596    25.14560
    11  C   4.0   -0.03    3.41    3.08    80.68144    38.83755    25.85048
    12  H   1.0    0.09    1.04    1.43    85.91536    30.51999    18.68885
    13  H   1.0    0.05    1.05    1.44    81.54781    33.33336    17.27898
    14  H   1.0    0.06    1.03    1.43    81.83772    31.28697    21.26042
    15  H   1.0    0.05    1.05    1.44    84.96815    32.36261    21.74848
    16  H   1.0    0.06    1.03    1.43    78.37167    33.91118    22.48498
    17  H   1.0    0.06    1.04    1.43    85.97297    36.58198    23.05557
    18  H   1.0    0.07    1.03    1.43    76.95329    37.31730    25.35694
    19  H   1.0    0.06    1.03    1.43    84.63271    39.84622    26.04079
    20  H   1.0    0.07    1.03    1.43    80.04881    40.13408    27.29871
    21  N   5.0   -0.15    3.43    2.04    86.37925    37.16167    18.57930
    22  C   4.0    0.03    4.47    4.50    87.27524    39.49694    17.43579
    23  C   4.0    0.16    3.62    3.18    87.06399    39.41913    14.52954
    24  O   6.0   -0.32    1.32    1.80    86.47412    41.32569    13.35442
    25  C   4.0   -0.03    4.29    4.17    89.92704    40.56808    18.20640
    26  C   4.0   -0.04    4.27    4.13    91.31490    41.69162    15.90059
    27  C   4.0   -0.06    4.16    3.92    91.60024    38.64992    19.47579
    28  C   4.0   -0.07    4.06    3.72    93.95351    42.54305    16.54290
    29  H   1.0    0.08    1.06    1.44    87.63475    35.92166    19.32481
    30  H   1.0    0.05    1.06    1.44    85.87500    40.94725    17.93722
    31  H   1.0    0.04    1.06    1.44    89.61381    42.10513    19.54926
    32  H   1.0    0.05    1.04    1.43    91.42109    40.29556    14.38499
    33  H   1.0    0.05    1.03    1.43    90.22784    43.28867    15.19436
    34  H   1.0    0.05    1.01    1.43    93.32400    39.52492    20.14275
    35  H   1.0    0.05    1.00    1.43    90.71099    37.74644    21.09455
    36  H   1.0    0.05    1.00    1.43    92.13433    37.16830    18.13577
    37  H   1.0    0.05    1.00    1.43    94.67613    43.78010    15.06340
    38  H   1.0    0.05    1.00    1.43    93.98566    43.60454    18.30227
    39  H   1.0    0.06    1.00    1.43    95.25333    40.96186    16.69598
    40  N   5.0   -0.14    3.49    2.07    87.58984    37.27924    13.30184
    41  C   4.0    0.04    4.47    4.49    87.55620    37.40693    10.56395
    42  C   4.0    0.16    3.60    3.17    84.88195    37.98348     9.63404
    43  O   6.0   -0.31    1.29    1.80    84.60344    39.36611     7.78028
    44  C   4.0   -0.04    4.30    4.21    88.49083    34.96601     9.29250
    45  C   4.0   -0.00    3.60    3.17    87.92774    34.93327     6.47652
    46  C   4.0   -0.03    3.45    3.10    89.90327    34.89752     4.75514
    47  C   4.0   -0.02    3.58    3.15    85.44225    34.79690     5.60805
    48  C   4.0   -0.02    3.39    3.07    89.35836    34.74596     2.21927
    49  C   4.0   -0.03    3.37    3.07    84.89970    34.76246     3.08311
    50  C   4.0   -0.03    3.40    3.08    86.86969    34.71114     1.40053
    51  H   1.0    0.08    1.05    1.44    88.28976    35.69659    14.11415
    52  H   1.0    0.06    1.06    1.44    88.72649    39.00636     9.93943
    53  H   1.0    0.05    1.03    1.43    90.50712    34.74548     9.63350
    54  H   1.0    0.05    1.03    1.43    87.50927    33.38468    10.19177
    55  H   1.0    0.06    1.03    1.43    91.83317    34.95528     5.41340
    56  H   1.0    0.05    1.05    1.44    83.93124    34.58950     6.95866
    57  H   1.0    0.07    1.03    1.43    90.87291    34.65277     0.85156
    58  H   1.0    0.05    1.03    1.43    82.97409    34.71315     2.42303
    59  H   1.0    0.06    1.03    1.43    86.49642    34.63063    -0.60869
    60  N   5.0   -0.14    3.48    2.06    82.95378    36.87588    10.89158
    61  C   4.0    0.04    4.54    4.60    80.42080    37.18639     9.87313
    62  C   4.0    0.16    3.54    3.13    79.49924    39.90740    10.25033
    63  O   6.0   -0.30    1.28    1.80    78.48017    41.08610     8.53015
    64  C   4.0   -0.02    4.28    4.15    78.44182    35.37833    10.88158
    65  C   4.0   -0.06    4.18    3.97    75.99905    35.96072     9.46446
    66  C   4.0   -0.07    4.12    3.85    79.16713    32.64509    10.41550
    67  H   1.0    0.09    1.06    1.44    83.31802    35.54357    12.21383
    68  H   1.0    0.05    1.06    1.44    80.53922    36.97041     7.80406
    69  H   1.0    0.05    1.05    1.44    78.20639    35.70179    12.90904
    70  H   1.0    0.05    1.00    1.43    74.56730    34.56487     9.94412
    71  H   1.0    0.06    1.01    1.43    75.27425    37.81114     9.97955
    72  H   1.0    0.05    1.00    1.43    76.29697    35.94334     7.43617
    73  H   1.0    0.05    1.00    1.43    77.75808    31.39105    11.22583
    74  H   1.0    0.05    1.00    1.43    79.26421    32.27818     8.39200
    75  H   1.0    0.05    1.00    1.43    80.99727    32.18446    11.22898
    76  N   5.0   -0.14    3.46    2.05    79.80688    40.91258    12.56372
    77  C   4.0    0.04    4.44    4.45    79.05058    43.53872    12.80617
    78  C   4.0    0.16    3.43    3.09    80.70114    45.26552    11.10873
    79  O   6.0   -0.30    1.36    1.80    79.52405    46.39030     9.44508
    80  C   4.0   -0.04    4.22    4.05    78.49309    44.20990    15.53920
    81  C   4.0   -0.04    4.21    4.02    80.82817    44.15848    17.20063
    82  C   4.0   -0.04    4.15    3.90    80.20571    43.89194    20.03631
    83  C   4.0   -0.03    4.15    3.90    82.67880    44.32371    21.46857
    84  N   5.0   -0.11    4.03    2.94    82.31955    44.26408    24.23717
    85  H   1.0    0.11    1.07    1.44    80.84232    40.02168    13.90716
    86  H   1.0    0.07    1.09    1.44    77.22475    43.66724    11.81225
    87  H   1.0    0.05    1.03    1.43    77.60238    46.06655    15.60608
    88  H   1.0    0.05    1.03    1.43    77.11989    42.82754    16.22277
    89  H   1.0    0.06    1.03    1.43    82.03632    42.58010    16.65260
    90  H   1.0    0.05    1.03    1.43    81.89019    45.89889    16.89998
    91  H   1.0    0.05    1.02    1.43    78.81887    45.31824    20.56320
    92  H   1.0    0.05    1.02    1.43    79.44536    42.02125    20.42321
    93  H   1.0    0.04    1.02    1.43    84.04165    42.86483    20.95252
    94  H   1.0    0.05    1.02    1.43    83.45192    46.16449    20.93935
    95  H   1.0    0.07    1.02    1.43    84.02294    44.59956    25.13065
    96  H   1.0    0.07    1.02    1.43    81.06429    45.64252    24.80259
    97  H   1.0    0.06    1.09    1.44    81.64460    42.50822    24.78115
    98  N   5.0   -0.14    3.36    2.00    83.22124    45.46999    11.27831
    99  C   4.0    0.04    4.42    4.42    84.59794    47.06488     9.43874
   100  C   4.0    0.16    3.51    3.12    83.55642    46.86571     6.70255
   101  O   6.0   -0.31    1.24    1.80    83.45453    48.69575     5.27421
   102  C   4.0   -0.02    4.27    4.14    87.52242    46.61092     9.35149
   103  C   4.0   -0.04    4.17    3.93    88.78034    47.44215    11.84221
   104  C   4.0   -0.06    4.15    3.89    88.77126    48.03543     7.14533
   105  C   4.0   -0.07    4.02    3.65    91.66353    47.23121    11.86149
   106  H   1.0    0.10    1.07    1.44    84.27011    44.26873    12.34067
   107  H   1.0    0.06    1.05    1.44    84.27638    49.04385     9.98052
   108  H   1.0    0.06    1.05    1.44    87.81011    44.57480     9.08612
   109  H   1.0    0.05    1.03    1.43    88.25424    49.39745    12.22874
   110  H   1.0    0.05    1.03    1.43    88.01237    46.27361    13.35852
   111  H   1.0    0.05    1.01    1.43    90.76918    47.59828     7.08501
   112  H   1.0    0.06    1.01    1.43    87.94665    47.52328     5.33682
   113  H   1.0    0.05    1.00    1.43    88.52755    50.05853     7.40440
   114  H   1.0    0.05    1.00    1.43    92.34416    47.51269    13.77765
   115  H   1.0    0.05    1.00    1.43    92.26431    45.37663    11.20574
   116  H   1.0    0.05    1.00    1.43    92.52479    48.66599    10.67800
   117  N   5.0   -0.13    3.53    2.10    82.90924    44.56554     5.90343
   118  C   4.0    0.05    4.38    4.35    82.38804    44.16226     3.27913
   119  C   4.0    0.16    3.39    3.08    79.62658    44.51708     2.50304
   120  O   6.0   -0.30    1.23    1.80    79.06749    44.26951     0.26218
   121  C   4.0   -0.05    4.14    3.89    83.19736    41.49293     2.57188
   122  H   1.0    0.11    1.08    1.44    83.11449    43.00242     6.98881
   123  H   1.0    0.07    1.06    1.44    83.45568    45.56734     2.18408
   124  H   1.0    0.06    1.00    1.43    82.87974    41.18695     0.56934
   125  H   1.0    0.06    1.00    1.43    85.17691    41.19509     3.02409
   126  H   1.0    0.06    1.00    1.43    82.07836    40.14674     3.64811
   127  N   5.0   -0.13    3.46    2.05    77.95689    45.02403     4.34308
   128  C   4.0    0.04    4.33    4.26    75.24537    45.22258     3.87060
   129  C   4.0    0.15    3.42    3.09    74.48959    48.04063     3.60958
   130  O   6.0   -0.28    1.27    1.80    73.12949    48.88626     1.92878
   131  C   4.0   -0.03    4.23    4.07    73.65073    43.86090     5.92181
   132  C   4.0    0.16    3.16    3.03    72.37201    41.30615     5.23829
   133  O   6.0   -0.29    1.19    1.80    72.23742    40.32294     3.15913
   134  N   5.0   -0.18    3.19    1.95    71.30864    40.20875     7.27784
   135  H   1.0    0.12    1.10    1.44    78.56160    45.10143     6.16157
   136  H   1.0    0.07    1.06    1.44    74.87049    44.34542     2.02555
   137  H   1.0    0.07    1.04    1.43    74.87456    43.50624     7.54000
   138  H   1.0    0.05    1.03    1.43    72.11014    45.11122     6.49882
   139  H   1.0    0.11    1.03    1.43    70.37287    38.56640     7.03648
   140  H   1.0    0.09    1.03    1.43    71.31114    41.02461     8.99088
   141  N   5.0   -0.13    3.48    2.07    75.48879    49.55307     5.37959
   142  C   4.0    0.04    4.46    4.47    75.00869    52.24486     5.18693
   143  C   4.0    0.16    3.42    3.08    76.01033    53.13088     2.56777
   144  O   6.0   -0.27    1.20    1.80    74.58109    54.04427     0.99248
   145  C   4.0    0.05    4.17    3.95    76.11264    53.71377     7.50317
   146  O   6.0   -0.23    2.08    1.84    74.93941    52.97866     9.80928
   147  C   4.0   -0.06    4.08    3.77    75.86868    56.54784     7.00830
   148  H   1.0    0.10    1.06    1.44    76.53430    48.88091     6.83266
   149  H   1.0    0.07    1.05    1.44    72.95274    52.53860     5.10365
   150  H   1.0    0.05    1.04    1.43    78.10676    53.17937     7.70269
   151  H   1.0    0.13    1.03    1.43    73.66588    54.20950    10.24632
   152  H   1.0    0.06    1.00    1.43    76.42229    57.62313     8.66649
   153  H   1.0    0.05    1.00    1.43    77.02634    57.10158     5.41134
   154  H   1.0    0.06    1.00    1.43    73.90974    56.99214     6.54528
   155  N   5.0   -0.14    3.43    2.04    78.53469    52.83411     2.28518
   156  C   4.0    0.03    4.37    4.33    80.10577    53.71780     0.19249
   157  C   4.0    0.15    3.38    3.07    80.08984    51.92869    -2.09986
   158  O   6.0   -0.29    1.26    1.80    81.97484    50.76653    -2.71123
   159  C   4.0   -0.04    4.43    4.43    82.82110    53.99565     1.09812
   160  C   4.0   -0.02    4.18    3.96    83.40075    56.53548     2.31908
   161  C   4.0   -0.06    4.11    3.82    85.58873    56.13921     4.14822
   162  C   4.0   -0.07    4.09    3.79    84.00356    58.50456     0.28611
   163  H   1.0    0.09    1.07    1.44    79.45519    51.75492     3.56899
   164  H   1.0    0.05    1.05    1.44    79.29069    55.51814    -0.43358
   165  H   1.0    0.06    1.04    1.43    83.19654    52.44460     2.40906
   166  H   1.0    0.06    1.05    1.44    84.06857    53.69543    -0.51158
   167  H   1.0    0.05    1.05    1.44    81.75024    57.15535     3.40712
   168  H   1.0    0.06    1.00    1.43    86.06358    57.86932     5.15186
   169  H   1.0    0.05    1.00    1.43    85.10440    54.69635     5.52850
   170  H   1.0    0.05    1.00    1.43    87.25546    55.49593     3.12962
   171  H   1.0    0.06    1.00    1.43    84.47711    60.29612     1.17193
   172  H   1.0    0.05    1.00    1.43    85.59796    57.84872    -0.82682
   173  H   1.0    0.05    1.00    1.43    82.36417    58.76241    -0.92283
   174  N   5.0   -0.13    3.41    2.03    77.93777    51.91523    -3.45112
   175  C   4.0    0.04    4.39    4.36    77.51615    50.30880    -5.66016
   176  C   4.0    0.15    3.40    3.08    77.49313    51.77110    -8.20803
   177  O   6.0   -0.27    1.24    1.80    75.48360    52.55190    -9.07320
   178  C   4.0   -0.02    4.52    4.56    74.92420    49.09610    -5.57554
   179  C   4.0   -0.03    4.10    3.80    74.70171    47.16915    -3.52038
   180  S   6.0    0.00    2.63    3.10    72.05182    45.27227    -4.37240
   181  C   4.0   -0.05    3.88    3.44    73.62463    42.98974    -6.45510
   182  H   1.0    0.11    1.07    1.44    76.38889    52.77459    -2.72398
   183  H   1.0    0.06    1.06    1.44    79.02765    48.89717    -5.66951
   184  H   1.0    0.07    1.04    1.43    73.49279    50.56433    -5.32550
   185  H   1.0    0.07    1.07    1.44    74.55996    48.22670    -7.41606
   186  H   1.0    0.06    1.07    1.44    76.36402    45.96877    -3.32815
   187  H   1.0    0.08    1.10    1.44    74.26882    48.00990    -1.69812
   188  H   1.0    0.06    1.05    1.44    72.28668    41.45352    -6.68824
   189  H   1.0    0.07    1.03    1.43    73.99408    43.85305    -8.27782
   190  H   1.0    0.05    1.04    1.43    75.32533    42.36918    -5.50312
   191  N   5.0   -0.13    3.42    2.03    79.77673    52.12722    -9.32050
   192  C   4.0    0.04    4.37    4.33    80.05672    53.41594   -11.76095
   193  C   4.0    0.16    3.34    3.06    79.26021    51.56666   -13.90933
   194  O   6.0   -0.27    1.23    1.80    79.10242    49.28815   -13.58727
   195  C   4.0   -0.04    4.17    3.94    82.65080    54.79451   -11.84558
   196  C   4.0   -0.04    4.23    4.07    82.28819    57.29001   -10.42463
   197  C   4.0   -0.04    4.12    3.84    84.61155    58.72741    -9.51474
   198  C   4.0   -0.03    4.15    3.90    83.68947    60.37639    -7.30346
   199  N   5.0   -0.11    3.99    2.85    85.68234    61.97188    -6.12572
   200  H   1.0    0.09    1.06    1.44    81.28552    51.20253    -8.60869
   201  H   1.0    0.06    1.07    1.44    78.54362    54.84344   -11.78438
   202  H   1.0    0.06    1.02    1.43    84.06474    53.61172   -10.93395
   203  H   1.0    0.06    1.02    1.43    83.20431    55.10894   -13.80124
   204  H   1.0    0.06    1.03    1.43    81.11918    58.53365   -11.57881
   205  H   1.0    0.05    1.05    1.44    81.16735    56.80868    -8.75046
   206  H   1.0    0.05    1.02    1.43    86.06290    57.41404    -8.87707
   207  H   1.0    0.06    1.02    1.43    85.37357    59.88503   -11.03314
   208  H   1.0    0.06    1.02    1.43    82.19474    61.62114    -7.98841
   209  H   1.0    0.04    1.02    1.43    82.91002    59.16038    -5.83194
   210  H   1.0    0.07    1.02    1.43    84.93306    63.10015    -4.73051
   211  H   1.0    0.07    1.02    1.43    87.11312    60.87619    -5.37697
   212  H   1.0    0.08    1.02    1.43    86.47499    63.13394    -7.48319
   213  N   5.0   -0.13    3.45    2.05    78.58308    52.70277   -16.10176
   214  C   4.0    0.04    4.29    4.17    78.54650    51.28803   -18.47068
   215  C   4.0    0.09    3.20    3.04    80.17463    52.93431   -20.27309
   216  O   6.0   -0.25    1.14    1.80    79.79241    55.21313   -20.40387
   217  C   4.0   -0.03    4.21    4.01    75.84504    50.67379   -19.37305
   218  C   4.0   -0.04    4.14    3.88    75.64887    48.48406   -21.27131
   219  C   4.0   -0.04    4.19    3.98    76.04246    45.95715   -19.92494
   220  C   4.0   -0.03    4.10    3.81    75.77938    43.65319   -21.63924
   221  N   5.0   -0.11    4.01    2.88    76.06473    41.33420   -20.04362
   222  H   1.0    0.10    1.08    1.44    78.80539    54.58564   -16.32641
   223  H   1.0    0.06    1.06    1.44    79.53358    49.50784   -18.08570
   224  H   1.0    0.07    1.03    1.43    74.76187    50.16985   -17.68726
   225  H   1.0    0.07    1.02    1.43    75.03211    52.39102   -20.17726
   226  H   1.0    0.06    1.03    1.43    73.76274    48.53672   -22.09444
   227  H   1.0    0.06    1.02    1.43    77.03051    48.74500   -22.78260
   228  H   1.0    0.05    1.03    1.43    77.92612    45.94636   -19.08232
   229  H   1.0    0.07    1.05    1.44    74.68250    45.83584   -18.38078
   230  H   1.0    0.05    1.02    1.43    73.90936    43.63763   -22.50340
   231  H   1.0    0.06    1.02    1.43    77.20876    43.65288   -23.12534
   232  H   1.0    0.07    1.00    1.43    75.48466    39.70826   -21.01967
   233  H   1.0    0.07    1.02    1.43    77.89899    41.11679   -19.44748
   234  H   1.0    0.07    1.03    1.43    74.93378    41.57394   -18.46191
   235  N   5.0   -0.18    3.20    1.96    67.58233    40.26919   -21.21500
   236  C   4.0    0.03    4.20    4.00    67.33506    41.08202   -18.57074
   237  C   4.0    0.09    3.25    3.04    64.58719    40.61822   -17.80524
   238  O   6.0   -0.24    1.15    1.80    62.92598    41.63011   -19.06229
   239  C   4.0   -0.03    4.23    4.06    67.82209    43.95730   -18.30433
   240  C   4.0   -0.02    4.14    3.87    67.73287    44.92927   -15.57094
   241  C   4.0    0.26    3.06    3.02    70.30959    45.19523   -14.09890
   242  O   6.0   -0.30    1.19    1.80    72.30116    45.31773   -15.35407
   243  O   6.0   -0.27    1.16    1.80    70.16374    45.31814   -11.75367
   244  H   1.0    0.12    1.03    1.43    65.97241    40.43716   -22.23554
   245  H   1.0    0.05    1.04    1.43    68.67608    39.99981   -17.43435
   246  H   1.0    0.06    1.03    1.43    69.67948    44.40601   -19.08141
   247  H   1.0    0.07    1.03    1.43    66.38124    44.93452   -19.41701
   248  H   1.0    0.07    1.03    1.43    66.99667    46.85657   -15.57262
   249  H   1.0    0.06    1.02    1.43    66.43187    43.82045   -14.41309
   250  N   5.0   -0.19    3.14    1.94    61.79474    41.18280   -11.24313
   251  C   4.0    0.04    4.20    3.99    61.10006    43.24274    -9.47580
   252  C   4.0    0.15    3.32    3.06    62.95754    43.78478    -7.25381
   253  O   6.0   -0.28    1.21    1.80    63.08180    45.97035    -6.52727
   254  C   4.0   -0.05    4.10    3.80    58.50546    42.86024    -8.22955
   255  H   1.0    0.10    1.02    1.43    63.67915    40.95066   -11.45480
   256  H   1.0    0.07    1.05    1.44    61.06357    45.00036   -10.57735
   257  H   1.0    0.07    1.00    1.43    58.14684    44.44514    -6.97829
   258  H   1.0    0.07    1.00    1.43    57.05311    42.74329    -9.66929
   259  H   1.0    0.06    1.00    1.43    58.51797    41.11863    -7.13649
   260  N   5.0   -0.13    3.37    2.01    64.09234    41.76558    -6.14407
   261  C   4.0    0.03    4.25    4.09    65.90064    41.60828    -4.00243
   262  C   4.0    0.14    3.30    3.05    67.50018    39.08565    -4.27630
   263  O   6.0   -0.29    1.22    1.80    67.99978    38.26763    -6.38798
   264  C   4.0   -0.04    4.31    4.23    64.60367    41.83253    -1.39813
   265  C   4.0   -0.01    4.16    3.92    63.09952    44.26664    -0.87795
   266  C   4.0   -0.06    4.10    3.80    61.86468    44.00671     1.72736
   267  C   4.0   -0.05    4.09    3.79    64.76338    46.62825    -1.00748
   268  H   1.0    0.09    1.08    1.44    63.87195    40.09478    -7.05480
   269  H   1.0    0.06    1.06    1.44    67.26315    43.16135    -4.20713
   270  H   1.0    0.05    1.03    1.43    63.34290    40.21613    -1.15951
   271  H   1.0    0.05    1.03    1.43    66.08630    41.73461     0.03359
   272  H   1.0    0.06    1.05    1.44    61.61128    44.45625    -2.29867
   273  H   1.0    0.06    1.00    1.43    60.67079    45.63178     2.11313
   274  H   1.0    0.06    1.00    1.43    60.71361    42.30923     1.82833
   275  H   1.0    0.06    1.00    1.43    63.31484    43.90794     3.18256
   276  H   1.0    0.06    1.00    1.43    63.68941    48.27503    -0.41645
   277  H   1.0    0.05    1.00    1.43    66.41318    46.43844     0.20725
   278  H   1.0    0.07    1.01    1.43    65.38946    46.94904    -2.93341
   279  N   5.0   -0.14    3.41    2.03    68.25043    37.84980    -2.15775
   280  C   4.0    0.04    4.27    4.14    69.32479    35.28779    -2.12734
   281  C   4.0    0.09    3.17    3.03    67.74184    33.74473    -0.18178
   282  O   6.0   -0.26    1.12    1.80    68.18323    33.84073     2.06341
   283  C   4.0   -0.03    4.21    4.02    72.16637    35.23357    -1.55409
   284  C   4.0   -0.04    4.18    3.95    73.65853    36.54409    -3.69566
   285  C   4.0   -0.05    4.15    3.90    76.04005    35.10510    -4.49367
   286  C   4.0   -0.03    4.12    3.84    77.32469    36.41212    -6.72663
   287  N   5.0   -0.11    4.01    2.89    79.49384    34.86986    -7.66303
   288  H   1.0    0.09    1.06    1.44    68.20460    38.72205    -0.46462
   289  H   1.0    0.06    1.06    1.44    69.02765    34.54529    -4.03832
   290  H   1.0    0.07    1.02    1.43    72.52241    36.14124     0.25631
   291  H   1.0    0.05    1.03    1.43    72.71313    33.25219    -1.40428
   292  H   1.0    0.06    1.04    1.43    72.43150    36.71796    -5.34363
   293  H   1.0    0.05    1.03    1.43    74.15463    38.44599    -3.09498
   294  H   1.0    0.05    1.02    1.43    77.33077    34.96826    -2.89459
   295  H   1.0    0.05    1.03    1.43    75.48550    33.19599    -5.04954
   296  H   1.0    0.05    1.02    1.43    75.97825    36.65493    -8.26706
   297  H   1.0    0.05    1.02    1.43    78.02753    38.26198    -6.16308
   298  H   1.0    0.07    1.02    1.43    80.43539    35.78685    -9.10057
   299  H   1.0    0.06    1.02    1.43    80.74686    34.51812    -6.21525
   300  H   1.0    0.07    1.02    1.43    78.86016    33.15429    -8.34000
   301  H   1.0    0.10    1.07    1.44    84.19331    30.48939    16.37427
   302  H   1.0    0.07    1.04    1.43    81.52813    52.13304   -21.32051
   303  H   1.0    0.10    1.07    1.44    68.76740    41.21123   -21.99007
   304  H   1.0    0.07    1.04    1.43    64.19285    39.51827   -16.32009
   305  H   1.0    0.11    1.07    1.44    61.16625    39.70907   -10.67242
   306  H   1.0    0.07    1.04    1.43    66.32556    32.64419    -0.77680

  Z AO/shell   Hii/eV     exponent
  1     Wed Apr 25 08:07:45 CEST 2018   EN: 2.200 GM2: 0.406  GM3: 0.0800  RAES: 1.40
     1s    -10.707211    1.230000
  6     Wed Apr 25 08:07:45 CEST 2018   EN: 2.550 GM2: 0.538  GM3: 0.1500  RAES: 3.00
     2s    -13.970922    2.096432
     2p    -10.063292    1.800000
  7     Wed Apr 25 08:07:45 CEST 2018   EN: 3.040 GM2: 0.461  GM3:-0.0640  RAES: 1.90
     2s    -16.686243    2.339881
     2p    -12.523956    2.014332
  8     Wed Apr 25 08:07:45 CEST 2018   EN: 3.440 GM2: 0.452  GM3:-0.0517  RAES: 1.80
     2s    -20.229985    2.439742
     2p    -15.503117    2.137023
 16     Tue Apr 24 11:44:34 CEST 2018   EN: 2.580 GM2: 0.340  GM3:-0.0502  RAES: 3.10
     3s    -20.029654    1.981333
     3p    -11.377694    2.025643
     3d     -0.420282    1.702555
 no old-style atom pair restraining (fixing) potential

molecular fragmentation (1/2 indicates fragments):
111111111111111111111111111111111111111111111111111111111111111111111111
111111111111111111111111111111111111111111111111111111111111111111111111
111111111111111111111111111111111111111111111111111111111111111111111111
111111111111111111222222222222222222222222222222222222222222222222222222
222222222222112222
# atoms in fragment 1/2:   236    70
 fragment masses (1/2) :     1540.00      445.56
CMA distance (Bohr)    :  18.889
constraining FC (au)   :  0.0500
           ------------------------------------------------- 
          |        Self-Consistent Charge Iterations        |
           ------------------------------------------------- 

 Ncao       : 729
 Nao        : 728
 Nshell     : 446
 Nel        : 786
 T(el)      :   500.0
 intcut     :    35.0
 scfconv/Eh :  0.100E-06
   qconv/e  :  0.100E-04
 intneglect :  0.100E-08
 broydamp   :      0.400
 iter      E             dE          RMSdq      gap      omega  full diag
   1   -445.2166791 -0.445217E+03  0.432E+00    2.97       0.0  T
   2   -446.1285539 -0.911875E+00  0.210E+00    1.34       1.0  T
   3   -446.1817027 -0.531488E-01  0.117E+00    1.52       1.0  T
   4   -446.2510985 -0.693958E-01  0.249E-01    1.01       1.0  T
   5   -446.2552417 -0.414325E-02  0.116E-01    1.15       1.0  T
   6   -446.2559895 -0.747755E-03  0.515E-02    1.15       1.0  T
   7   -446.2562290 -0.239559E-03  0.221E-02    1.16       1.0  T
   8   -446.2562548 -0.258045E-04  0.110E-02    1.16       1.0  T
   9   -446.2562615 -0.666568E-05  0.492E-03    1.16       1.2  T
  10   -446.2562627 -0.122917E-05  0.256E-03    1.16       2.2  T
  11   -446.2562631 -0.324966E-06  0.109E-03    1.16       5.2  T
  12   -446.2562631 -0.616920E-07  0.485E-04    1.16      11.8  T
  13   -446.2562631 -0.173291E-07  0.228E-04    1.16      25.1  T
  14   -446.2562631 -0.154921E-08  0.953E-05    1.16      60.0  T
  15   -446.2562631 -0.477314E-09  0.372E-05    1.16     153.6  T
speedup  1.82
cpu  time for SCC    3.69 s
wall time for SCC    2.03 s

   *** convergence criteria satisfied after 15 iterations ***

          eigenvalues
 #    :         381        382        383        384        385        386        387        388
 occ. :        2.000      2.000      2.000      2.000      2.000      2.000      2.000      2.000
 eps  :       -10.851    -10.846    -10.826    -10.785    -10.743    -10.597    -10.516    -10.447
 #    :         389        390        391        392        393        394        395        396
 occ. :        2.000      2.000      2.000      2.000      2.000      0.000      0.000      0.000
 eps  :       -10.209    -10.121    -10.026     -9.574     -9.306     -8.149     -8.007     -7.740
 #    :         397        398        399        400        401        402        403        404
 occ. :        0.000      0.000      0.000      0.000      0.000      0.000      0.000      0.000
 eps  :        -6.957     -6.554     -6.532     -6.490     -6.476     -6.469     -6.399     -6.338


   #   Z            q   n(s)   n(p)   n(d)      C6AA      α(0)
   1   7 N     -0.397  1.309  4.089  0.000    30.296     8.175
   2   6 C      0.033  1.059  2.908  0.000    20.034     6.376
   3   6 C      0.259  1.057  2.684  0.000    22.638     7.792
   4   8 O     -0.479  1.746  4.733  0.000    23.328     6.476
   5   6 C     -0.074  1.056  3.018  0.000    21.885     6.656
   6   6 C      0.007  1.083  2.910  0.000    27.869     8.660
   7   6 C     -0.036  1.081  2.955  0.000    28.906     8.817
   8   6 C     -0.048  1.085  2.963  0.000    29.193     8.860
   9   6 C     -0.031  1.084  2.947  0.000    28.762     8.795
  10   6 C     -0.053  1.085  2.968  0.000    29.314     8.878
  11   6 C     -0.058  1.082  2.976  0.000    29.445     8.898
  12   1 H      0.167  0.833  0.000  0.000     1.292     1.781
  13   1 H      0.043  0.957  0.000  0.000     2.410     2.428
  14   1 H      0.048  0.952  0.000  0.000     2.345     2.395
  15   1 H      0.052  0.948  0.000  0.000     2.290     2.367
  16   1 H      0.031  0.969  0.000  0.000     2.574     2.509
  17   1 H      0.055  0.945  0.000  0.000     2.252     2.347
  18   1 H      0.039  0.961  0.000  0.000     2.465     2.455
  19   1 H      0.071  0.929  0.000  0.000     2.075     2.252
  20   1 H      0.061  0.939  0.000  0.000     2.189     2.313
  21   7 N     -0.166  1.261  3.905  0.000    24.590     7.365
  22   6 C      0.003  1.072  2.925  0.000    20.533     6.451
  23   6 C      0.282  1.046  2.672  0.000    22.232     7.722
  24   8 O     -0.486  1.740  4.746  0.000    23.477     6.496
  25   6 C     -0.030  1.069  2.961  0.000    21.073     6.530
  26   6 C     -0.061  1.048  3.013  0.000    21.663     6.626
  27   6 C     -0.122  1.035  3.087  0.000    22.901     6.823
  28   6 C     -0.114  1.035  3.078  0.000    22.734     6.799
  29   1 H      0.216  0.784  0.000  0.000     1.028     1.589
  30   1 H      0.090  0.910  0.000  0.000     1.875     2.141
  31   1 H      0.073  0.927  0.000  0.000     2.049     2.239
  32   1 H      0.026  0.974  0.000  0.000     2.650     2.546
  33   1 H      0.054  0.946  0.000  0.000     2.271     2.357
  34   1 H      0.065  0.935  0.000  0.000     2.139     2.287
  35   1 H      0.051  0.949  0.000  0.000     2.310     2.377
  36   1 H      0.038  0.962  0.000  0.000     2.475     2.460
  37   1 H      0.039  0.961  0.000  0.000     2.459     2.452
  38   1 H      0.046  0.954  0.000  0.000     2.368     2.407
  39   1 H      0.040  0.960  0.000  0.000     2.452     2.449
  40   7 N     -0.188  1.245  3.944  0.000    25.080     7.438
  41   6 C      0.030  1.060  2.910  0.000    20.066     6.376
  42   6 C      0.282  1.044  2.674  0.000    22.221     7.720
  43   8 O     -0.486  1.751  4.735  0.000    23.484     6.497
  44   6 C     -0.081  1.059  3.022  0.000    22.029     6.681
  45   6 C      0.006  1.082  2.912  0.000    27.878     8.661
  46   6 C     -0.040  1.080  2.960  0.000    28.991     8.830
  47   6 C     -0.034  1.078  2.956  0.000    28.848     8.809
  48   6 C     -0.035  1.080  2.954  0.000    28.860     8.810
  49   6 C     -0.032  1.075  2.957  0.000    28.799     8.800
  50   6 C     -0.037  1.081  2.956  0.000    28.918     8.819
  51   1 H      0.207  0.793  0.000  0.000     1.072     1.622
  52   1 H      0.071  0.929  0.000  0.000     2.072     2.251
  53   1 H      0.066  0.934  0.000  0.000     2.133     2.284
  54   1 H      0.058  0.942  0.000  0.000     2.218     2.329
  55   1 H      0.037  0.963  0.000  0.000     2.492     2.468
  56   1 H      0.027  0.973  0.000  0.000     2.627     2.534
  57   1 H      0.038  0.962  0.000  0.000     2.476     2.461
  58   1 H      0.045  0.955  0.000  0.000     2.386     2.415
  59   1 H      0.048  0.952  0.000  0.000     2.342     2.393
  60   7 N     -0.180  1.246  3.934  0.000    24.903     7.412
  61   6 C      0.025  1.062  2.913  0.000    20.142     6.388
  62   6 C      0.273  1.046  2.682  0.000    22.396     7.751
  63   8 O     -0.493  1.754  4.740  0.000    23.634     6.518
  64   6 C     -0.019  1.056  2.962  0.000    20.867     6.497
  65   6 C     -0.120  1.041  3.080  0.000    22.844     6.812
  66   6 C     -0.118  1.039  3.079  0.000    22.808     6.809
  67   1 H      0.206  0.794  0.000  0.000     1.078     1.627
  68   1 H      0.066  0.934  0.000  0.000     2.134     2.284
  69   1 H      0.054  0.946  0.000  0.000     2.270     2.356
  70   1 H      0.058  0.942  0.000  0.000     2.224     2.332
  71   1 H      0.039  0.961  0.000  0.000     2.460     2.453
  72   1 H      0.048  0.952  0.000  0.000     2.345     2.394
  73   1 H      0.056  0.944  0.000  0.000     2.243     2.342
  74   1 H      0.050  0.950  0.000  0.000     2.315     2.379
  75   1 H      0.040  0.960  0.000  0.000     2.452     2.449
  76   7 N     -0.186  1.253  3.933  0.000    25.038     7.432
  77   6 C      0.021  1.065  2.914  0.000    20.221     6.401
  78   6 C      0.271  1.052  2.678  0.000    22.428     7.755
  79   8 O     -0.508  1.750  4.757  0.000    23.951     6.562
  80   6 C     -0.083  1.053  3.030  0.000    22.080     6.690
  81   6 C     -0.081  1.052  3.029  0.000    22.045     6.684
  82   6 C     -0.095  1.057  3.038  0.000    22.310     6.725
  83   6 C     -0.052  1.059  2.993  0.000    21.590     6.631
  84   7 N     -0.145  1.226  3.918  0.000    24.122     7.295
  85   1 H      0.230  0.770  0.000  0.000     0.967     1.540
  86   1 H      0.077  0.923  0.000  0.000     2.010     2.217
  87   1 H      0.068  0.932  0.000  0.000     2.104     2.268
  88   1 H      0.076  0.924  0.000  0.000     2.017     2.221
  89   1 H      0.056  0.944  0.000  0.000     2.249     2.345
  90   1 H      0.062  0.938  0.000  0.000     2.181     2.309
  91   1 H      0.083  0.917  0.000  0.000     1.948     2.182
  92   1 H      0.076  0.924  0.000  0.000     2.022     2.224
  93   1 H      0.105  0.895  0.000  0.000     1.742     2.064
  94   1 H      0.122  0.878  0.000  0.000     1.600     1.978
  95   1 H      0.297  0.703  0.000  0.000     0.723     1.332
  96   1 H      0.296  0.704  0.000  0.000     0.724     1.333
  97   1 H      0.270  0.730  0.000  0.000     0.809     1.409
  98   7 N     -0.178  1.256  3.922  0.000    24.855     7.404
  99   6 C      0.013  1.077  2.911  0.000    20.380     6.430
 100   6 C      0.284  1.044  2.672  0.000    22.198     7.716
 101   8 O     -0.506  1.747  4.759  0.000    23.913     6.556
 102   6 C     -0.019  1.070  2.949  0.000    20.888     6.501
 103   6 C     -0.066  1.054  3.012  0.000    21.766     6.642
 104   6 C     -0.115  1.038  3.077  0.000    22.755     6.802
 105   6 C     -0.112  1.038  3.075  0.000    22.713     6.797
 106   1 H      0.232  0.768  0.000  0.000     0.958     1.533
 107   1 H      0.071  0.929  0.000  0.000     2.074     2.252
 108   1 H      0.043  0.957  0.000  0.000     2.412     2.429
 109   1 H      0.045  0.955  0.000  0.000     2.379     2.412
 110   1 H      0.051  0.949  0.000  0.000     2.311     2.377
 111   1 H      0.061  0.939  0.000  0.000     2.185     2.312
 112   1 H      0.031  0.969  0.000  0.000     2.574     2.509
 113   1 H      0.049  0.951  0.000  0.000     2.329     2.386
 114   1 H      0.052  0.948  0.000  0.000     2.294     2.369
 115   1 H      0.039  0.961  0.000  0.000     2.467     2.456
 116   1 H      0.042  0.958  0.000  0.000     2.420     2.433
 117   7 N     -0.175  1.242  3.933  0.000    24.788     7.394
 118   6 C      0.034  1.051  2.915  0.000    19.999     6.367
 119   6 C      0.274  1.045  2.681  0.000    22.376     7.746
 120   8 O     -0.501  1.748  4.754  0.000    23.817     6.543
 121   6 C     -0.121  1.041  3.080  0.000    22.862     6.816
 122   1 H      0.210  0.790  0.000  0.000     1.058     1.612
 123   1 H      0.071  0.929  0.000  0.000     2.075     2.253
 124   1 H      0.075  0.925  0.000  0.000     2.035     2.231
 125   1 H      0.069  0.931  0.000  0.000     2.093     2.262
 126   1 H      0.059  0.941  0.000  0.000     2.208     2.324
 127   7 N     -0.187  1.252  3.936  0.000    25.058     7.435
 128   6 C      0.026  1.060  2.913  0.000    20.148     6.393
 129   6 C      0.270  1.048  2.682  0.000    22.438     7.757
 130   8 O     -0.490  1.762  4.728  0.000    23.559     6.508
 131   6 C     -0.110  1.069  3.041  0.000    22.603     6.769
 132   6 C      0.289  1.041  2.669  0.000    22.092     7.695
 133   8 O     -0.472  1.745  4.728  0.000    23.180     6.455
 134   7 N     -0.285  1.261  4.023  0.000    27.348     7.767
 135   1 H      0.227  0.773  0.000  0.000     0.980     1.551
 136   1 H      0.086  0.914  0.000  0.000     1.915     2.164
 137   1 H      0.100  0.900  0.000  0.000     1.781     2.087
 138   1 H      0.069  0.931  0.000  0.000     2.094     2.263
 139   1 H      0.233  0.767  0.000  0.000     0.951     1.527
 140   1 H      0.222  0.778  0.000  0.000     1.000     1.566
 141   7 N     -0.180  1.246  3.934  0.000    24.897     7.411
 142   6 C      0.007  1.076  2.916  0.000    20.460     6.440
 143   6 C      0.278  1.046  2.676  0.000    22.300     7.732
 144   8 O     -0.480  1.754  4.726  0.000    23.341     6.477
 145   6 C      0.106  1.052  2.842  0.000    18.941     6.216
 146   8 O     -0.477  1.725  4.751  0.000    22.393     6.388
 147   6 C     -0.138  1.045  3.093  0.000    23.212     6.870
 148   1 H      0.222  0.778  0.000  0.000     0.999     1.566
 149   1 H      0.071  0.929  0.000  0.000     2.075     2.253
 150   1 H      0.056  0.944  0.000  0.000     2.252     2.347
 151   1 H      0.343  0.657  0.000  0.000     0.604     1.220
 152   1 H      0.082  0.918  0.000  0.000     1.961     2.190
 153   1 H      0.055  0.945  0.000  0.000     2.256     2.349
 154   1 H      0.052  0.948  0.000  0.000     2.291     2.367
 155   7 N     -0.185  1.250  3.935  0.000    25.004     7.427
 156   6 C      0.018  1.065  2.917  0.000    20.286     6.415
 157   6 C      0.270  1.045  2.685  0.000    22.433     7.756
 158   8 O     -0.458  1.734  4.723  0.000    22.868     6.411
 159   6 C     -0.085  1.057  3.027  0.000    22.103     6.691
 160   6 C     -0.014  1.056  2.958  0.000    20.792     6.486
 161   6 C     -0.118  1.042  3.076  0.000    22.808     6.809
 162   6 C     -0.135  1.047  3.088  0.000    23.148     6.860
 163   1 H      0.201  0.799  0.000  0.000     1.100     1.643
 164   1 H      0.073  0.927  0.000  0.000     2.056     2.242
 165   1 H      0.066  0.934  0.000  0.000     2.129     2.282
 166   1 H      0.083  0.917  0.000  0.000     1.947     2.182
 167   1 H      0.026  0.974  0.000  0.000     2.645     2.544
 168   1 H      0.046  0.954  0.000  0.000     2.371     2.408
 169   1 H      0.033  0.967  0.000  0.000     2.538     2.491
 170   1 H      0.048  0.952  0.000  0.000     2.345     2.395
 171   1 H      0.059  0.941  0.000  0.000     2.209     2.324
 172   1 H      0.061  0.939  0.000  0.000     2.183     2.310
 173   1 H      0.044  0.956  0.000  0.000     2.399     2.422
 174   7 N     -0.184  1.253  3.931  0.000    24.984     7.424
 175   6 C      0.020  1.065  2.915  0.000    20.253     6.409
 176   6 C      0.272  1.050  2.679  0.000    22.410     7.752
 177   8 O     -0.492  1.765  4.728  0.000    23.616     6.515
 178   6 C     -0.038  1.042  2.997  0.000    21.189     6.541
 179   6 C     -0.002  1.054  2.948  0.000    20.619     6.465
 180  16 S     -0.255  1.922  4.276  0.057   152.024    20.752
 181   6 C     -0.059  1.057  3.002  0.000    21.710     6.647
 182   1 H      0.198  0.802  0.000  0.000     1.117     1.655
 183   1 H      0.073  0.927  0.000  0.000     2.058     2.243
 184   1 H      0.037  0.963  0.000  0.000     2.492     2.469
 185   1 H      0.044  0.956  0.000  0.000     2.398     2.422
 186   1 H      0.059  0.941  0.000  0.000     2.211     2.325
 187   1 H      0.052  0.948  0.000  0.000     2.290     2.367
 188   1 H      0.070  0.930  0.000  0.000     2.083     2.257
 189   1 H      0.052  0.948  0.000  0.000     2.293     2.368
 190   1 H      0.078  0.922  0.000  0.000     2.000     2.212
 191   7 N     -0.168  1.248  3.920  0.000    24.633     7.371
 192   6 C      0.005  1.079  2.917  0.000    20.511     6.450
 193   6 C      0.272  1.048  2.680  0.000    22.404     7.750
 194   8 O     -0.465  1.749  4.716  0.000    23.021     6.433
 195   6 C     -0.078  1.060  3.018  0.000    21.988     6.677
 196   6 C     -0.079  1.054  3.025  0.000    21.999     6.676
 197   6 C     -0.091  1.054  3.037  0.000    22.241     6.715
 198   6 C     -0.052  1.063  2.989  0.000    21.595     6.631
 199   7 N     -0.140  1.227  3.913  0.000    24.031     7.281
 200   1 H      0.220  0.780  0.000  0.000     1.010     1.575
 201   1 H      0.078  0.922  0.000  0.000     1.999     2.211
 202   1 H      0.080  0.920  0.000  0.000     1.979     2.200
 203   1 H      0.067  0.933  0.000  0.000     2.120     2.277
 204   1 H      0.057  0.943  0.000  0.000     2.233     2.337
 205   1 H      0.053  0.947  0.000  0.000     2.287     2.365
 206   1 H      0.086  0.914  0.000  0.000     1.917     2.165
 207   1 H      0.085  0.915  0.000  0.000     1.929     2.172
 208   1 H      0.115  0.885  0.000  0.000     1.650     2.009
 209   1 H      0.108  0.892  0.000  0.000     1.711     2.046
 210   1 H      0.299  0.701  0.000  0.000     0.716     1.325
 211   1 H      0.297  0.703  0.000  0.000     0.723     1.332
 212   1 H      0.300  0.700  0.000  0.000     0.713     1.323
 213   7 N     -0.187  1.262  3.925  0.000    25.044     7.432
 214   6 C      0.023  1.068  2.910  0.000    20.209     6.403
 215   6 C      0.196  1.093  2.711  0.000    23.816     7.992
 216   8 O     -0.354  1.760  4.594  0.000    20.785     6.112
 217   6 C     -0.066  1.056  3.010  0.000    21.758     6.641
 218   6 C     -0.071  1.051  3.020  0.000    21.858     6.657
 219   6 C     -0.100  1.055  3.044  0.000    22.395     6.737
 220   6 C     -0.044  1.060  2.983  0.000    21.458     6.613
 221   7 N     -0.146  1.234  3.912  0.000    24.149     7.299
 222   1 H      0.208  0.792  0.000  0.000     1.065     1.617
 223   1 H      0.091  0.909  0.000  0.000     1.869     2.138
 224   1 H      0.063  0.937  0.000  0.000     2.159     2.298
 225   1 H      0.050  0.950  0.000  0.000     2.315     2.380
 226   1 H      0.055  0.945  0.000  0.000     2.255     2.348
 227   1 H      0.059  0.941  0.000  0.000     2.205     2.322
 228   1 H      0.071  0.929  0.000  0.000     2.073     2.252
 229   1 H      0.091  0.909  0.000  0.000     1.866     2.136
 230   1 H      0.101  0.899  0.000  0.000     1.776     2.084
 231   1 H      0.124  0.876  0.000  0.000     1.581     1.966
 232   1 H      0.307  0.693  0.000  0.000     0.692     1.303
 233   1 H      0.305  0.695  0.000  0.000     0.698     1.309
 234   1 H      0.283  0.717  0.000  0.000     0.767     1.372
 235   7 N     -0.380  1.324  4.056  0.000    29.816     8.110
 236   6 C      0.032  1.062  2.906  0.000    20.058     6.380
 237   6 C      0.209  1.084  2.706  0.000    23.566     7.951
 238   8 O     -0.377  1.760  4.618  0.000    21.230     6.178
 239   6 C     -0.058  1.059  2.999  0.000    21.613     6.619
 240   6 C     -0.090  1.066  3.024  0.000    22.222     6.713
 241   6 C      0.364  1.030  2.606  0.000    20.824     7.468
 242   8 O     -0.609  1.742  4.867  0.000    26.338     6.881
 243   8 O     -0.652  1.786  4.867  0.000    27.443     7.024
 244   1 H      0.157  0.843  0.000  0.000     1.355     1.823
 245   1 H      0.059  0.941  0.000  0.000     2.206     2.323
 246   1 H      0.066  0.934  0.000  0.000     2.129     2.282
 247   1 H      0.033  0.967  0.000  0.000     2.540     2.493
 248   1 H      0.003  0.997  0.000  0.000     3.005     2.711
 249   1 H     -0.005  1.005  0.000  0.000     3.137     2.770
 250   7 N     -0.389  1.339  4.050  0.000    30.078     8.145
 251   6 C      0.030  1.067  2.903  0.000    20.094     6.387
 252   6 C      0.268  1.057  2.675  0.000    22.473     7.762
 253   8 O     -0.497  1.757  4.740  0.000    23.715     6.529
 254   6 C     -0.118  1.043  3.075  0.000    22.810     6.809
 255   1 H      0.141  0.859  0.000  0.000     1.461     1.894
 256   1 H      0.041  0.959  0.000  0.000     2.436     2.441
 257   1 H      0.052  0.948  0.000  0.000     2.294     2.368
 258   1 H      0.069  0.931  0.000  0.000     2.098     2.265
 259   1 H      0.053  0.947  0.000  0.000     2.279     2.361
 260   7 N     -0.182  1.246  3.936  0.000    24.953     7.419
 261   6 C      0.020  1.075  2.905  0.000    20.273     6.416
 262   6 C      0.266  1.059  2.675  0.000    22.506     7.767
 263   8 O     -0.471  1.743  4.728  0.000    23.154     6.452
 264   6 C     -0.077  1.063  3.014  0.000    21.967     6.672
 265   6 C     -0.002  1.055  2.947  0.000    20.579     6.453
 266   6 C     -0.118  1.045  3.074  0.000    22.821     6.811
 267   6 C     -0.107  1.038  3.070  0.000    22.610     6.780
 268   1 H      0.194  0.806  0.000  0.000     1.137     1.671
 269   1 H      0.073  0.927  0.000  0.000     2.049     2.239
 270   1 H      0.053  0.947  0.000  0.000     2.285     2.364
 271   1 H      0.056  0.944  0.000  0.000     2.250     2.346
 272   1 H      0.027  0.973  0.000  0.000     2.631     2.536
 273   1 H      0.041  0.959  0.000  0.000     2.442     2.444
 274   1 H      0.044  0.956  0.000  0.000     2.402     2.424
 275   1 H      0.046  0.954  0.000  0.000     2.365     2.405
 276   1 H      0.033  0.967  0.000  0.000     2.545     2.495
 277   1 H      0.034  0.966  0.000  0.000     2.536     2.491
 278   1 H      0.039  0.961  0.000  0.000     2.461     2.453
 279   7 N     -0.160  1.238  3.922  0.000    24.465     7.346
 280   6 C      0.017  1.073  2.910  0.000    20.310     6.420
 281   6 C      0.199  1.090  2.712  0.000    23.769     7.984
 282   8 O     -0.336  1.748  4.589  0.000    20.450     6.063
 283   6 C     -0.076  1.055  3.021  0.000    21.955     6.671
 284   6 C     -0.075  1.052  3.023  0.000    21.937     6.668
 285   6 C     -0.094  1.057  3.037  0.000    22.288     6.722
 286   6 C     -0.048  1.061  2.987  0.000    21.532     6.624
 287   7 N     -0.149  1.231  3.918  0.000    24.214     7.308
 288   1 H      0.200  0.800  0.000  0.000     1.107     1.648
 289   1 H      0.092  0.908  0.000  0.000     1.856     2.131
 290   1 H      0.075  0.925  0.000  0.000     2.033     2.230
 291   1 H      0.073  0.927  0.000  0.000     2.049     2.239
 292   1 H      0.055  0.945  0.000  0.000     2.262     2.352
 293   1 H      0.052  0.948  0.000  0.000     2.298     2.371
 294   1 H      0.080  0.920  0.000  0.000     1.980     2.201
 295   1 H      0.083  0.917  0.000  0.000     1.953     2.185
 296   1 H      0.114  0.886  0.000  0.000     1.666     2.019
 297   1 H      0.107  0.893  0.000  0.000     1.720     2.051
 298   1 H      0.306  0.694  0.000  0.000     0.696     1.307
 299   1 H      0.300  0.700  0.000  0.000     0.714     1.324
 300   1 H      0.302  0.698  0.000  0.000     0.709     1.319
 301   1 H      0.176  0.824  0.000  0.000     1.236     1.741
 302   1 H      0.095  0.905  0.000  0.000     1.832     2.116
 303   1 H      0.196  0.804  0.000  0.000     1.125     1.662
 304   1 H      0.060  0.940  0.000  0.000     2.194     2.316
 305   1 H      0.189  0.811  0.000  0.000     1.162     1.688
 306   1 H      0.079  0.921  0.000  0.000     1.984     2.202

 Mol. C6AA /au·bohr⁶  :     817245.709470
 Mol. C8AA /au·bohr⁸  :   18326113.431990
 Mol. α(0) /au        :       1357.448818

 
molecular dipole:
                 x           y           z       tot (Debye)
 q only:      261.253     129.984      15.942
   full:      261.108     128.933      18.033     741.607
molecular quadrupole (traceless):
                xx          xy          yy          xz          yz          zz
 q only:    18959.402   17236.631   -5725.987    1890.671    1005.040  -13233.415
  q+dip:    18985.057   17078.992   -5803.124    2145.963    1098.957  -13181.933
   full:    18982.022   17079.937   -5799.401    2143.860    1100.788  -13182.621
speedup  1.85
cpu  time for grad    4.64 s
wall time for grad    2.50 s

SCC energy    :    -446.2741402
rep           :       5.4931744
ES            :       1.5617761
AES           :      -0.0838567
AXC           :       0.1769067
disp          :      -0.3571953
XB            :       0.0000000
fix           :       0.0000000
Gborn         :       0.0000000
Gsasa         :       0.0000000
Ghb           :       0.0000000
Gshift        :       0.0000000
Gsolv         :      -0.6658288     -417.81
Etot ala COSMO:    -446.2741402
grad norm     :       0.4031120
total E       :    -440.7558229
atomizationE  :      82.9694794    52064.13
(atE without considering molecular charge,
 total energy contains solvation terms)
H-L gap (eV)  :          1.1575

------------------------------------------------------------------------
 * finished run on 2019/05/10 at 02:12:32.886     
------------------------------------------------------------------------
 total:
 * wall-time:     0 d,  0 h,  0 min,  2.811 sec
 *  cpu-time:     0 d,  0 h,  0 min,  5.139 sec
 * ratio c/w:     1.828 speedup
 SCF:
 * wall-time:     0 d,  0 h,  0 min,  2.669 sec
 *  cpu-time:     0 d,  0 h,  0 min,  4.972 sec
 * ratio c/w:     1.863 speedup

