      -----------------------------------------------------------      
     |                   =====================                   |     
     |                           x T B                           |     
     |                   =====================                   |     
     |                         S. Grimme                         |     
     |          Mulliken Center for Theoretical Chemistry        |     
     |                    University of Bonn                     |     
     |                 Version 6.0.1 (SAW181210)                 |     
      -----------------------------------------------------------      

   This program is distributed in the hope that it will be useful,
   but WITHOUT ANY WARRANTY; without even the implied warranty of
   MERCHANTABILITY or FITNESS FOR A PARTICULAR PURPOSE.
   
   FOR NON-COMMERCIAL, ACADEMIA USE ONLY.
   
   Cite this work as:
   S. Grimme, C. Bannwarth, P. Shushkov, J. Comput. Theory Chem., 2017,
   13, 1989-2009.
   C. Bannwarth, S. Ehlert and S. Grimme., ChemRxiv, 2018, preprint.
   http://doi.org/10.26434/chemrxiv.7246238.v1
   
   for sTDA-xTB:
   S. Grimme and C. Bannwarth, J. Chem. Phys., 2016, 145, 054103.
   
   in the mass-spec context:
   V. Asgeirsson, C. Bauer and S. Grimme, Chem. Sci., 2017, 8, 4879.
   
   if GBSA is used:
   P. Shushkov, F. März and S. Grimme, unpublished.
   
   for ANC optimizer:
   S. Grimme, unpublished.
   Rational Function algorithm used in ANCopt:
   F. Eckert, P. Pulay, H.-J. Werner, J. Comput. Chem., 1997, 18, 1473.
   
   with help from (in alphabetical order)
   C. Bannwarth, F. Bohle, G. Brandenburg, E. Caldeweyher, M. Checinski,
   S. Dohm, S. Ehlert, S. Ehrlich, F. März, H. Neugebauer, J. Pisarek,
   P. Pracht, P. Shushkov, and S. Spicher.
   
 * started run on 2019/05/04 at 18:57:45.834     
========================================================================
 # omp threads = 2
========================================================================
number of atoms            : 411
number of electrons        : 1114
charge                     : -2
spin                       : .0
first test random number   : .4325

########################################################################
# WARNING! Please study the warnings concerning your input carefully
#  - Process number higher than OMP_NUM_THREADS, I hope you know what you are doing.
########################################################################

           ------------------------------------------------- 
          |                 G F N 2 - x T B                 |
          | Geometry, Frequencies, Noncovalent interactions |
          |            JCTC 2018 parametrisation            |
           ------------------------------------------------- 
 
      method parameters     
 k(s)        :  1.8500
 k(p)        :  2.2300
 k(d)        :  2.2300
 k(f)        :  2.0000
 kEN (H0ij)  : -2.0000
 D4 a1       :  0.5200
 D4 a2       :  5.0000
 D4 s6       :  1.0000
 D4 s8       :  2.7000
 D4 s9       :  5.0000
 alphaj      :  2.0000

 Solvent             : h2o
 Using internal parameter file: .param_gbsa2_h2o
 Gsolv ref. state (COSMO-RS): gsolv [1 M gas/solution]
 temperature (mdtemp)       :    298.150000000000     
 dielectric constant        :    80.2000000000000     
 rho                        :    1.00000000000000     
 mass                       :    18.0000000000000     
 surface tension            :    15.5689454083859     
 probe radius               :   0.975313790000000     
 vdW radii scaling          :    1.00000000000000     
 Gshift (Eh)                :   1.857443126794793E-003
 c1                         :    1.55243817000000     
 soset                      :   0.130326360000000     
 HB correction              :  T

            Z     q(EN)     CN     RAES       Cart. coordinates
     1  N   5.0   -0.21    3.22    1.96    79.17196   117.90756   -32.15558
     2  C   4.0    0.03    4.39    4.36    81.37160   118.90345   -33.44815
     3  C   4.0    0.15    3.44    3.09    83.76966   118.20236   -32.05920
     4  O   6.0   -0.30    1.27    1.80    85.51388   117.12521   -33.15713
     5  C   4.0   -0.05    4.39    4.37    81.22420   121.76638   -33.73161
     6  C   4.0   -0.03    4.21    4.02    79.92407   122.73581   -36.12211
     7  C   4.0   -0.08    4.12    3.84    81.28845   125.05639   -37.13689
     8  C   4.0   -0.08    4.32    4.24    79.88627   120.71191   -38.09876
     9  H   1.0    0.07    1.03    1.43    78.08348   119.23415   -31.27874
    10  H   1.0    0.04    1.10    1.44    81.40561   118.08708   -35.33976
    11  H   1.0    0.03    1.03    1.43    80.18107   122.51849   -32.12156
    12  H   1.0    0.05    1.05    1.44    83.14416   122.51093   -33.73728
    13  H   1.0    0.03    1.06    1.44    77.98521   123.26115   -35.66669
    14  H   1.0    0.04    1.00    1.43    80.32658   125.70835   -38.83765
    15  H   1.0    0.04    1.00    1.43    81.25822   126.53416   -35.70259
    16  H   1.0    0.04    1.01    1.43    83.23487   124.54995   -37.58098
    17  H   1.0    0.04    1.03    1.43    78.95275   121.43946   -39.78440
    18  H   1.0    0.04    1.01    1.43    81.82324   120.17334   -38.54474
    19  H   1.0    0.05    1.04    1.43    78.85448   119.08486   -37.37122
    20  N   5.0   -0.15    3.45    2.05    83.85470   118.81085   -29.62901
    21  C   4.0    0.04    4.39    4.37    86.12048   118.31007   -28.16826
    22  C   4.0    0.08    3.22    3.04    86.44173   115.45281   -27.73929
    23  O   6.0   -0.31    1.15    1.80    88.56390   114.52873   -27.45961
    24  C   4.0   -0.03    4.29    4.19    86.19796   119.92390   -25.70594
    25  C   4.0   -0.05    4.17    3.93    88.94184   120.40956   -24.89336
    26  C   4.0   -0.08    4.08    3.77    84.51799   118.80518   -23.61968
    27  C   4.0   -0.08    4.00    3.62    89.36514   122.94935   -23.59701
    28  H   1.0    0.07    1.06    1.44    82.41851   119.63288   -28.64069
    29  H   1.0    0.07    1.07    1.44    87.76076   118.92423   -29.25296
    30  H   1.0    0.04    1.07    1.44    85.37782   121.77016   -26.10467
    31  H   1.0    0.04    1.03    1.43    89.50687   118.93368   -23.57244
    32  H   1.0    0.05    1.03    1.43    90.14182   120.35665   -26.56577
    33  H   1.0    0.03    1.00    1.43    84.64083   120.00138   -21.94728
    34  H   1.0    0.03    1.00    1.43    82.57158   118.73337   -24.29243
    35  H   1.0    0.04    1.00    1.43    85.17751   116.90601   -23.17371
    36  H   1.0    0.04    1.00    1.43    91.35502   123.12131   -23.09245
    37  H   1.0    0.04    1.00    1.43    88.83602   124.46113   -24.89336
    38  H   1.0    0.03    1.00    1.43    88.19918   123.03817   -21.90003
    39  N   5.0   -0.20    3.28    1.98    84.91673   111.01384   -31.96471
    40  C   4.0    0.04    4.35    4.29    86.25087   110.27118   -34.23994
    41  C   4.0    0.15    3.48    3.10    88.58657   111.94359   -34.47616
    42  O   6.0   -0.33    1.42    1.80    89.34624   112.65979   -36.54919
    43  C   4.0   -0.03    4.30    4.19    84.53689   110.51117   -36.56053
    44  C   4.0    0.24    3.12    3.03    82.38260   108.59499   -36.56809
    45  O   6.0   -0.30    1.20    1.80    82.28434   106.96416   -34.86166
    46  O   6.0   -0.30    1.17    1.80    80.77823   108.71593   -38.30097
    47  H   1.0    0.09    1.03    1.43    83.55234   112.34421   -32.25006
    48  H   1.0    0.05    1.06    1.44    86.79133   108.28508   -34.17947
    49  H   1.0    0.05    1.03    1.43    83.70919   112.39712   -36.59076
    50  H   1.0    0.05    1.03    1.43    85.66317   110.20882   -38.25939
    51  N   5.0   -0.13    3.42    2.03    89.67506   112.58231   -32.29920
    52  C   4.0    0.02    4.25    4.10    92.00698   114.03740   -32.13479
    53  C   4.0    0.16    3.33    3.06    91.86903   116.68302   -33.23650
    54  O   6.0   -0.28    1.25    1.80    93.14648   118.44613   -32.30675
    55  H   1.0    0.10    1.08    1.44    88.96641   112.10610   -30.57199
    56  H   1.0    0.06    1.03    1.43    92.53610   114.21315   -30.15247
    57  H   1.0    0.04    1.03    1.43    93.49041   113.01884   -33.13634
    58  N   5.0   -0.11    3.55    2.11    90.29866   116.94947   -35.20559
    59  C   4.0    0.04    4.49    4.53    90.20418   119.24549   -36.72682
    60  C   4.0    0.16    3.52    3.12    90.73708   121.63788   -35.21315
    61  O   6.0   -0.28    1.23    1.80    89.57301   122.09330   -33.24406
    62  C   4.0   -0.02    4.35    4.30    87.64927   119.45714   -38.14034
    63  C   4.0   -0.05    4.23    4.06    87.64738   117.76583   -40.47604
    64  C   4.0   -0.07    4.19    3.97    87.07479   122.14811   -38.90946
    65  C   4.0   -0.07    4.03    3.67    85.81812   115.61343   -40.33620
    66  H   1.0    0.12    1.21    1.47    89.06278   115.58887   -35.78952
    67  H   1.0    0.04    1.07    1.44    91.74997   119.10187   -38.07987
    68  H   1.0    0.06    1.08    1.44    86.18473   118.83542   -36.83076
    69  H   1.0    0.03    1.06    1.44    87.14849   118.90723   -42.11632
    70  H   1.0    0.04    1.04    1.43    89.53144   116.97215   -40.71793
    71  H   1.0    0.03    1.00    1.43    85.26632   122.19346   -39.89211
    72  H   1.0    0.06    1.01    1.43    86.98598   123.32352   -37.22004
    73  H   1.0    0.04    1.02    1.43    88.56957   122.82274   -40.15668
    74  H   1.0    0.04    1.00    1.43    85.94285   114.51361   -42.07286
    75  H   1.0    0.06    1.02    1.43    86.29623   114.43047   -38.71859
    76  H   1.0    0.04    1.00    1.43    83.91328   116.36554   -40.11699
    77  N   5.0   -0.14    3.45    2.05    92.55689   123.11187   -36.13912
    78  C   4.0    0.04    4.42    4.41    93.05955   125.64977   -35.18292
    79  C   4.0    0.15    3.50    3.12    90.94873   127.43745   -36.03896
    80  O   6.0   -0.30    1.27    1.80    89.87159   127.08218   -38.07987
    81  C   4.0   -0.03    4.27    4.14    95.61824   126.60975   -36.13912
    82  C   4.0    0.24    3.16    3.03    96.19650   129.29316   -35.25473
    83  O   6.0   -0.30    1.18    1.80    97.23585   129.58796   -33.14579
    84  O   6.0   -0.29    1.17    1.80    95.58612   131.11108   -36.65312
    85  H   1.0    0.07    1.06    1.44    93.73419   122.59597   -37.57531
    86  H   1.0    0.05    1.06    1.44    93.12569   125.63276   -33.12501
    87  H   1.0    0.05    1.03    1.43    97.10735   125.37198   -35.43614
    88  H   1.0    0.05    1.03    1.43    95.61068   126.60408   -38.19892
    89  N   5.0   -0.09    3.65    2.21    90.34213   129.35930   -34.47994
    90  C   4.0    0.03    4.56    4.62    88.38059   131.16777   -35.18103
    91  C   4.0    0.15    3.40    3.08    88.94940   132.59073   -37.63200
    92  O   6.0   -0.29    1.26    1.80    88.37870   131.65910   -39.69747
    93  C   4.0   -0.05    4.43    4.44    88.33902   133.01025   -32.92470
    94  C   4.0   -0.04    4.30    4.20    90.78243   132.57183   -31.54708
    95  C   4.0   -0.01    4.38    4.35    91.27187   129.82606   -31.89290
    96  H   1.0    0.05    1.05    1.44    86.57590   130.18889   -35.35488
    97  H   1.0    0.05    1.05    1.44    88.21997   134.94911   -33.60878
    98  H   1.0    0.04    1.02    1.43    86.72708   132.59073   -31.71149
    99  H   1.0    0.05    1.03    1.43    92.28477   133.70756   -32.38423
   100  H   1.0    0.04    1.03    1.43    90.56890   133.04427   -29.55342
   101  H   1.0    0.06    1.04    1.43    93.28443   129.41032   -31.74551
   102  H   1.0    0.04    1.02    1.43    90.21930   128.70923   -30.51718
   103  N   5.0   -0.14    3.50    2.08    90.12670   134.79604   -37.34665
   104  C   4.0    0.04    4.38    4.35    90.40071   136.72545   -39.31575
   105  C   4.0    0.16    3.42    3.08    90.71629   135.75224   -42.02562
   106  O   6.0   -0.30    1.26    1.80    88.95318   135.88074   -43.54684
   107  C   4.0   -0.04    4.31    4.22    92.54933   138.55282   -38.60521
   108  C   4.0    0.14    3.26    3.05    92.52098   139.27847   -35.81031
   109  O   6.0   -0.30    1.21    1.80    90.58401   140.05893   -34.78419
   110  N   5.0   -0.19    3.17    1.95    94.68850   139.02336   -34.57632
   111  H   1.0    0.09    1.11    1.45    90.95440   135.33650   -35.69314
   112  H   1.0    0.05    1.07    1.44    88.60169   137.72701   -39.38000
   113  H   1.0    0.04    1.04    1.43    94.35780   137.65331   -39.01150
   114  H   1.0    0.04    1.03    1.43    92.35658   140.27814   -39.71259
   115  H   1.0    0.09    1.02    1.43    94.79243   139.47689   -32.70549
   116  H   1.0    0.08    1.03    1.43    96.25130   138.37329   -35.49850
   117  N   5.0   -0.14    3.44    2.04    92.96318   134.76959   -42.59631
   118  C   4.0    0.03    4.38    4.34    93.61513   133.82094   -45.11343
   119  C   4.0    0.16    3.46    3.10    91.41360   132.46223   -46.41545
   120  O   6.0   -0.31    1.23    1.80    90.56134   133.24647   -48.44312
   121  C   4.0   -0.05    4.26    4.12    95.91115   132.05405   -44.93390
   122  C   4.0   -0.04    4.12    3.84    96.96373   131.10163   -47.49259
   123  C   4.0    0.24    3.08    3.02    98.32244   128.50136   -47.15055
   124  O   6.0   -0.30    1.15    1.80    97.05632   126.59841   -46.37576
   125  O   6.0   -0.29    1.15    1.80   100.64869   128.34641   -47.67590
   126  H   1.0    0.08    1.06    1.44    94.40693   134.59762   -41.33209
   127  H   1.0    0.05    1.06    1.44    94.10835   135.44611   -46.27750
   128  H   1.0    0.04    1.03    1.43    97.43238   133.06316   -43.98148
   129  H   1.0    0.06    1.03    1.43    95.37069   130.39676   -43.83786
   130  H   1.0    0.05    1.02    1.43    95.41415   130.86163   -48.82863
   131  H   1.0    0.05    1.02    1.43    98.32433   132.46223   -48.22770
   132  N   5.0   -0.13    3.47    2.06    90.48575   130.46101   -45.20224
   133  C   4.0    0.03    4.43    4.43    88.64138   128.75459   -46.34364
   134  C   4.0    0.14    3.48    3.10    86.13182   130.00559   -46.95213
   135  O   6.0   -0.31    1.69    1.81    84.89027   129.36308   -48.80973
   136  C   4.0   -0.05    4.38    4.34    88.22753   126.44912   -44.65989
   137  C   4.0   -0.02    4.22    4.05    90.29866   124.46869   -44.97548
   138  C   4.0   -0.06    4.13    3.86    92.14304   124.52160   -42.77395
   139  C   4.0   -0.08    4.13    3.87    89.13081   121.87976   -45.26461
   140  H   1.0    0.09    1.06    1.44    90.97708   129.96212   -43.40701
   141  H   1.0    0.05    1.07    1.44    89.43506   128.12531   -48.13699
   142  H   1.0    0.06    1.04    1.43    88.21052   127.05006   -42.69080
   143  H   1.0    0.04    1.04    1.43    86.42662   125.57607   -45.14744
   144  H   1.0    0.05    1.07    1.44    91.37959   124.89577   -46.67623
   145  H   1.0    0.04    1.03    1.43    93.58679   123.08352   -43.07441
   146  H   1.0    0.06    1.00    1.43    93.01798   126.38487   -42.67568
   147  H   1.0    0.05    1.02    1.43    91.11692   124.13421   -41.02973
   148  H   1.0    0.04    1.01    1.43    90.63315   120.48704   -45.48759
   149  H   1.0    0.03    1.02    1.43    88.02154   121.45269   -43.58275
   150  H   1.0    0.04    1.00    1.43    87.91572   121.87410   -46.92756
   151  N   5.0   -0.13    3.56    2.12    85.38916   131.79894   -45.38177
   152  C   4.0    0.03    4.44    4.45    83.04968   133.13686   -45.81452
   153  C   4.0    0.16    3.46    3.10    83.13471   134.35574   -48.42801
   154  O   6.0   -0.31    1.22    1.80    81.28467   134.26881   -49.84152
   155  C   4.0   -0.05    4.35    4.29    82.62449   135.09651   -43.73771
   156  C   4.0   -0.02    4.22    4.03    83.39739   134.35385   -41.03162
   157  C   4.0   -0.07    4.10    3.81    82.81346   136.50813   -39.21748
   158  C   4.0   -0.07    4.10    3.80    82.13316   131.92744   -40.10376
   159  H   1.0    0.10    1.09    1.44    86.35670   132.36018   -43.81141
   160  H   1.0    0.05    1.06    1.44    81.44908   131.84429   -45.73326
   161  H   1.0    0.05    1.03    1.43    83.70352   136.78214   -44.22715
   162  H   1.0    0.03    1.03    1.43    80.61382   135.53681   -43.68668
   163  H   1.0    0.07    1.08    1.44    85.42317   133.98157   -41.05997
   164  H   1.0    0.05    1.00    1.43    83.37093   135.95255   -37.31453
   165  H   1.0    0.05    1.00    1.43    83.86793   138.17865   -39.79952
   166  H   1.0    0.05    1.00    1.43    80.79145   136.89931   -39.27039
   167  H   1.0    0.04    1.00    1.43    82.77189   131.52871   -38.18569
   168  H   1.0    0.04    1.00    1.43    80.09037   132.18633   -40.12455
   169  H   1.0    0.05    1.00    1.43    82.65850   130.37786   -41.35476
   170  N   5.0   -0.14    3.50    2.08    85.31924   135.41776   -49.07618
   171  C   4.0    0.04    4.43    4.43    85.71797   136.54026   -51.55928
   172  C   4.0    0.16    3.47    3.10    85.68395   134.56172   -53.64932
   173  O   6.0   -0.30    1.34    1.80    84.75988   135.06627   -55.72424
   174  C   4.0   -0.03    4.31    4.21    88.19918   138.02747   -51.63487
   175  C   4.0    0.15    3.21    3.04    88.29178   139.95121   -53.78727
   176  O   6.0   -0.28    1.22    1.80    87.49053   139.44288   -55.91510
   177  N   5.0   -0.19    3.17    1.95    89.30089   142.17731   -53.22980
   178  H   1.0    0.11    1.07    1.44    86.85747   135.53303   -47.91967
   179  H   1.0    0.05    1.07    1.44    84.17595   137.86118   -51.89943
   180  H   1.0    0.04    1.03    1.43    88.42217   139.04793   -49.86042
   181  H   1.0    0.06    1.03    1.43    89.76198   136.71033   -51.89187
   182  H   1.0    0.09    1.02    1.43    89.41994   143.54736   -54.58095
   183  H   1.0    0.07    1.03    1.43    89.95662   142.51935   -51.44968
   184  N   5.0   -0.14    3.50    2.08    86.67606   132.31861   -53.09185
   185  C   4.0    0.03    4.41    4.39    86.77811   130.25881   -54.93244
   186  C   4.0    0.16    3.47    3.10    84.17784   129.75236   -56.06250
   187  O   6.0   -0.31    1.21    1.80    83.93596   129.11742   -58.29805
   188  C   4.0    0.03    4.17    3.94    87.75509   127.85508   -53.68522
   189  O   6.0   -0.26    2.14    1.85    85.87860   126.81951   -52.08463
   190  H   1.0    0.10    1.08    1.44    87.42817   131.85941   -51.37787
   191  H   1.0    0.05    1.06    1.44    88.07635   130.79549   -56.43856
   192  H   1.0    0.04    1.01    1.43    88.23319   126.48125   -55.14409
   193  H   1.0    0.04    1.02    1.43    89.42561   128.30483   -52.56651
   194  H   1.0    0.17    1.38    1.53    85.13026   128.15365   -51.04150
   195  N   5.0   -0.14    3.55    2.11    82.24654   130.03960   -54.48269
   196  C   4.0    0.04    4.43    4.44    79.64817   129.76748   -55.30472
   197  C   4.0    0.15    3.39    3.07    78.38772   132.29593   -55.89809
   198  O   6.0   -0.28    1.22    1.80    76.21643   132.35641   -56.74280
   199  C   4.0   -0.04    4.42    4.42    78.14395   128.30861   -53.33751
   200  C   4.0   -0.03    4.07    3.75    78.01923   125.50426   -53.87420
   201  S   6.0   -0.03    2.53    3.10    75.36983   124.04917   -52.33029
   202  C   4.0   -0.06    3.95    3.54    73.08704   126.56440   -52.50037
   203  H   1.0    0.10    1.07    1.44    82.43363   130.46479   -52.61186
   204  H   1.0    0.06    1.07    1.44    79.61415   128.64309   -57.03004
   205  H   1.0    0.05    1.04    1.43    79.03023   128.56373   -51.49503
   206  H   1.0    0.05    1.10    1.44    76.21643   129.03427   -53.29783
   207  H   1.0    0.05    1.07    1.44    77.82836   125.20757   -55.90376
   208  H   1.0    0.04    1.08    1.44    79.74077   124.60286   -53.19012
   209  H   1.0    0.05    1.04    1.43    71.33526   125.94079   -51.61408
   210  H   1.0    0.04    1.05    1.44    73.82781   128.21035   -51.51015
   211  H   1.0    0.05    1.04    1.43    72.74689   127.02927   -54.47891
   212  N   5.0   -0.13    3.51    2.09    79.76344   134.36140   -55.46724
   213  C   4.0    0.04    4.32    4.24    78.84504   136.89175   -56.09085
   214  C   4.0    0.16    3.37    3.07    79.52156   137.70811   -58.79882
   215  O   6.0   -0.29    1.21    1.80    78.34237   139.44477   -59.84384
   216  C   4.0   -0.06    4.10    3.80    79.80313   138.81549   -54.16899
   217  H   1.0    0.11    1.13    1.45    81.52656   134.34440   -54.68678
   218  H   1.0    0.06    1.06    1.44    76.78901   136.91253   -55.95856
   219  H   1.0    0.05    1.00    1.43    79.09259   140.68065   -54.67733
   220  H   1.0    0.05    1.00    1.43    79.12094   138.29014   -52.29817
   221  H   1.0    0.06    1.01    1.43    81.86293   138.81738   -54.19167
   222  N   5.0   -0.13    3.46    2.05    81.40750   136.46278   -59.92888
   223  C   4.0    0.04    4.34    4.26    82.20119   137.08450   -62.51213
   224  C   4.0    0.15    3.37    3.07    81.39806   135.11163   -64.46800
   225  O   6.0   -0.30    1.22    1.80    81.22420   135.68421   -66.72055
   226  C   4.0   -0.06    4.09    3.79    85.04334   137.53425   -62.62552
   227  H   1.0    0.10    1.07    1.44    82.40906   135.03226   -59.11441
   228  H   1.0    0.07    1.07    1.44    81.32814   138.86273   -63.07905
   229  H   1.0    0.05    1.00    1.43    85.57246   137.99157   -64.56249
   230  H   1.0    0.06    1.00    1.43    85.52522   139.10084   -61.37830
   231  H   1.0    0.05    1.00    1.43    86.01844   135.82594   -62.01514
   232  N   5.0   -0.13    3.45    2.05    80.91995   132.79671   -63.60440
   233  C   4.0    0.04    4.31    4.22    80.11493   130.75014   -65.27869
   234  C   4.0    0.26    3.21    3.04    77.27656   130.30983   -65.05382
   235  O   6.0   -0.28    1.19    1.80    75.83470   130.92399   -66.78669
   236  C   4.0   -0.07    4.11    3.82    81.56435   128.34074   -64.68721
   237  O   6.0   -0.27    1.21    1.80    76.39973   129.33473   -63.13196
   238  H   1.0    0.10    1.06    1.44    81.07302   132.27704   -61.75435
   239  H   1.0    0.06    1.07    1.44    80.53067   131.26792   -67.22889
   240  H   1.0    0.04    1.00    1.43    80.93129   126.84785   -65.95710
   241  H   1.0    0.04    1.00    1.43    83.57691   128.68656   -64.95555
   242  H   1.0    0.07    1.00    1.43    81.19963   127.80028   -62.73323
   243  N   5.0   -0.22    3.20    1.96    91.17030   108.39993   -52.61595
   244  C   4.0    0.03    4.24    4.08    90.66359   110.86116   -51.51235
   245  C   4.0    0.07    3.22    3.04    88.64142   112.13757   -53.09594
   246  O   6.0   -0.32    1.14    1.80    86.59782   112.69898   -52.14730
   247  C   4.0   -0.06    4.28    4.16    93.04653   112.47479   -51.31582
   248  C   4.0   -0.05    4.21    4.01    93.24908   113.78314   -48.78926
   249  C   4.0   -0.02    4.21    4.02    95.79770   115.03420   -48.41131
   250  N   5.0   -0.15    3.37    2.01    96.03337   116.11510   -45.86774
   251  C   4.0    0.09    3.33    3.06    95.55854   118.52490   -45.24602
   252  N   5.0   -0.19    3.27    1.97    94.82338   120.17996   -46.98457
   253  N   5.0   -0.19    3.24    1.96    95.82321   119.30614   -42.86308
   254  H   1.0    0.07    1.03    1.43    92.98546   108.13213   -53.20744
   255  H   1.0    0.04    1.07    1.44    90.01837   110.63702   -49.56972
   256  H   1.0    0.03    1.04    1.43    94.70039   111.26940   -51.55204
   257  H   1.0    0.03    1.04    1.43    93.01081   113.91615   -52.78603
   258  H   1.0    0.04    1.03    1.43    91.79779   115.23859   -48.66454
   259  H   1.0    0.04    1.03    1.43    92.98850   112.39765   -47.28882
   260  H   1.0    0.03    1.03    1.43    97.28881   113.63447   -48.66076
   261  H   1.0    0.04    1.03    1.43    96.02228   116.55384   -49.78326
   262  H   1.0    0.07    1.06    1.44    96.60539   114.93536   -44.45612
   263  H   1.0    0.08    1.03    1.43    94.61467   119.62305   -48.81761
   264  H   1.0    0.09    1.03    1.43    94.46810   122.00853   -46.48568
   265  H   1.0    0.08    1.02    1.43    96.39034   118.06685   -41.50059
   266  H   1.0    0.08    1.04    1.44    95.45899   121.14264   -42.40388
   267  N   5.0   -0.21    3.30    1.98    81.38223   110.34893   -52.77091
   268  C   4.0    0.03    4.37    4.33    79.74311   111.13951   -50.73379
   269  C   4.0    0.15    3.44    3.09    78.74373   113.75488   -51.30637
   270  O   6.0   -0.33    1.29    1.80    76.63336   114.41304   -50.61096
   271  C   4.0   -0.05    4.28    4.15    81.15047   111.02249   -48.22612
   272  C   4.0   -0.05    4.20    4.00    82.47323   108.47817   -47.80660
   273  C   4.0   -0.05    4.19    3.98    80.62058   106.26732   -47.98991
   274  C   4.0   -0.05    4.13    3.85    81.89922   103.89391   -48.99335
   275  N   5.0   -0.13    3.99    2.84    80.06718   101.79098   -49.41476
   276  H   1.0    0.10    1.05    1.44    83.26751   110.54930   -52.42131
   277  H   1.0    0.04    1.07    1.44    78.13991   109.86477   -50.51080
   278  H   1.0    0.05    1.03    1.43    82.58400   112.50039   -48.19211
   279  H   1.0    0.04    1.03    1.43    79.80847   111.30599   -46.68977
   280  H   1.0    0.04    1.03    1.43    83.92784   108.22259   -49.24279
   281  H   1.0    0.04    1.03    1.43    83.32302   108.45383   -45.93010
   282  H   1.0    0.04    1.03    1.43    79.86650   105.85377   -46.11908
   283  H   1.0    0.03    1.04    1.43    79.08776   106.76796   -49.27303
   284  H   1.0    0.03    1.02    1.43    82.80722   104.32432   -50.79237
   285  H   1.0    0.03    1.02    1.43    83.30397   103.25605   -47.63086
   286  H   1.0    0.04    1.01    1.43    81.00806   100.20668   -50.09884
   287  H   1.0    0.04    1.01    1.43    79.17739   101.32526   -47.72534
   288  H   1.0    0.04    1.01    1.43    78.70596   102.33832   -50.72245
   289  N   5.0   -0.15    3.52    2.09    80.25471   115.21204   -52.66887
   290  C   4.0    0.04    4.37    4.33    79.41234   117.62349   -53.63641
   291  C   4.0    0.08    3.26    3.04    77.25364   117.23908   -55.47133
   292  O   6.0   -0.30    1.13    1.80    76.04740   119.04112   -56.27635
   293  C   4.0   -0.05    4.38    4.35    81.58873   118.98258   -54.91764
   294  C   4.0   -0.02    4.18    3.97    83.21712   120.65591   -53.20933
   295  C   4.0   -0.07    4.09    3.79    83.55419   119.65256   -50.48812
   296  C   4.0   -0.07    4.11    3.82    85.74725   121.05837   -54.49812
   297  H   1.0    0.08    1.07    1.44    82.07277   114.76916   -53.13185
   298  H   1.0    0.05    1.06    1.44    78.78554   118.84142   -52.09817
   299  H   1.0    0.04    1.04    1.43    82.83194   117.56628   -55.74723
   300  H   1.0    0.05    1.04    1.43    80.81267   120.19071   -56.39352
   301  H   1.0    0.04    1.07    1.44    82.23991   122.45053   -52.95044
   302  H   1.0    0.04    1.00    1.43    84.73413   120.96878   -49.42988
   303  H   1.0    0.04    1.00    1.43    81.70271   119.49571   -49.59806
   304  H   1.0    0.05    1.00    1.43    84.45688   117.80182   -50.56182
   305  H   1.0    0.05    1.00    1.43    86.92798   122.24849   -53.30193
   306  H   1.0    0.04    1.00    1.43    86.65358   119.23156   -54.78347
   307  H   1.0    0.04    1.00    1.43    85.43633   121.97863   -56.31415
   308  N   5.0   -0.21    3.24    1.96    71.65152   115.84199   -50.09317
   309  C   4.0    0.03    4.26    4.12    71.18857   118.11027   -48.64942
   310  C   4.0    0.08    3.21    3.04    69.71195   120.04424   -50.15742
   311  O   6.0   -0.30    1.12    1.80    67.79137   120.98217   -49.26169
   312  C   4.0   -0.03    4.33    4.26    73.67020   119.19391   -47.68755
   313  C   4.0   -0.02    3.51    3.12    74.57167   117.98399   -45.25358
   314  C   4.0   -0.05    3.44    3.09    75.24483   119.46367   -43.18811
   315  C   4.0   -0.04    3.45    3.10    74.74325   115.35111   -44.99469
   316  C   4.0   -0.05    3.49    3.11    76.07922   118.36996   -40.92611
   317  C   4.0   -0.05    3.40    3.08    75.58432   114.23070   -42.72513
   318  C   4.0    0.06    3.41    3.08    76.24928   115.76238   -40.69745
   319  O   6.0   -0.25    2.09    1.84    77.08900   114.73502   -38.44490
   320  H   1.0    0.11    1.06    1.44    73.35587   115.82661   -50.99268
   321  H   1.0    0.05    1.07    1.44    70.05948   117.63950   -46.99213
   322  H   1.0    0.05    1.04    1.43    75.12382   118.89848   -49.11618
   323  H   1.0    0.04    1.04    1.43    73.42566   121.20861   -47.33795
   324  H   1.0    0.04    1.03    1.43    75.12116   121.49579   -43.33173
   325  H   1.0    0.06    1.03    1.43    74.22142   114.15736   -46.56505
   326  H   1.0    0.04    1.11    1.44    76.59356   119.56156   -39.35197
   327  H   1.0    0.05    1.02    1.43    75.70963   112.19953   -42.56450
   328  H   1.0    0.13    1.02    1.43    77.10848   112.88714   -38.56017
   329  N   5.0   -0.21    3.26    1.97    72.70526   139.07841   -40.01337
   330  C   4.0    0.02    4.31    4.21    75.37816   138.52683   -39.84897
   331  C   4.0    0.14    3.38    3.07    76.51756   139.84146   -37.52460
   332  O   6.0   -0.32    1.22    1.80    77.73192   138.63763   -35.94479
   333  C   4.0   -0.05    4.32    4.24    76.68872   139.30311   -42.31695
   334  C   4.0   -0.03    4.20    4.00    75.23789   138.76224   -44.79060
   335  C   4.0   -0.08    4.08    3.76    76.68244   139.66171   -47.12252
   336  C   4.0   -0.08    4.08    3.77    74.47607   135.98104   -45.08729
   337  H   1.0    0.08    1.05    1.44    72.19400   140.03574   -41.60641
   338  H   1.0    0.04    1.06    1.44    75.68509   136.50233   -39.62976
   339  H   1.0    0.05    1.03    1.43    77.02917   141.33261   -42.24703
   340  H   1.0    0.04    1.03    1.43    78.47907   138.29218   -42.43222
   341  H   1.0    0.04    1.07    1.44    73.49290   139.84955   -44.66399
   342  H   1.0    0.04    1.00    1.43    75.57449   139.23369   -48.80438
   343  H   1.0    0.04    1.00    1.43    76.98630   141.69409   -46.98079
   344  H   1.0    0.05    1.00    1.43    78.49443   138.68509   -47.20756
   345  H   1.0    0.04    1.00    1.43    73.46639   135.74942   -46.86741
   346  H   1.0    0.04    1.00    1.43    76.17568   134.81734   -45.08729
   347  H   1.0    0.03    1.00    1.43    73.25842   135.44823   -43.51314
   348  N   5.0   -0.14    3.55    2.12    76.00645   142.29141   -37.28650
   349  C   4.0    0.04    4.33    4.25    77.06827   143.86892   -35.27772
   350  C   4.0    0.07    3.24    3.04    76.00478   143.19382   -32.70391
   351  O   6.0   -0.31    1.14    1.80    77.16407   143.72567   -30.75560
   352  C   4.0   -0.04    4.32    4.23    76.51317   146.67098   -35.77283
   353  C   4.0    0.14    3.30    3.05    75.54707   147.18023   -38.43923
   354  O   6.0   -0.32    1.33    1.80    76.14710   145.81592   -40.23069
   355  N   5.0   -0.20    3.17    1.95    74.03014   149.16512   -38.70379
   356  H   1.0    0.10    1.15    1.45    74.84139   143.26623   -38.47325
   357  H   1.0    0.05    1.06    1.44    79.11014   143.59018   -35.27205
   358  H   1.0    0.04    1.04    1.43    75.07442   147.31103   -34.44435
   359  H   1.0    0.04    1.03    1.43    78.24568   147.75198   -35.51016
   360  H   1.0    0.08    1.02    1.43    73.31772   149.60917   -40.43856
   361  H   1.0    0.07    1.03    1.43    73.57765   150.24366   -37.17122
   362  N   5.0   -0.21    3.25    1.97    74.70704   137.59165   -29.72948
   363  C   4.0    0.03    4.33    4.26    76.24644   135.82485   -28.31408
   364  C   4.0    0.15    3.40    3.08    78.90222   136.85629   -27.89834
   365  O   6.0   -0.30    1.22    1.80    80.16950   136.13906   -26.07664
   366  C   4.0   -0.05    4.39    4.36    76.33249   133.29096   -29.67090
   367  C   4.0   -0.05    4.06    3.73    74.17398   131.54941   -28.96792
   368  S   6.0   -0.06    2.50    3.10    73.46607   129.29467   -31.41512
   369  C   4.0   -0.07    3.89    3.45    76.55641   128.22038   -32.32975
   370  H   1.0    0.08    1.03    1.43    74.29707   137.01673   -31.52283
   371  H   1.0    0.04    1.06    1.44    75.38399   135.48184   -26.47538
   372  H   1.0    0.04    1.06    1.44    76.24242   133.62082   -31.70236
   373  H   1.0    0.04    1.04    1.43    78.09562   132.33850   -29.18902
   374  H   1.0    0.04    1.07    1.44    74.67764   130.50696   -27.26528
   375  H   1.0    0.03    1.07    1.44    72.48249   132.67635   -28.62966
   376  H   1.0    0.03    1.04    1.43    76.36434   126.82207   -33.83019
   377  H   1.0    0.04    1.04    1.43    77.65278   129.82875   -33.00438
   378  H   1.0    0.04    1.04    1.43    77.48346   127.37436   -30.69702
   379  N   5.0   -0.14    3.46    2.06    79.71078   138.56253   -29.56697
   380  C   4.0    0.04    4.33    4.25    82.19728   139.76244   -29.37988
   381  C   4.0    0.16    3.38    3.07    82.55462   141.31291   -26.94970
   382  O   6.0   -0.29    1.22    1.80    84.63039   141.37231   -25.89145
   383  C   4.0   -0.07    4.10    3.80    82.71300   141.38253   -31.70425
   384  H   1.0    0.10    1.07    1.44    78.68333   139.16292   -31.08442
   385  H   1.0    0.06    1.06    1.44    83.59117   138.24767   -29.31752
   386  H   1.0    0.05    1.00    1.43    84.56998   142.25172   -31.51716
   387  H   1.0    0.05    1.00    1.43    82.66371   140.18666   -33.38043
   388  H   1.0    0.06    1.01    1.43    81.26404   142.84151   -31.84031
   389  N   5.0   -0.14    3.41    2.03    80.53781   142.54223   -26.07097
   390  C   4.0    0.04    4.24    4.08    80.65536   144.09609   -23.77685
   391  C   4.0    0.08    3.18    3.03    80.00574   142.64745   -21.35233
   392  O   6.0   -0.30    1.11    1.80    80.90095   143.31922   -19.30953
   393  C   4.0   -0.08    4.09    3.78    78.99201   146.43285   -24.04708
   394  H   1.0    0.10    1.06    1.44    78.79691   142.50378   -26.89867
   395  H   1.0    0.06    1.07    1.44    82.59223   144.76265   -23.55197
   396  H   1.0    0.04    1.00    1.43    79.11643   147.54772   -22.31987
   397  H   1.0    0.04    1.00    1.43    79.65250   147.54518   -25.64957
   398  H   1.0    0.04    1.00    1.43    77.04497   145.83679   -24.36077
   399  H   1.0    0.08    1.07    1.44    90.84732   107.18618   -51.46920
   400  H   1.0    0.04    1.04    1.44    88.97056   112.52374   -54.91628
   401  H   1.0    0.08    1.07    1.44    81.12035   108.70173   -53.10364
   402  H   1.0    0.06    1.05    1.44    76.79687   115.49615   -56.04109
   403  H   1.0    0.09    1.08    1.44    71.61549   114.49295   -49.05811
   404  H   1.0    0.06    1.05    1.44    70.30397   120.55290   -51.87842
   405  H   1.0    0.08    1.07    1.44    71.82361   137.62407   -40.00045
   406  H   1.0    0.05    1.05    1.44    74.34212   142.30543   -32.57198
   407  H   1.0    0.09    1.07    1.44    73.22522   137.82280   -28.92740
   408  H   1.0    0.06    1.04    1.43    78.85232   141.15234   -21.42528
   409  H   1.0    0.10    1.07    1.44    78.16868   117.11061   -33.27400
   410  H   1.0    0.05    1.04    1.43    84.92354   114.32886   -27.68539
   411  H   1.0    0.10    1.07    1.44    84.15409   109.65436   -31.28444

  Z AO/shell   Hii/eV     exponent
  1     Wed Apr 25 08:07:45 CEST 2018   EN: 2.200 GM2: 0.406  GM3: 0.0800  RAES: 1.40
     1s    -10.707211    1.230000
  6     Wed Apr 25 08:07:45 CEST 2018   EN: 2.550 GM2: 0.538  GM3: 0.1500  RAES: 3.00
     2s    -13.970922    2.096432
     2p    -10.063292    1.800000
  7     Wed Apr 25 08:07:45 CEST 2018   EN: 3.040 GM2: 0.461  GM3:-0.0640  RAES: 1.90
     2s    -16.686243    2.339881
     2p    -12.523956    2.014332
  8     Wed Apr 25 08:07:45 CEST 2018   EN: 3.440 GM2: 0.452  GM3:-0.0517  RAES: 1.80
     2s    -20.229985    2.439742
     2p    -15.503117    2.137023
 16     Tue Apr 24 11:44:34 CEST 2018   EN: 2.580 GM2: 0.340  GM3:-0.0502  RAES: 3.10
     3s    -20.029654    1.981333
     3p    -11.377694    2.025643
     3d     -0.420282    1.702555
 no old-style atom pair restraining (fixing) potential

molecular fragmentation (1/2 indicates fragments):
111111111111111111111111111111111111112222222222222222222222222222222222
222222222222222222222222222222222222222222222222222222222222222222222222
222222222222222222222222222222222222222222222222222222222222222222222222
222222222222222222222222222222222222222222222222222222222222222222222222
222222222222222222222222222222222222222222222222222222222222222222222222
222222222222222222222222222222222222222222222222112
# atoms in fragment 1/2:    40   371
 fragment masses (1/2) :      228.33     2600.04
CMA distance (Bohr)    :  16.023
constraining FC (au)   :  0.0500
           ------------------------------------------------- 
          |        Self-Consistent Charge Iterations        |
           ------------------------------------------------- 

 Ncao       : 1011
 Nao        : 1009
 Nshell     : 609
 Nel        : 1114
 T(el)      :   500.0
 intcut     :    35.0
 scfconv/Eh :  0.100E-06
   qconv/e  :  0.100E-04
 intneglect :  0.100E-08
 broydamp   :      0.400
 iter      E             dE          RMSdq      gap      omega  full diag
   1   -636.9372103 -0.636937E+03  0.470E+00    3.02       0.0  T
   2   -638.6218366 -0.168463E+01  0.217E+00    1.58       1.0  T
   3   -638.7258337 -0.103997E+00  0.125E+00    1.81       1.0  T
   4   -638.8252377 -0.994040E-01  0.265E-01    1.27       1.0  T
   5   -638.8315187 -0.628092E-02  0.132E-01    1.45       1.0  T
   6   -638.8323499 -0.831282E-03  0.544E-02    1.41       1.0  T
   7   -638.8326284 -0.278411E-03  0.222E-02    1.40       1.0  T
   8   -638.8326545 -0.261736E-04  0.113E-02    1.39       1.0  T
   9   -638.8326675 -0.130091E-04  0.480E-03    1.38       1.0  T
  10   -638.8326692 -0.167202E-05  0.220E-03    1.38       2.2  T
  11   -638.8326695 -0.312864E-06  0.939E-04    1.38       5.3  T
  12   -638.8326696 -0.515388E-07  0.479E-04    1.38      10.3  T
  13   -638.8326696 -0.216518E-07  0.241E-04    1.38      20.5  T
  14   -638.8326696 -0.354407E-08  0.117E-04    1.38      42.3  T
  15   -638.8326696 -0.120986E-08  0.488E-05    1.38     101.0  T
  16   -638.8326696 -0.176328E-09  0.213E-05    1.38     231.6  T
speedup  1.11
cpu  time for SCC   19.71 s
wall time for SCC   17.79 s

   *** convergence criteria satisfied after 16 iterations ***

          eigenvalues
 #    :         545        546        547        548        549        550        551        552
 occ. :        2.000      2.000      2.000      2.000      2.000      2.000      2.000      2.000
 eps  :       -10.171    -10.095    -10.078    -10.053    -10.002     -9.998     -9.814     -9.812
 #    :         553        554        555        556        557        558        559        560
 occ. :        2.000      2.000      2.000      2.000      2.000      0.000      0.000      0.000
 eps  :        -9.698     -9.689     -9.617     -9.581     -9.476     -8.092     -7.982     -7.891
 #    :         561        562        563        564        565        566        567        568
 occ. :        0.000      0.000      0.000      0.000      0.000      0.000      0.000      0.000
 eps  :        -7.766     -7.512     -7.454     -6.984     -6.858     -6.747     -6.694     -6.687


   #   Z            q   n(s)   n(p)   n(d)      C6AA      α(0)
   1   7 N     -0.402  1.327  4.074  0.000    30.416     8.191
   2   6 C      0.027  1.053  2.920  0.000    20.126     6.389
   3   6 C      0.274  1.043  2.683  0.000    22.376     7.747
   4   8 O     -0.504  1.755  4.749  0.000    23.874     6.551
   5   6 C     -0.072  1.059  3.012  0.000    21.860     6.654
   6   6 C     -0.009  1.051  2.958  0.000    20.698     6.471
   7   6 C     -0.119  1.046  3.073  0.000    22.826     6.811
   8   6 C     -0.121  1.049  3.072  0.000    22.860     6.815
   9   1 H      0.166  0.834  0.000  0.000     1.298     1.785
  10   1 H      0.056  0.944  0.000  0.000     2.241     2.341
  11   1 H      0.038  0.962  0.000  0.000     2.482     2.464
  12   1 H      0.030  0.970  0.000  0.000     2.579     2.512
  13   1 H      0.028  0.972  0.000  0.000     2.610     2.526
  14   1 H      0.046  0.954  0.000  0.000     2.373     2.409
  15   1 H      0.028  0.972  0.000  0.000     2.614     2.528
  16   1 H      0.044  0.956  0.000  0.000     2.402     2.424
  17   1 H      0.062  0.938  0.000  0.000     2.176     2.307
  18   1 H      0.040  0.960  0.000  0.000     2.447     2.446
  19   1 H      0.058  0.942  0.000  0.000     2.221     2.331
  20   7 N     -0.171  1.243  3.928  0.000    24.703     7.382
  21   6 C      0.024  1.064  2.912  0.000    20.174     6.396
  22   6 C      0.206  1.090  2.704  0.000    23.631     7.961
  23   8 O     -0.370  1.753  4.617  0.000    21.084     6.156
  24   6 C     -0.024  1.071  2.953  0.000    20.971     6.514
  25   6 C     -0.062  1.050  3.012  0.000    21.691     6.631
  26   6 C     -0.123  1.045  3.078  0.000    22.929     6.829
  27   6 C     -0.112  1.042  3.069  0.000    22.700     6.795
  28   1 H      0.212  0.788  0.000  0.000     1.045     1.601
  29   1 H      0.085  0.915  0.000  0.000     1.933     2.174
  30   1 H      0.057  0.943  0.000  0.000     2.233     2.337
  31   1 H      0.050  0.950  0.000  0.000     2.326     2.385
  32   1 H      0.031  0.969  0.000  0.000     2.576     2.510
  33   1 H      0.068  0.932  0.000  0.000     2.103     2.268
  34   1 H      0.054  0.946  0.000  0.000     2.272     2.357
  35   1 H      0.045  0.955  0.000  0.000     2.384     2.414
  36   1 H      0.046  0.954  0.000  0.000     2.376     2.411
  37   1 H      0.033  0.967  0.000  0.000     2.542     2.493
  38   1 H      0.053  0.947  0.000  0.000     2.284     2.363
  39   7 N     -0.383  1.311  4.072  0.000    29.895     8.120
  40   6 C      0.043  1.050  2.907  0.000    19.866     6.348
  41   6 C      0.267  1.050  2.683  0.000    22.496     7.767
  42   8 O     -0.482  1.734  4.747  0.000    23.385     6.484
  43   6 C     -0.087  1.063  3.024  0.000    22.155     6.701
  44   6 C      0.369  1.024  2.607  0.000    20.749     7.455
  45   8 O     -0.654  1.773  4.881  0.000    27.481     7.028
  46   8 O     -0.652  1.767  4.886  0.000    27.434     7.022
  47   1 H      0.139  0.861  0.000  0.000     1.476     1.903
  48   1 H      0.047  0.953  0.000  0.000     2.354     2.399
  49   1 H      0.022  0.978  0.000  0.000     2.706     2.573
  50   1 H      0.041  0.959  0.000  0.000     2.436     2.441
  51   7 N     -0.165  1.243  3.921  0.000    24.562     7.361
  52   6 C     -0.032  1.053  2.980  0.000    21.221     6.571
  53   6 C      0.278  1.042  2.680  0.000    22.294     7.731
  54   8 O     -0.538  1.772  4.766  0.000    24.642     6.656
  55   1 H      0.223  0.777  0.000  0.000     0.997     1.564
  56   1 H      0.097  0.903  0.000  0.000     1.814     2.106
  57   1 H      0.094  0.906  0.000  0.000     1.845     2.124
  58   7 N     -0.188  1.265  3.923  0.000    25.081     7.438
  59   6 C      0.026  1.067  2.907  0.000    20.136     6.389
  60   6 C      0.301  1.037  2.662  0.000    21.893     7.662
  61   8 O     -0.509  1.753  4.757  0.000    23.994     6.567
  62   6 C     -0.022  1.062  2.960  0.000    20.927     6.506
  63   6 C     -0.084  1.056  3.028  0.000    22.095     6.691
  64   6 C     -0.113  1.044  3.069  0.000    22.710     6.794
  65   6 C     -0.111  1.039  3.072  0.000    22.690     6.793
  66   1 H      0.265  0.735  0.000  0.000     0.827     1.425
  67   1 H      0.038  0.962  0.000  0.000     2.471     2.458
  68   1 H      0.056  0.944  0.000  0.000     2.248     2.345
  69   1 H      0.067  0.933  0.000  0.000     2.121     2.277
  70   1 H      0.051  0.949  0.000  0.000     2.310     2.377
  71   1 H      0.056  0.944  0.000  0.000     2.249     2.345
  72   1 H      0.017  0.983  0.000  0.000     2.783     2.609
  73   1 H      0.062  0.938  0.000  0.000     2.171     2.304
  74   1 H      0.053  0.947  0.000  0.000     2.289     2.366
  75   1 H      0.046  0.954  0.000  0.000     2.369     2.407
  76   1 H      0.021  0.979  0.000  0.000     2.711     2.575
  77   7 N     -0.184  1.249  3.935  0.000    24.994     7.425
  78   6 C      0.047  1.051  2.902  0.000    19.795     6.336
  79   6 C      0.262  1.050  2.688  0.000    22.585     7.782
  80   8 O     -0.482  1.742  4.740  0.000    23.393     6.485
  81   6 C     -0.093  1.066  3.027  0.000    22.260     6.717
  82   6 C      0.367  1.023  2.610  0.000    20.773     7.459
  83   8 O     -0.635  1.772  4.863  0.000    27.007     6.968
  84   8 O     -0.642  1.767  4.875  0.000    27.173     6.989
  85   1 H      0.198  0.802  0.000  0.000     1.117     1.656
  86   1 H      0.044  0.956  0.000  0.000     2.392     2.419
  87   1 H      0.040  0.960  0.000  0.000     2.455     2.450
  88   1 H      0.027  0.973  0.000  0.000     2.624     2.533
  89   7 N     -0.101  1.245  3.856  0.000    23.222     7.157
  90   6 C      0.029  1.062  2.909  0.000    20.073     6.376
  91   6 C      0.280  1.040  2.679  0.000    22.253     7.724
  92   8 O     -0.474  1.747  4.727  0.000    23.206     6.459
  93   6 C     -0.086  1.058  3.028  0.000    22.109     6.689
  94   6 C     -0.061  1.042  3.020  0.000    21.652     6.620
  95   6 C      0.002  1.048  2.950  0.000    20.573     6.463
  96   1 H      0.065  0.935  0.000  0.000     2.142     2.289
  97   1 H      0.067  0.933  0.000  0.000     2.123     2.278
  98   1 H      0.071  0.929  0.000  0.000     2.078     2.254
  99   1 H      0.043  0.957  0.000  0.000     2.403     2.424
 100   1 H      0.078  0.922  0.000  0.000     1.998     2.210
 101   1 H      0.061  0.939  0.000  0.000     2.190     2.314
 102   1 H      0.057  0.943  0.000  0.000     2.231     2.336
 103   7 N     -0.175  1.244  3.931  0.000    24.790     7.395
 104   6 C      0.024  1.060  2.916  0.000    20.188     6.399
 105   6 C      0.279  1.040  2.681  0.000    22.285     7.730
 106   8 O     -0.477  1.742  4.735  0.000    23.285     6.470
 107   6 C     -0.115  1.066  3.049  0.000    22.692     6.781
 108   6 C      0.283  1.033  2.683  0.000    22.200     7.715
 109   8 O     -0.489  1.751  4.738  0.000    23.540     6.505
 110   7 N     -0.275  1.269  4.006  0.000    27.104     7.732
 111   1 H      0.212  0.788  0.000  0.000     1.048     1.604
 112   1 H      0.094  0.906  0.000  0.000     1.845     2.124
 113   1 H      0.063  0.937  0.000  0.000     2.159     2.298
 114   1 H      0.109  0.891  0.000  0.000     1.704     2.041
 115   1 H      0.247  0.753  0.000  0.000     0.894     1.481
 116   1 H      0.226  0.774  0.000  0.000     0.983     1.553
 117   7 N     -0.173  1.248  3.925  0.000    24.747     7.388
 118   6 C      0.018  1.066  2.916  0.000    20.285     6.414
 119   6 C      0.284  1.040  2.676  0.000    22.194     7.714
 120   8 O     -0.497  1.741  4.756  0.000    23.724     6.530
 121   6 C     -0.055  1.053  3.001  0.000    21.558     6.610
 122   6 C     -0.091  1.068  3.023  0.000    22.241     6.716
 123   6 C      0.354  1.039  2.607  0.000    20.994     7.498
 124   8 O     -0.637  1.769  4.868  0.000    27.043     6.972
 125   8 O     -0.641  1.783  4.858  0.000    27.141     6.985
 126   1 H      0.205  0.795  0.000  0.000     1.080     1.628
 127   1 H      0.080  0.920  0.000  0.000     1.977     2.199
 128   1 H      0.046  0.954  0.000  0.000     2.375     2.410
 129   1 H      0.036  0.964  0.000  0.000     2.498     2.471
 130   1 H      0.024  0.976  0.000  0.000     2.675     2.558
 131   1 H      0.033  0.967  0.000  0.000     2.545     2.495
 132   7 N     -0.169  1.245  3.924  0.000    24.655     7.375
 133   6 C      0.025  1.059  2.916  0.000    20.154     6.392
 134   6 C      0.277  1.037  2.685  0.000    22.308     7.735
 135   8 O     -0.482  1.728  4.754  0.000    23.283     6.475
 136   6 C     -0.084  1.059  3.026  0.000    22.100     6.691
 137   6 C     -0.018  1.054  2.964  0.000    20.853     6.495
 138   6 C     -0.118  1.047  3.070  0.000    22.808     6.809
 139   6 C     -0.146  1.051  3.095  0.000    23.361     6.891
 140   1 H      0.206  0.794  0.000  0.000     1.074     1.623
 141   1 H      0.075  0.925  0.000  0.000     2.028     2.227
 142   1 H      0.076  0.924  0.000  0.000     2.019     2.222
 143   1 H      0.075  0.925  0.000  0.000     2.031     2.229
 144   1 H      0.036  0.964  0.000  0.000     2.505     2.475
 145   1 H      0.051  0.949  0.000  0.000     2.308     2.376
 146   1 H      0.017  0.983  0.000  0.000     2.773     2.604
 147   1 H      0.062  0.938  0.000  0.000     2.171     2.304
 148   1 H      0.063  0.937  0.000  0.000     2.160     2.298
 149   1 H      0.066  0.934  0.000  0.000     2.132     2.283
 150   1 H      0.058  0.942  0.000  0.000     2.228     2.334
 151   7 N     -0.162  1.245  3.916  0.000    24.497     7.351
 152   6 C      0.020  1.058  2.922  0.000    20.236     6.404
 153   6 C      0.275  1.040  2.685  0.000    22.345     7.741
 154   8 O     -0.491  1.751  4.740  0.000    23.576     6.510
 155   6 C     -0.079  1.058  3.021  0.000    21.996     6.676
 156   6 C     -0.021  1.058  2.962  0.000    20.911     6.504
 157   6 C     -0.112  1.042  3.069  0.000    22.686     6.791
 158   6 C     -0.113  1.042  3.070  0.000    22.711     6.795
 159   1 H      0.234  0.766  0.000  0.000     0.949     1.526
 160   1 H      0.081  0.919  0.000  0.000     1.965     2.192
 161   1 H      0.055  0.945  0.000  0.000     2.253     2.348
 162   1 H      0.064  0.936  0.000  0.000     2.150     2.293
 163   1 H      0.043  0.957  0.000  0.000     2.405     2.425
 164   1 H      0.040  0.960  0.000  0.000     2.455     2.450
 165   1 H      0.039  0.961  0.000  0.000     2.456     2.451
 166   1 H      0.057  0.943  0.000  0.000     2.236     2.339
 167   1 H      0.036  0.964  0.000  0.000     2.508     2.476
 168   1 H      0.049  0.951  0.000  0.000     2.335     2.390
 169   1 H      0.036  0.964  0.000  0.000     2.507     2.476
 170   7 N     -0.181  1.245  3.936  0.000    24.928     7.415
 171   6 C      0.028  1.056  2.916  0.000    20.102     6.384
 172   6 C      0.280  1.038  2.682  0.000    22.258     7.726
 173   8 O     -0.476  1.752  4.724  0.000    23.255     6.466
 174   6 C     -0.110  1.064  3.046  0.000    22.588     6.765
 175   6 C      0.285  1.033  2.682  0.000    22.174     7.710
 176   8 O     -0.502  1.765  4.737  0.000    23.824     6.544
 177   7 N     -0.279  1.270  4.009  0.000    27.217     7.748
 178   1 H      0.221  0.779  0.000  0.000     1.006     1.571
 179   1 H      0.085  0.915  0.000  0.000     1.924     2.169
 180   1 H      0.087  0.913  0.000  0.000     1.907     2.160
 181   1 H      0.089  0.911  0.000  0.000     1.888     2.149
 182   1 H      0.251  0.749  0.000  0.000     0.880     1.469
 183   1 H      0.240  0.760  0.000  0.000     0.922     1.504
 184   7 N     -0.187  1.248  3.939  0.000    25.046     7.433
 185   6 C      0.012  1.063  2.925  0.000    20.379     6.428
 186   6 C      0.289  1.035  2.676  0.000    22.101     7.699
 187   8 O     -0.503  1.756  4.747  0.000    23.847     6.547
 188   6 C      0.076  1.038  2.886  0.000    19.519     6.327
 189   8 O     -0.530  1.718  4.813  0.000    23.555     6.552
 190   1 H      0.214  0.786  0.000  0.000     1.039     1.596
 191   1 H      0.074  0.926  0.000  0.000     2.046     2.237
 192   1 H      0.068  0.932  0.000  0.000     2.113     2.273
 193   1 H      0.032  0.968  0.000  0.000     2.559     2.502
 194   1 H      0.356  0.644  0.000  0.000     0.562     1.171
 195   7 N     -0.173  1.243  3.930  0.000    24.746     7.388
 196   6 C      0.028  1.056  2.916  0.000    20.107     6.384
 197   6 C      0.272  1.041  2.687  0.000    22.404     7.751
 198   8 O     -0.512  1.761  4.751  0.000    24.052     6.575
 199   6 C     -0.070  1.048  3.022  0.000    21.807     6.642
 200   6 C     -0.004  1.059  2.945  0.000    20.657     6.471
 201  16 S     -0.196  1.898  4.249  0.050   149.404    20.572
 202   6 C     -0.056  1.052  3.004  0.000    21.653     6.638
 203   1 H      0.210  0.790  0.000  0.000     1.057     1.611
 204   1 H      0.072  0.928  0.000  0.000     2.068     2.249
 205   1 H      0.059  0.941  0.000  0.000     2.216     2.328
 206   1 H      0.072  0.928  0.000  0.000     2.059     2.244
 207   1 H      0.029  0.971  0.000  0.000     2.603     2.523
 208   1 H      0.068  0.932  0.000  0.000     2.106     2.270
 209   1 H      0.071  0.929  0.000  0.000     2.076     2.253
 210   1 H      0.058  0.942  0.000  0.000     2.219     2.330
 211   1 H      0.041  0.959  0.000  0.000     2.431     2.438
 212   7 N     -0.192  1.253  3.939  0.000    25.171     7.451
 213   6 C      0.028  1.058  2.914  0.000    20.112     6.387
 214   6 C      0.273  1.048  2.678  0.000    22.381     7.747
 215   8 O     -0.505  1.753  4.752  0.000    23.899     6.554
 216   6 C     -0.124  1.045  3.080  0.000    22.944     6.830
 217   1 H      0.220  0.780  0.000  0.000     1.008     1.573
 218   1 H      0.077  0.923  0.000  0.000     2.009     2.217
 219   1 H      0.079  0.921  0.000  0.000     1.987     2.204
 220   1 H      0.077  0.923  0.000  0.000     2.008     2.216
 221   1 H      0.060  0.940  0.000  0.000     2.200     2.319
 222   7 N     -0.173  1.247  3.926  0.000    24.753     7.389
 223   6 C      0.020  1.059  2.920  0.000    20.242     6.407
 224   6 C      0.273  1.042  2.686  0.000    22.388     7.748
 225   8 O     -0.509  1.749  4.759  0.000    23.977     6.565
 226   6 C     -0.123  1.044  3.078  0.000    22.910     6.825
 227   1 H      0.201  0.799  0.000  0.000     1.103     1.645
 228   1 H      0.087  0.913  0.000  0.000     1.904     2.158
 229   1 H      0.075  0.925  0.000  0.000     2.031     2.229
 230   1 H      0.082  0.918  0.000  0.000     1.961     2.190
 231   1 H      0.054  0.946  0.000  0.000     2.269     2.356
 232   7 N     -0.176  1.251  3.924  0.000    24.800     7.396
 233   6 C      0.018  1.066  2.916  0.000    20.273     6.412
 234   6 C      0.373  1.018  2.609  0.000    20.680     7.442
 235   8 O     -0.648  1.764  4.884  0.000    27.340     7.010
 236   6 C     -0.108  1.042  3.066  0.000    22.625     6.782
 237   8 O     -0.638  1.761  4.877  0.000    27.073     6.976
 238   1 H      0.180  0.820  0.000  0.000     1.215     1.727
 239   1 H      0.044  0.956  0.000  0.000     2.401     2.423
 240   1 H      0.049  0.951  0.000  0.000     2.330     2.387
 241   1 H      0.058  0.942  0.000  0.000     2.228     2.334
 242   1 H      0.047  0.953  0.000  0.000     2.360     2.403
 243   7 N     -0.389  1.322  4.066  0.000    30.058     8.142
 244   6 C      0.031  1.053  2.916  0.000    20.066     6.380
 245   6 C      0.198  1.093  2.710  0.000    23.787     7.988
 246   8 O     -0.373  1.753  4.620  0.000    21.155     6.167
 247   6 C     -0.082  1.058  3.024  0.000    22.054     6.685
 248   6 C     -0.087  1.053  3.034  0.000    22.150     6.700
 249   6 C     -0.029  1.058  2.971  0.000    21.165     6.565
 250   7 N     -0.144  1.215  3.929  0.000    24.117     7.294
 251   6 C      0.230  1.021  2.748  0.000    23.165     7.880
 252   7 N     -0.235  1.228  4.007  0.000    26.162     7.597
 253   7 N     -0.261  1.237  4.024  0.000    26.776     7.685
 254   1 H      0.171  0.829  0.000  0.000     1.270     1.765
 255   1 H      0.062  0.938  0.000  0.000     2.175     2.306
 256   1 H      0.071  0.929  0.000  0.000     2.076     2.253
 257   1 H      0.054  0.946  0.000  0.000     2.276     2.359
 258   1 H      0.061  0.939  0.000  0.000     2.190     2.314
 259   1 H      0.073  0.927  0.000  0.000     2.053     2.241
 260   1 H      0.102  0.898  0.000  0.000     1.765     2.078
 261   1 H      0.080  0.920  0.000  0.000     1.979     2.200
 262   1 H      0.239  0.761  0.000  0.000     0.925     1.507
 263   1 H      0.253  0.747  0.000  0.000     0.870     1.462
 264   1 H      0.226  0.774  0.000  0.000     0.982     1.552
 265   1 H      0.242  0.758  0.000  0.000     0.914     1.498
 266   1 H      0.215  0.785  0.000  0.000     1.033     1.592
 267   7 N     -0.398  1.326  4.072  0.000    30.326     8.179
 268   6 C      0.024  1.054  2.921  0.000    20.175     6.397
 269   6 C      0.267  1.044  2.689  0.000    22.489     7.766
 270   8 O     -0.507  1.749  4.759  0.000    23.943     6.560
 271   6 C     -0.070  1.052  3.018  0.000    21.831     6.651
 272   6 C     -0.069  1.051  3.018  0.000    21.820     6.650
 273   6 C     -0.091  1.052  3.039  0.000    22.233     6.713
 274   6 C     -0.050  1.061  2.989  0.000    21.567     6.629
 275   7 N     -0.150  1.237  3.913  0.000    24.234     7.311
 276   1 H      0.171  0.829  0.000  0.000     1.269     1.765
 277   1 H      0.059  0.941  0.000  0.000     2.214     2.327
 278   1 H      0.042  0.958  0.000  0.000     2.418     2.432
 279   1 H      0.033  0.967  0.000  0.000     2.547     2.496
 280   1 H      0.063  0.937  0.000  0.000     2.162     2.300
 281   1 H      0.046  0.954  0.000  0.000     2.369     2.407
 282   1 H      0.063  0.937  0.000  0.000     2.167     2.302
 283   1 H      0.070  0.930  0.000  0.000     2.081     2.256
 284   1 H      0.118  0.882  0.000  0.000     1.626     1.994
 285   1 H      0.115  0.885  0.000  0.000     1.655     2.012
 286   1 H      0.310  0.690  0.000  0.000     0.684     1.296
 287   1 H      0.295  0.705  0.000  0.000     0.729     1.337
 288   1 H      0.299  0.701  0.000  0.000     0.717     1.326
 289   7 N     -0.165  1.240  3.925  0.000    24.573     7.362
 290   6 C      0.030  1.050  2.920  0.000    20.074     6.379
 291   6 C      0.206  1.082  2.712  0.000    23.633     7.962
 292   8 O     -0.382  1.767  4.615  0.000    21.318     6.190
 293   6 C     -0.075  1.060  3.016  0.000    21.921     6.664
 294   6 C     -0.014  1.057  2.957  0.000    20.788     6.485
 295   6 C     -0.122  1.047  3.074  0.000    22.895     6.824
 296   6 C     -0.118  1.044  3.074  0.000    22.808     6.809
 297   1 H      0.229  0.771  0.000  0.000     0.969     1.542
 298   1 H      0.089  0.911  0.000  0.000     1.890     2.150
 299   1 H      0.074  0.926  0.000  0.000     2.046     2.237
 300   1 H      0.046  0.954  0.000  0.000     2.365     2.405
 301   1 H      0.024  0.976  0.000  0.000     2.678     2.559
 302   1 H      0.047  0.953  0.000  0.000     2.360     2.402
 303   1 H      0.037  0.963  0.000  0.000     2.487     2.466
 304   1 H      0.060  0.940  0.000  0.000     2.203     2.321
 305   1 H      0.055  0.945  0.000  0.000     2.257     2.349
 306   1 H      0.057  0.943  0.000  0.000     2.238     2.339
 307   1 H      0.027  0.973  0.000  0.000     2.635     2.539
 308   7 N     -0.399  1.323  4.076  0.000    30.350     8.182
 309   6 C      0.044  1.049  2.907  0.000    19.852     6.346
 310   6 C      0.206  1.089  2.705  0.000    23.624     7.960
 311   8 O     -0.386  1.755  4.631  0.000    21.398     6.202
 312   6 C     -0.072  1.057  3.015  0.000    21.861     6.655
 313   6 C      0.006  1.085  2.909  0.000    27.884     8.661
 314   6 C     -0.046  1.088  2.958  0.000    29.135     8.851
 315   6 C     -0.045  1.090  2.954  0.000    29.106     8.847
 316   6 C     -0.090  1.089  3.001  0.000    30.250     9.019
 317   6 C     -0.073  1.083  2.990  0.000    29.825     8.955
 318   6 C      0.140  1.049  2.811  0.000    24.937     8.184
 319   8 O     -0.447  1.723  4.724  0.000    21.790     6.302
 320   1 H      0.182  0.818  0.000  0.000     1.201     1.717
 321   1 H      0.054  0.946  0.000  0.000     2.267     2.355
 322   1 H      0.064  0.936  0.000  0.000     2.156     2.296
 323   1 H      0.038  0.962  0.000  0.000     2.476     2.461
 324   1 H      0.033  0.967  0.000  0.000     2.544     2.494
 325   1 H      0.062  0.938  0.000  0.000     2.180     2.309
 326   1 H      0.083  0.917  0.000  0.000     1.944     2.180
 327   1 H      0.038  0.962  0.000  0.000     2.482     2.464
 328   1 H      0.318  0.682  0.000  0.000     0.670     1.286
 329   7 N     -0.395  1.318  4.077  0.000    30.235     8.167
 330   6 C      0.034  1.056  2.911  0.000    20.026     6.374
 331   6 C      0.265  1.051  2.685  0.000    22.530     7.772
 332   8 O     -0.510  1.751  4.758  0.000    23.997     6.568
 333   6 C     -0.081  1.060  3.021  0.000    22.039     6.683
 334   6 C     -0.012  1.060  2.952  0.000    20.762     6.481
 335   6 C     -0.114  1.043  3.070  0.000    22.734     6.799
 336   6 C     -0.109  1.041  3.068  0.000    22.645     6.786
 337   1 H      0.167  0.833  0.000  0.000     1.293     1.781
 338   1 H      0.028  0.972  0.000  0.000     2.614     2.528
 339   1 H      0.056  0.944  0.000  0.000     2.248     2.345
 340   1 H      0.034  0.966  0.000  0.000     2.533     2.489
 341   1 H      0.036  0.964  0.000  0.000     2.508     2.477
 342   1 H      0.038  0.962  0.000  0.000     2.471     2.458
 343   1 H      0.049  0.951  0.000  0.000     2.334     2.389
 344   1 H      0.030  0.970  0.000  0.000     2.582     2.513
 345   1 H      0.035  0.965  0.000  0.000     2.516     2.480
 346   1 H      0.029  0.971  0.000  0.000     2.604     2.523
 347   1 H      0.040  0.960  0.000  0.000     2.446     2.446
 348   7 N     -0.176  1.244  3.932  0.000    24.800     7.396
 349   6 C      0.030  1.054  2.916  0.000    20.087     6.383
 350   6 C      0.197  1.089  2.715  0.000    23.806     7.991
 351   8 O     -0.354  1.749  4.605  0.000    20.785     6.112
 352   6 C     -0.111  1.063  3.048  0.000    22.613     6.769
 353   6 C      0.285  1.035  2.680  0.000    22.173     7.710
 354   8 O     -0.496  1.760  4.736  0.000    23.696     6.526
 355   7 N     -0.274  1.269  4.005  0.000    27.084     7.729
 356   1 H      0.236  0.764  0.000  0.000     0.941     1.520
 357   1 H      0.097  0.903  0.000  0.000     1.816     2.107
 358   1 H      0.090  0.910  0.000  0.000     1.878     2.143
 359   1 H      0.114  0.886  0.000  0.000     1.662     2.016
 360   1 H      0.246  0.754  0.000  0.000     0.897     1.484
 361   1 H      0.243  0.757  0.000  0.000     0.911     1.495
 362   7 N     -0.390  1.320  4.070  0.000    30.097     8.148
 363   6 C      0.028  1.056  2.916  0.000    20.114     6.387
 364   6 C      0.269  1.045  2.686  0.000    22.459     7.760
 365   8 O     -0.524  1.762  4.763  0.000    24.332     6.614
 366   6 C     -0.057  1.050  3.007  0.000    21.571     6.607
 367   6 C     -0.007  1.060  2.947  0.000    20.704     6.479
 368  16 S     -0.224  1.909  4.263  0.052   150.619    20.656
 369   6 C     -0.049  1.049  3.000  0.000    21.529     6.619
 370   1 H      0.159  0.841  0.000  0.000     1.341     1.814
 371   1 H      0.050  0.950  0.000  0.000     2.314     2.379
 372   1 H      0.052  0.948  0.000  0.000     2.299     2.371
 373   1 H      0.032  0.968  0.000  0.000     2.557     2.501
 374   1 H      0.044  0.956  0.000  0.000     2.391     2.418
 375   1 H      0.064  0.936  0.000  0.000     2.148     2.292
 376   1 H      0.064  0.936  0.000  0.000     2.155     2.296
 377   1 H      0.048  0.952  0.000  0.000     2.343     2.394
 378   1 H      0.045  0.955  0.000  0.000     2.383     2.414
 379   7 N     -0.171  1.247  3.923  0.000    24.691     7.380
 380   6 C      0.023  1.060  2.917  0.000    20.201     6.401
 381   6 C      0.281  1.043  2.677  0.000    22.246     7.723
 382   8 O     -0.508  1.759  4.749  0.000    23.956     6.562
 383   6 C     -0.132  1.045  3.087  0.000    23.100     6.853
 384   1 H      0.221  0.779  0.000  0.000     1.006     1.572
 385   1 H      0.063  0.937  0.000  0.000     2.163     2.300
 386   1 H      0.071  0.929  0.000  0.000     2.074     2.252
 387   1 H      0.066  0.934  0.000  0.000     2.133     2.284
 388   1 H      0.079  0.921  0.000  0.000     1.988     2.205
 389   7 N     -0.168  1.243  3.925  0.000    24.630     7.371
 390   6 C      0.024  1.057  2.918  0.000    20.176     6.397
 391   6 C      0.204  1.087  2.709  0.000    23.666     7.967
 392   8 O     -0.369  1.760  4.609  0.000    21.064     6.153
 393   6 C     -0.133  1.048  3.085  0.000    23.107     6.854
 394   1 H      0.223  0.777  0.000  0.000     0.994     1.562
 395   1 H      0.100  0.900  0.000  0.000     1.785     2.089
 396   1 H      0.081  0.919  0.000  0.000     1.973     2.197
 397   1 H      0.090  0.910  0.000  0.000     1.880     2.144
 398   1 H      0.075  0.925  0.000  0.000     2.032     2.229
 399   1 H      0.195  0.805  0.000  0.000     1.132     1.666
 400   1 H      0.076  0.924  0.000  0.000     2.018     2.221
 401   1 H      0.194  0.806  0.000  0.000     1.137     1.670
 402   1 H      0.081  0.919  0.000  0.000     1.966     2.193
 403   1 H      0.189  0.811  0.000  0.000     1.163     1.689
 404   1 H      0.063  0.937  0.000  0.000     2.162     2.299
 405   1 H      0.177  0.823  0.000  0.000     1.232     1.739
 406   1 H      0.089  0.911  0.000  0.000     1.885     2.147
 407   1 H      0.191  0.809  0.000  0.000     1.151     1.681
 408   1 H      0.074  0.926  0.000  0.000     2.044     2.236
 409   1 H      0.177  0.823  0.000  0.000     1.230     1.737
 410   1 H      0.081  0.919  0.000  0.000     1.967     2.193
 411   1 H      0.183  0.817  0.000  0.000     1.194     1.712

 Mol. C6AA /au·bohr⁶  :    1564987.778495
 Mol. C8AA /au·bohr⁸  :   35094670.752311
 Mol. α(0) /au        :       1869.378078

 
molecular dipole:
                 x           y           z       tot (Debye)
 q only:     -167.289    -271.260      98.942
   full:     -165.188    -271.508     100.143     846.966
molecular quadrupole (traceless):
                xx          xy          yy          xz          yz          zz
 q only:     6626.527  -34206.581  -26121.631   11879.614   20687.732   19495.104
  q+dip:     7101.318  -33834.130  -26303.567   11872.627   20898.482   19202.249
   full:     7103.317  -33832.717  -26300.457   11868.635   20901.195   19197.140
speedup  1.09
cpu  time for grad   22.82 s
wall time for grad   20.93 s

SCC energy    :    -638.8496517
rep           :       7.4660000
ES            :       2.3821711
AES           :      -0.0435379
AXC           :       0.2131068
disp          :      -0.5217045
XB            :       0.0000000
fix           :       0.0000000
Gborn         :       0.0000000
Gsasa         :       0.0000000
Ghb           :       0.0000000
Gshift        :       0.0000000
Gsolv         :      -0.7086667     -444.70
Etot ala COSMO:    -638.8496517
grad norm     :       0.6325185
total E       :    -631.3423319
atomizationE  :     114.2276297    71678.92
(atE without considering molecular charge,
 total energy contains solvation terms)
H-L gap (eV)  :          1.3836

------------------------------------------------------------------------
 * finished run on 2019/05/04 at 18:58:08.029     
------------------------------------------------------------------------
 total:
 * wall-time:     0 d,  0 h,  0 min, 22.182 sec
 *  cpu-time:     0 d,  0 h,  0 min, 24.027 sec
 * ratio c/w:     1.083 speedup
 SCF:
 * wall-time:     0 d,  0 h,  0 min, 21.686 sec
 *  cpu-time:     0 d,  0 h,  0 min, 23.680 sec
 * ratio c/w:     1.092 speedup

