      -----------------------------------------------------------      
     |                   =====================                   |     
     |                           x T B                           |     
     |                   =====================                   |     
     |                         S. Grimme                         |     
     |          Mulliken Center for Theoretical Chemistry        |     
     |                    University of Bonn                     |     
     |                 Version 6.0.1 (SAW181210)                 |     
      -----------------------------------------------------------      

   This program is distributed in the hope that it will be useful,
   but WITHOUT ANY WARRANTY; without even the implied warranty of
   MERCHANTABILITY or FITNESS FOR A PARTICULAR PURPOSE.
   
   FOR NON-COMMERCIAL, ACADEMIA USE ONLY.
   
   Cite this work as:
   S. Grimme, C. Bannwarth, P. Shushkov, J. Comput. Theory Chem., 2017,
   13, 1989-2009.
   C. Bannwarth, S. Ehlert and S. Grimme., ChemRxiv, 2018, preprint.
   http://doi.org/10.26434/chemrxiv.7246238.v1
   
   for sTDA-xTB:
   S. Grimme and C. Bannwarth, J. Chem. Phys., 2016, 145, 054103.
   
   in the mass-spec context:
   V. Asgeirsson, C. Bauer and S. Grimme, Chem. Sci., 2017, 8, 4879.
   
   if GBSA is used:
   P. Shushkov, F. März and S. Grimme, unpublished.
   
   for ANC optimizer:
   S. Grimme, unpublished.
   Rational Function algorithm used in ANCopt:
   F. Eckert, P. Pulay, H.-J. Werner, J. Comput. Chem., 1997, 18, 1473.
   
   with help from (in alphabetical order)
   C. Bannwarth, F. Bohle, G. Brandenburg, E. Caldeweyher, M. Checinski,
   S. Dohm, S. Ehlert, S. Ehrlich, F. März, H. Neugebauer, J. Pisarek,
   P. Pracht, P. Shushkov, and S. Spicher.
   
 * started run on 2019/05/08 at 07:14:02.889     
========================================================================
 # omp threads = 2
========================================================================
number of atoms            : 406
number of electrons        : 1092
charge                     : -1
spin                       : .0
first test random number   : .3270

########################################################################
# WARNING! Please study the warnings concerning your input carefully
#  - Process number higher than OMP_NUM_THREADS, I hope you know what you are doing.
########################################################################

           ------------------------------------------------- 
          |                 G F N 2 - x T B                 |
          | Geometry, Frequencies, Noncovalent interactions |
          |            JCTC 2018 parametrisation            |
           ------------------------------------------------- 
 
      method parameters     
 k(s)        :  1.8500
 k(p)        :  2.2300
 k(d)        :  2.2300
 k(f)        :  2.0000
 kEN (H0ij)  : -2.0000
 D4 a1       :  0.5200
 D4 a2       :  5.0000
 D4 s6       :  1.0000
 D4 s8       :  2.7000
 D4 s9       :  5.0000
 alphaj      :  2.0000

 Solvent             : h2o
 Using internal parameter file: .param_gbsa2_h2o
 Gsolv ref. state (COSMO-RS): gsolv [1 M gas/solution]
 temperature (mdtemp)       :    298.150000000000     
 dielectric constant        :    80.2000000000000     
 rho                        :    1.00000000000000     
 mass                       :    18.0000000000000     
 surface tension            :    15.5689454083859     
 probe radius               :   0.975313790000000     
 vdW radii scaling          :    1.00000000000000     
 Gshift (Eh)                :   1.857443126794793E-003
 c1                         :    1.55243817000000     
 soset                      :   0.130326360000000     
 HB correction              :  T

            Z     q(EN)     CN     RAES       Cart. coordinates
     1  N   5.0   -0.21    3.23    1.96    12.66234    65.62205   -29.47977
     2  C   4.0    0.03    4.30    4.21    14.64771    64.14597   -28.30454
     3  C   4.0    0.08    3.29    3.05    13.79062    63.62870   -25.58712
     4  O   6.0   -0.32    1.17    1.80    13.11588    65.37613   -24.22749
     5  C   4.0   -0.04    4.16    3.93    17.15474    65.58041   -28.26918
     6  S   6.0   -0.04    2.49    3.10    19.61851    63.50798   -26.91116
     7  H   1.0    0.10    1.03    1.43    11.82078    66.92177   -28.35354
     8  H   1.0    0.03    1.06    1.44    14.86158    62.37280   -29.34442
     9  H   1.0    0.04    1.06    1.44    17.73011    66.08726   -30.17696
    10  H   1.0    0.05    1.07    1.44    17.02793    67.25503   -27.08292
    11  N   5.0   -0.22    3.22    1.96    25.80827    63.64074   -28.03179
    12  C   4.0    0.04    4.29    4.17    26.15319    65.61345   -26.17743
    13  C   4.0    0.08    3.26    3.05    27.04668    64.63014   -23.60709
    14  O   6.0   -0.29    1.13    1.80    27.87053    66.13797   -22.04088
    15  C   4.0   -0.03    4.19    3.99    23.81057    67.24127   -25.76965
    16  S   6.0   -0.02    2.44    3.10    21.23613    65.62490   -24.16164
    17  H   1.0    0.08    1.08    1.44    24.07835    62.84846   -28.21300
    18  H   1.0    0.05    1.06    1.44    27.65085    66.86235   -26.89164
    19  H   1.0    0.06    1.08    1.44    24.27313    68.79574   -24.49554
    20  H   1.0    0.06    1.07    1.44    23.14679    68.01832   -27.55443
    21  N   5.0   -0.19    3.22    1.96    31.54059    70.63613   -23.30312
    22  C   4.0    0.03    4.31    4.22    31.01995    73.11908   -24.34049
    23  C   4.0    0.16    3.46    3.10    30.26579    74.91714   -22.21225
    24  O   6.0   -0.30    1.32    1.80    28.80918    74.28755   -20.52604
    25  C   4.0   -0.03    4.26    4.12    28.90249    73.01045   -26.33032
    26  C   4.0   -0.04    4.22    4.05    29.86076    71.81957   -28.78140
    27  C   4.0    0.15    3.21    3.04    27.75563    70.76080   -30.44038
    28  O   6.0   -0.31    1.22    1.80    25.53295    70.74452   -29.82949
    29  N   5.0   -0.19    3.18    1.95    28.57824    69.81999   -32.65021
    30  H   1.0    0.12    1.03    1.43    30.13555    69.78339   -22.32567
    31  H   1.0    0.04    1.06    1.44    32.78364    73.76453   -25.20973
    32  H   1.0    0.06    1.03    1.43    27.33408    71.90359   -25.57542
    33  H   1.0    0.06    1.02    1.43    28.17726    74.91050   -26.67538
    34  H   1.0    0.04    1.03    1.43    30.93553    73.20011   -29.86844
    35  H   1.0    0.04    1.03    1.43    31.11786    70.24414   -28.32102
    36  H   1.0    0.07    1.03    1.43    30.44379    69.70950   -32.99664
    37  H   1.0    0.09    1.02    1.43    27.42230    68.71937   -33.70681
    38  N   5.0   -0.13    3.48    2.06    31.37576    77.20080   -22.25083
    39  C   4.0    0.05    4.44    4.44    30.40322    79.16773   -20.59412
    40  C   4.0    0.16    3.47    3.10    27.59624    79.56621   -21.24097
    41  O   6.0   -0.28    1.26    1.80    26.81554    79.11383   -23.36280
    42  C   4.0   -0.03    4.31    4.21    31.81548    81.65410   -21.02313
    43  C   4.0    0.15    3.23    3.04    34.64300    81.35315   -20.54900
    44  O   6.0   -0.31    1.21    1.80    35.47699    80.56729   -18.53816
    45  N   5.0   -0.19    3.18    1.95    36.14016    81.96851   -22.48248
    46  H   1.0    0.08    1.07    1.44    32.24893    77.76648   -23.85079
    47  H   1.0    0.07    1.05    1.44    30.57583    78.54002   -18.62991
    48  H   1.0    0.05    1.03    1.43    31.44225    82.32552   -22.93592
    49  H   1.0    0.05    1.03    1.43    31.07357    83.04201   -19.68841
    50  H   1.0    0.09    1.03    1.43    38.03251    81.85169   -22.25972
    51  H   1.0    0.08    1.03    1.43    35.46035    82.72740   -24.08864
    52  N   5.0   -0.14    3.35    2.00    26.14656    80.51450   -19.39573
    53  C   4.0    0.03    4.29    4.19    23.52300    81.04428   -19.92488
    54  C   4.0    0.15    3.32    3.06    21.90863    81.18823   -17.56030
    55  O   6.0   -0.31    1.26    1.80    22.74413    80.82915   -15.43168
    56  H   1.0    0.11    1.08    1.44    26.71048    80.52967   -17.56137
    57  H   1.0    0.06    1.02    1.43    23.35204    82.83663   -20.95614
    58  H   1.0    0.07    1.03    1.43    22.76430    79.57215   -21.17155
    59  N   5.0   -0.14    3.49    2.07    19.51669    81.81272   -18.05489
    60  C   4.0    0.04    4.43    4.43    17.54430    81.81946   -16.15671
    61  C   4.0    0.15    3.43    3.09    16.20666    79.25527   -16.29934
    62  O   6.0   -0.33    1.30    1.80    15.27941    78.53019   -18.30473
    63  C   4.0   -0.04    4.35    4.30    15.65319    83.94291   -16.65987
    64  C   4.0   -0.03    4.19    3.97    13.65712    84.16638   -14.57169
    65  C   4.0   -0.07    4.11    3.82    14.85000    85.05435   -12.09666
    66  C   4.0   -0.08    4.10    3.81    11.58266    85.99164   -15.39699
    67  H   1.0    0.11    1.11    1.45    18.95314    81.95168   -19.88551
    68  H   1.0    0.05    1.06    1.44    18.45737    82.04605   -14.31989
    69  H   1.0    0.05    1.03    1.43    16.68316    85.72222   -16.83737
    70  H   1.0    0.05    1.03    1.43    14.74367    83.55102   -18.47280
    71  H   1.0    0.04    1.05    1.44    12.81496    82.29809   -14.27011
    72  H   1.0    0.04    1.00    1.43    13.39139    85.60099   -10.76259
    73  H   1.0    0.05    1.00    1.43    15.98605    83.57761   -11.23388
    74  H   1.0    0.05    1.00    1.43    16.05094    86.69199   -12.42021
    75  H   1.0    0.03    1.00    1.43    10.11868    86.09460   -13.96229
    76  H   1.0    0.04    1.00    1.43    12.37083    87.86961   -15.66227
    77  H   1.0    0.03    1.00    1.43    10.73842    85.37301   -17.16564
    78  N   5.0   -0.14    3.48    2.06    16.15325    77.95642   -14.15909
    79  C   4.0    0.04    4.31    4.21    15.20009    75.41980   -13.88463
    80  C   4.0    0.08    3.21    3.04    13.20992    75.31135   -11.78299
    81  O   6.0   -0.31    1.17    1.80    13.27606    76.67508    -9.91528
    82  C   4.0   -0.03    4.33    4.26    17.36883    73.63379   -13.09801
    83  C   4.0   -0.01    3.54    3.14    19.22968    73.18289   -15.19601
    84  C   4.0   -0.03    3.46    3.10    21.36883    74.67755   -15.47716
    85  C   4.0   -0.04    3.47    3.10    18.85827    71.21584   -16.89531
    86  C   4.0   -0.03    3.43    3.09    23.11735    74.19153   -17.35905
    87  C   4.0   -0.04    3.44    3.09    20.59039    70.70268   -18.77269
    88  C   4.0    0.07    3.44    3.09    22.75693    72.17969   -19.01258
    89  O   6.0   -0.24    2.12    1.84    24.41619    71.60338   -20.87798
    90  H   1.0    0.11    1.11    1.45    16.95586    78.66405   -12.56281
    91  H   1.0    0.07    1.06    1.44    14.37616    74.80565   -15.67662
    92  H   1.0    0.05    1.03    1.43    18.32109    74.48944   -11.48019
    93  H   1.0    0.04    1.03    1.43    16.53558    71.83824   -12.52592
    94  H   1.0    0.07    1.03    1.43    21.68912    76.24306   -14.20476
    95  H   1.0    0.06    1.03    1.43    17.18464    70.06127   -16.74370
    96  H   1.0    0.08    1.03    1.43    24.79778    75.34160   -17.54512
    97  H   1.0    0.06    1.04    1.43    20.31658    69.14639   -20.06243
    98  H   1.0    0.16    1.09    1.44    25.97754    72.57916   -20.67819
    99  N   5.0   -0.20    3.24    1.97     9.43075    78.11914    -2.17727
   100  C   4.0    0.04    4.39    4.37    10.52762    79.29805    -4.38980
   101  C   4.0    0.14    3.43    3.09    13.22601    80.14160    -3.76446
   102  O   6.0   -0.30    1.23    1.80    13.66452    81.47123    -1.92244
   103  C   4.0    0.05    4.24    4.08     8.94867    81.60329    -5.19674
   104  O   6.0   -0.27    2.13    1.84     6.38192    80.88837    -5.12945
   105  C   4.0   -0.08    4.08    3.76     9.77612    82.45931    -7.82281
   106  H   1.0    0.09    1.03    1.43     8.81355    79.28336    -0.80084
   107  H   1.0    0.05    1.06    1.44    10.55130    77.89227    -5.90057
   108  H   1.0    0.04    1.04    1.43     9.29069    83.12344    -3.81557
   109  H   1.0    0.11    1.02    1.43     5.35791    82.37101    -5.40666
   110  H   1.0    0.03    1.00    1.43     8.62426    84.03728    -8.45806
   111  H   1.0    0.04    1.00    1.43    11.74541    83.03089    -7.78631
   112  H   1.0    0.05    1.00    1.43     9.56873    80.91494    -9.16144
   113  N   5.0   -0.14    3.48    2.06    14.98796    79.29544    -5.35521
   114  C   4.0    0.04    4.43    4.42    17.63891    79.79834    -4.98011
   115  C   4.0    0.14    3.42    3.08    18.87540    80.48732    -7.49722
   116  O   6.0   -0.31    1.28    1.80    18.41390    79.34204    -9.45076
   117  C   4.0   -0.03    4.33    4.25    19.04015    77.43912    -3.96174
   118  C   4.0   -0.01    3.55    3.14    17.99318    76.57347    -1.46897
   119  C   4.0   -0.04    3.46    3.10    19.17025    77.18521     0.79828
   120  C   4.0   -0.03    3.48    3.11    15.79866    75.13661    -1.38229
   121  C   4.0   -0.04    3.43    3.09    18.17746    76.41830     3.09362
   122  C   4.0   -0.04    3.43    3.09    14.78228    74.37462     0.89823
   123  C   4.0    0.07    3.44    3.09    15.93992    75.02413     3.16744
   124  O   6.0   -0.25    2.11    1.84    14.99713    74.32756     5.44791
   125  H   1.0    0.11    1.09    1.44    14.52127    78.28525    -6.92173
   126  H   1.0    0.06    1.06    1.44    17.78499    81.34711    -3.61852
   127  H   1.0    0.05    1.03    1.43    18.83880    75.94348    -5.36861
   128  H   1.0    0.04    1.03    1.43    21.03460    77.91790    -3.78495
   129  H   1.0    0.05    1.03    1.43    20.88819    78.28266     0.77650
   130  H   1.0    0.05    1.03    1.43    14.86015    74.59840    -3.11209
   131  H   1.0    0.06    1.03    1.43    19.09355    76.87291     4.85858
   132  H   1.0    0.05    1.03    1.43    13.07888    73.25408     0.92695
   133  H   1.0    0.11    1.03    1.43    13.34289    73.54402     5.26747
   134  N   5.0   -0.14    3.47    2.06    20.52425    82.40290    -7.37313
   135  C   4.0    0.03    4.42    4.42    22.30223    82.96796    -9.38687
   136  C   4.0    0.15    3.43    3.09    24.72295    81.49657    -8.75409
   137  O   6.0   -0.30    1.23    1.80    25.71414    81.66758    -6.67409
   138  C   4.0   -0.04    4.28    4.16    22.79661    85.80117    -9.50664
   139  C   4.0   -0.02    4.19    3.98    24.48365    86.50212   -11.73337
   140  C   4.0    0.24    3.14    3.03    24.73794    89.39772   -11.87400
   141  O   6.0   -0.31    1.18    1.80    22.82461    90.71772   -11.92495
   142  O   6.0   -0.32    1.43    1.80    26.97746    90.25085   -11.90246
   143  H   1.0    0.08    1.07    1.44    21.00988    83.11737    -5.67022
   144  H   1.0    0.06    1.06    1.44    21.51531    82.27966   -11.16668
   145  H   1.0    0.05    1.03    1.43    21.00229    86.80693    -9.69287
   146  H   1.0    0.06    1.03    1.43    23.70450    86.39383    -7.74667
   147  H   1.0    0.06    1.02    1.43    26.35760    85.66328   -11.53170
   148  H   1.0    0.06    1.02    1.43    23.64331    85.83154   -13.49804
   149  N   5.0   -0.14    3.48    2.07    25.48006    79.90380   -10.55530
   150  C   4.0    0.03    4.43    4.43    27.56848    78.17531   -10.24783
   151  C   4.0    0.15    3.42    3.08    29.48006    78.53703   -12.37380
   152  O   6.0   -0.30    1.25    1.80    28.91430    79.52081   -14.40384
   153  C   4.0   -0.04    4.35    4.29    26.64002    75.42037   -10.25338
   154  C   4.0   -0.02    4.19    3.97    24.57966    74.89022    -8.28332
   155  C   4.0   -0.08    4.10    3.80    23.62408    72.18013    -8.55033
   156  C   4.0   -0.08    4.11    3.82    25.57562    75.34217    -5.61334
   157  H   1.0    0.11    1.09    1.44    24.72476    80.01791   -12.31044
   158  H   1.0    0.05    1.06    1.44    28.50559    78.61646    -8.46101
   159  H   1.0    0.05    1.03    1.43    25.91523    74.98399   -12.13871
   160  H   1.0    0.04    1.03    1.43    28.27924    74.21867    -9.89816
   161  H   1.0    0.05    1.05    1.44    22.99984    76.17904    -8.65201
   162  H   1.0    0.04    1.00    1.43    22.01299    71.86901    -7.31454
   163  H   1.0    0.04    1.00    1.43    23.04740    71.80355   -10.48711
   164  H   1.0    0.04    1.00    1.43    25.10800    70.85194    -8.04942
   165  H   1.0    0.04    1.00    1.43    24.26052    74.57202    -4.23647
   166  H   1.0    0.04    1.00    1.43    27.40588    74.43203    -5.40045
   167  H   1.0    0.06    1.00    1.43    25.78847    77.36075    -5.29967
   168  N   5.0   -0.13    3.51    2.08    31.77843    77.66651   -11.82179
   169  C   4.0    0.05    4.34    4.27    33.92206    78.06195   -13.44917
   170  C   4.0    0.08    3.20    3.04    35.21444    75.57272   -14.10986
   171  O   6.0   -0.28    1.13    1.80    34.88972    73.61733   -12.90488
   172  C   4.0   -0.04    4.27    4.15    35.86848    79.83376   -12.17458
   173  C   4.0    0.01    3.76    3.29    34.53696    81.97357   -10.94031
   174  N   5.0   -0.11    3.53    2.10    33.42289    83.92898   -12.22463
   175  C   4.0    0.03    3.65    3.20    33.95528    82.37711    -8.45807
   176  C   4.0    0.07    3.63    3.19    32.24241    85.39343   -10.48724
   177  N   5.0   -0.17    2.44    1.90    32.54232    84.51366    -8.20137
   178  H   1.0    0.08    1.06    1.44    32.14006    76.91453   -10.06697
   179  H   1.0    0.07    1.07    1.44    33.22910    78.95012   -15.18463
   180  H   1.0    0.04    1.03    1.43    36.89390    78.77377   -10.73211
   181  H   1.0    0.05    1.03    1.43    37.19011    80.49525   -13.60951
   182  H   1.0    0.08    1.05    1.44    33.43171    84.16969   -14.11119
   183  H   1.0    0.04    1.02    1.43    34.47947    81.24500    -6.86557
   184  H   1.0    0.06    1.02    1.43    31.18306    87.05872   -10.95963
   185  N   5.0   -0.21    3.23    1.96    11.36278    66.26308   -16.02414
   186  C   4.0    0.03    4.40    4.38    10.83312    67.18560   -18.54167
   187  C   4.0    0.15    3.44    3.09    12.08287    69.76456   -18.91607
   188  O   6.0   -0.32    1.23    1.80    12.01466    71.42193   -17.29219
   189  C   4.0   -0.02    4.33    4.26     7.95269    67.33055   -19.02804
   190  C   4.0   -0.04    4.20    4.00     7.45273    68.31540   -21.70052
   191  C   4.0   -0.07    4.13    3.86     6.63367    68.93487   -17.03553
   192  C   4.0   -0.08    4.01    3.65     4.76327    67.78585   -22.57714
   193  H   1.0    0.09    1.02    1.43    11.19069    67.51099   -14.57921
   194  H   1.0    0.05    1.06    1.44    11.65644    65.84419   -19.88215
   195  H   1.0    0.03    1.06    1.44     7.24694    65.38840   -18.89677
   196  H   1.0    0.06    1.03    1.43     7.83051    70.34387   -21.77916
   197  H   1.0    0.05    1.03    1.43     8.75936    67.40738   -23.01631
   198  H   1.0    0.03    1.00    1.43     4.60985    68.95350   -17.36838
   199  H   1.0    0.04    1.00    1.43     6.97386    68.17006   -15.15868
   200  H   1.0    0.05    1.00    1.43     7.33141    70.86639   -17.11590
   201  H   1.0    0.04    1.00    1.43     4.49620    68.51229   -24.48026
   202  H   1.0    0.04    1.00    1.43     4.42040    65.76162   -22.60330
   203  H   1.0    0.03    1.00    1.43     3.38556    68.68673   -21.35085
   204  N   5.0   -0.14    3.49    2.07    13.30484    70.02125   -21.11378
   205  C   4.0    0.03    4.41    4.40    14.41388    72.38646   -21.94924
   206  C   4.0    0.15    3.44    3.09    12.22397    74.08486   -22.81622
   207  O   6.0   -0.30    1.24    1.80    10.92341    73.47785   -24.63407
   208  C   4.0   -0.04    4.37    4.32    16.19132    71.82166   -24.15457
   209  C   4.0   -0.02    4.17    3.94    18.30548    73.75369   -24.57261
   210  C   4.0   -0.07    4.11    3.82    19.59471    73.22374   -27.10056
   211  C   4.0   -0.06    4.13    3.87    17.33275    76.46242   -24.51772
   212  H   1.0    0.10    1.10    1.44    13.13761    68.64120   -22.42256
   213  H   1.0    0.05    1.05    1.44    15.41973    73.24074   -20.35709
   214  H   1.0    0.05    1.03    1.43    17.06510    69.98481   -23.80041
   215  H   1.0    0.05    1.04    1.43    15.02804    71.69403   -25.85922
   216  H   1.0    0.05    1.05    1.44    19.70286    73.54283   -23.05940
   217  H   1.0    0.06    1.00    1.43    21.14264    74.54120   -27.40562
   218  H   1.0    0.05    1.00    1.43    20.37374    71.32676   -27.14226
   219  H   1.0    0.04    1.00    1.43    18.24526    73.42655   -28.63787
   220  H   1.0    0.06    1.00    1.43    18.79981    77.75107   -25.16598
   221  H   1.0    0.05    1.00    1.43    15.69029    76.68051   -25.73822
   222  H   1.0    0.06    1.00    1.43    16.82261    77.02267   -22.61049
   223  N   5.0   -0.14    3.46    2.05    11.77007    76.12152   -21.39621
   224  C   4.0    0.04    4.41    4.40     9.86045    77.95030   -22.08902
   225  C   4.0    0.15    3.43    3.09    10.81808    79.86675   -24.03139
   226  O   6.0   -0.30    1.23    1.80     9.54491    80.46977   -25.85752
   227  C   4.0   -0.05    4.37    4.33     8.93395    79.46254   -19.80509
   228  C   4.0   -0.02    4.17    3.93     7.44089    77.95661   -17.82986
   229  C   4.0   -0.08    4.11    3.83     6.98471    79.67536   -15.55418
   230  C   4.0   -0.08    4.10    3.80     4.91948    77.00361   -18.85475
   231  H   1.0    0.11    1.11    1.44    12.98732    76.62115   -19.99957
   232  H   1.0    0.06    1.06    1.44     8.30797    76.93018   -23.00056
   233  H   1.0    0.05    1.03    1.43    10.58840    80.29226   -18.89012
   234  H   1.0    0.04    1.03    1.43     7.74679    80.99489   -20.51515
   235  H   1.0    0.05    1.05    1.44     8.58773    76.33235   -17.24892
   236  H   1.0    0.04    1.00    1.43     5.79366    78.74665   -14.16459
   237  H   1.0    0.04    1.00    1.43     8.76088    80.18711   -14.65521
   238  H   1.0    0.03    1.00    1.43     6.03874    81.39459   -16.15966
   239  H   1.0    0.03    1.00    1.43     3.89284    76.00627   -17.38170
   240  H   1.0    0.04    1.00    1.43     3.77222    78.57714   -19.51040
   241  H   1.0    0.04    1.00    1.43     5.19895    75.70700   -20.42415
   242  N   5.0   -0.14    3.47    2.06    13.05404    80.94924   -23.50897
   243  C   4.0    0.03    4.36    4.31    14.03093    82.95125   -25.10345
   244  C   4.0    0.15    3.40    3.08    16.91461    83.08053   -25.03615
   245  O   6.0   -0.31    1.28    1.80    18.16629    82.25143   -23.26881
   246  C   4.0   -0.07    4.12    3.84    12.94985    85.50121   -24.25922
   247  H   1.0    0.10    1.07    1.44    14.12558    80.38560   -22.02827
   248  H   1.0    0.05    1.06    1.44    13.39757    82.55122   -27.03463
   249  H   1.0    0.05    1.01    1.43    13.73693    87.03313   -25.37629
   250  H   1.0    0.05    1.00    1.43    10.91295    85.46724   -24.49241
   251  H   1.0    0.04    1.00    1.43    13.41270    85.83432   -22.28527
   252  N   5.0   -0.14    3.47    2.06    17.91601    84.14230   -27.10188
   253  C   4.0    0.04    4.37    4.32    20.54869    84.81848   -27.35272
   254  C   4.0    0.25    3.14    3.03    20.99639    87.72299   -26.70468
   255  O   6.0   -0.29    1.17    1.80    23.03079    88.63470   -27.42222
   256  C   4.0   -0.03    4.30    4.20    21.52005    84.17237   -29.99356
   257  C   4.0    0.15    3.24    3.04    21.57842    81.32465   -30.29829
   258  O   6.0   -0.28    1.20    1.80    23.11313    79.98052   -29.21792
   259  N   5.0   -0.19    3.18    1.95    19.79227    80.36690   -31.83702
   260  O   6.0   -0.30    1.19    1.80    19.27441    88.76766   -25.51044
   261  H   1.0    0.08    1.07    1.44    16.73101    85.04821   -28.29359
   262  H   1.0    0.07    1.06    1.44    21.61095    83.73644   -25.93879
   263  H   1.0    0.04    1.03    1.43    20.33253    85.07447   -31.41404
   264  H   1.0    0.06    1.03    1.43    23.43056    84.93467   -30.12577
   265  H   1.0    0.09    1.03    1.43    19.66053    78.47573   -32.01742
   266  H   1.0    0.08    1.03    1.43    18.47648    81.46446   -32.65382
   267  N   5.0   -0.20    3.24    1.97     8.32859    99.50795   -24.90796
   268  C   4.0    0.03    4.21    4.03     9.49923    99.02882   -22.48667
   269  C   4.0    0.07    3.21    3.04    11.44290   101.07296   -21.88864
   270  O   6.0   -0.29    1.13    1.80    12.44290   102.37326   -23.52524
   271  C   4.0   -0.05    4.34    4.27    10.69318    96.37431   -22.44504
   272  C   4.0   -0.03    4.07    3.75    12.57990    95.97978   -24.56905
   273  S   6.0   -0.05    2.49    3.10    13.13255    92.61244   -25.14383
   274  C   4.0   -0.06    3.89    3.44    14.90645    91.79458   -22.34686
   275  H   1.0    0.10    1.03    1.43     9.30460   100.61122   -26.14151
   276  H   1.0    0.04    1.05    1.44     8.03450    99.05838   -21.02532
   277  H   1.0    0.03    1.03    1.43    11.55763    96.06484   -20.60507
   278  H   1.0    0.03    1.05    1.44     9.16661    95.00870   -22.67089
   279  H   1.0    0.04    1.08    1.44    11.83628    96.70034   -26.34730
   280  H   1.0    0.05    1.06    1.44    14.39888    96.87215   -24.19589
   281  H   1.0    0.07    1.05    1.44    16.23621    90.32384   -22.87873
   282  H   1.0    0.05    1.04    1.43    15.95136    93.44895   -21.73631
   283  H   1.0    0.03    1.04    1.43    13.63472    91.12791   -20.88034
   284  N   5.0   -0.20    3.23    1.96    17.01193   103.22128   -15.33451
   285  C   4.0    0.03    4.21    4.02    18.47204   102.50105   -13.12890
   286  C   4.0    0.07    3.23    3.04    19.87750   104.84221   -12.22378
   287  O   6.0   -0.29    1.14    1.80    21.00168   106.19110   -13.75412
   288  C   4.0   -0.04    4.26    4.13    20.34857   100.38271   -13.82340
   289  C   4.0   -0.05    4.17    3.94    21.92044    99.41952   -11.60493
   290  C   4.0   -0.04    4.17    3.94    23.68892    97.29204   -12.46287
   291  C   4.0   -0.03    4.11    3.83    25.69144    96.72443   -10.46836
   292  N   5.0   -0.11    3.98    2.80    27.69021    95.04740   -11.47816
   293  H   1.0    0.10    1.03    1.43    17.76007   104.55240   -16.49509
   294  H   1.0    0.04    1.05    1.44    17.18183   101.83193   -11.66412
   295  H   1.0    0.04    1.03    1.43    19.25849    98.81654   -14.60344
   296  H   1.0    0.05    1.03    1.43    21.61032   101.08996   -15.29581
   297  H   1.0    0.04    1.03    1.43    23.05087   100.96361   -10.82798
   298  H   1.0    0.04    1.02    1.43    20.67300    98.73830   -10.11169
   299  H   1.0    0.06    1.02    1.43    22.60433    95.58601   -12.86688
   300  H   1.0    0.04    1.03    1.43    24.63092    97.89695   -14.19629
   301  H   1.0    0.03    1.02    1.43    26.54501    98.50662    -9.85989
   302  H   1.0    0.05    1.02    1.43    24.83425    95.79839    -8.83897
   303  H   1.0    0.06    1.02    1.43    29.20020    95.00148   -10.27652
   304  H   1.0    0.12    1.16    1.46    27.13068    92.96481   -11.72481
   305  H   1.0    0.06    1.03    1.43    28.28128    95.69494   -13.20027
   306  N   5.0   -0.20    3.24    1.96    -1.18393    91.33882   -12.13967
   307  C   4.0    0.03    4.22    4.03     0.28050    89.95334   -10.27863
   308  C   4.0    0.07    3.21    3.04     2.45244    91.67198    -9.44611
   309  O   6.0   -0.31    1.15    1.80     3.88277    92.61123   -11.01740
   310  C   4.0   -0.05    4.36    4.30     1.27256    87.50627   -11.46806
   311  C   4.0   -0.03    4.17    3.93     2.25246    85.53299    -9.59217
   312  C   4.0   -0.08    4.11    3.82     0.13914    84.52802    -7.90827
   313  C   4.0   -0.08    4.11    3.83     3.42884    83.36251   -11.08677
   314  H   1.0    0.12    1.05    1.44    -0.29129    91.85030   -13.75998
   315  H   1.0    0.03    1.05    1.44    -0.97065    89.56384    -8.68593
   316  H   1.0    0.04    1.03    1.43    -0.26748    86.68125   -12.56209
   317  H   1.0    0.05    1.03    1.43     2.78098    88.01086   -12.77814
   318  H   1.0    0.04    1.05    1.44     3.70249    86.41602    -8.40150
   319  H   1.0    0.04    1.00    1.43     0.77274    82.88590    -6.85176
   320  H   1.0    0.03    1.00    1.43    -0.48209    85.93807    -6.55691
   321  H   1.0    0.03    1.00    1.43    -1.47596    83.96820    -9.04406
   322  H   1.0    0.04    1.00    1.43     4.13895    81.91223    -9.81950
   323  H   1.0    0.03    1.00    1.43     2.01580    82.51240   -12.31148
   324  H   1.0    0.03    1.00    1.43     4.98019    84.03628   -12.25303
   325  N   5.0   -0.19    3.25    1.97     8.82713    92.22807    -4.70639
   326  C   4.0    0.03    4.24    4.07    10.75620    90.66437    -3.57400
   327  C   4.0    0.08    3.27    3.05    12.93549    92.34357    -2.75418
   328  O   6.0   -0.28    1.15    1.80    13.11892    94.53453    -3.47587
   329  C   4.0   -0.04    4.32    4.24    11.73270    88.67462    -5.48135
   330  C   4.0   -0.01    3.60    3.16    13.15373    89.93281    -7.59131
   331  C   4.0   -0.04    3.47    3.10    15.76514    90.21234    -7.47843
   332  C   4.0   -0.04    3.47    3.10    11.87444    90.92351    -9.65527
   333  C   4.0   -0.03    3.43    3.09    17.06686    91.49697    -9.33713
   334  C   4.0   -0.05    3.43    3.09    13.15301    92.20767   -11.53741
   335  C   4.0    0.07    3.45    3.10    15.75331    92.53801   -11.36511
   336  O   6.0   -0.24    2.11    1.84    17.07403    93.88816   -13.10592
   337  H   1.0    0.10    1.03    1.43     9.42055    93.78812    -5.65810
   338  H   1.0    0.04    1.05    1.44     9.94032    89.71403    -1.92706
   339  H   1.0    0.04    1.03    1.43    12.93574    87.33053    -4.48542
   340  H   1.0    0.03    1.03    1.43    10.08646    87.67507    -6.21209
   341  H   1.0    0.05    1.03    1.43    16.78961    89.39927    -5.91110
   342  H   1.0    0.05    1.03    1.43     9.84965    90.70663    -9.79947
   343  H   1.0    0.07    1.03    1.43    19.09472    91.70046    -9.30163
   344  H   1.0    0.05    1.03    1.43    12.12197    92.98489   -13.12210
   345  H   1.0    0.11    1.04    1.43    15.94994    94.45621   -14.42850
   346  N   5.0   -0.20    3.25    1.97    24.46068    99.70125     1.39045
   347  C   4.0    0.03    4.23    4.06    23.26171   100.44870    -0.95068
   348  C   4.0    0.08    3.26    3.05    20.60906    99.34717    -1.04310
   349  O   6.0   -0.28    1.15    1.80    20.00424    97.53740     0.26700
   350  C   4.0   -0.04    4.33    4.26    24.76305    99.41169    -3.24580
   351  C   4.0   -0.01    3.58    3.16    24.93906    96.58237    -3.17915
   352  C   4.0   -0.03    3.47    3.10    23.09197    95.07056    -4.28152
   353  C   4.0   -0.05    3.48    3.10    26.93277    95.40664    -1.93972
   354  C   4.0   -0.03    3.43    3.09    23.22321    92.46631    -4.14029
   355  C   4.0   -0.04    3.43    3.09    27.08900    92.80578    -1.78652
   356  C   4.0    0.07    3.45    3.09    25.22221    91.31145    -2.87662
   357  O   6.0   -0.24    2.11    1.84    25.28396    88.74851    -2.74149
   358  H   1.0    0.10    1.04    1.43    23.64229    98.23665     2.32428
   359  H   1.0    0.03    1.05    1.44    23.23007   102.50933    -1.11129
   360  H   1.0    0.03    1.03    1.43    23.85080   100.06705    -4.97091
   361  H   1.0    0.03    1.03    1.43    26.63898   100.25222    -3.14814
   362  H   1.0    0.05    1.03    1.43    21.53245    95.93771    -5.27417
   363  H   1.0    0.04    1.03    1.43    28.39011    96.53987    -1.06922
   364  H   1.0    0.06    1.03    1.43    21.81463    91.29509    -5.03628
   365  H   1.0    0.05    1.03    1.43    28.63115    91.91452    -0.78970
   366  H   1.0    0.12    1.04    1.43    26.75990    88.22462    -1.78837
   367  N   5.0   -0.20    3.24    1.96     5.16166    94.88424   -16.02414
   368  C   4.0    0.03    4.30    4.19     4.62755    93.96428   -18.54167
   369  C   4.0    0.07    3.23    3.04     1.76923    93.75711   -18.91607
   370  O   6.0   -0.31    1.16    1.80     0.36802    92.86936   -17.29219
   371  C   4.0   -0.03    4.33    4.26     5.94225    91.39728   -19.02804
   372  C   4.0   -0.05    4.20    4.00     5.33932    90.47188   -21.70052
   373  C   4.0   -0.07    4.13    3.86     5.21237    89.45281   -17.03553
   374  C   4.0   -0.08    4.02    3.65     7.14266    88.40751   -22.57714
   375  H   1.0    0.12    1.04    1.44     4.16698    94.11125   -14.57921
   376  H   1.0    0.03    1.05    1.44     5.37760    95.34800   -19.88215
   377  H   1.0    0.03    1.06    1.44     7.97707    91.75716   -18.89677
   378  H   1.0    0.04    1.03    1.43     3.39373    89.78481   -21.77916
   379  H   1.0    0.03    1.03    1.43     5.47237    92.05746   -23.01631
   380  H   1.0    0.03    1.00    1.43     6.20815    87.69082   -17.36838
   381  H   1.0    0.05    1.00    1.43     5.70462    90.12984   -15.15868
   382  H   1.0    0.05    1.00    1.43     3.19076    89.09132   -17.11590
   383  H   1.0    0.04    1.00    1.43     6.64707    87.81300   -24.48026
   384  H   1.0    0.04    1.00    1.43     9.06712    89.12269   -22.60330
   385  H   1.0    0.04    1.00    1.43     7.05132    86.76394   -21.35085
   386  H   1.0    0.09    1.09    1.44    26.06420    99.22652     1.08076
   387  H   1.0    0.05    1.05    1.44    19.31230   100.10136    -2.19230
   388  H   1.0    0.09    1.08    1.44     6.79676    94.60136   -15.65134
   389  H   1.0    0.05    1.05    1.44     0.98137    94.35547   -20.52613
   390  H   1.0    0.09    1.08    1.44    13.29959    66.47839   -30.80385
   391  H   1.0    0.04    1.04    1.43    13.78122    61.86079   -24.91967
   392  H   1.0    0.09    1.07    1.44    26.17060    64.24647   -29.57917
   393  H   1.0    0.05    1.04    1.43    26.95642    62.78295   -23.21875
   394  H   1.0    0.09    1.08    1.44    31.92978    69.56396   -24.56468
   395  H   1.0    0.05    1.05    1.44    11.77580    74.08652   -11.90204
   396  H   1.0    0.09    1.07    1.44     8.07951    77.19459    -2.63763
   397  H   1.0    0.06    1.05    1.44    36.39050    75.48141   -15.58621
   398  H   1.0    0.08    1.08    1.44    10.30024    64.98848   -15.65134
   399  H   1.0    0.09    1.09    1.44     8.07164    98.03363   -25.71599
   400  H   1.0    0.05    1.05    1.44    11.95120   101.39855   -20.09792
   401  H   1.0    0.09    1.08    1.44    16.76010   101.85736   -16.31882
   402  H   1.0    0.05    1.04    1.43    19.88891   105.28625   -10.38700
   403  H   1.0    0.09    1.07    1.44    -2.51132    90.39703   -12.63327
   404  H   1.0    0.05    1.04    1.43     2.71703    92.03881    -7.61131
   405  H   1.0    0.09    1.08    1.44     7.94347    91.31195    -5.83441
   406  H   1.0    0.05    1.05    1.44    14.26658    91.66615    -1.59643

  Z AO/shell   Hii/eV     exponent
  1     Wed Apr 25 08:07:45 CEST 2018   EN: 2.200 GM2: 0.406  GM3: 0.0800  RAES: 1.40
     1s    -10.707211    1.230000
  6     Wed Apr 25 08:07:45 CEST 2018   EN: 2.550 GM2: 0.538  GM3: 0.1500  RAES: 3.00
     2s    -13.970922    2.096432
     2p    -10.063292    1.800000
  7     Wed Apr 25 08:07:45 CEST 2018   EN: 3.040 GM2: 0.461  GM3:-0.0640  RAES: 1.90
     2s    -16.686243    2.339881
     2p    -12.523956    2.014332
  8     Wed Apr 25 08:07:45 CEST 2018   EN: 3.440 GM2: 0.452  GM3:-0.0517  RAES: 1.80
     2s    -20.229985    2.439742
     2p    -15.503117    2.137023
 16     Tue Apr 24 11:44:34 CEST 2018   EN: 2.580 GM2: 0.340  GM3:-0.0502  RAES: 3.10
     3s    -20.029654    1.981333
     3p    -11.377694    2.025643
     3d     -0.420282    1.702555
 no old-style atom pair restraining (fixing) potential

molecular fragmentation (1/2 indicates fragments):
111111111111111111112222222222222222222222222222222222222222222222222222
222222222222222222222222222222222222222222222222222222222222222222222222
222222222222222222222222222222222222222222222222222222222222222222222222
222222222222222222222222222222222222222222222222222222222222222222222222
222222222222222222222222222222222222222222222222222222222222222222222222
2222222222222222222222222222211112222222222222
# atoms in fragment 1/2:    24   382
 fragment masses (1/2) :      208.29     2589.14
CMA distance (Bohr)    :  21.570
constraining FC (au)   :  0.0500
           ------------------------------------------------- 
          |        Self-Consistent Charge Iterations        |
           ------------------------------------------------- 

 Ncao       : 1006
 Nao        : 1003
 Nshell     : 603
 Nel        : 1092
 T(el)      :   500.0
 intcut     :    35.0
 scfconv/Eh :  0.100E-06
   qconv/e  :  0.100E-04
 intneglect :  0.100E-08
 broydamp   :      0.400
 iter      E             dE          RMSdq      gap      omega  full diag
   1   -621.5894661 -0.621589E+03  0.460E+00    3.13       0.0  T
   2   -623.0316723 -0.144221E+01  0.217E+00    1.70       1.0  T
   3   -623.1189556 -0.872833E-01  0.124E+00    1.89       1.0  T
   4   -623.2213604 -0.102405E+00  0.261E-01    1.33       1.0  T
   5   -623.2265950 -0.523464E-02  0.130E-01    1.46       1.0  T
   6   -623.2278329 -0.123790E-02  0.609E-02    1.46       1.0  T
   7   -623.2281627 -0.329815E-03  0.301E-02    1.44       1.0  T
   8   -623.2282267 -0.640235E-04  0.174E-02    1.44       1.0  T
   9   -623.2282458 -0.191185E-04  0.960E-03    1.44       1.0  T
  10   -623.2282511 -0.529774E-05  0.520E-03    1.45       1.0  T
  11   -623.2282527 -0.156314E-05  0.270E-03    1.45       1.8  T
  12   -623.2282532 -0.515959E-06  0.129E-03    1.45       3.9  T
  13   -623.2282534 -0.148870E-06  0.629E-04    1.45       7.9  T
  14   -623.2282534 -0.165712E-07  0.300E-04    1.45      16.5  T
  15   -623.2282534 -0.655155E-08  0.157E-04    1.45      31.7  T
  16   -623.2282534 -0.135174E-08  0.800E-05    1.45      62.0  T
  17   -623.2282534 -0.467935E-09  0.359E-05    1.45     138.4  T
speedup  1.99
cpu  time for SCC   17.57 s
wall time for SCC    8.81 s

   *** convergence criteria satisfied after 17 iterations ***

          eigenvalues
 #    :         534        535        536        537        538        539        540        541
 occ. :        2.000      2.000      2.000      2.000      2.000      2.000      2.000      2.000
 eps  :       -10.297    -10.237    -10.184    -10.163    -10.125    -10.082    -10.050     -9.946
 #    :         542        543        544        545        546        547        548        549
 occ. :        2.000      2.000      2.000      2.000      2.000      0.000      0.000      0.000
 eps  :        -9.942     -9.834     -9.834     -9.805     -9.728     -8.275     -8.239     -8.084
 #    :         550        551        552        553        554        555        556        557
 occ. :        0.000      0.000      0.000      0.000      0.000      0.000      0.000      0.000
 eps  :        -7.998     -7.864     -7.804     -7.799     -7.729     -7.660     -7.589     -7.004


   #   Z            q   n(s)   n(p)   n(d)      C6AA      α(0)
   1   7 N     -0.371  1.318  4.053  0.000    29.588     8.079
   2   6 C      0.034  1.056  2.910  0.000    19.993     6.363
   3   6 C      0.210  1.090  2.700  0.000    23.560     7.949
   4   8 O     -0.363  1.748  4.615  0.000    20.963     6.139
   5   6 C     -0.030  1.084  2.946  0.000    21.109     6.542
   6  16 S     -0.103  1.918  4.108  0.077   145.374    20.293
   7   1 H      0.161  0.839  0.000  0.000     1.326     1.804
   8   1 H      0.083  0.917  0.000  0.000     1.951     2.184
   9   1 H      0.077  0.923  0.000  0.000     2.006     2.215
  10   1 H      0.056  0.944  0.000  0.000     2.243     2.342
  11   7 N     -0.386  1.306  4.080  0.000    29.978     8.132
  12   6 C      0.049  1.049  2.902  0.000    19.753     6.328
  13   6 C      0.201  1.091  2.708  0.000    23.727     7.977
  14   8 O     -0.376  1.763  4.613  0.000    21.199     6.173
  15   6 C     -0.009  1.069  2.940  0.000    20.741     6.484
  16  16 S     -0.145  1.945  4.103  0.096   147.169    20.418
  17   1 H      0.176  0.824  0.000  0.000     1.238     1.743
  18   1 H      0.062  0.938  0.000  0.000     2.172     2.305
  19   1 H      0.056  0.944  0.000  0.000     2.245     2.343
  20   1 H      0.073  0.927  0.000  0.000     2.055     2.242
  21   7 N     -0.384  1.315  4.070  0.000    29.943     8.127
  22   6 C      0.027  1.062  2.911  0.000    20.131     6.391
  23   6 C      0.283  1.048  2.669  0.000    22.210     7.718
  24   8 O     -0.492  1.745  4.747  0.000    23.618     6.516
  25   6 C     -0.055  1.046  3.009  0.000    21.561     6.611
  26   6 C     -0.101  1.061  3.040  0.000    22.413     6.739
  27   6 C      0.288  1.038  2.675  0.000    22.125     7.702
  28   8 O     -0.496  1.755  4.741  0.000    23.695     6.526
  29   7 N     -0.296  1.275  4.021  0.000    27.634     7.807
  30   1 H      0.161  0.839  0.000  0.000     1.326     1.804
  31   1 H      0.057  0.943  0.000  0.000     2.233     2.337
  32   1 H      0.045  0.955  0.000  0.000     2.382     2.414
  33   1 H      0.033  0.967  0.000  0.000     2.551     2.498
  34   1 H      0.076  0.924  0.000  0.000     2.020     2.222
  35   1 H      0.069  0.931  0.000  0.000     2.102     2.267
  36   1 H      0.233  0.767  0.000  0.000     0.953     1.529
  37   1 H      0.232  0.768  0.000  0.000     0.955     1.531
  38   7 N     -0.181  1.260  3.921  0.000    24.920     7.414
  39   6 C      0.033  1.058  2.909  0.000    20.016     6.370
  40   6 C      0.279  1.041  2.681  0.000    22.284     7.731
  41   8 O     -0.488  1.752  4.736  0.000    23.527     6.503
  42   6 C     -0.105  1.061  3.043  0.000    22.490     6.751
  43   6 C      0.287  1.034  2.679  0.000    22.128     7.702
  44   8 O     -0.481  1.742  4.738  0.000    23.361     6.480
  45   7 N     -0.279  1.266  4.013  0.000    27.218     7.748
  46   1 H      0.215  0.785  0.000  0.000     1.034     1.593
  47   1 H      0.081  0.919  0.000  0.000     1.965     2.192
  48   1 H      0.066  0.934  0.000  0.000     2.126     2.280
  49   1 H      0.080  0.920  0.000  0.000     1.976     2.198
  50   1 H      0.253  0.747  0.000  0.000     0.871     1.462
  51   1 H      0.231  0.769  0.000  0.000     0.961     1.535
  52   7 N     -0.179  1.242  3.937  0.000    24.883     7.409
  53   6 C     -0.007  1.041  2.966  0.000    20.755     6.495
  54   6 C      0.275  1.037  2.688  0.000    22.346     7.741
  55   8 O     -0.481  1.728  4.753  0.000    23.365     6.481
  56   1 H      0.229  0.771  0.000  0.000     0.972     1.544
  57   1 H      0.060  0.940  0.000  0.000     2.199     2.319
  58   1 H      0.073  0.927  0.000  0.000     2.054     2.241
  59   7 N     -0.188  1.254  3.934  0.000    25.085     7.439
  60   6 C      0.030  1.059  2.911  0.000    20.075     6.380
  61   6 C      0.271  1.044  2.685  0.000    22.419     7.754
  62   8 O     -0.502  1.735  4.767  0.000    23.837     6.546
  63   6 C     -0.066  1.056  3.010  0.000    21.751     6.639
  64   6 C     -0.008  1.056  2.953  0.000    20.695     6.470
  65   6 C     -0.112  1.039  3.073  0.000    22.693     6.792
  66   6 C     -0.113  1.041  3.072  0.000    22.707     6.794
  67   1 H      0.223  0.777  0.000  0.000     0.996     1.563
  68   1 H      0.064  0.936  0.000  0.000     2.154     2.295
  69   1 H      0.047  0.953  0.000  0.000     2.355     2.400
  70   1 H      0.045  0.955  0.000  0.000     2.381     2.413
  71   1 H      0.027  0.973  0.000  0.000     2.635     2.538
  72   1 H      0.055  0.945  0.000  0.000     2.262     2.352
  73   1 H      0.026  0.974  0.000  0.000     2.650     2.546
  74   1 H      0.036  0.964  0.000  0.000     2.502     2.474
  75   1 H      0.057  0.943  0.000  0.000     2.233     2.337
  76   1 H      0.045  0.955  0.000  0.000     2.383     2.414
  77   1 H      0.043  0.957  0.000  0.000     2.413     2.429
  78   7 N     -0.162  1.244  3.918  0.000    24.512     7.353
  79   6 C      0.031  1.057  2.912  0.000    20.064     6.379
  80   6 C      0.199  1.090  2.711  0.000    23.761     7.983
  81   8 O     -0.349  1.738  4.611  0.000    20.681     6.097
  82   6 C     -0.071  1.057  3.014  0.000    21.845     6.652
  83   6 C      0.001  1.074  2.926  0.000    28.005     8.680
  84   6 C     -0.040  1.081  2.959  0.000    29.006     8.832
  85   6 C     -0.041  1.082  2.959  0.000    29.019     8.834
  86   6 C     -0.070  1.076  2.994  0.000    29.748     8.944
  87   6 C     -0.057  1.072  2.985  0.000    29.423     8.895
  88   6 C      0.149  1.046  2.805  0.000    24.760     8.155
  89   8 O     -0.437  1.710  4.727  0.000    21.571     6.270
  90   1 H      0.239  0.761  0.000  0.000     0.928     1.509
  91   1 H      0.095  0.905  0.000  0.000     1.835     2.119
  92   1 H      0.074  0.926  0.000  0.000     2.046     2.237
  93   1 H      0.076  0.924  0.000  0.000     2.017     2.221
  94   1 H      0.037  0.963  0.000  0.000     2.484     2.465
  95   1 H      0.052  0.948  0.000  0.000     2.299     2.371
  96   1 H      0.022  0.978  0.000  0.000     2.699     2.569
  97   1 H      0.041  0.959  0.000  0.000     2.434     2.440
  98   1 H      0.330  0.670  0.000  0.000     0.637     1.254
  99   7 N     -0.379  1.310  4.069  0.000    29.794     8.107
 100   6 C      0.022  1.063  2.915  0.000    20.211     6.403
 101   6 C      0.272  1.046  2.682  0.000    22.399     7.750
 102   8 O     -0.493  1.746  4.747  0.000    23.631     6.517
 103   6 C      0.117  1.045  2.838  0.000    18.763     6.184
 104   8 O     -0.470  1.717  4.753  0.000    22.256     6.369
 105   6 C     -0.129  1.044  3.085  0.000    23.037     6.844
 106   1 H      0.161  0.839  0.000  0.000     1.330     1.806
 107   1 H      0.050  0.950  0.000  0.000     2.325     2.384
 108   1 H      0.012  0.988  0.000  0.000     2.854     2.642
 109   1 H      0.321  0.679  0.000  0.000     0.662     1.278
 110   1 H      0.053  0.947  0.000  0.000     2.279     2.361
 111   1 H      0.034  0.966  0.000  0.000     2.527     2.486
 112   1 H      0.054  0.946  0.000  0.000     2.268     2.355
 113   7 N     -0.177  1.244  3.934  0.000    24.842     7.403
 114   6 C      0.024  1.061  2.916  0.000    20.179     6.396
 115   6 C      0.271  1.044  2.685  0.000    22.428     7.755
 116   8 O     -0.476  1.729  4.747  0.000    23.265     6.467
 117   6 C     -0.068  1.055  3.013  0.000    21.789     6.644
 118   6 C      0.002  1.074  2.924  0.000    27.979     8.676
 119   6 C     -0.041  1.083  2.958  0.000    29.028     8.835
 120   6 C     -0.038  1.083  2.955  0.000    28.946     8.823
 121   6 C     -0.061  1.075  2.985  0.000    29.512     8.908
 122   6 C     -0.073  1.079  2.995  0.000    29.825     8.956
 123   6 C      0.145  1.045  2.810  0.000    24.835     8.167
 124   8 O     -0.433  1.717  4.716  0.000    21.504     6.260
 125   1 H      0.225  0.775  0.000  0.000     0.986     1.556
 126   1 H      0.067  0.933  0.000  0.000     2.114     2.274
 127   1 H      0.056  0.944  0.000  0.000     2.246     2.343
 128   1 H      0.054  0.946  0.000  0.000     2.275     2.359
 129   1 H      0.040  0.960  0.000  0.000     2.442     2.444
 130   1 H      0.039  0.961  0.000  0.000     2.458     2.452
 131   1 H      0.050  0.950  0.000  0.000     2.315     2.379
 132   1 H      0.048  0.952  0.000  0.000     2.340     2.392
 133   1 H      0.352  0.648  0.000  0.000     0.583     1.200
 134   7 N     -0.179  1.258  3.921  0.000    24.868     7.406
 135   6 C      0.025  1.062  2.913  0.000    20.160     6.393
 136   6 C      0.274  1.042  2.685  0.000    22.373     7.746
 137   8 O     -0.479  1.740  4.739  0.000    23.323     6.475
 138   6 C     -0.050  1.047  3.003  0.000    21.473     6.596
 139   6 C     -0.083  1.056  3.027  0.000    22.081     6.690
 140   6 C      0.364  1.024  2.611  0.000    20.820     7.467
 141   8 O     -0.563  1.756  4.807  0.000    25.230     6.734
 142   8 O     -0.573  1.752  4.821  0.000    25.425     6.762
 143   1 H      0.211  0.789  0.000  0.000     1.050     1.605
 144   1 H      0.063  0.937  0.000  0.000     2.169     2.303
 145   1 H      0.054  0.946  0.000  0.000     2.269     2.355
 146   1 H      0.052  0.948  0.000  0.000     2.300     2.372
 147   1 H      0.022  0.978  0.000  0.000     2.710     2.575
 148   1 H      0.021  0.979  0.000  0.000     2.713     2.576
 149   7 N     -0.171  1.241  3.930  0.000    24.704     7.382
 150   6 C      0.021  1.058  2.921  0.000    20.227     6.404
 151   6 C      0.270  1.044  2.686  0.000    22.443     7.758
 152   8 O     -0.499  1.745  4.754  0.000    23.772     6.537
 153   6 C     -0.072  1.061  3.011  0.000    21.862     6.656
 154   6 C     -0.005  1.055  2.951  0.000    20.638     6.462
 155   6 C     -0.118  1.042  3.076  0.000    22.813     6.810
 156   6 C     -0.122  1.042  3.080  0.000    22.896     6.823
 157   1 H      0.214  0.786  0.000  0.000     1.035     1.594
 158   1 H      0.079  0.921  0.000  0.000     1.994     2.208
 159   1 H      0.041  0.959  0.000  0.000     2.440     2.443
 160   1 H      0.058  0.942  0.000  0.000     2.224     2.332
 161   1 H      0.019  0.981  0.000  0.000     2.755     2.596
 162   1 H      0.049  0.951  0.000  0.000     2.328     2.386
 163   1 H      0.033  0.967  0.000  0.000     2.539     2.492
 164   1 H      0.053  0.947  0.000  0.000     2.286     2.365
 165   1 H      0.052  0.948  0.000  0.000     2.291     2.367
 166   1 H      0.049  0.951  0.000  0.000     2.329     2.386
 167   1 H      0.042  0.958  0.000  0.000     2.422     2.434
 168   7 N     -0.158  1.237  3.920  0.000    24.409     7.338
 169   6 C      0.025  1.058  2.917  0.000    20.152     6.392
 170   6 C      0.197  1.086  2.718  0.000    23.804     7.990
 171   8 O     -0.364  1.755  4.608  0.000    20.972     6.140
 172   6 C     -0.081  1.054  3.027  0.000    22.043     6.683
 173   6 C      0.029  1.060  2.910  0.000    27.270     8.562
 174   7 N     -0.104  1.241  3.863  0.000    23.274     7.165
 175   6 C      0.003  1.064  2.932  0.000    27.619     8.590
 176   6 C      0.090  1.061  2.848  0.000    25.755     8.304
 177   7 N     -0.294  1.489  3.805  0.000    28.456     7.909
 178   1 H      0.214  0.786  0.000  0.000     1.040     1.597
 179   1 H      0.106  0.894  0.000  0.000     1.729     2.056
 180   1 H      0.079  0.921  0.000  0.000     1.994     2.208
 181   1 H      0.097  0.903  0.000  0.000     1.816     2.108
 182   1 H      0.189  0.811  0.000  0.000     1.163     1.689
 183   1 H      0.039  0.961  0.000  0.000     2.464     2.455
 184   1 H      0.041  0.959  0.000  0.000     2.429     2.437
 185   7 N     -0.389  1.319  4.070  0.000    30.059     8.143
 186   6 C      0.025  1.064  2.911  0.000    20.164     6.395
 187   6 C      0.274  1.047  2.679  0.000    22.370     7.745
 188   8 O     -0.498  1.742  4.756  0.000    23.734     6.532
 189   6 C     -0.024  1.070  2.955  0.000    20.971     6.513
 190   6 C     -0.054  1.047  3.006  0.000    21.538     6.607
 191   6 C     -0.106  1.035  3.071  0.000    22.580     6.776
 192   6 C     -0.108  1.037  3.071  0.000    22.634     6.784
 193   1 H      0.157  0.843  0.000  0.000     1.354     1.823
 194   1 H      0.045  0.955  0.000  0.000     2.378     2.412
 195   1 H      0.039  0.961  0.000  0.000     2.459     2.453
 196   1 H      0.015  0.985  0.000  0.000     2.817     2.625
 197   1 H      0.027  0.973  0.000  0.000     2.636     2.539
 198   1 H      0.046  0.954  0.000  0.000     2.373     2.409
 199   1 H      0.043  0.957  0.000  0.000     2.415     2.430
 200   1 H      0.034  0.966  0.000  0.000     2.529     2.487
 201   1 H      0.037  0.963  0.000  0.000     2.482     2.464
 202   1 H      0.046  0.954  0.000  0.000     2.375     2.410
 203   1 H      0.043  0.957  0.000  0.000     2.408     2.427
 204   7 N     -0.191  1.259  3.932  0.000    25.132     7.446
 205   6 C      0.034  1.058  2.908  0.000    20.013     6.371
 206   6 C      0.277  1.043  2.680  0.000    22.308     7.735
 207   8 O     -0.500  1.746  4.754  0.000    23.788     6.539
 208   6 C     -0.064  1.058  3.006  0.000    21.714     6.633
 209   6 C     -0.003  1.053  2.950  0.000    20.602     6.456
 210   6 C     -0.104  1.039  3.065  0.000    22.538     6.768
 211   6 C     -0.098  1.036  3.062  0.000    22.429     6.753
 212   1 H      0.217  0.783  0.000  0.000     1.022     1.584
 213   1 H      0.045  0.955  0.000  0.000     2.381     2.413
 214   1 H      0.048  0.952  0.000  0.000     2.347     2.396
 215   1 H      0.054  0.946  0.000  0.000     2.269     2.355
 216   1 H      0.020  0.980  0.000  0.000     2.727     2.582
 217   1 H      0.037  0.963  0.000  0.000     2.488     2.467
 218   1 H      0.043  0.957  0.000  0.000     2.414     2.430
 219   1 H      0.042  0.958  0.000  0.000     2.424     2.435
 220   1 H      0.029  0.971  0.000  0.000     2.608     2.525
 221   1 H      0.024  0.976  0.000  0.000     2.669     2.555
 222   1 H      0.029  0.971  0.000  0.000     2.594     2.518
 223   7 N     -0.193  1.259  3.934  0.000    25.187     7.454
 224   6 C      0.026  1.058  2.916  0.000    20.142     6.390
 225   6 C      0.274  1.045  2.681  0.000    22.369     7.745
 226   8 O     -0.482  1.743  4.740  0.000    23.398     6.485
 227   6 C     -0.070  1.059  3.010  0.000    21.819     6.648
 228   6 C     -0.007  1.055  2.952  0.000    20.677     6.468
 229   6 C     -0.116  1.043  3.073  0.000    22.766     6.802
 230   6 C     -0.115  1.040  3.075  0.000    22.757     6.802
 231   1 H      0.222  0.778  0.000  0.000     1.002     1.568
 232   1 H      0.077  0.923  0.000  0.000     2.006     2.215
 233   1 H      0.044  0.956  0.000  0.000     2.396     2.420
 234   1 H      0.053  0.947  0.000  0.000     2.279     2.361
 235   1 H      0.028  0.972  0.000  0.000     2.612     2.527
 236   1 H      0.057  0.943  0.000  0.000     2.238     2.340
 237   1 H      0.030  0.970  0.000  0.000     2.588     2.516
 238   1 H      0.050  0.950  0.000  0.000     2.320     2.382
 239   1 H      0.053  0.947  0.000  0.000     2.279     2.361
 240   1 H      0.049  0.951  0.000  0.000     2.335     2.390
 241   1 H      0.029  0.971  0.000  0.000     2.595     2.519
 242   7 N     -0.177  1.238  3.939  0.000    24.830     7.401
 243   6 C      0.026  1.058  2.917  0.000    20.144     6.390
 244   6 C      0.278  1.040  2.682  0.000    22.297     7.732
 245   8 O     -0.499  1.739  4.760  0.000    23.761     6.535
 246   6 C     -0.116  1.040  3.075  0.000    22.765     6.803
 247   1 H      0.203  0.797  0.000  0.000     1.092     1.637
 248   1 H      0.069  0.931  0.000  0.000     2.093     2.262
 249   1 H      0.058  0.942  0.000  0.000     2.225     2.333
 250   1 H      0.081  0.919  0.000  0.000     1.965     2.192
 251   1 H      0.052  0.948  0.000  0.000     2.289     2.366
 252   7 N     -0.181  1.258  3.922  0.000    24.913     7.413
 253   6 C      0.023  1.072  2.905  0.000    20.198     6.401
 254   6 C      0.367  1.024  2.609  0.000    20.770     7.458
 255   8 O     -0.617  1.768  4.849  0.000    26.549     6.908
 256   6 C     -0.096  1.059  3.037  0.000    22.327     6.726
 257   6 C      0.292  1.037  2.671  0.000    22.055     7.690
 258   8 O     -0.501  1.756  4.745  0.000    23.803     6.541
 259   7 N     -0.290  1.266  4.024  0.000    27.483     7.786
 260   8 O     -0.609  1.760  4.849  0.000    26.342     6.881
 261   1 H      0.201  0.799  0.000  0.000     1.099     1.642
 262   1 H      0.033  0.967  0.000  0.000     2.550     2.497
 263   1 H      0.055  0.945  0.000  0.000     2.254     2.348
 264   1 H      0.077  0.923  0.000  0.000     2.010     2.217
 265   1 H      0.227  0.773  0.000  0.000     0.977     1.548
 266   1 H      0.230  0.770  0.000  0.000     0.967     1.541
 267   7 N     -0.379  1.312  4.067  0.000    29.798     8.107
 268   6 C      0.032  1.057  2.910  0.000    20.052     6.379
 269   6 C      0.197  1.085  2.718  0.000    23.803     7.990
 270   8 O     -0.383  1.760  4.623  0.000    21.343     6.194
 271   6 C     -0.068  1.057  3.011  0.000    21.776     6.639
 272   6 C     -0.004  1.061  2.943  0.000    20.661     6.473
 273  16 S     -0.231  1.919  4.259  0.053   150.954    20.679
 274   6 C     -0.048  1.049  3.000  0.000    21.508     6.615
 275   1 H      0.163  0.837  0.000  0.000     1.315     1.796
 276   1 H      0.081  0.919  0.000  0.000     1.973     2.197
 277   1 H      0.051  0.949  0.000  0.000     2.304     2.374
 278   1 H      0.075  0.925  0.000  0.000     2.036     2.231
 279   1 H      0.069  0.931  0.000  0.000     2.099     2.266
 280   1 H      0.036  0.964  0.000  0.000     2.505     2.475
 281   1 H      0.053  0.947  0.000  0.000     2.284     2.363
 282   1 H      0.047  0.953  0.000  0.000     2.362     2.403
 283   1 H      0.051  0.949  0.000  0.000     2.311     2.377
 284   7 N     -0.382  1.316  4.067  0.000    29.887     8.119
 285   6 C      0.036  1.056  2.908  0.000    19.990     6.369
 286   6 C      0.202  1.087  2.711  0.000    23.704     7.974
 287   8 O     -0.376  1.761  4.615  0.000    21.204     6.174
 288   6 C     -0.067  1.060  3.007  0.000    21.779     6.644
 289   6 C     -0.067  1.052  3.015  0.000    21.776     6.644
 290   6 C     -0.078  1.052  3.026  0.000    21.986     6.676
 291   6 C     -0.020  1.050  2.970  0.000    21.029     6.546
 292   7 N     -0.207  1.270  3.937  0.000    25.494     7.499
 293   1 H      0.164  0.836  0.000  0.000     1.310     1.793
 294   1 H      0.060  0.940  0.000  0.000     2.203     2.321
 295   1 H      0.051  0.949  0.000  0.000     2.303     2.373
 296   1 H      0.050  0.950  0.000  0.000     2.325     2.384
 297   1 H      0.046  0.954  0.000  0.000     2.371     2.408
 298   1 H      0.047  0.953  0.000  0.000     2.355     2.400
 299   1 H      0.066  0.934  0.000  0.000     2.127     2.281
 300   1 H      0.055  0.945  0.000  0.000     2.256     2.349
 301   1 H      0.091  0.909  0.000  0.000     1.868     2.137
 302   1 H      0.081  0.919  0.000  0.000     1.965     2.192
 303   1 H      0.265  0.735  0.000  0.000     0.827     1.425
 304   1 H      0.298  0.702  0.000  0.000     0.716     1.325
 305   1 H      0.256  0.744  0.000  0.000     0.860     1.453
 306   7 N     -0.398  1.322  4.076  0.000    30.315     8.177
 307   6 C      0.040  1.055  2.905  0.000    19.920     6.358
 308   6 C      0.201  1.091  2.708  0.000    23.714     7.975
 309   8 O     -0.366  1.751  4.615  0.000    21.022     6.147
 310   6 C     -0.071  1.062  3.009  0.000    21.844     6.653
 311   6 C     -0.011  1.057  2.954  0.000    20.736     6.477
 312   6 C     -0.119  1.040  3.079  0.000    22.839     6.814
 313   6 C     -0.118  1.042  3.076  0.000    22.809     6.809
 314   1 H      0.174  0.826  0.000  0.000     1.250     1.751
 315   1 H      0.052  0.948  0.000  0.000     2.298     2.370
 316   1 H      0.047  0.953  0.000  0.000     2.354     2.399
 317   1 H      0.046  0.954  0.000  0.000     2.374     2.410
 318   1 H      0.014  0.986  0.000  0.000     2.831     2.631
 319   1 H      0.045  0.955  0.000  0.000     2.381     2.413
 320   1 H      0.038  0.962  0.000  0.000     2.473     2.459
 321   1 H      0.046  0.954  0.000  0.000     2.375     2.410
 322   1 H      0.049  0.951  0.000  0.000     2.335     2.389
 323   1 H      0.045  0.955  0.000  0.000     2.381     2.413
 324   1 H      0.034  0.966  0.000  0.000     2.533     2.489
 325   7 N     -0.374  1.308  4.066  0.000    29.671     8.090
 326   6 C      0.038  1.057  2.905  0.000    19.945     6.361
 327   6 C      0.204  1.081  2.715  0.000    23.667     7.967
 328   8 O     -0.374  1.756  4.618  0.000    21.166     6.168
 329   6 C     -0.070  1.057  3.013  0.000    21.822     6.649
 330   6 C     -0.002  1.076  2.926  0.000    28.074     8.691
 331   6 C     -0.041  1.082  2.959  0.000    29.017     8.834
 332   6 C     -0.039  1.079  2.960  0.000    28.958     8.825
 333   6 C     -0.054  1.075  2.979  0.000    29.337     8.882
 334   6 C     -0.075  1.077  2.998  0.000    29.870     8.962
 335   6 C      0.144  1.045  2.810  0.000    24.855     8.171
 336   8 O     -0.424  1.719  4.705  0.000    21.329     6.234
 337   1 H      0.167  0.833  0.000  0.000     1.293     1.781
 338   1 H      0.073  0.927  0.000  0.000     2.053     2.241
 339   1 H      0.043  0.957  0.000  0.000     2.406     2.426
 340   1 H      0.058  0.942  0.000  0.000     2.217     2.328
 341   1 H      0.023  0.977  0.000  0.000     2.687     2.563
 342   1 H      0.045  0.955  0.000  0.000     2.385     2.415
 343   1 H      0.049  0.951  0.000  0.000     2.332     2.388
 344   1 H      0.041  0.959  0.000  0.000     2.440     2.443
 345   1 H      0.333  0.667  0.000  0.000     0.631     1.247
 346   7 N     -0.382  1.312  4.070  0.000    29.873     8.117
 347   6 C      0.036  1.058  2.906  0.000    19.995     6.370
 348   6 C      0.202  1.082  2.716  0.000    23.700     7.973
 349   8 O     -0.388  1.763  4.624  0.000    21.435     6.207
 350   6 C     -0.080  1.060  3.020  0.000    22.010     6.678
 351   6 C      0.000  1.073  2.926  0.000    28.018     8.682
 352   6 C     -0.039  1.082  2.957  0.000    28.966     8.826
 353   6 C     -0.042  1.081  2.961  0.000    29.038     8.837
 354   6 C     -0.054  1.072  2.982  0.000    29.341     8.883
 355   6 C     -0.076  1.079  2.997  0.000    29.898     8.967
 356   6 C      0.144  1.046  2.810  0.000    24.854     8.171
 357   8 O     -0.445  1.728  4.717  0.000    21.749     6.296
 358   1 H      0.160  0.840  0.000  0.000     1.336     1.811
 359   1 H      0.075  0.925  0.000  0.000     2.031     2.229
 360   1 H      0.058  0.942  0.000  0.000     2.218     2.329
 361   1 H      0.077  0.923  0.000  0.000     2.008     2.216
 362   1 H      0.032  0.968  0.000  0.000     2.557     2.501
 363   1 H      0.053  0.947  0.000  0.000     2.285     2.364
 364   1 H      0.026  0.974  0.000  0.000     2.645     2.543
 365   1 H      0.046  0.954  0.000  0.000     2.369     2.407
 366   1 H      0.350  0.650  0.000  0.000     0.588     1.204
 367   7 N     -0.385  1.317  4.068  0.000    29.948     8.128
 368   6 C      0.035  1.059  2.905  0.000    19.995     6.369
 369   6 C      0.202  1.089  2.710  0.000    23.704     7.973
 370   8 O     -0.370  1.751  4.619  0.000    21.085     6.156
 371   6 C     -0.020  1.070  2.950  0.000    20.890     6.501
 372   6 C     -0.062  1.051  3.011  0.000    21.688     6.630
 373   6 C     -0.103  1.033  3.071  0.000    22.532     6.768
 374   6 C     -0.107  1.036  3.071  0.000    22.599     6.779
 375   1 H      0.178  0.822  0.000  0.000     1.227     1.735
 376   1 H      0.049  0.951  0.000  0.000     2.336     2.390
 377   1 H      0.039  0.961  0.000  0.000     2.465     2.455
 378   1 H      0.033  0.967  0.000  0.000     2.539     2.492
 379   1 H      0.037  0.963  0.000  0.000     2.495     2.470
 380   1 H      0.040  0.960  0.000  0.000     2.444     2.445
 381   1 H      0.047  0.953  0.000  0.000     2.362     2.404
 382   1 H      0.042  0.958  0.000  0.000     2.426     2.436
 383   1 H      0.037  0.963  0.000  0.000     2.488     2.467
 384   1 H      0.042  0.958  0.000  0.000     2.425     2.435
 385   1 H      0.033  0.967  0.000  0.000     2.542     2.493
 386   1 H      0.187  0.813  0.000  0.000     1.172     1.696
 387   1 H      0.061  0.939  0.000  0.000     2.185     2.311
 388   1 H      0.175  0.825  0.000  0.000     1.242     1.746
 389   1 H      0.066  0.934  0.000  0.000     2.127     2.280
 390   1 H      0.193  0.807  0.000  0.000     1.143     1.675
 391   1 H      0.087  0.913  0.000  0.000     1.907     2.159
 392   1 H      0.188  0.812  0.000  0.000     1.168     1.693
 393   1 H      0.088  0.912  0.000  0.000     1.895     2.152
 394   1 H      0.186  0.814  0.000  0.000     1.180     1.701
 395   1 H      0.092  0.908  0.000  0.000     1.862     2.133
 396   1 H      0.193  0.807  0.000  0.000     1.140     1.672
 397   1 H      0.089  0.911  0.000  0.000     1.889     2.149
 398   1 H      0.188  0.812  0.000  0.000     1.169     1.693
 399   1 H      0.186  0.814  0.000  0.000     1.178     1.700
 400   1 H      0.069  0.931  0.000  0.000     2.094     2.263
 401   1 H      0.176  0.824  0.000  0.000     1.234     1.740
 402   1 H      0.073  0.927  0.000  0.000     2.057     2.242
 403   1 H      0.181  0.819  0.000  0.000     1.210     1.723
 404   1 H      0.066  0.934  0.000  0.000     2.126     2.280
 405   1 H      0.176  0.824  0.000  0.000     1.238     1.742
 406   1 H      0.059  0.941  0.000  0.000     2.208     2.324

 Mol. C6AA /au·bohr⁶  :    1581884.195605
 Mol. C8AA /au·bohr⁸  :   36151914.425005
 Mol. α(0) /au        :       1901.150478

 
molecular dipole:
                 x           y           z       tot (Debye)
 q only:      -15.574     -84.967      18.978
   full:      -14.226     -85.007      16.718     223.159
molecular quadrupole (traceless):
                xx          xy          yy          xz          yz          zz
 q only:     3694.727   -1910.668   -6956.074     395.433    2562.761    3261.347
  q+dip:     3740.160   -1701.416   -7080.309     274.307    2255.805    3340.149
   full:     3739.763   -1709.287   -7076.525     272.039    2256.052    3336.762
speedup  1.99
cpu  time for grad   19.66 s
wall time for grad    9.86 s

SCC energy    :    -623.2531508
rep           :       7.8511218
ES            :       1.6021778
AES           :      -0.0288202
AXC           :       0.2389462
disp          :      -0.5182190
XB            :       0.0000000
fix           :       0.0000000
Gborn         :       0.0000000
Gsasa         :       0.0000000
Ghb           :       0.0000000
Gshift        :       0.0000000
Gsolv         :      -0.3362851     -211.02
Etot ala COSMO:    -623.2531508
grad norm     :       0.7347453
total E       :    -615.3555655
atomizationE  :     113.3481484    71127.04
(atE without considering molecular charge,
 total energy contains solvation terms)
H-L gap (eV)  :          1.4539

------------------------------------------------------------------------
 * finished run on 2019/05/08 at 07:14:13.352     
------------------------------------------------------------------------
 total:
 * wall-time:     0 d,  0 h,  0 min, 10.460 sec
 *  cpu-time:     0 d,  0 h,  0 min, 20.745 sec
 * ratio c/w:     1.983 speedup
 SCF:
 * wall-time:     0 d,  0 h,  0 min, 10.239 sec
 *  cpu-time:     0 d,  0 h,  0 min, 20.423 sec
 * ratio c/w:     1.995 speedup

