      -----------------------------------------------------------      
     |                   =====================                   |     
     |                           x T B                           |     
     |                   =====================                   |     
     |                         S. Grimme                         |     
     |          Mulliken Center for Theoretical Chemistry        |     
     |                    University of Bonn                     |     
     |                 Version 6.0.1 (SAW181210)                 |     
      -----------------------------------------------------------      

   This program is distributed in the hope that it will be useful,
   but WITHOUT ANY WARRANTY; without even the implied warranty of
   MERCHANTABILITY or FITNESS FOR A PARTICULAR PURPOSE.
   
   FOR NON-COMMERCIAL, ACADEMIA USE ONLY.
   
   Cite this work as:
   S. Grimme, C. Bannwarth, P. Shushkov, J. Comput. Theory Chem., 2017,
   13, 1989-2009.
   C. Bannwarth, S. Ehlert and S. Grimme., ChemRxiv, 2018, preprint.
   http://doi.org/10.26434/chemrxiv.7246238.v1
   
   for sTDA-xTB:
   S. Grimme and C. Bannwarth, J. Chem. Phys., 2016, 145, 054103.
   
   in the mass-spec context:
   V. Asgeirsson, C. Bauer and S. Grimme, Chem. Sci., 2017, 8, 4879.
   
   if GBSA is used:
   P. Shushkov, F. März and S. Grimme, unpublished.
   
   for ANC optimizer:
   S. Grimme, unpublished.
   Rational Function algorithm used in ANCopt:
   F. Eckert, P. Pulay, H.-J. Werner, J. Comput. Chem., 1997, 18, 1473.
   
   with help from (in alphabetical order)
   C. Bannwarth, F. Bohle, G. Brandenburg, E. Caldeweyher, M. Checinski,
   S. Dohm, S. Ehlert, S. Ehrlich, F. März, H. Neugebauer, J. Pisarek,
   P. Pracht, P. Shushkov, and S. Spicher.
   
 * started run on 2019/05/04 at 17:33:06.790     
========================================================================
 # omp threads = 2
========================================================================
number of atoms            : 372
number of electrons        : 1052
charge                     : -4
spin                       : .0
first test random number   : .3324

########################################################################
# WARNING! Please study the warnings concerning your input carefully
#  - Process number higher than OMP_NUM_THREADS, I hope you know what you are doing.
########################################################################

           ------------------------------------------------- 
          |                 G F N 2 - x T B                 |
          | Geometry, Frequencies, Noncovalent interactions |
          |            JCTC 2018 parametrisation            |
           ------------------------------------------------- 
 
      method parameters     
 k(s)        :  1.8500
 k(p)        :  2.2300
 k(d)        :  2.2300
 k(f)        :  2.0000
 kEN (H0ij)  : -2.0000
 D4 a1       :  0.5200
 D4 a2       :  5.0000
 D4 s6       :  1.0000
 D4 s8       :  2.7000
 D4 s9       :  5.0000
 alphaj      :  2.0000

 Solvent             : h2o
 Using internal parameter file: .param_gbsa2_h2o
 Gsolv ref. state (COSMO-RS): gsolv [1 M gas/solution]
 temperature (mdtemp)       :    298.150000000000     
 dielectric constant        :    80.2000000000000     
 rho                        :    1.00000000000000     
 mass                       :    18.0000000000000     
 surface tension            :    15.5689454083859     
 probe radius               :   0.975313790000000     
 vdW radii scaling          :    1.00000000000000     
 Gshift (Eh)                :   1.857443126794793E-003
 c1                         :    1.55243817000000     
 soset                      :   0.130326360000000     
 HB correction              :  T

            Z     q(EN)     CN     RAES       Cart. coordinates
     1  N   5.0   -0.22    3.18    1.95   -16.54455   146.22510    19.04844
     2  C   4.0    0.02    4.28    4.16   -17.30422   143.56437    18.79710
     3  C   4.0    0.14    3.40    3.08   -18.43617   142.48912    21.24619
     4  O   6.0   -0.32    1.29    1.80   -20.42605   141.28347    21.21973
     5  C   4.0   -0.05    4.23    4.07   -15.10836   141.89574    17.90137
     6  C   4.0   -0.06    4.12    3.84   -14.15972   142.33227    15.17261
     7  C   4.0   -0.02    4.17    3.94   -15.78299   141.08505    13.09580
     8  N   5.0   -0.15    3.37    2.01   -16.24408   138.36573    13.42083
     9  C   4.0    0.08    3.33    3.06   -15.78299   136.58939    11.68607
    10  N   5.0   -0.21    3.26    1.97   -14.81734   137.18466     9.44674
    11  N   5.0   -0.21    3.23    1.96   -16.30267   134.18944    12.18684
    12  H   1.0    0.07    1.02    1.43   -15.23497   146.78635    17.75020
    13  H   1.0    0.04    1.06    1.44   -18.77632   143.50579    17.35713
    14  H   1.0    0.04    1.03    1.43   -13.50776   142.22077    19.15615
    15  H   1.0    0.04    1.04    1.43   -15.70929   139.93043    18.02232
    16  H   1.0    0.02    1.03    1.43   -14.13704   144.35805    14.80411
    17  H   1.0    0.03    1.03    1.43   -12.25487   141.56504    15.01009
    18  H   1.0    0.03    1.02    1.43   -17.61980   142.01857    13.05801
    19  H   1.0    0.02    1.04    1.43   -14.82868   141.33260    11.28733
    20  H   1.0    0.07    1.06    1.44   -16.97541   137.78748    15.10836
    21  H   1.0    0.06    1.04    1.43   -14.41483   139.02336     9.02911
    22  H   1.0    0.05    1.03    1.43   -14.47719   135.80327     8.14661
    23  H   1.0    0.07    1.03    1.43   -17.05289   133.70189    13.89327
    24  H   1.0    0.06    1.03    1.43   -15.95118   132.83073    10.86403
    25  N   5.0   -0.14    3.45    2.05   -17.17572   142.95588    23.36079
    26  C   4.0    0.03    4.45    4.47   -18.20940   142.21322    25.78720
    27  C   4.0    0.15    3.46    3.10   -20.70951   143.54169    26.34089
    28  O   6.0   -0.31    1.42    1.80   -22.70128   142.37195    26.12735
    29  C   4.0   -0.05    4.29    4.18   -16.26676   142.58738    27.87724
    30  C   4.0   -0.04    4.21    4.02   -14.68128   140.22711    28.29109
    31  C   4.0    0.24    3.13    3.03   -11.87126   140.74301    28.49140
    32  O   6.0   -0.32    1.18    1.80   -11.04923   141.98834    30.31498
    33  O   6.0   -0.32    1.18    1.80   -10.46530   139.84917    26.83600
    34  H   1.0    0.07    1.06    1.44   -15.46174   143.83271    23.44961
    35  H   1.0    0.05    1.07    1.44   -18.64593   140.20066    25.74185
    36  H   1.0    0.05    1.04    1.43   -15.00442   144.13318    27.36323
    37  H   1.0    0.04    1.03    1.43   -17.23997   143.02958    29.63846
    38  H   1.0    0.03    1.03    1.43   -15.28032   139.32571    30.04286
    39  H   1.0    0.04    1.04    1.43   -14.97230   138.94588    26.70372
    40  N   5.0   -0.15    3.46    2.05   -20.60557   145.97944    26.95505
    41  C   4.0    0.03    4.42    4.41   -22.85813   147.48177    27.52008
    42  C   4.0    0.16    3.51    3.12   -25.13147   146.59171    26.02909
    43  O   6.0   -0.32    1.29    1.80   -27.15347   146.22510    27.09678
    44  C   4.0   -0.05    4.28    4.16   -22.41215   150.28424    26.97584
    45  C   4.0   -0.04    4.18    3.96   -20.25975   151.46153    28.48951
    46  C   4.0    0.24    3.11    3.02   -19.47741   154.08258    27.53520
    47  O   6.0   -0.31    1.17    1.80   -21.15170   155.73798    27.29520
    48  O   6.0   -0.32    1.16    1.80   -17.18706   154.50021    27.06843
    49  H   1.0    0.07    1.07    1.44   -18.96718   146.98666    27.07977
    50  H   1.0    0.04    1.06    1.44   -23.25875   147.25123    29.52697
    51  H   1.0    0.05    1.03    1.43   -21.96051   150.50155    24.97840
    52  H   1.0    0.05    1.03    1.43   -24.13180   151.32358    27.42748
    53  H   1.0    0.04    1.03    1.43   -20.85502   151.65618    30.45104
    54  H   1.0    0.04    1.03    1.43   -18.61191   150.22943    28.37235
    55  N   5.0   -0.13    3.51    2.08   -24.79131   146.21188    23.57055
    56  C   4.0    0.04    4.41    4.40   -26.85301   145.38040    21.93972
    57  C   4.0    0.16    3.51    3.12   -27.59000   142.66297    22.52931
    58  O   6.0   -0.30    1.30    1.80   -29.68948   142.16408    23.42882
    59  C   4.0   -0.05    4.28    4.16   -26.10467   145.61094    19.15426
    60  C   4.0   -0.04    4.15    3.90   -28.20605   146.57848    17.39115
    61  C   4.0    0.24    3.10    3.02   -27.88858   149.37339    16.65982
    62  O   6.0   -0.32    1.16    1.80   -27.96039   149.95920    14.35625
    63  O   6.0   -0.30    1.17    1.80   -27.70905   150.98154    18.38136
    64  H   1.0    0.08    1.06    1.44   -23.11513   146.46321    22.65214
    65  H   1.0    0.06    1.06    1.44   -28.48762   146.58793    22.27609
    66  H   1.0    0.05    1.04    1.43   -24.52486   146.92430    19.01064
    67  H   1.0    0.04    1.04    1.43   -25.53776   143.75145    18.47585
    68  H   1.0    0.04    1.03    1.43   -28.18904   145.46543    15.65827
    69  H   1.0    0.04    1.03    1.43   -30.02208   146.37439    18.34168
    70  N   5.0   -0.14    3.55    2.11   -25.84578   140.91686    22.05499
    71  C   4.0    0.04    4.44    4.44   -26.28231   138.28637    22.63325
    72  C   4.0    0.17    3.51    3.12   -27.51819   138.01613    25.22028
    73  O   6.0   -0.29    1.24    1.80   -28.95816   136.25869    25.67571
    74  C   4.0    0.04    4.20    3.99   -23.81811   136.85584    22.58034
    75  O   6.0   -0.26    2.05    1.83   -24.29810   134.30282    22.02476
    76  H   1.0    0.10    1.09    1.44   -24.12235   141.27969    21.27265
    77  H   1.0    0.05    1.06    1.44   -27.54276   137.47567    21.21973
    78  H   1.0    0.05    1.03    1.43   -22.59545   137.65331    21.12714
    79  H   1.0    0.05    1.02    1.43   -22.90726   136.99568    24.42282
    80  H   1.0    0.10    1.01    1.43   -22.70884   133.35418    21.98129
    81  N   5.0   -0.12    3.57    2.13   -26.97206   139.80571    26.88891
    82  C   4.0    0.04    4.36    4.31   -28.27030   139.99846    29.29642
    83  C   4.0    0.16    3.45    3.10   -31.10300   140.33861    28.95060
    84  O   6.0   -0.29    1.29    1.80   -32.51462   138.48101    28.96950
    85  C   4.0   -0.07    4.15    3.90   -27.18371   142.15086    30.87434
    86  H   1.0    0.12    1.15    1.45   -25.62657   141.16064    26.62246
    87  H   1.0    0.05    1.06    1.44   -27.97928   138.23912    30.32632
    88  H   1.0    0.04    1.00    1.43   -28.19471   142.24534    32.66580
    89  H   1.0    0.04    1.00    1.43   -25.18438   141.78992    31.21449
    90  H   1.0    0.07    1.04    1.43   -27.41236   143.91964    29.84444
    91  N   5.0   -0.14    3.47    2.06   -31.91558   142.69888    28.58022
    92  C   4.0    0.03    4.36    4.31   -34.60088   143.34516    28.75218
    93  C   4.0    0.16    3.46    3.10   -36.34510   141.50457    27.39914
    94  O   6.0   -0.32    1.32    1.80   -38.38411   140.94332    28.36857
    95  C   4.0   -0.08    4.12    3.84   -35.06953   146.00590    27.85834
    96  H   1.0    0.10    1.07    1.44   -30.77419   144.19365    28.16070
    97  H   1.0    0.05    1.07    1.44   -35.08654   143.23556    30.75151
    98  H   1.0    0.04    1.00    1.43   -37.08209   146.41975    28.01141
    99  H   1.0    0.04    1.00    1.43   -33.99239   147.30792    29.03564
   100  H   1.0    0.05    1.00    1.43   -34.46671   146.17030    25.89491
   101  N   5.0   -0.13    3.48    2.06   -35.52118   140.55404    25.21083
   102  C   4.0    0.03    4.36    4.30   -36.94792   138.66620    23.77275
   103  C   4.0    0.16    3.50    3.11   -37.62822   136.44199    25.45461
   104  O   6.0   -0.32    1.49    1.80   -39.84487   136.05460    26.09334
   105  C   4.0   -0.08    4.15    3.91   -35.43803   137.76291    21.54288
   106  H   1.0    0.10    1.07    1.44   -33.85822   141.05670    24.37558
   107  H   1.0    0.04    1.06    1.44   -38.68458   139.52414    23.06977
   108  H   1.0    0.04    1.00    1.43   -36.53974   136.36262    20.50920
   109  H   1.0    0.04    1.00    1.43   -35.01851   139.36729    20.32211
   110  H   1.0    0.05    1.01    1.43   -33.68437   136.91820    22.21751
   111  N   5.0   -0.13    3.50    2.08   -35.69881   135.00202    26.18971
   112  C   4.0    0.04    4.38    4.34   -36.04085   132.91010    27.94527
   113  C   4.0    0.16    3.52    3.13   -37.88145   133.64142    30.00507
   114  O   6.0   -0.31    1.32    1.80   -39.85621   132.46790    30.25073
   115  C   4.0   -0.07    4.14    3.88   -33.54453   132.15232    29.08666
   116  H   1.0    0.10    1.06    1.44   -33.87901   135.24013    25.60201
   117  H   1.0    0.05    1.06    1.44   -36.77218   131.28304    26.91537
   118  H   1.0    0.04    1.00    1.43   -33.85066   130.58762    30.39057
   119  H   1.0    0.05    1.00    1.43   -32.26707   131.57028    27.57866
   120  H   1.0    0.06    1.00    1.43   -32.75273   133.76425    30.09578
   121  N   5.0   -0.14    3.51    2.08   -37.25217   135.63697    31.40536
   122  C   4.0    0.03    4.44    4.44   -38.77151   136.44388    33.52752
   123  C   4.0    0.15    3.46    3.10   -41.42657   137.19788    32.73950
   124  O   6.0   -0.32    1.25    1.80   -43.18024   137.05993    34.26262
   125  C   4.0   -0.04    4.27    4.15   -37.49972   138.56604    35.00528
   126  C   4.0   -0.03    4.18    3.96   -38.26884   138.54526    37.80397
   127  C   4.0    0.24    3.10    3.02   -37.40713   140.86395    39.30630
   128  O   6.0   -0.30    1.18    1.80   -35.81976   142.36250    38.36333
   129  O   6.0   -0.30    1.17    1.80   -38.32931   141.17765    41.46437
   130  H   1.0    0.10    1.07    1.44   -35.69314   136.72923    31.10489
   131  H   1.0    0.04    1.07    1.44   -38.92835   134.85462    34.82954
   132  H   1.0    0.05    1.03    1.43   -35.45504   138.33739    34.89568
   133  H   1.0    0.06    1.03    1.43   -38.04963   140.37829    34.19837
   134  H   1.0    0.06    1.03    1.43   -40.32297   138.46022    37.91924
   135  H   1.0    0.04    1.03    1.43   -37.44303   136.88419    38.69970
   136  N   5.0   -0.12    3.55    2.12   -41.75349   137.94621    30.36790
   137  C   4.0    0.04    4.57    4.63   -44.29896   138.48290    29.47784
   138  C   4.0    0.15    3.56    3.14   -45.61987   136.14531    28.47817
   139  O   6.0   -0.31    1.30    1.80   -47.77038   135.63508    29.19249
   140  C   4.0   -0.02    4.30    4.20   -44.39722   140.61451    27.56543
   141  C   4.0   -0.08    4.15    3.90   -46.95591   140.64663    26.20105
   142  C   4.0   -0.07    4.13    3.87   -43.95692   143.09194    28.91848
   143  H   1.0    0.13    1.13    1.45   -40.34943   138.18810    29.06965
   144  H   1.0    0.06    1.09    1.44   -45.32130   139.14808    31.13701
   145  H   1.0    0.05    1.06    1.44   -42.93457   140.34239    26.14058
   146  H   1.0    0.03    1.00    1.43   -46.97292   142.19432    24.84234
   147  H   1.0    0.05    1.01    1.43   -47.21858   138.85139    25.22406
   148  H   1.0    0.04    1.00    1.43   -48.45257   140.91497    27.59000
   149  H   1.0    0.03    1.00    1.43   -44.02495   144.62640    27.54654
   150  H   1.0    0.04    1.00    1.43   -45.42712   143.35083    30.33766
   151  H   1.0    0.06    1.00    1.43   -42.10687   143.04281    29.82365
   152  N   5.0   -0.14    3.57    2.13   -44.36699   134.69967    26.86245
   153  C   4.0    0.04    4.46    4.48   -45.47625   132.31672    26.08767
   154  C   4.0    0.17    3.48    3.11   -45.95436   130.67644    28.40636
   155  O   6.0   -0.32    1.28    1.80   -47.41511   128.87931    28.30432
   156  C   4.0   -0.04    4.29    4.18   -43.80007   130.91832    24.22629
   157  C   4.0   -0.03    4.19    3.98   -45.18713   128.79049    22.83545
   158  C   4.0    0.24    3.11    3.03   -43.39945   126.99147    21.46351
   159  O   6.0   -0.30    1.18    1.80   -41.38878   126.34141    22.54443
   160  O   6.0   -0.31    1.16    1.80   -44.00794   126.21669    19.30544
   161  H   1.0    0.12    1.18    1.46   -42.64922   135.11163    26.08767
   162  H   1.0    0.05    1.06    1.44   -47.24315   132.67766    25.09178
   163  H   1.0    0.04    1.03    1.43   -43.10654   132.25247    22.81844
   164  H   1.0    0.07    1.03    1.43   -42.21648   130.08495    25.24674
   165  H   1.0    0.06    1.03    1.43   -46.26994   127.69256    24.20172
   166  H   1.0    0.04    1.03    1.43   -46.45135   129.61819    21.43705
   167  N   5.0   -0.12    3.58    2.14   -44.71092   131.31895    30.49262
   168  C   4.0    0.04    4.46    4.48   -45.16634   130.05850    32.88312
   169  C   4.0    0.16    3.48    3.10   -47.74204   130.71045    33.91869
   170  O   6.0   -0.30    1.26    1.80   -49.21602   129.01726    34.56120
   171  C   4.0   -0.04    4.30    4.19   -43.13488   130.71045    34.83143
   172  C   4.0   -0.03    4.19    3.97   -41.21303   128.61097    35.22071
   173  C   4.0    0.24    3.14    3.03   -42.44702   126.09574    35.90668
   174  O   6.0   -0.31    1.18    1.80   -43.70180   125.97102    37.89656
   175  O   6.0   -0.30    1.17    1.80   -42.17112   124.24192    34.46104
   176  H   1.0    0.11    1.12    1.45   -43.37677   132.70600    30.58332
   177  H   1.0    0.07    1.08    1.44   -45.07185   128.03082    32.53730
   178  H   1.0    0.06    1.04    1.43   -42.12010   132.38664    34.19837
   179  H   1.0    0.05    1.04    1.43   -44.04384   131.07895    36.64179
   180  H   1.0    0.06    1.03    1.43   -40.14534   128.34452    33.48027
   181  H   1.0    0.04    1.03    1.43   -39.94125   129.13820    36.75328
   182  N   5.0   -0.13    3.50    2.08   -48.29195   133.15576    34.09255
   183  C   4.0    0.04    4.46    4.47   -50.67678   133.94755    35.19615
   184  C   4.0    0.16    3.48    3.11   -52.79327   132.83451    33.61256
   185  O   6.0   -0.31    1.26    1.80   -54.30128   131.34540    34.56120
   186  C   4.0   -0.05    4.29    4.18   -50.88276   136.81805    35.39268
   187  C   4.0   -0.05    4.21    4.01   -51.91455   137.64764    37.91924
   188  C   4.0   -0.01    4.21    4.02   -51.72369   140.48034    38.29719
   189  N   5.0   -0.15    3.37    2.01   -52.54194   141.22489    40.84076
   190  C   4.0    0.09    3.33    3.06   -54.86630   142.01857    41.46248
   191  N   5.0   -0.19    3.27    1.97   -56.66721   142.20944    39.72393
   192  N   5.0   -0.19    3.24    1.96   -55.41054   142.63840    43.84542
   193  H   1.0    0.10    1.06    1.44   -47.15244   134.59384    33.50106
   194  H   1.0    0.05    1.07    1.44   -50.80528   133.27670    37.13878
   195  H   1.0    0.05    1.04    1.43   -49.01193   137.64764    35.15646
   196  H   1.0    0.04    1.04    1.43   -52.14888   137.50780    33.92247
   197  H   1.0    0.04    1.03    1.43   -53.90065   137.11851    38.04396
   198  H   1.0    0.04    1.03    1.43   -50.84497   136.72923    39.41968
   199  H   1.0    0.04    1.03    1.43   -49.76593   141.07182    38.04774
   200  H   1.0    0.04    1.03    1.43   -52.92744   141.43465    36.92525
   201  H   1.0    0.07    1.06    1.44   -51.23425   141.13040    42.25238
   202  H   1.0    0.08    1.03    1.43   -56.28927   141.75023    37.89090
   203  H   1.0    0.09    1.03    1.43   -58.42844   142.81604    40.22282
   204  H   1.0    0.07    1.02    1.43   -54.05372   142.50990    45.20791
   205  H   1.0    0.08    1.04    1.44   -57.18311   143.24123    44.30462
   206  N   5.0   -0.14    3.51    2.09   -52.79516   133.43355    31.17292
   207  C   4.0    0.04    4.49    4.52   -54.73969   132.52081    29.43815
   208  C   4.0    0.15    3.44    3.09   -54.99858   129.65032    29.37957
   209  O   6.0   -0.32    1.24    1.80   -57.05083   128.68089    28.89769
   210  C   4.0    0.05    4.26    4.12   -54.24647   133.42221    26.76041
   211  O   6.0   -0.25    2.14    1.85   -52.90666   135.76547    26.85679
   212  C   4.0   -0.08    4.08    3.77   -56.72390   133.78693    25.35067
   213  H   1.0    0.11    1.09    1.44   -51.47236   134.55227    30.32821
   214  H   1.0    0.04    1.07    1.44   -56.51036   133.31828    30.12412
   215  H   1.0    0.04    1.05    1.44   -53.12965   132.02381    25.73996
   216  H   1.0    0.11    1.01    1.43   -52.56840   136.37396    25.14091
   217  H   1.0    0.03    1.00    1.43   -56.35352   134.43510    23.43071
   218  H   1.0    0.04    1.00    1.43   -57.75569   132.00681    25.26753
   219  H   1.0    0.04    1.00    1.43   -57.88420   135.18721    26.31632
   220  N   5.0   -0.13    3.49    2.07   -52.93311   128.30672    29.88413
   221  C   4.0    0.04    4.45    4.46   -52.92744   125.54016    29.81610
   222  C   4.0    0.15    3.48    3.10   -54.58284   124.35531    31.82298
   223  O   6.0   -0.33    1.30    1.80   -55.54660   122.28039    31.48850
   224  C   4.0   -0.04    4.31    4.23   -50.25348   124.51026    30.12601
   225  C   4.0   -0.05    4.19    3.98   -49.97947   121.73426    29.43248
   226  C   4.0   -0.01    4.24    4.08   -50.74481   121.29395    26.69049
   227  N   5.0   -0.15    3.38    2.01   -49.33508   119.20013    25.55287
   228  C   4.0    0.08    3.33    3.06   -47.07874   119.43257    24.44361
   229  N   5.0   -0.18    3.25    1.97   -45.93546   121.67756    24.31888
   230  N   5.0   -0.20    3.22    1.96   -45.95625   117.40678    23.46095
   231  H   1.0    0.11    1.07    1.44   -51.22669   129.07206    30.34900
   232  H   1.0    0.05    1.07    1.44   -53.65877   125.00537    27.96605
   233  H   1.0    0.07    1.06    1.44   -48.98737   125.58741    28.91092
   234  H   1.0    0.06    1.03    1.43   -49.68845   124.72191    32.09511
   235  H   1.0    0.05    1.03    1.43   -48.01605   121.15600    29.66681
   236  H   1.0    0.05    1.03    1.43   -51.19835   120.59664    30.64380
   237  H   1.0    0.04    1.02    1.43   -52.75170   120.83853    26.60923
   238  H   1.0    0.04    1.04    1.43   -50.36498   122.99659    25.59634
   239  H   1.0    0.06    1.06    1.44   -50.13065   117.44458    25.61146
   240  H   1.0    0.09    1.03    1.43   -46.78395   123.23470    25.07477
   241  H   1.0    0.09    1.02    1.43   -44.21392   121.83630    23.46851
   242  H   1.0    0.06    1.02    1.43   -46.81796   115.68524    23.55732
   243  H   1.0    0.07    1.02    1.43   -44.23471   117.57497    22.61246
   244  N   5.0   -0.14    3.59    2.15   -54.87386   125.65355    33.93759
   245  C   4.0    0.04    4.50    4.53   -56.37808   124.62932    35.97471
   246  C   4.0    0.15    3.50    3.11   -59.14275   125.07151    35.40213
   247  O   6.0   -0.31    1.24    1.80   -60.76792   123.57296    36.09755
   248  C   4.0   -0.05    4.28    4.15   -55.57306   125.78961    38.48238
   249  C   4.0   -0.05    4.20    4.00   -52.70824   125.66300    38.90190
   250  C   4.0   -0.06    4.19    3.98   -51.71991   122.95313    38.71859
   251  C   4.0   -0.03    4.13    3.86   -49.02516   122.87376    37.71515
   252  N   5.0   -0.12    3.99    2.84   -48.11998   120.23570    37.29374
   253  H   1.0    0.11    1.08    1.44   -54.10474   127.38643    34.28719
   254  H   1.0    0.05    1.07    1.44   -56.07573   122.60353    36.19770
   255  H   1.0    0.05    1.03    1.43   -56.13620   127.77004    38.51639
   256  H   1.0    0.03    1.03    1.43   -56.48958   124.76916    40.01873
   257  H   1.0    0.07    1.04    1.43   -51.75959   126.79494    37.46571
   258  H   1.0    0.03    1.03    1.43   -52.26226   126.38676    40.77840
   259  H   1.0    0.03    1.03    1.43   -51.73881   122.09330    40.58942
   260  H   1.0    0.04    1.04    1.43   -52.91989   121.87599    37.43547
   261  H   1.0    0.06    1.02    1.43   -48.94390   123.87532    35.91613
   262  H   1.0    0.05    1.02    1.43   -47.77038   123.77138    39.07764
   263  H   1.0    0.06    1.01    1.43   -46.27750   120.25838    36.60966
   264  H   1.0    0.04    1.01    1.43   -48.16156   119.23226    38.98316
   265  H   1.0    0.04    1.01    1.43   -49.27460   119.33052    35.98605
   266  N   5.0   -0.14    3.59    2.15   -59.64920   127.10864    34.03963
   267  C   4.0    0.04    4.48    4.50   -62.15876   127.58485    33.07209
   268  C   4.0    0.16    3.47    3.10   -62.90520   125.52316    31.23717
   269  O   6.0   -0.30    1.23    1.80   -65.06893   125.37954    30.43215
   270  C   4.0   -0.05    4.38    4.35   -62.24757   130.14921    31.79086
   271  C   4.0   -0.03    4.18    3.96   -62.88252   132.39609    33.49917
   272  C   4.0   -0.08    4.09    3.79   -61.84506   132.18633    36.22038
   273  C   4.0   -0.08    4.11    3.82   -61.96600   134.78848    32.21038
   274  H   1.0    0.09    1.07    1.44   -58.35663   128.46168    33.57665
   275  H   1.0    0.05    1.06    1.44   -63.52692   127.65099    34.61033
   276  H   1.0    0.06    1.05    1.44   -60.39942   130.51770    30.96127
   277  H   1.0    0.05    1.04    1.43   -63.68187   130.08118    30.31498
   278  H   1.0    0.04    1.06    1.44   -64.92531   132.44711    33.75806
   279  H   1.0    0.04    1.00    1.43   -62.39497   133.86630    37.27862
   280  H   1.0    0.04    1.00    1.43   -62.63497   130.50447    37.11044
   281  H   1.0    0.05    1.00    1.43   -59.79093   132.04271    36.14668
   282  H   1.0    0.04    1.00    1.43   -62.40631   136.40609    33.40658
   283  H   1.0    0.04    1.00    1.43   -59.93077   134.65998    31.92503
   284  H   1.0    0.03    1.00    1.43   -62.91843   134.97935    30.39435
   285  N   5.0   -0.13    3.55    2.11   -61.08539   123.93579    30.57577
   286  C   4.0    0.05    4.34    4.27   -61.64664   121.60198    29.26997
   287  C   4.0    0.09    3.27    3.05   -62.46867   119.65934    31.21260
   288  O   6.0   -0.29    1.12    1.80   -64.55871   118.65022    31.02930
   289  C   4.0   -0.05    4.27    4.13   -59.35629   120.65711    27.77519
   290  C   4.0   -0.04    4.22    4.05   -59.46212   117.87544    26.94938
   291  C   4.0    0.14    3.21    3.04   -61.31783   117.38978    24.80832
   292  O   6.0   -0.30    1.19    1.80   -63.62329   117.40678    25.18816
   293  N   5.0   -0.21    3.17    1.95   -60.31249   116.91734    22.54443
   294  H   1.0    0.10    1.10    1.44   -59.20889   124.21736    30.91970
   295  H   1.0    0.07    1.06    1.44   -63.14141   121.91000    27.88669
   296  H   1.0    0.04    1.03    1.43   -59.18244   121.79662    26.06877
   297  H   1.0    0.07    1.06    1.44   -57.67822   120.88388    28.94871
   298  H   1.0    0.03    1.03    1.43   -57.59129   117.30096    26.30687
   299  H   1.0    0.05    1.04    1.43   -60.03848   116.72459    28.55754
   300  H   1.0    0.06    1.02    1.43   -58.39820   116.89656    22.32522
   301  H   1.0    0.07    1.02    1.43   -61.45956   116.57719    21.03265
   302  N   5.0   -0.21    3.18    1.95   -56.13188   136.67567    51.50291
   303  C   4.0    0.02    4.40    4.39   -58.16753   137.74185    49.98168
   304  C   4.0    0.14    3.44    3.09   -59.97295   139.39956    51.49535
   305  O   6.0   -0.32    1.22    1.80   -60.94940   138.61915    53.46444
   306  C   4.0   -0.03    4.35    4.29   -59.62828   135.63506    48.56816
   307  C   4.0   -0.06    4.23    4.05   -58.16451   134.78777    46.23246
   308  C   4.0   -0.07    4.18    3.96   -62.24597   136.48304    47.79904
   309  C   4.0   -0.09    4.02    3.66   -57.21511   132.12739    46.37230
   310  H   1.0    0.07    1.03    1.43   -55.57150   134.92507    50.91898
   311  H   1.0    0.03    1.07    1.44   -57.27026   139.00874    48.62863
   312  H   1.0    0.04    1.06    1.44   -59.82212   134.05587    49.87774
   313  H   1.0    0.03    1.06    1.44   -59.40243   134.92642    44.59218
   314  H   1.0    0.03    1.04    1.43   -56.53513   136.02257    45.99058
   315  H   1.0    0.03    1.00    1.43   -63.18948   134.93953    46.81639
   316  H   1.0    0.06    1.01    1.43   -63.30831   136.99382    49.48846
   317  H   1.0    0.04    1.02    1.43   -62.08283   138.11486    46.55182
   318  H   1.0    0.03    1.00    1.43   -56.20027   131.68549    44.63564
   319  H   1.0    0.03    1.00    1.43   -55.95158   131.94996    47.98991
   320  H   1.0    0.03    1.00    1.43   -58.81888   130.85381    46.59151
   321  N   5.0   -0.14    3.45    2.05   -60.33956   141.71255    50.56938
   322  C   4.0    0.03    4.31    4.21   -62.28611   143.41682    51.52558
   323  C   4.0    0.09    3.24    3.04   -64.88970   142.48264    50.66954
   324  O   6.0   -0.31    1.15    1.80   -65.12060   141.37217    48.62863
   325  C   4.0   -0.04    4.27    4.14   -61.83814   146.11270    50.56938
   326  C   4.0    0.23    3.13    3.03   -63.87291   147.95519    51.45377
   327  O   6.0   -0.32    1.17    1.80   -63.60854   149.00269    53.56271
   328  O   6.0   -0.31    1.17    1.80   -65.75246   148.33554    50.05538
   329  H   1.0    0.07    1.06    1.44   -59.30413   142.47417    49.13319
   330  H   1.0    0.05    1.05    1.44   -62.23831   143.46560    53.58349
   331  H   1.0    0.04    1.03    1.43   -60.02164   146.78342    51.27236
   332  H   1.0    0.05    1.03    1.43   -61.83701   146.10332    48.50958
   333  N   5.0   -0.21    3.18    1.95   -70.23230   147.89327    44.11219
   334  C   4.0    0.02    4.29    4.18   -69.08477   147.98356    41.59507
   335  C   4.0    0.14    3.39    3.08   -69.00885   145.39762    40.29305
   336  O   6.0   -0.31    1.21    1.80   -70.11416   145.05165    38.26538
   337  C   4.0   -0.05    4.26    4.12   -66.40659   149.08852    41.77460
   338  C   4.0   -0.04    4.12    3.84   -65.05548   149.52387    39.21591
   339  C   4.0    0.23    3.08    3.02   -62.12423   149.40041    39.55795
   340  O   6.0   -0.30    1.15    1.80   -61.10928   147.35245    40.33274
   341  O   6.0   -0.31    1.15    1.80   -60.82690   151.33753    39.03260
   342  H   1.0    0.08    1.03    1.43   -69.36149   149.05761    45.37641
   343  H   1.0    0.03    1.06    1.44   -70.24559   149.22328    40.43100
   344  H   1.0    0.04    1.03    1.43   -66.51989   150.91050    42.72702
   345  H   1.0    0.06    1.03    1.43   -65.24156   147.79182    42.87064
   346  H   1.0    0.05    1.02    1.43   -65.62242   148.06190    37.87987
   347  H   1.0    0.04    1.02    1.43   -65.55349   151.38248    38.48080
   348  N   5.0   -0.15    3.43    2.04   -67.73968   143.59346    41.50626
   349  C   4.0    0.03    4.33    4.25   -67.18406   141.14298    40.36486
   350  C   4.0    0.08    3.22    3.04   -69.52223   139.59514    39.75637
   351  O   6.0   -0.31    1.12    1.80   -69.58658   138.19867    37.89877
   352  C   4.0   -0.05    4.37    4.34   -65.39439   139.63184    42.04861
   353  C   4.0   -0.02    4.22    4.05   -62.64371   140.43528    41.73302
   354  C   4.0   -0.07    4.13    3.86   -61.76735   142.05901    43.93455
   355  C   4.0   -0.08    4.13    3.87   -60.98557   138.12943    41.44389
   356  H   1.0    0.08    1.06    1.44   -67.06196   143.76952    43.30150
   357  H   1.0    0.06    1.07    1.44   -66.24224   141.51569    38.57151
   358  H   1.0    0.05    1.04    1.43   -65.92332   139.91758    44.01770
   359  H   1.0    0.04    1.04    1.43   -65.53876   137.63568    41.56106
   360  H   1.0    0.05    1.07    1.44   -62.47311   141.58493    40.03227
   361  H   1.0    0.04    1.03    1.43   -59.80006   142.59030    43.63409
   362  H   1.0    0.06    1.00    1.43   -62.94352   143.74837    44.03282
   363  H   1.0    0.05    1.02    1.43   -61.94492   140.97667    45.67877
   364  H   1.0    0.04    1.01    1.43   -59.02826   138.73413    41.22091
   365  H   1.0    0.03    1.02    1.43   -61.17034   136.95524    43.12575
   366  H   1.0    0.04    1.00    1.43   -61.58820   137.07430    39.78094
   367  H   1.0    0.09    1.07    1.44   -17.90666   147.22508    18.85536
   368  H   1.0    0.06    1.04    1.44   -61.31486   119.20101    32.63729
   369  H   1.0    0.08    1.07    1.44   -54.77322   137.69599    51.42840
   370  H   1.0    0.05    1.04    1.43   -66.40368   142.77154    51.76292
   371  H   1.0    0.08    1.07    1.44   -71.86243   148.36745    44.01030
   372  H   1.0    0.05    1.05    1.44   -71.04270   139.70123    40.87351

  Z AO/shell   Hii/eV     exponent
  1     Wed Apr 25 08:07:45 CEST 2018   EN: 2.200 GM2: 0.406  GM3: 0.0800  RAES: 1.40
     1s    -10.707211    1.230000
  6     Wed Apr 25 08:07:45 CEST 2018   EN: 2.550 GM2: 0.538  GM3: 0.1500  RAES: 3.00
     2s    -13.970922    2.096432
     2p    -10.063292    1.800000
  7     Wed Apr 25 08:07:45 CEST 2018   EN: 3.040 GM2: 0.461  GM3:-0.0640  RAES: 1.90
     2s    -16.686243    2.339881
     2p    -12.523956    2.014332
  8     Wed Apr 25 08:07:45 CEST 2018   EN: 3.440 GM2: 0.452  GM3:-0.0517  RAES: 1.80
     2s    -20.229985    2.439742
     2p    -15.503117    2.137023
 no old-style atom pair restraining (fixing) potential

molecular fragmentation (1/2 indicates fragments):
111111111111111111111111111111111111111111111111111111111111111111111111
111111111111111111111111111111111111111111111111111111111111111111111111
111111111111111111111111111111111111111111111111111111111111111111111111
111111111111111111111111111111111111111111111111111111111111111111111111
111111111111122222222222222222222222222222222222222222222222222222222222
222222112222
# atoms in fragment 1/2:   303    69
 fragment masses (1/2) :     2184.34      472.54
CMA distance (Bohr)    :  29.977
constraining FC (au)   :  0.0500
           ------------------------------------------------- 
          |        Self-Consistent Charge Iterations        |
           ------------------------------------------------- 

 Ncao       : 930
 Nao        : 930
 Nshell     : 558
 Nel        : 1052
 T(el)      :   500.0
 intcut     :    35.0
 scfconv/Eh :  0.100E-06
   qconv/e  :  0.100E-04
 intneglect :  0.100E-08
 broydamp   :      0.400
 iter      E             dE          RMSdq      gap      omega  full diag
   1   -607.1832548 -0.607183E+03  0.491E+00    3.31       0.0  T
   2   -608.9827951 -0.179954E+01  0.223E+00    1.95       1.0  T
   3   -609.0984319 -0.115637E+00  0.129E+00    2.15       1.0  T
   4   -609.1918351 -0.934032E-01  0.282E-01    1.48       1.0  T
   5   -609.1983304 -0.649535E-02  0.152E-01    1.68       1.0  T
   6   -609.1991924 -0.862003E-03  0.604E-02    1.63       1.0  T
   7   -609.1995462 -0.353767E-03  0.229E-02    1.67       1.0  T
   8   -609.1995674 -0.211822E-04  0.991E-03    1.66       1.0  T
   9   -609.1995755 -0.815372E-05  0.394E-03    1.67       1.3  T
  10   -609.1995762 -0.635701E-06  0.155E-03    1.67       3.4  T
  11   -609.1995764 -0.233349E-06  0.590E-04    1.67       8.8  T
  12   -609.1995764 -0.198163E-07  0.270E-04    1.67      19.2  T
  13   -609.1995764 -0.412217E-08  0.126E-04    1.67      41.3  T
  14   -609.1995764 -0.103046E-08  0.449E-05    1.67     115.6  T
  15   -609.1995764 -0.124487E-09  0.168E-05    1.67     308.4  T
speedup  0.95
cpu  time for SCC   18.19 s
wall time for SCC   19.16 s

   *** convergence criteria satisfied after 15 iterations ***

          eigenvalues
 #    :         514        515        516        517        518        519        520        521
 occ. :        2.000      2.000      2.000      2.000      2.000      2.000      2.000      2.000
 eps  :       -10.078    -10.051    -10.048    -10.006     -9.966     -9.943     -9.902     -9.882
 #    :         522        523        524        525        526        527        528        529
 occ. :        2.000      2.000      2.000      2.000      2.000      0.000      0.000      0.000
 eps  :        -9.860     -9.775     -9.740     -9.676     -9.642     -7.977     -7.710     -7.469
 #    :         530        531        532        533        534        535        536        537
 occ. :        0.000      0.000      0.000      0.000      0.000      0.000      0.000      0.000
 eps  :        -6.993     -6.822     -6.684     -6.643     -6.515     -6.454     -6.406     -6.372


   #   Z            q   n(s)   n(p)   n(d)      C6AA      α(0)
   1   7 N     -0.405  1.332  4.073  0.000    30.506     8.203
   2   6 C      0.026  1.060  2.914  0.000    20.149     6.394
   3   6 C      0.265  1.048  2.687  0.000    22.528     7.773
   4   8 O     -0.499  1.743  4.756  0.000    23.769     6.537
   5   6 C     -0.079  1.056  3.023  0.000    22.011     6.680
   6   6 C     -0.082  1.057  3.025  0.000    22.073     6.690
   7   6 C     -0.026  1.057  2.969  0.000    21.121     6.559
   8   7 N     -0.146  1.210  3.936  0.000    24.155     7.299
   9   6 C      0.233  1.017  2.749  0.000    23.107     7.870
  10   7 N     -0.247  1.232  4.015  0.000    26.433     7.636
  11   7 N     -0.254  1.238  4.016  0.000    26.607     7.661
  12   1 H      0.181  0.819  0.000  0.000     1.209     1.722
  13   1 H      0.041  0.959  0.000  0.000     2.435     2.440
  14   1 H      0.061  0.939  0.000  0.000     2.192     2.316
  15   1 H      0.061  0.939  0.000  0.000     2.188     2.313
  16   1 H      0.065  0.935  0.000  0.000     2.146     2.291
  17   1 H      0.086  0.914  0.000  0.000     1.917     2.165
  18   1 H      0.075  0.925  0.000  0.000     2.036     2.231
  19   1 H      0.099  0.901  0.000  0.000     1.798     2.097
  20   1 H      0.212  0.788  0.000  0.000     1.049     1.605
  21   1 H      0.245  0.755  0.000  0.000     0.904     1.490
  22   1 H      0.265  0.735  0.000  0.000     0.829     1.426
  23   1 H      0.244  0.756  0.000  0.000     0.906     1.491
  24   1 H      0.267  0.733  0.000  0.000     0.820     1.419
  25   7 N     -0.163  1.245  3.917  0.000    24.521     7.355
  26   6 C      0.020  1.060  2.920  0.000    20.236     6.404
  27   6 C      0.274  1.042  2.684  0.000    22.361     7.743
  28   8 O     -0.471  1.736  4.735  0.000    23.144     6.450
  29   6 C     -0.057  1.050  3.007  0.000    21.602     6.616
  30   6 C     -0.094  1.064  3.030  0.000    22.287     6.721
  31   6 C      0.373  1.018  2.609  0.000    20.677     7.442
  32   8 O     -0.663  1.777  4.885  0.000    27.711     7.058
  33   8 O     -0.643  1.763  4.880  0.000    27.188     6.991
  34   1 H      0.215  0.785  0.000  0.000     1.031     1.590
  35   1 H      0.088  0.912  0.000  0.000     1.902     2.156
  36   1 H      0.039  0.961  0.000  0.000     2.459     2.452
  37   1 H      0.043  0.957  0.000  0.000     2.415     2.430
  38   1 H      0.029  0.971  0.000  0.000     2.603     2.523
  39   1 H      0.040  0.960  0.000  0.000     2.453     2.449
  40   7 N     -0.181  1.249  3.932  0.000    24.916     7.413
  41   6 C      0.021  1.062  2.917  0.000    20.225     6.404
  42   6 C      0.290  1.032  2.677  0.000    22.077     7.694
  43   8 O     -0.488  1.737  4.752  0.000    23.522     6.502
  44   6 C     -0.050  1.048  3.002  0.000    21.463     6.595
  45   6 C     -0.090  1.066  3.025  0.000    22.223     6.712
  46   6 C      0.369  1.024  2.607  0.000    20.740     7.453
  47   8 O     -0.649  1.777  4.872  0.000    27.367     7.014
  48   8 O     -0.647  1.773  4.874  0.000    27.313     7.007
  49   1 H      0.209  0.791  0.000  0.000     1.060     1.613
  50   1 H      0.074  0.926  0.000  0.000     2.045     2.236
  51   1 H      0.033  0.967  0.000  0.000     2.548     2.496
  52   1 H      0.052  0.948  0.000  0.000     2.296     2.369
  53   1 H      0.036  0.964  0.000  0.000     2.500     2.473
  54   1 H      0.029  0.971  0.000  0.000     2.604     2.523
  55   7 N     -0.168  1.244  3.924  0.000    24.635     7.372
  56   6 C      0.030  1.058  2.912  0.000    20.078     6.380
  57   6 C      0.278  1.040  2.682  0.000    22.297     7.733
  58   8 O     -0.503  1.748  4.755  0.000    23.851     6.548
  59   6 C     -0.061  1.056  3.004  0.000    21.665     6.626
  60   6 C     -0.095  1.068  3.027  0.000    22.317     6.726
  61   6 C      0.368  1.026  2.606  0.000    20.763     7.457
  62   8 O     -0.650  1.773  4.877  0.000    27.372     7.014
  63   8 O     -0.659  1.782  4.877  0.000    27.621     7.046
  64   1 H      0.188  0.812  0.000  0.000     1.169     1.694
  65   1 H      0.066  0.934  0.000  0.000     2.129     2.282
  66   1 H      0.039  0.961  0.000  0.000     2.461     2.453
  67   1 H      0.059  0.941  0.000  0.000     2.211     2.325
  68   1 H      0.047  0.953  0.000  0.000     2.360     2.402
  69   1 H      0.027  0.973  0.000  0.000     2.637     2.539
  70   7 N     -0.177  1.248  3.929  0.000    24.834     7.401
  71   6 C      0.021  1.057  2.922  0.000    20.223     6.402
  72   6 C      0.288  1.034  2.678  0.000    22.119     7.702
  73   8 O     -0.497  1.740  4.756  0.000    23.709     6.528
  74   6 C      0.076  1.036  2.887  0.000    19.494     6.321
  75   8 O     -0.483  1.727  4.756  0.000    22.535     6.408
  76   1 H      0.232  0.768  0.000  0.000     0.958     1.533
  77   1 H      0.088  0.912  0.000  0.000     1.895     2.153
  78   1 H      0.071  0.929  0.000  0.000     2.069     2.249
  79   1 H      0.029  0.971  0.000  0.000     2.604     2.523
  80   1 H      0.364  0.636  0.000  0.000     0.556     1.171
  81   7 N     -0.195  1.251  3.944  0.000    25.233     7.460
  82   6 C      0.033  1.053  2.914  0.000    20.015     6.370
  83   6 C      0.279  1.044  2.677  0.000    22.279     7.729
  84   8 O     -0.496  1.743  4.753  0.000    23.688     6.525
  85   6 C     -0.143  1.049  3.094  0.000    23.314     6.885
  86   1 H      0.233  0.767  0.000  0.000     0.952     1.528
  87   1 H      0.062  0.938  0.000  0.000     2.175     2.306
  88   1 H      0.053  0.947  0.000  0.000     2.280     2.361
  89   1 H      0.058  0.942  0.000  0.000     2.225     2.332
  90   1 H      0.082  0.918  0.000  0.000     1.962     2.190
  91   7 N     -0.180  1.251  3.929  0.000    24.906     7.412
  92   6 C      0.029  1.054  2.917  0.000    20.084     6.381
  93   6 C      0.282  1.039  2.679  0.000    22.222     7.719
  94   8 O     -0.490  1.742  4.748  0.000    23.561     6.508
  95   6 C     -0.127  1.043  3.085  0.000    22.998     6.837
  96   1 H      0.223  0.777  0.000  0.000     0.998     1.565
  97   1 H      0.059  0.941  0.000  0.000     2.210     2.325
  98   1 H      0.077  0.923  0.000  0.000     2.008     2.216
  99   1 H      0.071  0.929  0.000  0.000     2.080     2.255
 100   1 H      0.064  0.936  0.000  0.000     2.149     2.293
 101   7 N     -0.170  1.245  3.924  0.000    24.670     7.377
 102   6 C      0.025  1.054  2.921  0.000    20.157     6.393
 103   6 C      0.277  1.042  2.682  0.000    22.319     7.737
 104   8 O     -0.487  1.734  4.753  0.000    23.498     6.499
 105   6 C     -0.139  1.045  3.094  0.000    23.222     6.870
 106   1 H      0.217  0.783  0.000  0.000     1.023     1.585
 107   1 H      0.079  0.921  0.000  0.000     1.986     2.204
 108   1 H      0.084  0.916  0.000  0.000     1.943     2.180
 109   1 H      0.081  0.919  0.000  0.000     1.965     2.192
 110   1 H      0.063  0.937  0.000  0.000     2.163     2.300
 111   7 N     -0.159  1.249  3.910  0.000    24.440     7.342
 112   6 C      0.026  1.053  2.921  0.000    20.134     6.389
 113   6 C      0.291  1.033  2.675  0.000    22.061     7.692
 114   8 O     -0.484  1.737  4.748  0.000    23.444     6.492
 115   6 C     -0.135  1.045  3.090  0.000    23.141     6.858
 116   1 H      0.231  0.769  0.000  0.000     0.960     1.535
 117   1 H      0.077  0.923  0.000  0.000     2.010     2.217
 118   1 H      0.069  0.931  0.000  0.000     2.094     2.263
 119   1 H      0.086  0.914  0.000  0.000     1.917     2.165
 120   1 H      0.066  0.934  0.000  0.000     2.131     2.283
 121   7 N     -0.187  1.246  3.940  0.000    25.048     7.433
 122   6 C      0.035  1.054  2.911  0.000    19.990     6.366
 123   6 C      0.278  1.038  2.684  0.000    22.303     7.734
 124   8 O     -0.519  1.740  4.780  0.000    24.218     6.598
 125   6 C     -0.043  1.048  2.995  0.000    21.339     6.576
 126   6 C     -0.089  1.064  3.025  0.000    22.202     6.709
 127   6 C      0.368  1.026  2.606  0.000    20.765     7.457
 128   8 O     -0.660  1.779  4.881  0.000    27.635     7.048
 129   8 O     -0.647  1.769  4.878  0.000    27.310     7.007
 130   1 H      0.205  0.795  0.000  0.000     1.081     1.629
 131   1 H      0.055  0.945  0.000  0.000     2.258     2.350
 132   1 H      0.037  0.963  0.000  0.000     2.489     2.467
 133   1 H      0.029  0.971  0.000  0.000     2.604     2.523
 134   1 H      0.041  0.959  0.000  0.000     2.440     2.443
 135   1 H      0.029  0.971  0.000  0.000     2.600     2.522
 136   7 N     -0.189  1.258  3.932  0.000    25.104     7.441
 137   6 C      0.025  1.058  2.918  0.000    20.149     6.389
 138   6 C      0.276  1.041  2.683  0.000    22.330     7.739
 139   8 O     -0.499  1.731  4.768  0.000    23.768     6.537
 140   6 C     -0.017  1.056  2.961  0.000    20.840     6.493
 141   6 C     -0.123  1.047  3.076  0.000    22.905     6.824
 142   6 C     -0.118  1.043  3.074  0.000    22.802     6.807
 143   1 H      0.234  0.766  0.000  0.000     0.947     1.525
 144   1 H      0.072  0.928  0.000  0.000     2.068     2.249
 145   1 H      0.039  0.961  0.000  0.000     2.458     2.452
 146   1 H      0.063  0.937  0.000  0.000     2.166     2.301
 147   1 H      0.039  0.961  0.000  0.000     2.458     2.452
 148   1 H      0.061  0.939  0.000  0.000     2.192     2.315
 149   1 H      0.055  0.945  0.000  0.000     2.261     2.352
 150   1 H      0.047  0.953  0.000  0.000     2.356     2.400
 151   1 H      0.038  0.962  0.000  0.000     2.476     2.461
 152   7 N     -0.216  1.265  3.950  0.000    25.699     7.529
 153   6 C      0.033  1.056  2.911  0.000    20.014     6.368
 154   6 C      0.282  1.041  2.677  0.000    22.220     7.719
 155   8 O     -0.493  1.722  4.772  0.000    23.639     6.519
 156   6 C     -0.048  1.046  3.001  0.000    21.425     6.589
 157   6 C     -0.094  1.064  3.030  0.000    22.292     6.722
 158   6 C      0.365  1.024  2.610  0.000    20.803     7.464
 159   8 O     -0.655  1.778  4.877  0.000    27.513     7.033
 160   8 O     -0.641  1.770  4.872  0.000    27.159     6.987
 161   1 H      0.246  0.754  0.000  0.000     0.898     1.484
 162   1 H      0.065  0.935  0.000  0.000     2.143     2.289
 163   1 H      0.032  0.968  0.000  0.000     2.553     2.499
 164   1 H      0.035  0.965  0.000  0.000     2.518     2.482
 165   1 H      0.046  0.954  0.000  0.000     2.371     2.408
 166   1 H      0.031  0.969  0.000  0.000     2.574     2.509
 167   7 N     -0.188  1.253  3.935  0.000    25.084     7.438
 168   6 C      0.040  1.051  2.909  0.000    19.905     6.352
 169   6 C      0.270  1.043  2.687  0.000    22.432     7.757
 170   8 O     -0.475  1.727  4.748  0.000    23.241     6.464
 171   6 C     -0.049  1.049  2.999  0.000    21.441     6.591
 172   6 C     -0.086  1.058  3.028  0.000    22.139     6.699
 173   6 C      0.362  1.025  2.612  0.000    20.851     7.473
 174   8 O     -0.624  1.756  4.869  0.000    26.725     6.931
 175   8 O     -0.641  1.762  4.879  0.000    27.158     6.987
 176   1 H      0.208  0.792  0.000  0.000     1.068     1.619
 177   1 H      0.071  0.929  0.000  0.000     2.072     2.251
 178   1 H      0.031  0.969  0.000  0.000     2.574     2.509
 179   1 H      0.039  0.961  0.000  0.000     2.464     2.455
 180   1 H      0.013  0.987  0.000  0.000     2.847     2.639
 181   1 H      0.011  0.989  0.000  0.000     2.867     2.648
 182   7 N     -0.172  1.246  3.926  0.000    24.723     7.385
 183   6 C      0.016  1.060  2.925  0.000    20.307     6.415
 184   6 C      0.276  1.039  2.684  0.000    22.325     7.738
 185   8 O     -0.477  1.727  4.750  0.000    23.273     6.468
 186   6 C     -0.084  1.054  3.030  0.000    22.090     6.690
 187   6 C     -0.088  1.053  3.035  0.000    22.173     6.703
 188   6 C     -0.026  1.056  2.970  0.000    21.112     6.556
 189   7 N     -0.145  1.214  3.931  0.000    24.145     7.298
 190   6 C      0.230  1.021  2.749  0.000    23.172     7.881
 191   7 N     -0.233  1.228  4.005  0.000    26.096     7.587
 192   7 N     -0.257  1.236  4.021  0.000    26.676     7.671
 193   1 H      0.197  0.803  0.000  0.000     1.121     1.659
 194   1 H      0.094  0.906  0.000  0.000     1.838     2.120
 195   1 H      0.058  0.942  0.000  0.000     2.228     2.334
 196   1 H      0.068  0.932  0.000  0.000     2.110     2.272
 197   1 H      0.083  0.917  0.000  0.000     1.951     2.184
 198   1 H      0.074  0.926  0.000  0.000     2.042     2.234
 199   1 H      0.084  0.916  0.000  0.000     1.940     2.178
 200   1 H      0.084  0.916  0.000  0.000     1.935     2.176
 201   1 H      0.235  0.765  0.000  0.000     0.943     1.521
 202   1 H      0.248  0.752  0.000  0.000     0.891     1.479
 203   1 H      0.237  0.763  0.000  0.000     0.934     1.514
 204   1 H      0.245  0.755  0.000  0.000     0.904     1.490
 205   1 H      0.228  0.772  0.000  0.000     0.974     1.546
 206   7 N     -0.183  1.246  3.937  0.000    24.959     7.420
 207   6 C      0.019  1.062  2.920  0.000    20.261     6.409
 208   6 C      0.269  1.040  2.691  0.000    22.454     7.760
 209   8 O     -0.481  1.738  4.742  0.000    23.362     6.480
 210   6 C      0.119  1.041  2.841  0.000    18.725     6.176
 211   8 O     -0.476  1.730  4.746  0.000    22.376     6.386
 212   6 C     -0.138  1.047  3.091  0.000    23.222     6.872
 213   1 H      0.232  0.768  0.000  0.000     0.958     1.533
 214   1 H      0.081  0.919  0.000  0.000     1.972     2.196
 215   1 H      0.019  0.981  0.000  0.000     2.749     2.593
 216   1 H      0.327  0.673  0.000  0.000     0.644     1.261
 217   1 H      0.063  0.937  0.000  0.000     2.160     2.298
 218   1 H      0.067  0.933  0.000  0.000     2.117     2.275
 219   1 H      0.067  0.933  0.000  0.000     2.119     2.277
 220   7 N     -0.170  1.242  3.928  0.000    24.676     7.378
 221   6 C      0.012  1.061  2.927  0.000    20.385     6.429
 222   6 C      0.269  1.036  2.695  0.000    22.464     7.762
 223   8 O     -0.471  1.726  4.746  0.000    23.159     6.452
 224   6 C     -0.086  1.055  3.032  0.000    22.136     6.697
 225   6 C     -0.094  1.055  3.038  0.000    22.284     6.721
 226   6 C     -0.032  1.057  2.975  0.000    21.231     6.574
 227   7 N     -0.144  1.214  3.930  0.000    24.114     7.293
 228   6 C      0.234  1.019  2.748  0.000    23.103     7.870
 229   7 N     -0.227  1.223  4.005  0.000    25.975     7.569
 230   7 N     -0.255  1.238  4.016  0.000    26.618     7.662
 231   1 H      0.194  0.806  0.000  0.000     1.137     1.670
 232   1 H      0.088  0.912  0.000  0.000     1.901     2.156
 233   1 H      0.079  0.921  0.000  0.000     1.993     2.208
 234   1 H      0.058  0.942  0.000  0.000     2.223     2.331
 235   1 H      0.079  0.921  0.000  0.000     1.992     2.207
 236   1 H      0.091  0.909  0.000  0.000     1.869     2.138
 237   1 H      0.104  0.896  0.000  0.000     1.749     2.068
 238   1 H      0.068  0.932  0.000  0.000     2.108     2.271
 239   1 H      0.259  0.741  0.000  0.000     0.849     1.444
 240   1 H      0.215  0.785  0.000  0.000     1.034     1.593
 241   1 H      0.216  0.784  0.000  0.000     1.029     1.589
 242   1 H      0.273  0.727  0.000  0.000     0.800     1.401
 243   1 H      0.248  0.752  0.000  0.000     0.893     1.480
 244   7 N     -0.168  1.240  3.929  0.000    24.644     7.373
 245   6 C      0.007  1.060  2.933  0.000    20.451     6.437
 246   6 C      0.276  1.035  2.689  0.000    22.331     7.739
 247   8 O     -0.499  1.751  4.749  0.000    23.772     6.537
 248   6 C     -0.081  1.055  3.026  0.000    22.049     6.684
 249   6 C     -0.081  1.053  3.028  0.000    22.040     6.684
 250   6 C     -0.098  1.056  3.042  0.000    22.363     6.733
 251   6 C     -0.037  1.057  2.980  0.000    21.331     6.592
 252   7 N     -0.142  1.236  3.906  0.000    24.060     7.285
 253   1 H      0.216  0.784  0.000  0.000     1.028     1.588
 254   1 H      0.105  0.895  0.000  0.000     1.741     2.064
 255   1 H      0.058  0.942  0.000  0.000     2.224     2.332
 256   1 H      0.078  0.922  0.000  0.000     2.001     2.212
 257   1 H      0.062  0.938  0.000  0.000     2.171     2.304
 258   1 H      0.065  0.935  0.000  0.000     2.146     2.291
 259   1 H      0.086  0.914  0.000  0.000     1.922     2.168
 260   1 H      0.078  0.922  0.000  0.000     1.998     2.211
 261   1 H      0.089  0.911  0.000  0.000     1.884     2.147
 262   1 H      0.108  0.892  0.000  0.000     1.712     2.046
 263   1 H      0.288  0.712  0.000  0.000     0.750     1.357
 264   1 H      0.306  0.694  0.000  0.000     0.695     1.306
 265   1 H      0.299  0.701  0.000  0.000     0.716     1.326
 266   7 N     -0.177  1.243  3.934  0.000    24.840     7.402
 267   6 C      0.023  1.055  2.922  0.000    20.180     6.395
 268   6 C      0.286  1.034  2.680  0.000    22.163     7.710
 269   8 O     -0.506  1.751  4.755  0.000    23.916     6.557
 270   6 C     -0.079  1.058  3.022  0.000    22.004     6.676
 271   6 C     -0.019  1.058  2.961  0.000    20.880     6.500
 272   6 C     -0.122  1.047  3.074  0.000    22.893     6.824
 273   6 C     -0.115  1.044  3.071  0.000    22.757     6.801
 274   1 H      0.208  0.792  0.000  0.000     1.068     1.619
 275   1 H      0.079  0.921  0.000  0.000     1.991     2.207
 276   1 H      0.064  0.936  0.000  0.000     2.153     2.295
 277   1 H      0.056  0.944  0.000  0.000     2.250     2.346
 278   1 H      0.034  0.966  0.000  0.000     2.524     2.485
 279   1 H      0.048  0.952  0.000  0.000     2.340     2.392
 280   1 H      0.039  0.961  0.000  0.000     2.457     2.451
 281   1 H      0.048  0.952  0.000  0.000     2.351     2.398
 282   1 H      0.050  0.950  0.000  0.000     2.325     2.384
 283   1 H      0.037  0.963  0.000  0.000     2.493     2.469
 284   1 H      0.041  0.959  0.000  0.000     2.436     2.441
 285   7 N     -0.172  1.239  3.932  0.000    24.715     7.383
 286   6 C      0.033  1.050  2.916  0.000    20.016     6.370
 287   6 C      0.210  1.083  2.706  0.000    23.546     7.947
 288   8 O     -0.368  1.764  4.604  0.000    21.043     6.150
 289   6 C     -0.090  1.059  3.031  0.000    22.208     6.709
 290   6 C     -0.103  1.062  3.042  0.000    22.470     6.748
 291   6 C      0.285  1.039  2.676  0.000    22.171     7.710
 292   8 O     -0.526  1.773  4.753  0.000    24.369     6.618
 293   7 N     -0.284  1.272  4.012  0.000    27.335     7.765
 294   1 H      0.208  0.792  0.000  0.000     1.066     1.617
 295   1 H      0.081  0.919  0.000  0.000     1.964     2.191
 296   1 H      0.063  0.937  0.000  0.000     2.163     2.300
 297   1 H      0.111  0.889  0.000  0.000     1.686     2.031
 298   1 H      0.086  0.914  0.000  0.000     1.916     2.165
 299   1 H      0.069  0.931  0.000  0.000     2.096     2.264
 300   1 H      0.242  0.758  0.000  0.000     0.917     1.500
 301   1 H      0.232  0.768  0.000  0.000     0.958     1.533
 302   7 N     -0.394  1.330  4.064  0.000    30.213     8.164
 303   6 C      0.031  1.064  2.905  0.000    20.062     6.379
 304   6 C      0.279  1.046  2.675  0.000    22.278     7.729
 305   8 O     -0.500  1.758  4.742  0.000    23.787     6.539
 306   6 C     -0.025  1.065  2.960  0.000    20.975     6.514
 307   6 C     -0.081  1.055  3.027  0.000    22.048     6.684
 308   6 C     -0.123  1.045  3.077  0.000    22.904     6.823
 309   6 C     -0.114  1.040  3.074  0.000    22.743     6.801
 310   1 H      0.172  0.828  0.000  0.000     1.261     1.759
 311   1 H      0.013  0.987  0.000  0.000     2.843     2.637
 312   1 H      0.054  0.946  0.000  0.000     2.265     2.353
 313   1 H      0.064  0.936  0.000  0.000     2.151     2.293
 314   1 H      0.042  0.958  0.000  0.000     2.421     2.433
 315   1 H      0.055  0.945  0.000  0.000     2.253     2.347
 316   1 H      0.020  0.980  0.000  0.000     2.733     2.585
 317   1 H      0.061  0.939  0.000  0.000     2.191     2.315
 318   1 H      0.053  0.947  0.000  0.000     2.282     2.362
 319   1 H      0.033  0.967  0.000  0.000     2.544     2.494
 320   1 H      0.044  0.956  0.000  0.000     2.397     2.421
 321   7 N     -0.175  1.245  3.930  0.000    24.794     7.395
 322   6 C      0.045  1.052  2.903  0.000    19.836     6.343
 323   6 C      0.207  1.088  2.705  0.000    23.606     7.957
 324   8 O     -0.345  1.740  4.606  0.000    20.619     6.088
 325   6 C     -0.092  1.068  3.024  0.000    22.255     6.716
 326   6 C      0.366  1.022  2.612  0.000    20.801     7.464
 327   8 O     -0.642  1.774  4.868  0.000    27.164     6.988
 328   8 O     -0.649  1.778  4.871  0.000    27.347     7.011
 329   1 H      0.204  0.796  0.000  0.000     1.087     1.633
 330   1 H      0.067  0.933  0.000  0.000     2.114     2.274
 331   1 H      0.053  0.947  0.000  0.000     2.281     2.362
 332   1 H      0.039  0.961  0.000  0.000     2.460     2.453
 333   7 N     -0.397  1.328  4.069  0.000    30.289     8.174
 334   6 C      0.036  1.059  2.905  0.000    19.989     6.368
 335   6 C      0.276  1.047  2.678  0.000    22.339     7.739
 336   8 O     -0.510  1.755  4.756  0.000    24.016     6.570
 337   6 C     -0.046  1.054  2.992  0.000    21.393     6.585
 338   6 C     -0.088  1.067  3.020  0.000    22.180     6.707
 339   6 C      0.353  1.041  2.606  0.000    21.008     7.501
 340   8 O     -0.636  1.766  4.870  0.000    27.027     6.970
 341   8 O     -0.652  1.785  4.867  0.000    27.438     7.023
 342   1 H      0.153  0.847  0.000  0.000     1.381     1.841
 343   1 H      0.026  0.974  0.000  0.000     2.649     2.545
 344   1 H      0.023  0.977  0.000  0.000     2.687     2.563
 345   1 H      0.031  0.969  0.000  0.000     2.566     2.505
 346   1 H      0.020  0.980  0.000  0.000     2.730     2.584
 347   1 H      0.017  0.983  0.000  0.000     2.774     2.605
 348   7 N     -0.165  1.245  3.920  0.000    24.571     7.362
 349   6 C      0.029  1.058  2.913  0.000    20.096     6.384
 350   6 C      0.207  1.083  2.710  0.000    23.598     7.956
 351   8 O     -0.364  1.753  4.611  0.000    20.967     6.139
 352   6 C     -0.083  1.061  3.023  0.000    22.081     6.688
 353   6 C     -0.019  1.054  2.965  0.000    20.873     6.498
 354   6 C     -0.123  1.048  3.075  0.000    22.909     6.824
 355   6 C     -0.145  1.051  3.094  0.000    23.351     6.889
 356   1 H      0.209  0.791  0.000  0.000     1.063     1.615
 357   1 H      0.086  0.914  0.000  0.000     1.919     2.167
 358   1 H      0.078  0.922  0.000  0.000     2.003     2.213
 359   1 H      0.082  0.918  0.000  0.000     1.955     2.187
 360   1 H      0.034  0.966  0.000  0.000     2.528     2.486
 361   1 H      0.049  0.951  0.000  0.000     2.328     2.386
 362   1 H      0.021  0.979  0.000  0.000     2.723     2.580
 363   1 H      0.069  0.931  0.000  0.000     2.092     2.262
 364   1 H      0.058  0.942  0.000  0.000     2.226     2.333
 365   1 H      0.074  0.926  0.000  0.000     2.043     2.235
 366   1 H      0.053  0.947  0.000  0.000     2.279     2.361
 367   1 H      0.156  0.844  0.000  0.000     1.362     1.828
 368   1 H      0.085  0.915  0.000  0.000     1.924     2.169
 369   1 H      0.181  0.819  0.000  0.000     1.209     1.722
 370   1 H      0.060  0.940  0.000  0.000     2.198     2.318
 371   1 H      0.192  0.808  0.000  0.000     1.149     1.679
 372   1 H      0.075  0.925  0.000  0.000     2.035     2.231

 Mol. C6AA /au·bohr⁶  :    1306682.575016
 Mol. C8AA /au·bohr⁸  :   28801096.896268
 Mol. α(0) /au        :       1695.842709

 
molecular dipole:
                 x           y           z       tot (Debye)
 q only:      168.825    -604.689    -151.682
   full:      173.322    -600.114    -152.320    1634.238
molecular quadrupole (traceless):
                xx          xy          yy          xz          yz          zz
 q only:    39618.176   37887.625  -83750.933    9897.351  -33910.982   44132.757
  q+dip:    38637.725   38439.246  -82313.076   10141.005  -33817.159   43675.352
   full:    38634.913   38435.844  -82309.070   10143.424  -33816.987   43674.157
speedup  0.96
cpu  time for grad   22.82 s
wall time for grad   23.77 s

SCC energy    :    -609.2092252
rep           :       6.7283429
ES            :       3.1641277
AES           :      -0.1019090
AXC           :       0.1472265
disp          :      -0.4759246
XB            :       0.0000000
fix           :       0.0000000
Gborn         :       0.0000000
Gsasa         :       0.0000000
Ghb           :       0.0000000
Gshift        :       0.0000000
Gsolv         :      -1.1761713     -738.06
Etot ala COSMO:    -609.2092252
grad norm     :       0.4564337
total E       :    -602.4486901
atomizationE  :     106.5378589    66853.52
(atE without considering molecular charge,
 total energy contains solvation terms)
H-L gap (eV)  :          1.6655

------------------------------------------------------------------------
 * finished run on 2019/05/04 at 17:33:31.519     
------------------------------------------------------------------------
 total:
 * wall-time:     0 d,  0 h,  0 min, 24.728 sec
 *  cpu-time:     0 d,  0 h,  0 min, 23.507 sec
 * ratio c/w:     0.951 speedup
 SCF:
 * wall-time:     0 d,  0 h,  0 min, 24.277 sec
 *  cpu-time:     0 d,  0 h,  0 min, 23.285 sec
 * ratio c/w:     0.959 speedup

