      -----------------------------------------------------------      
     |                   =====================                   |     
     |                           x T B                           |     
     |                   =====================                   |     
     |                         S. Grimme                         |     
     |          Mulliken Center for Theoretical Chemistry        |     
     |                    University of Bonn                     |     
     |                 Version 6.0.1 (SAW181210)                 |     
      -----------------------------------------------------------      

   This program is distributed in the hope that it will be useful,
   but WITHOUT ANY WARRANTY; without even the implied warranty of
   MERCHANTABILITY or FITNESS FOR A PARTICULAR PURPOSE.
   
   FOR NON-COMMERCIAL, ACADEMIA USE ONLY.
   
   Cite this work as:
   S. Grimme, C. Bannwarth, P. Shushkov, J. Comput. Theory Chem., 2017,
   13, 1989-2009.
   C. Bannwarth, S. Ehlert and S. Grimme., ChemRxiv, 2018, preprint.
   http://doi.org/10.26434/chemrxiv.7246238.v1
   
   for sTDA-xTB:
   S. Grimme and C. Bannwarth, J. Chem. Phys., 2016, 145, 054103.
   
   in the mass-spec context:
   V. Asgeirsson, C. Bauer and S. Grimme, Chem. Sci., 2017, 8, 4879.
   
   if GBSA is used:
   P. Shushkov, F. März and S. Grimme, unpublished.
   
   for ANC optimizer:
   S. Grimme, unpublished.
   Rational Function algorithm used in ANCopt:
   F. Eckert, P. Pulay, H.-J. Werner, J. Comput. Chem., 1997, 18, 1473.
   
   with help from (in alphabetical order)
   C. Bannwarth, F. Bohle, G. Brandenburg, E. Caldeweyher, M. Checinski,
   S. Dohm, S. Ehlert, S. Ehrlich, F. März, H. Neugebauer, J. Pisarek,
   P. Pracht, P. Shushkov, and S. Spicher.
   
 * started run on 2019/05/09 at 18:13:28.082     
========================================================================
 # omp threads = 2
========================================================================
number of atoms            : 234
number of electrons        : 656
charge                     : 0
spin                       : .0
first test random number   : .0024

########################################################################
# WARNING! Please study the warnings concerning your input carefully
#  - Process number higher than OMP_NUM_THREADS, I hope you know what you are doing.
########################################################################

           ------------------------------------------------- 
          |                 G F N 2 - x T B                 |
          | Geometry, Frequencies, Noncovalent interactions |
          |            JCTC 2018 parametrisation            |
           ------------------------------------------------- 
 
      method parameters     
 k(s)        :  1.8500
 k(p)        :  2.2300
 k(d)        :  2.2300
 k(f)        :  2.0000
 kEN (H0ij)  : -2.0000
 D4 a1       :  0.5200
 D4 a2       :  5.0000
 D4 s6       :  1.0000
 D4 s8       :  2.7000
 D4 s9       :  5.0000
 alphaj      :  2.0000

 Solvent             : h2o
 Using internal parameter file: .param_gbsa2_h2o
 Gsolv ref. state (COSMO-RS): gsolv [1 M gas/solution]
 temperature (mdtemp)       :    298.150000000000     
 dielectric constant        :    80.2000000000000     
 rho                        :    1.00000000000000     
 mass                       :    18.0000000000000     
 surface tension            :    15.5689454083859     
 probe radius               :   0.975313790000000     
 vdW radii scaling          :    1.00000000000000     
 Gshift (Eh)                :   1.857443126794793E-003
 c1                         :    1.55243817000000     
 soset                      :   0.130326360000000     
 HB correction              :  T

            Z     q(EN)     CN     RAES       Cart. coordinates
     1  N   5.0   -0.22    3.20    1.96   -25.64902   141.50165    21.72218
     2  C   4.0    0.04    4.35    4.28   -26.51728   138.91867    21.96345
     3  C   4.0    0.15    3.48    3.11   -27.79729   138.39103    24.49222
     4  O   6.0   -0.30    1.27    1.80   -29.68813   137.08279    24.66503
     5  C   4.0    0.03    4.19    3.98   -24.50465   136.92231    21.69288
     6  O   6.0   -0.24    2.08    1.84   -25.79361   134.83234    20.66153
     7  H   1.0    0.08    1.02    1.43   -23.75658   141.80758    21.57894
     8  H   1.0    0.06    1.06    1.44   -27.94405   138.55924    20.49616
     9  H   1.0    0.04    1.01    1.43   -23.01499   137.59600    20.41570
    10  H   1.0    0.04    1.02    1.43   -23.65927   136.48444    23.53313
    11  H   1.0    0.12    1.02    1.43   -24.77703   133.33368    20.87873
    12  N   5.0   -0.14    3.43    2.04   -26.53234   139.31903    26.48348
    13  C   4.0    0.03    4.34    4.27   -27.87903   139.87568    28.80953
    14  C   4.0    0.15    3.58    3.16   -30.66723   140.54316    28.61900
    15  O   6.0   -0.30    1.38    1.80   -32.25659   138.90039    29.03253
    16  C   4.0   -0.08    4.17    3.95   -26.66853   141.98931    30.34631
    17  H   1.0    0.08    1.08    1.44   -25.04457   140.48471    26.14756
    18  H   1.0    0.06    1.06    1.44   -27.88909   138.12103    29.93807
    19  H   1.0    0.05    1.00    1.43   -27.73367   142.25783    32.08367
    20  H   1.0    0.04    1.00    1.43   -24.73881   141.47334    30.83695
    21  H   1.0    0.04    1.01    1.43   -26.62546   143.75065    29.32068
    22  N   5.0   -0.16    3.53    2.10   -31.35155   142.97170    28.49290
    23  C   4.0    0.04    4.41    4.40   -33.90129   143.44451    29.42908
    24  C   4.0    0.17    3.50    3.11   -35.79256   141.82566    27.91416
    25  O   6.0   -0.31    1.26    1.80   -37.80720   141.10899    28.82293
    26  C   4.0   -0.07    4.08    3.76   -34.61386   146.21915    29.46009
    27  H   1.0    0.07    1.06    1.44   -30.14494   144.41741    28.18346
    28  H   1.0    0.06    1.06    1.44   -34.02220   142.72321    31.37536
    29  H   1.0    0.05    1.00    1.43   -36.51230   146.40960    30.21189
    30  H   1.0    0.05    1.00    1.43   -33.31036   147.26484    30.65165
    31  H   1.0    0.04    1.00    1.43   -34.55867   147.00803    27.55887
    32  N   5.0   -0.13    3.53    2.10   -35.03393   141.37129    25.52382
    33  C   4.0    0.03    4.32    4.23   -36.36270   139.72638    23.74971
    34  C   4.0    0.16    3.50    3.11   -37.19618   137.28345    25.08278
    35  O   6.0   -0.32    1.41    1.80   -39.37918   136.78268    25.73877
    36  C   4.0   -0.07    4.15    3.89   -34.62960   139.13195    21.51199
    37  H   1.0    0.08    1.10    1.44   -33.28746   141.94219    24.98560
    38  H   1.0    0.05    1.05    1.44   -38.08588   140.69659    23.11804
    39  H   1.0    0.05    1.00    1.43   -35.45017   137.63831    20.36950
    40  H   1.0    0.04    1.00    1.43   -34.42082   140.82264    20.36238
    41  H   1.0    0.06    1.01    1.43   -32.76522   138.56531    22.14946
    42  N   5.0   -0.14    3.60    2.15   -35.27705   135.71138    25.37220
    43  C   4.0    0.04    4.37    4.33   -35.50249   133.29765    26.60436
    44  C   4.0    0.16    3.46    3.10   -37.37289   133.36075    28.81216
    45  O   6.0   -0.32    1.25    1.80   -38.87578   131.64293    29.19346
    46  C   4.0   -0.06    4.15    3.90   -32.80936   132.69903    27.47876
    47  H   1.0    0.11    1.11    1.45   -33.47594   136.28000    25.03808
    48  H   1.0    0.06    1.05    1.44   -36.18729   131.86577    25.26344
    49  H   1.0    0.05    1.00    1.43   -32.77445   130.95015    28.55807
    50  H   1.0    0.06    1.00    1.43   -31.56943   132.51932    25.85584
    51  H   1.0    0.07    1.01    1.43   -32.14252   134.23308    28.67123
    52  N   5.0   -0.13    3.58    2.14   -37.02279   135.38010    30.26519
    53  C   4.0    0.04    4.44    4.45   -38.34375   135.91306    32.54780
    54  C   4.0    0.15    3.47    3.10   -41.17551   136.37908    32.17548
    55  O   6.0   -0.32    1.29    1.80   -42.74290   135.87239    33.83775
    56  C   4.0   -0.03    4.27    4.15   -37.17517   138.23807    33.76854
    57  C   4.0   -0.02    4.20    4.00   -38.37242   138.55180    36.37841
    58  C   4.0    0.25    3.05    3.02   -37.55198   140.81853    38.15093
    59  O   6.0   -0.28    1.14    1.80   -35.85116   142.32688    37.42231
    60  O   6.0   -0.27    1.16    1.80   -38.77244   140.82119    40.20076
    61  H   1.0    0.11    1.11    1.44   -35.69069   136.65985    29.76342
    62  H   1.0    0.05    1.05    1.44   -38.19461   134.28963    33.84705
    63  H   1.0    0.06    1.03    1.43   -35.13551   137.99152    33.93717
    64  H   1.0    0.07    1.05    1.44   -37.55611   139.88860    32.60477
    65  H   1.0    0.07    1.04    1.43   -40.41586   138.74200    36.21015
    66  H   1.0    0.06    1.03    1.43   -38.02611   136.85871    37.51549
    67  N   5.0   -0.14    3.59    2.15   -41.82008   137.41105    29.99380
    68  C   4.0    0.04    4.59    4.65   -44.43891   137.70212    29.31562
    69  C   4.0    0.15    3.60    3.17   -45.51550   135.40426    27.96932
    70  O   6.0   -0.30    1.35    1.80   -47.69694   134.69795    28.34433
    71  C   4.0   -0.02    4.32    4.24   -44.72723   139.97958    27.60751
    72  C   4.0   -0.07    4.14    3.88   -47.41794   140.14019    26.57853
    73  C   4.0   -0.07    4.15    3.91   -43.98717   142.26713    29.16827
    74  H   1.0    0.13    1.14    1.45   -40.49040   137.91796    28.71974
    75  H   1.0    0.06    1.06    1.44   -45.55435   137.97167    31.04501
    76  H   1.0    0.06    1.06    1.44   -43.41019   139.75630    26.02977
    77  H   1.0    0.04    1.00    1.43   -47.65219   141.86542    25.48762
    78  H   1.0    0.06    1.01    1.43   -47.82658   138.54410    25.35366
    79  H   1.0    0.05    1.00    1.43   -48.78564   140.13231    28.11068
    80  H   1.0    0.04    1.00    1.43   -44.13955   143.97876    28.03671
    81  H   1.0    0.04    1.00    1.43   -45.21755   142.46062    30.80261
    82  H   1.0    0.07    1.01    1.43   -42.04843   142.09463    29.81569
    83  N   5.0   -0.14    3.53    2.10   -43.94815   134.29436    26.30388
    84  C   4.0    0.03    4.45    4.46   -44.80157   131.88745    25.25732
    85  C   4.0    0.17    3.57    3.15   -45.84024   130.41539    27.55389
    86  O   6.0   -0.29    1.23    1.80   -47.91351   129.39255    27.61691
    87  C   4.0   -0.04    4.12    3.85   -42.83069   130.35132    23.73053
    88  C   4.0   -0.03    4.10    3.79   -44.27273   128.38690    22.07717
    89  C   4.0    0.25    2.99    3.02   -43.22635   126.83070    19.64814
    90  O   6.0   -0.27    1.13    1.80   -40.98741   126.09564    19.51586
    91  O   6.0   -0.27    1.16    1.80   -44.94725   126.39515    18.08691
    92  H   1.0    0.12    1.11    1.45   -42.17340   134.94483    26.04928
    93  H   1.0    0.06    1.05    1.44   -46.42391   132.29190    24.02219
    94  H   1.0    0.06    1.02    1.43   -41.80370   131.65720    22.51098
    95  H   1.0    0.06    1.02    1.43   -41.48379   129.44275    24.99569
    96  H   1.0    0.05    1.03    1.43   -45.04807   126.94572    23.33131
    97  H   1.0    0.06    1.04    1.43   -45.90464   129.35573    21.26409
    98  N   5.0   -0.14    3.55    2.12   -44.14220   130.41762    29.43735
    99  C   4.0    0.04    4.42    4.42   -44.68791   129.44270    31.92470
   100  C   4.0    0.17    3.60    3.16   -47.14135   130.56753    32.84769
   101  O   6.0   -0.29    1.44    1.80   -48.92881   129.13636    33.22577
   102  C   4.0   -0.03    4.22    4.05   -42.52823   129.77516    33.85186
   103  C   4.0   -0.03    4.13    3.86   -41.25598   127.22316    34.38055
   104  C   4.0    0.25    3.08    3.02   -43.21235   125.16219    35.40348
   105  O   6.0   -0.30    1.17    1.80   -44.60536   125.80756    37.19259
   106  O   6.0   -0.29    1.15    1.80   -43.18244   123.02915    34.37539
   107  H   1.0    0.11    1.11    1.45   -42.39684   131.14999    29.15199
   108  H   1.0    0.06    1.08    1.44   -45.07827   127.40626    31.75267
   109  H   1.0    0.06    1.03    1.43   -41.14332   131.11303    33.12628
   110  H   1.0    0.06    1.03    1.43   -43.28047   130.51425    35.62423
   111  H   1.0    0.06    1.02    1.43   -40.36886   126.48867    32.66933
   112  H   1.0    0.05    1.02    1.43   -39.80225   127.44230    35.83065
   113  N   5.0   -0.13    3.48    2.06   -47.34557   133.05174    33.25310
   114  C   4.0    0.04    4.53    4.57   -49.58867   133.67909    34.74165
   115  C   4.0    0.17    3.58    3.15   -51.89439   132.37761    33.58149
   116  O   6.0   -0.30    1.26    1.80   -53.36510   131.13172    34.87284
   117  C   4.0   -0.05    4.27    4.13   -50.01212   136.49560    35.08468
   118  C   4.0   -0.05    4.21    4.01   -51.20666   136.93474    37.66034
   119  C   4.0   -0.01    4.19    3.97   -51.09353   139.73422    38.33252
   120  N   5.0   -0.14    3.36    2.00   -51.92293   140.18134    40.92413
   121  C   4.0    0.09    3.31    3.06   -53.98536   141.41837    41.74159
   122  N   5.0   -0.18    3.24    1.96   -55.45113   142.78270    40.21198
   123  N   5.0   -0.18    3.23    1.96   -54.66728   141.30175    44.19312
   124  H   1.0    0.11    1.09    1.44   -45.78424   134.17168    33.41721
   125  H   1.0    0.06    1.07    1.44   -49.34249   132.79336    36.60583
   126  H   1.0    0.05    1.03    1.43   -48.16878   137.42971    35.03752
   127  H   1.0    0.05    1.03    1.43   -51.17142   137.24664    33.55659
   128  H   1.0    0.05    1.02    1.43   -53.15370   136.25743    37.65720
   129  H   1.0    0.05    1.03    1.43   -50.16727   135.86446    39.08369
   130  H   1.0    0.05    1.02    1.43   -49.14484   140.40305    38.16739
   131  H   1.0    0.04    1.03    1.43   -52.25877   140.81131    37.02268
   132  H   1.0    0.08    1.07    1.44   -50.96322   139.16184    42.22601
   133  H   1.0    0.08    1.03    1.43   -55.22190   142.79147    38.32155
   134  H   1.0    0.09    1.03    1.43   -57.04094   143.62307    40.84700
   135  H   1.0    0.09    1.03    1.43   -53.54659   140.45304    45.47590
   136  H   1.0    0.09    1.03    1.43   -56.04681   142.45574    44.81546
   137  N   5.0   -0.13    3.54    2.11   -52.26637   132.83102    31.11963
   138  C   4.0    0.05    4.48    4.51   -54.50890   131.96937    29.80641
   139  C   4.0    0.15    3.40    3.08   -54.87786   129.09116    29.56866
   140  O   6.0   -0.31    1.25    1.80   -56.99230   128.20858    29.20976
   141  C   4.0    0.06    4.25    4.11   -54.54880   133.30067    27.23608
   142  O   6.0   -0.25    2.16    1.85   -54.01101   135.85553    27.78714
   143  C   4.0   -0.07    4.08    3.77   -57.10767   132.97815    25.95680
   144  H   1.0    0.12    1.10    1.44   -50.90704   133.69359    30.08341
   145  H   1.0    0.06    1.06    1.44   -56.14705   132.62545    30.90218
   146  H   1.0    0.06    1.03    1.43   -53.01835   132.49366    26.07171
   147  H   1.0    0.12    1.03    1.43   -54.31003   136.84911    26.28626
   148  H   1.0    0.05    1.00    1.43   -56.99167   133.52925    23.98067
   149  H   1.0    0.06    1.01    1.43   -57.70627   131.02194    26.06339
   150  H   1.0    0.05    1.00    1.43   -58.48924   134.15980    26.90385
   151  N   5.0   -0.13    3.49    2.07   -52.84158   127.62512    29.80190
   152  C   4.0    0.04    4.43    4.43   -53.00274   124.90631    30.08137
   153  C   4.0    0.15    3.57    3.15   -54.41415   124.12122    32.42719
   154  O   6.0   -0.33    1.35    1.80   -55.24161   121.95566    32.56772
   155  C   4.0   -0.04    4.32    4.24   -50.36864   123.75887    30.45861
   156  C   4.0   -0.04    4.16    3.92   -50.30837   120.87331    30.24471
   157  C   4.0   -0.01    4.15    3.90   -50.41385   119.97928    27.48184
   158  N   5.0   -0.14    3.34    2.00   -47.97775   119.07216    26.48212
   159  C   4.0    0.10    3.31    3.05   -45.93529   120.33764    25.66450
   160  N   5.0   -0.18    3.23    1.96   -45.65894   122.83271    25.92810
   161  N   5.0   -0.18    3.24    1.96   -44.00570   119.05872    24.62411
   162  H   1.0    0.12    1.10    1.44   -51.13648   128.43455    30.12425
   163  H   1.0    0.05    1.05    1.44   -53.95909   124.09395    28.43329
   164  H   1.0    0.05    1.04    1.43   -49.12231   124.64429    29.07507
   165  H   1.0    0.06    1.03    1.43   -49.66085   124.37754    32.29737
   166  H   1.0    0.05    1.03    1.43   -48.54514   120.21414    31.08170
   167  H   1.0    0.06    1.04    1.43   -51.89159   120.08318    31.29058
   168  H   1.0    0.04    1.03    1.43   -51.71405   118.39808    27.30122
   169  H   1.0    0.05    1.03    1.43   -51.10000   121.50792    26.27762
   170  H   1.0    0.08    1.07    1.44   -47.86073   117.17105    26.33027
   171  H   1.0    0.09    1.03    1.43   -47.06453   123.93360    26.58575
   172  H   1.0    0.09    1.03    1.43   -44.13276   123.69248    25.18593
   173  H   1.0    0.09    1.03    1.43   -44.16033   117.20787    24.20418
   174  H   1.0    0.10    1.03    1.43   -42.54349   120.00759    23.85871
   175  N   5.0   -0.14    3.54    2.11   -54.44208   125.69349    34.38110
   176  C   4.0    0.04    4.39    4.36   -55.95021   124.94413    36.53330
   177  C   4.0    0.09    3.25    3.04   -58.67731   125.49975    35.78385
   178  O   6.0   -0.28    1.17    1.80   -60.35978   123.96910    36.19655
   179  C   4.0   -0.05    4.19    3.99   -54.86253   125.96632    38.99412
   180  C   4.0   -0.04    4.18    3.97   -52.04885   125.26190    39.27377
   181  C   4.0   -0.05    4.13    3.86   -51.40261   122.41266    39.32091
   182  C   4.0   -0.02    4.13    3.86   -48.88223   121.95266    37.99375
   183  N   5.0   -0.12    3.99    2.84   -47.93252   119.29428    38.17689
   184  H   1.0    0.12    1.09    1.44   -53.67038   127.45007    34.34858
   185  H   1.0    0.06    1.08    1.44   -55.87985   122.87141    36.62165
   186  H   1.0    0.06    1.03    1.43   -55.00052   128.02311    39.00985
   187  H   1.0    0.04    1.02    1.43   -55.94332   125.23704    40.58176
   188  H   1.0    0.06    1.03    1.43   -50.99265   126.17226    37.75528
   189  H   1.0    0.05    1.03    1.43   -51.38897   126.10615    41.03456
   190  H   1.0    0.04    1.03    1.43   -51.28893   121.79019    41.27877
   191  H   1.0    0.04    1.03    1.43   -52.86740   121.31413    38.38265
   192  H   1.0    0.05    1.02    1.43   -49.06228   122.42272    35.99591
   193  H   1.0    0.07    1.03    1.43   -47.44151   123.21893    38.75984
   194  H   1.0    0.07    1.02    1.43   -46.21747   119.24751    37.25189
   195  H   1.0    0.06    1.02    1.43   -47.67015   118.79247    40.03539
   196  H   1.0    0.06    1.02    1.43   -49.16814   118.04466    37.33606
   197  N   5.0   -0.18    3.25    1.97   -60.62082   124.01178    30.82170
   198  C   4.0    0.05    4.37    4.33   -61.20486   121.44770    30.15884
   199  C   4.0    0.16    3.47    3.10   -61.80258   119.86726    32.51369
   200  O   6.0   -0.26    1.27    1.80   -63.92463   118.96380    32.72813
   201  C   4.0   -0.04    4.30    4.19   -59.14437   120.18078    28.62383
   202  C   4.0   -0.03    4.26    4.12   -60.05463   117.56068    27.79063
   203  C   4.0    0.16    3.26    3.05   -62.29889   117.88271    26.02778
   204  O   6.0   -0.27    1.22    1.80   -64.39382   118.55419    26.72725
   205  N   5.0   -0.18    3.19    1.95   -61.73335   117.56118    23.56654
   206  H   1.0    0.11    1.04    1.43   -58.83462   124.66904    30.75164
   207  H   1.0    0.08    1.08    1.44   -62.98569   121.47197    29.09535
   208  H   1.0    0.05    1.03    1.43   -58.75285   121.33228    26.95717
   209  H   1.0    0.06    1.04    1.43   -57.42774   120.01523    29.74604
   210  H   1.0    0.04    1.03    1.43   -58.54030   116.55163    26.83335
   211  H   1.0    0.06    1.03    1.43   -60.65649   116.44682    29.41756
   212  H   1.0    0.08    1.03    1.43   -60.06513   116.82186    23.03714
   213  H   1.0    0.10    1.03    1.43   -63.13773   117.58369    22.28039
   214  N   5.0   -0.13    3.42    2.03   -59.94596   119.46490    34.20819
   215  C   4.0    0.04    4.20    3.99   -60.27827   117.57016    36.21889
   216  C   4.0    0.11    3.20    3.04   -62.91247   117.94255    37.50556
   217  O   6.0   -0.26    1.10    1.80   -64.13499   116.16935    38.37860
   218  C   4.0   -0.04    4.10    3.81   -57.83451   117.05049    37.86009
   219  C   4.0   -0.03    4.10    3.81   -57.32149   118.28022    40.47616
   220  C   4.0    0.15    3.16    3.03   -55.44147   116.87255    42.25339
   221  O   6.0   -0.28    1.19    1.80   -55.33935   114.58796    42.55964
   222  N   5.0   -0.19    3.17    1.95   -53.80341   118.40538    43.49838
   223  H   1.0    0.11    1.08    1.44   -58.21382   120.23527    33.91126
   224  H   1.0    0.06    1.06    1.44   -60.57057   115.76255    35.22007
   225  H   1.0    0.06    1.03    1.43   -57.86015   115.01880    38.21794
   226  H   1.0    0.05    1.03    1.43   -56.25624   117.44953    36.59772
   227  H   1.0    0.04    1.02    1.43   -56.70667   120.23086    40.27173
   228  H   1.0    0.06    1.03    1.43   -59.10517   118.32139    41.52463
   229  H   1.0    0.08    1.02    1.43   -54.23238   120.23801    43.82842
   230  H   1.0    0.10    1.03    1.43   -52.76351   117.57695    44.86926
   231  H   1.0    0.09    1.07    1.44   -26.31582   142.19611    20.32016
   232  H   1.0    0.07    1.05    1.44   -59.11144   127.13498    34.94205
   233  H   1.0    0.11    1.08    1.44   -61.46687   125.07058    29.79423
   234  H   1.0    0.08    1.04    1.44   -63.66167   119.67210    37.64131

  Z AO/shell   Hii/eV     exponent
  1     Wed Apr 25 08:07:45 CEST 2018   EN: 2.200 GM2: 0.406  GM3: 0.0800  RAES: 1.40
     1s    -10.707211    1.230000
  6     Wed Apr 25 08:07:45 CEST 2018   EN: 2.550 GM2: 0.538  GM3: 0.1500  RAES: 3.00
     2s    -13.970922    2.096432
     2p    -10.063292    1.800000
  7     Wed Apr 25 08:07:45 CEST 2018   EN: 3.040 GM2: 0.461  GM3:-0.0640  RAES: 1.90
     2s    -16.686243    2.339881
     2p    -12.523956    2.014332
  8     Wed Apr 25 08:07:45 CEST 2018   EN: 3.440 GM2: 0.452  GM3:-0.0517  RAES: 1.80
     2s    -20.229985    2.439742
     2p    -15.503117    2.137023
 no old-style atom pair restraining (fixing) potential

molecular fragmentation (1/2 indicates fragments):
111111111111111111111111111111111111111111111111111111111111111111111111
111111111111111111111111111111111111111111111111111111111111111111111111
111111111111111111111111111111111111111111111111111122222222222222222222
222222222222221122
# atoms in fragment 1/2:   198    36
 fragment masses (1/2) :     1401.54      258.28
CMA distance (Bohr)    :  22.104
constraining FC (au)   :  0.0500
           ------------------------------------------------- 
          |        Self-Consistent Charge Iterations        |
           ------------------------------------------------- 

 Ncao       : 582
 Nao        : 582
 Nshell     : 350
 Nel        : 656
 T(el)      :   500.0
 intcut     :    35.0
 scfconv/Eh :  0.100E-06
   qconv/e  :  0.100E-04
 intneglect :  0.100E-08
 broydamp   :      0.400
 iter      E             dE          RMSdq      gap      omega  full diag
   1   -378.9264701 -0.378926E+03  0.485E+00    3.25       0.0  T
   2   -379.9105985 -0.984128E+00  0.223E+00    2.20       1.0  T
   3   -379.9761487 -0.655502E-01  0.128E+00    2.31       1.0  T
   4   -380.0412972 -0.651485E-01  0.272E-01    1.87       1.0  T
   5   -380.0447484 -0.345127E-02  0.136E-01    2.07       1.0  T
   6   -380.0453044 -0.555922E-03  0.529E-02    2.03       1.0  T
   7   -380.0454410 -0.136595E-03  0.230E-02    2.05       1.0  T
   8   -380.0454550 -0.139916E-04  0.943E-03    2.03       1.0  T
   9   -380.0454600 -0.503317E-05  0.365E-03    2.04       1.8  T
  10   -380.0454603 -0.353117E-06  0.141E-03    2.04       4.6  T
  11   -380.0454605 -0.111905E-06  0.575E-04    2.04      11.4  T
  12   -380.0454605 -0.130403E-07  0.232E-04    2.04      28.2  T
  13   -380.0454605 -0.170854E-08  0.113E-04    2.04      58.0  T
  14   -380.0454605 -0.457874E-09  0.407E-05    2.04     160.7  T
  15   -380.0454605 -0.829345E-10  0.157E-05    2.04     415.4  T
speedup  1.90
cpu  time for SCC    6.46 s
wall time for SCC    3.40 s

   *** convergence criteria satisfied after 15 iterations ***

          eigenvalues
 #    :         316        317        318        319        320        321        322        323
 occ. :        2.000      2.000      2.000      2.000      2.000      2.000      2.000      2.000
 eps  :       -10.721    -10.653    -10.635    -10.539    -10.510    -10.422    -10.411    -10.367
 #    :         324        325        326        327        328        329        330        331
 occ. :        2.000      2.000      2.000      2.000      2.000      0.000      0.000      0.000
 eps  :       -10.220     -9.916     -9.734     -9.717     -9.463     -7.427     -7.329     -6.993
 #    :         332        333        334        335        336        337        338        339
 occ. :        0.000      0.000      0.000      0.000      0.000      0.000      0.000      0.000
 eps  :        -6.868     -6.622     -6.616     -6.582     -6.474     -6.400     -6.395     -6.352


   #   Z            q   n(s)   n(p)   n(d)      C6AA      α(0)
   1   7 N     -0.399  1.314  4.085  0.000    30.348     8.182
   2   6 C      0.021  1.055  2.924  0.000    20.222     6.404
   3   6 C      0.270  1.047  2.683  0.000    22.444     7.759
   4   8 O     -0.478  1.743  4.735  0.000    23.294     6.471
   5   6 C      0.078  1.039  2.883  0.000    19.462     6.314
   6   8 O     -0.489  1.732  4.757  0.000    22.656     6.425
   7   1 H      0.171  0.829  0.000  0.000     1.269     1.765
   8   1 H      0.063  0.937  0.000  0.000     2.166     2.302
   9   1 H      0.042  0.958  0.000  0.000     2.423     2.434
  10   1 H      0.030  0.970  0.000  0.000     2.583     2.513
  11   1 H      0.343  0.657  0.000  0.000     0.605     1.221
  12   7 N     -0.183  1.269  3.915  0.000    24.974     7.422
  13   6 C      0.022  1.055  2.923  0.000    20.206     6.401
  14   6 C      0.273  1.046  2.681  0.000    22.381     7.749
  15   8 O     -0.493  1.753  4.740  0.000    23.638     6.519
  16   6 C     -0.147  1.046  3.100  0.000    23.373     6.891
  17   1 H      0.229  0.771  0.000  0.000     0.970     1.543
  18   1 H      0.078  0.922  0.000  0.000     1.996     2.209
  19   1 H      0.065  0.935  0.000  0.000     2.143     2.289
  20   1 H      0.086  0.914  0.000  0.000     1.914     2.163
  21   1 H      0.078  0.922  0.000  0.000     2.002     2.212
  22   7 N     -0.191  1.252  3.939  0.000    25.154     7.449
  23   6 C      0.029  1.060  2.912  0.000    20.078     6.377
  24   6 C      0.283  1.044  2.673  0.000    22.208     7.716
  25   8 O     -0.495  1.753  4.742  0.000    23.673     6.523
  26   6 C     -0.133  1.041  3.092  0.000    23.114     6.856
  27   1 H      0.236  0.764  0.000  0.000     0.942     1.520
  28   1 H      0.063  0.937  0.000  0.000     2.169     2.303
  29   1 H      0.067  0.933  0.000  0.000     2.115     2.274
  30   1 H      0.080  0.920  0.000  0.000     1.982     2.201
  31   1 H      0.078  0.922  0.000  0.000     1.999     2.211
  32   7 N     -0.183  1.246  3.937  0.000    24.962     7.420
  33   6 C      0.019  1.064  2.917  0.000    20.259     6.409
  34   6 C      0.274  1.043  2.683  0.000    22.367     7.745
  35   8 O     -0.503  1.742  4.762  0.000    23.857     6.549
  36   6 C     -0.147  1.047  3.100  0.000    23.393     6.896
  37   1 H      0.213  0.787  0.000  0.000     1.043     1.600
  38   1 H      0.078  0.922  0.000  0.000     1.995     2.209
  39   1 H      0.071  0.929  0.000  0.000     2.077     2.254
  40   1 H      0.087  0.913  0.000  0.000     1.910     2.161
  41   1 H      0.076  0.924  0.000  0.000     2.017     2.221
  42   7 N     -0.170  1.254  3.916  0.000    24.676     7.378
  43   6 C      0.020  1.059  2.920  0.000    20.236     6.405
  44   6 C      0.284  1.036  2.680  0.000    22.198     7.715
  45   8 O     -0.500  1.742  4.759  0.000    23.795     6.540
  46   6 C     -0.136  1.047  3.089  0.000    23.150     6.858
  47   1 H      0.251  0.749  0.000  0.000     0.880     1.469
  48   1 H      0.068  0.932  0.000  0.000     2.102     2.268
  49   1 H      0.064  0.936  0.000  0.000     2.158     2.297
  50   1 H      0.090  0.910  0.000  0.000     1.879     2.143
  51   1 H      0.074  0.926  0.000  0.000     2.040     2.234
  52   7 N     -0.178  1.241  3.937  0.000    24.856     7.405
  53   6 C      0.039  1.053  2.909  0.000    19.923     6.355
  54   6 C      0.273  1.044  2.683  0.000    22.380     7.747
  55   8 O     -0.511  1.742  4.769  0.000    24.039     6.574
  56   6 C     -0.055  1.050  3.004  0.000    21.545     6.607
  57   6 C     -0.092  1.069  3.023  0.000    22.250     6.716
  58   6 C      0.362  1.034  2.604  0.000    20.860     7.474
  59   8 O     -0.640  1.778  4.862  0.000    27.117     6.982
  60   8 O     -0.645  1.778  4.866  0.000    27.245     6.998
  61   1 H      0.219  0.781  0.000  0.000     1.012     1.576
  62   1 H      0.046  0.954  0.000  0.000     2.375     2.410
  63   1 H      0.037  0.963  0.000  0.000     2.483     2.464
  64   1 H      0.059  0.941  0.000  0.000     2.214     2.327
  65   1 H      0.031  0.969  0.000  0.000     2.578     2.511
  66   1 H      0.015  0.985  0.000  0.000     2.803     2.618
  67   7 N     -0.179  1.250  3.929  0.000    24.871     7.407
  68   6 C      0.026  1.057  2.917  0.000    20.124     6.384
  69   6 C      0.274  1.045  2.680  0.000    22.361     7.745
  70   8 O     -0.480  1.740  4.740  0.000    23.339     6.477
  71   6 C     -0.016  1.057  2.958  0.000    20.816     6.488
  72   6 C     -0.121  1.040  3.081  0.000    22.875     6.819
  73   6 C     -0.123  1.041  3.082  0.000    22.895     6.820
  74   1 H      0.238  0.762  0.000  0.000     0.931     1.512
  75   1 H      0.074  0.926  0.000  0.000     2.038     2.233
  76   1 H      0.044  0.956  0.000  0.000     2.393     2.419
  77   1 H      0.066  0.934  0.000  0.000     2.132     2.283
  78   1 H      0.035  0.965  0.000  0.000     2.517     2.481
  79   1 H      0.061  0.939  0.000  0.000     2.193     2.316
  80   1 H      0.060  0.940  0.000  0.000     2.200     2.320
  81   1 H      0.049  0.951  0.000  0.000     2.327     2.385
  82   1 H      0.047  0.953  0.000  0.000     2.357     2.401
  83   7 N     -0.211  1.262  3.949  0.000    25.597     7.514
  84   6 C      0.027  1.070  2.903  0.000    20.118     6.385
  85   6 C      0.288  1.042  2.670  0.000    22.120     7.702
  86   8 O     -0.484  1.733  4.751  0.000    23.439     6.491
  87   6 C     -0.058  1.057  3.001  0.000    21.632     6.623
  88   6 C     -0.109  1.085  3.024  0.000    22.610     6.774
  89   6 C      0.368  1.032  2.600  0.000    20.763     7.456
  90   8 O     -0.627  1.773  4.854  0.000    26.791     6.940
  91   8 O     -0.629  1.776  4.853  0.000    26.833     6.945
  92   1 H      0.225  0.775  0.000  0.000     0.988     1.557
  93   1 H      0.059  0.941  0.000  0.000     2.207     2.323
  94   1 H      0.041  0.959  0.000  0.000     2.433     2.440
  95   1 H      0.039  0.961  0.000  0.000     2.459     2.452
  96   1 H      0.023  0.977  0.000  0.000     2.685     2.563
  97   1 H      0.025  0.975  0.000  0.000     2.657     2.549
  98   7 N     -0.208  1.256  3.952  0.000    25.526     7.504
  99   6 C      0.042  1.055  2.903  0.000    19.875     6.348
 100   6 C      0.283  1.042  2.675  0.000    22.211     7.720
 101   8 O     -0.470  1.731  4.739  0.000    23.131     6.448
 102   6 C     -0.050  1.051  2.999  0.000    21.469     6.597
 103   6 C     -0.099  1.071  3.028  0.000    22.402     6.741
 104   6 C      0.357  1.034  2.609  0.000    20.940     7.488
 105   8 O     -0.611  1.762  4.848  0.000    26.385     6.887
 106   8 O     -0.621  1.760  4.861  0.000    26.629     6.919
 107   1 H      0.212  0.788  0.000  0.000     1.048     1.604
 108   1 H      0.060  0.940  0.000  0.000     2.204     2.322
 109   1 H      0.032  0.968  0.000  0.000     2.561     2.503
 110   1 H      0.038  0.962  0.000  0.000     2.474     2.460
 111   1 H      0.016  0.984  0.000  0.000     2.788     2.611
 112   1 H      0.015  0.985  0.000  0.000     2.815     2.624
 113   7 N     -0.202  1.282  3.920  0.000    25.396     7.485
 114   6 C      0.029  1.063  2.908  0.000    20.057     6.372
 115   6 C      0.289  1.040  2.670  0.000    22.098     7.698
 116   8 O     -0.490  1.727  4.763  0.000    23.557     6.507
 117   6 C     -0.077  1.052  3.025  0.000    21.971     6.672
 118   6 C     -0.082  1.055  3.027  0.000    22.062     6.686
 119   6 C     -0.023  1.055  2.968  0.000    21.063     6.549
 120   7 N     -0.140  1.213  3.927  0.000    24.041     7.282
 121   6 C      0.231  1.024  2.745  0.000    23.142     7.876
 122   7 N     -0.242  1.227  4.015  0.000    26.321     7.620
 123   7 N     -0.259  1.243  4.016  0.000    26.729     7.678
 124   1 H      0.213  0.787  0.000  0.000     1.043     1.600
 125   1 H      0.064  0.936  0.000  0.000     2.148     2.292
 126   1 H      0.054  0.946  0.000  0.000     2.268     2.355
 127   1 H      0.068  0.932  0.000  0.000     2.110     2.272
 128   1 H      0.079  0.921  0.000  0.000     1.989     2.205
 129   1 H      0.064  0.936  0.000  0.000     2.154     2.295
 130   1 H      0.078  0.922  0.000  0.000     1.995     2.209
 131   1 H      0.090  0.910  0.000  0.000     1.879     2.144
 132   1 H      0.230  0.770  0.000  0.000     0.965     1.539
 133   1 H      0.242  0.758  0.000  0.000     0.917     1.500
 134   1 H      0.261  0.739  0.000  0.000     0.842     1.438
 135   1 H      0.247  0.753  0.000  0.000     0.894     1.481
 136   1 H      0.260  0.740  0.000  0.000     0.844     1.439
 137   7 N     -0.180  1.241  3.940  0.000    24.907     7.412
 138   6 C      0.019  1.065  2.916  0.000    20.259     6.409
 139   6 C      0.266  1.047  2.687  0.000    22.503     7.768
 140   8 O     -0.493  1.741  4.752  0.000    23.640     6.519
 141   6 C      0.121  1.043  2.836  0.000    18.693     6.172
 142   8 O     -0.475  1.722  4.754  0.000    22.370     6.385
 143   6 C     -0.141  1.044  3.097  0.000    23.281     6.880
 144   1 H      0.218  0.782  0.000  0.000     1.020     1.582
 145   1 H      0.085  0.915  0.000  0.000     1.928     2.172
 146   1 H      0.009  0.991  0.000  0.000     2.900     2.663
 147   1 H      0.338  0.662  0.000  0.000     0.617     1.234
 148   1 H      0.055  0.945  0.000  0.000     2.261     2.352
 149   1 H      0.064  0.936  0.000  0.000     2.157     2.297
 150   1 H      0.072  0.928  0.000  0.000     2.068     2.249
 151   7 N     -0.180  1.246  3.933  0.000    24.891     7.410
 152   6 C      0.022  1.055  2.922  0.000    20.203     6.400
 153   6 C      0.266  1.042  2.692  0.000    22.516     7.773
 154   8 O     -0.480  1.722  4.757  0.000    23.338     6.477
 155   6 C     -0.072  1.056  3.016  0.000    21.854     6.653
 156   6 C     -0.097  1.056  3.041  0.000    22.358     6.732
 157   6 C     -0.033  1.061  2.972  0.000    21.247     6.579
 158   7 N     -0.142  1.214  3.928  0.000    24.068     7.286
 159   6 C      0.235  1.024  2.741  0.000    23.075     7.864
 160   7 N     -0.232  1.221  4.011  0.000    26.093     7.586
 161   7 N     -0.258  1.239  4.020  0.000    26.704     7.675
 162   1 H      0.215  0.785  0.000  0.000     1.034     1.593
 163   1 H      0.079  0.921  0.000  0.000     1.994     2.208
 164   1 H      0.048  0.952  0.000  0.000     2.343     2.394
 165   1 H      0.062  0.938  0.000  0.000     2.178     2.308
 166   1 H      0.090  0.910  0.000  0.000     1.880     2.144
 167   1 H      0.109  0.891  0.000  0.000     1.708     2.044
 168   1 H      0.113  0.887  0.000  0.000     1.674     2.023
 169   1 H      0.076  0.924  0.000  0.000     2.026     2.226
 170   1 H      0.254  0.746  0.000  0.000     0.867     1.459
 171   1 H      0.220  0.780  0.000  0.000     1.010     1.574
 172   1 H      0.208  0.792  0.000  0.000     1.068     1.619
 173   1 H      0.265  0.735  0.000  0.000     0.829     1.426
 174   1 H      0.235  0.765  0.000  0.000     0.945     1.523
 175   7 N     -0.160  1.240  3.920  0.000    24.459     7.345
 176   6 C      0.015  1.062  2.924  0.000    20.320     6.416
 177   6 C      0.199  1.082  2.719  0.000    23.754     7.982
 178   8 O     -0.349  1.756  4.593  0.000    20.688     6.098
 179   6 C     -0.078  1.055  3.023  0.000    21.987     6.676
 180   6 C     -0.077  1.053  3.024  0.000    21.979     6.675
 181   6 C     -0.100  1.057  3.043  0.000    22.417     6.742
 182   6 C     -0.042  1.057  2.985  0.000    21.413     6.605
 183   7 N     -0.142  1.229  3.913  0.000    24.070     7.287
 184   1 H      0.215  0.785  0.000  0.000     1.031     1.590
 185   1 H      0.110  0.890  0.000  0.000     1.696     2.037
 186   1 H      0.071  0.929  0.000  0.000     2.079     2.255
 187   1 H      0.079  0.921  0.000  0.000     1.989     2.205
 188   1 H      0.051  0.949  0.000  0.000     2.309     2.376
 189   1 H      0.070  0.930  0.000  0.000     2.081     2.256
 190   1 H      0.090  0.910  0.000  0.000     1.876     2.142
 191   1 H      0.079  0.921  0.000  0.000     1.991     2.207
 192   1 H      0.089  0.911  0.000  0.000     1.886     2.148
 193   1 H      0.116  0.884  0.000  0.000     1.643     2.004
 194   1 H      0.289  0.711  0.000  0.000     0.746     1.353
 195   1 H      0.300  0.700  0.000  0.000     0.713     1.323
 196   1 H      0.301  0.699  0.000  0.000     0.711     1.321
 197   7 N     -0.389  1.302  4.087  0.000    30.079     8.145
 198   6 C      0.039  1.052  2.909  0.000    19.937     6.359
 199   6 C      0.277  1.051  2.671  0.000    22.306     7.734
 200   8 O     -0.510  1.762  4.748  0.000    24.000     6.568
 201   6 C     -0.078  1.058  3.021  0.000    21.989     6.675
 202   6 C     -0.101  1.060  3.041  0.000    22.418     6.740
 203   6 C      0.292  1.039  2.669  0.000    22.046     7.688
 204   8 O     -0.507  1.764  4.743  0.000    23.944     6.561
 205   7 N     -0.298  1.276  4.022  0.000    27.671     7.812
 206   1 H      0.154  0.846  0.000  0.000     1.372     1.835
 207   1 H      0.050  0.950  0.000  0.000     2.317     2.380
 208   1 H      0.044  0.956  0.000  0.000     2.391     2.418
 209   1 H      0.084  0.916  0.000  0.000     1.934     2.175
 210   1 H      0.072  0.928  0.000  0.000     2.061     2.245
 211   1 H      0.055  0.945  0.000  0.000     2.256     2.349
 212   1 H      0.233  0.767  0.000  0.000     0.951     1.528
 213   1 H      0.223  0.777  0.000  0.000     0.998     1.565
 214   7 N     -0.176  1.255  3.921  0.000    24.809     7.398
 215   6 C      0.024  1.075  2.901  0.000    20.196     6.403
 216   6 C      0.218  1.085  2.697  0.000    23.402     7.922
 217   8 O     -0.395  1.760  4.635  0.000    21.578     6.228
 218   6 C     -0.070  1.059  3.012  0.000    21.858     6.658
 219   6 C     -0.106  1.063  3.043  0.000    22.522     6.758
 220   6 C      0.288  1.047  2.666  0.000    22.124     7.701
 221   8 O     -0.485  1.760  4.726  0.000    23.462     6.494
 222   7 N     -0.289  1.284  4.005  0.000    27.446     7.781
 223   1 H      0.234  0.766  0.000  0.000     0.947     1.524
 224   1 H      0.077  0.923  0.000  0.000     2.009     2.216
 225   1 H      0.080  0.920  0.000  0.000     1.978     2.199
 226   1 H      0.089  0.911  0.000  0.000     1.890     2.150
 227   1 H      0.080  0.920  0.000  0.000     1.974     2.197
 228   1 H      0.068  0.932  0.000  0.000     2.107     2.270
 229   1 H      0.224  0.776  0.000  0.000     0.993     1.561
 230   1 H      0.227  0.773  0.000  0.000     0.976     1.548
 231   1 H      0.195  0.805  0.000  0.000     1.131     1.665
 232   1 H      0.065  0.935  0.000  0.000     2.146     2.291
 233   1 H      0.174  0.826  0.000  0.000     1.248     1.750
 234   1 H      0.070  0.930  0.000  0.000     2.083     2.257

 Mol. C6AA /au·bohr⁶  :     504334.886366
 Mol. C8AA /au·bohr⁸  :   11113076.394280
 Mol. α(0) /au        :       1055.187823

 
molecular dipole:
                 x           y           z       tot (Debye)
 q only:       -2.174       2.242       7.338
   full:        1.432       4.387       5.454      18.159
molecular quadrupole (traceless):
                xx          xy          yy          xz          yz          zz
 q only:     -446.918    -775.559     463.175    -855.783    1514.719     -16.258
  q+dip:     -971.719    -221.158    1211.696    -553.410    1246.160    -239.977
   full:     -974.935    -223.981    1214.450    -552.070    1248.232    -239.515
speedup  1.92
cpu  time for grad    8.61 s
wall time for grad    4.48 s

SCC energy    :    -380.0556067
rep           :       4.2149809
ES            :       1.5217192
AES           :      -0.0864613
AXC           :       0.1008665
disp          :      -0.3030917
XB            :       0.0000000
fix           :       0.0000000
Gborn         :       0.0000000
Gsasa         :       0.0000000
Ghb           :       0.0000000
Gshift        :       0.0000000
Gsolv         :      -0.4379608     -274.82
Etot ala COSMO:    -380.0556067
grad norm     :       0.3276586
total E       :    -375.8193476
atomizationE  :      65.7744032    41274.06
(atE without considering molecular charge,
 total energy contains solvation terms)
H-L gap (eV)  :          2.0360

------------------------------------------------------------------------
 * finished run on 2019/05/09 at 18:13:32.856     
------------------------------------------------------------------------
 total:
 * wall-time:     0 d,  0 h,  0 min,  4.771 sec
 *  cpu-time:     0 d,  0 h,  0 min,  9.081 sec
 * ratio c/w:     1.903 speedup
 SCF:
 * wall-time:     0 d,  0 h,  0 min,  4.636 sec
 *  cpu-time:     0 d,  0 h,  0 min,  8.928 sec
 * ratio c/w:     1.926 speedup

