      -----------------------------------------------------------      
     |                   =====================                   |     
     |                           x T B                           |     
     |                   =====================                   |     
     |                         S. Grimme                         |     
     |          Mulliken Center for Theoretical Chemistry        |     
     |                    University of Bonn                     |     
     |                 Version 6.0.1 (SAW181210)                 |     
      -----------------------------------------------------------      

   This program is distributed in the hope that it will be useful,
   but WITHOUT ANY WARRANTY; without even the implied warranty of
   MERCHANTABILITY or FITNESS FOR A PARTICULAR PURPOSE.
   
   FOR NON-COMMERCIAL, ACADEMIA USE ONLY.
   
   Cite this work as:
   S. Grimme, C. Bannwarth, P. Shushkov, J. Comput. Theory Chem., 2017,
   13, 1989-2009.
   C. Bannwarth, S. Ehlert and S. Grimme., ChemRxiv, 2018, preprint.
   http://doi.org/10.26434/chemrxiv.7246238.v1
   
   for sTDA-xTB:
   S. Grimme and C. Bannwarth, J. Chem. Phys., 2016, 145, 054103.
   
   in the mass-spec context:
   V. Asgeirsson, C. Bauer and S. Grimme, Chem. Sci., 2017, 8, 4879.
   
   if GBSA is used:
   P. Shushkov, F. März and S. Grimme, unpublished.
   
   for ANC optimizer:
   S. Grimme, unpublished.
   Rational Function algorithm used in ANCopt:
   F. Eckert, P. Pulay, H.-J. Werner, J. Comput. Chem., 1997, 18, 1473.
   
   with help from (in alphabetical order)
   C. Bannwarth, F. Bohle, G. Brandenburg, E. Caldeweyher, M. Checinski,
   S. Dohm, S. Ehlert, S. Ehrlich, F. März, H. Neugebauer, J. Pisarek,
   P. Pracht, P. Shushkov, and S. Spicher.
   
 * started run on 2019/05/07 at 23:35:54.854     
========================================================================
 # omp threads = 2
========================================================================
number of atoms            : 447
number of electrons        : 1192
charge                     : 0
spin                       : .0
first test random number   : .2681

########################################################################
# WARNING! Please study the warnings concerning your input carefully
#  - Process number higher than OMP_NUM_THREADS, I hope you know what you are doing.
########################################################################

           ------------------------------------------------- 
          |                 G F N 2 - x T B                 |
          | Geometry, Frequencies, Noncovalent interactions |
          |            JCTC 2018 parametrisation            |
           ------------------------------------------------- 
 
      method parameters     
 k(s)        :  1.8500
 k(p)        :  2.2300
 k(d)        :  2.2300
 k(f)        :  2.0000
 kEN (H0ij)  : -2.0000
 D4 a1       :  0.5200
 D4 a2       :  5.0000
 D4 s6       :  1.0000
 D4 s8       :  2.7000
 D4 s9       :  5.0000
 alphaj      :  2.0000

 Solvent             : h2o
 Using internal parameter file: .param_gbsa2_h2o
 Gsolv ref. state (COSMO-RS): gsolv [1 M gas/solution]
 temperature (mdtemp)       :    298.150000000000     
 dielectric constant        :    80.2000000000000     
 rho                        :    1.00000000000000     
 mass                       :    18.0000000000000     
 surface tension            :    15.5689454083859     
 probe radius               :   0.975313790000000     
 vdW radii scaling          :    1.00000000000000     
 Gshift (Eh)                :   1.857443126794793E-003
 c1                         :    1.55243817000000     
 soset                      :   0.130326360000000     
 HB correction              :  T

            Z     q(EN)     CN     RAES       Cart. coordinates
     1  N   5.0   -0.21    3.20    1.96     4.52511    79.22834   138.03352
     2  C   4.0    0.03    4.21    4.03     2.50029    80.01695   139.68453
     3  C   4.0    0.08    3.22    3.04     0.20003    80.78138   138.11432
     4  O   6.0   -0.28    1.12    1.80    -1.92128    80.70041   139.01806
     5  C   4.0   -0.05    4.24    4.07     3.25461    82.20406   141.42959
     6  C   4.0   -0.05    4.16    3.92     4.11795    81.41145   144.08386
     7  C   4.0   -0.01    4.18    3.95     2.01298    80.31324   145.75071
     8  N   5.0   -0.14    3.39    2.02     2.74661    80.52325   148.39802
     9  C   4.0    0.09    3.33    3.06     1.25973    80.20810   150.39902
    10  N   5.0   -0.18    3.25    1.97    -1.16651    79.62038   150.19018
    11  N   5.0   -0.19    3.25    1.97     2.21763    80.54905   152.71893
    12  H   1.0    0.08    1.02    1.43     6.03806    80.38218   137.84830
    13  H   1.0    0.05    1.05    1.44     1.89072    78.37266   140.79558
    14  H   1.0    0.04    1.03    1.43     4.78756    83.23394   140.51222
    15  H   1.0    0.05    1.03    1.43     1.64497    83.48157   141.60204
    16  H   1.0    0.04    1.02    1.43     5.65955    80.05648   143.91035
    17  H   1.0    0.04    1.03    1.43     4.84665    83.11007   144.99847
    18  H   1.0    0.05    1.02    1.43     0.26190    81.36621   145.44411
    19  H   1.0    0.04    1.02    1.43     1.67180    78.32594   145.29589
    20  H   1.0    0.08    1.07    1.44     4.60980    80.78990   148.71990
    21  H   1.0    0.09    1.02    1.43    -2.04361    79.32453   148.50719
    22  H   1.0    0.08    1.04    1.43    -2.25730    79.63276   151.74506
    23  H   1.0    0.08    1.04    1.43     4.05455    80.97993   153.00537
    24  H   1.0    0.08    1.03    1.43     1.10859    80.41046   154.25377
    25  N   5.0   -0.19    3.25    1.97     4.25955    71.41587   150.76192
    26  C   4.0    0.03    4.46    4.48     6.51061    72.75426   151.52154
    27  C   4.0    0.14    3.60    3.17     8.77050    71.68119   150.15720
    28  O   6.0   -0.33    1.38    1.80     9.22747    69.40697   150.18437
    29  C   4.0   -0.02    4.38    4.35     6.99965    72.42111   154.35372
    30  C   4.0   -0.05    4.19    3.98     4.97359    73.84044   155.86100
    31  C   4.0   -0.07    4.16    3.92     9.67039    73.31881   154.97635
    32  C   4.0   -0.07    4.02    3.65     4.42153    72.59808   158.38955
    33  H   1.0    0.12    1.06    1.44     4.01485    69.63719   151.45056
    34  H   1.0    0.03    1.07    1.44     6.22701    74.74708   151.07730
    35  H   1.0    0.05    1.06    1.44     6.83679    70.40701   154.78871
    36  H   1.0    0.04    1.03    1.43     5.57912    75.78981   156.15377
    37  H   1.0    0.04    1.04    1.43     3.23263    73.85288   154.75195
    38  H   1.0    0.04    1.00    1.43     9.97959    73.20339   157.00621
    39  H   1.0    0.05    1.01    1.43    11.10389    72.15970   154.07228
    40  H   1.0    0.04    1.00    1.43     9.93605    75.27252   154.40457
    41  H   1.0    0.04    1.00    1.43     2.86434    73.54824   159.33109
    42  H   1.0    0.05    1.00    1.43     3.92794    70.61858   158.13125
    43  H   1.0    0.05    1.00    1.43     6.04987    72.69377   159.63285
    44  N   5.0   -0.10    3.69    2.25    10.28119    73.27450   148.96005
    45  C   4.0    0.03    4.50    4.53    12.50798    72.29338   147.66031
    46  C   4.0    0.08    3.20    3.04    14.77772    72.31999   149.49425
    47  O   6.0   -0.30    1.13    1.80    15.60452    74.27088   150.44578
    48  C   4.0   -0.04    4.33    4.25    12.83525    74.13961   145.46664
    49  C   4.0   -0.03    4.25    4.11    11.97340    76.66255   146.56191
    50  C   4.0   -0.01    4.34    4.28     9.89923    75.95126   148.48817
    51  H   1.0    0.05    1.05    1.44    12.16409    70.35039   147.06368
    52  H   1.0    0.05    1.02    1.43    14.77677    74.19718   144.81293
    53  H   1.0    0.04    1.02    1.43    11.59995    73.57372   143.91746
    54  H   1.0    0.07    1.03    1.43    13.52105    77.58510   147.55281
    55  H   1.0    0.04    1.02    1.43    11.26813    77.93657   145.11410
    56  H   1.0    0.05    1.02    1.43    10.10811    77.04934   150.22188
    57  H   1.0    0.04    1.02    1.43     8.01698    76.24971   147.68918
    58  N   5.0   -0.20    3.25    1.97     7.54767    64.52241   149.80747
    59  C   4.0    0.03    4.35    4.30     6.48826    63.27247   151.97308
    60  C   4.0    0.15    3.47    3.10     3.83202    64.26022   152.71189
    61  O   6.0   -0.30    1.30    1.80     3.33773    66.52866   152.86096
    62  C   4.0   -0.02    4.24    4.09     8.29693    63.53149   154.30389
    63  C   4.0   -0.08    4.12    3.84     9.96016    61.19329   154.59336
    64  C   4.0   -0.06    4.18    3.95    10.09829    65.76929   154.15699
    65  H   1.0    0.12    1.10    1.44     8.21731    66.30569   150.03437
    66  H   1.0    0.03    1.07    1.44     6.33654    61.28457   151.45492
    67  H   1.0    0.05    1.06    1.44     7.09935    63.74856   155.98280
    68  H   1.0    0.04    1.00    1.43    11.28564    61.46665   156.13954
    69  H   1.0    0.03    1.00    1.43     8.85556    59.51913   155.00619
    70  H   1.0    0.04    1.00    1.43    11.05151    60.89093   152.88041
    71  H   1.0    0.04    1.01    1.43    11.09199    65.90015   155.94777
    72  H   1.0    0.05    1.01    1.43    11.45342    65.47893   152.64421
    73  H   1.0    0.06    1.01    1.43     9.12425    67.53795   153.84864
    74  N   5.0   -0.10    3.60    2.16     2.04567    62.48931   153.21584
    75  C   4.0    0.03    4.56    4.61    -0.32651    63.28696   154.41647
    76  C   4.0    0.16    3.48    3.11     0.11903    65.05383   156.68112
    77  O   6.0   -0.30    1.27    1.80     1.86825    64.72408   158.16329
    78  C   4.0   -0.03    4.34    4.27    -1.53351    60.83540   155.46655
    79  C   4.0   -0.04    4.23    4.07    -0.05201    58.68338   154.25661
    80  C   4.0   -0.02    4.38    4.35     2.54437    59.84952   153.86406
    81  H   1.0    0.05    1.04    1.44    -1.52054    64.25485   153.03896
    82  H   1.0    0.06    1.03    1.43    -1.30422    60.79977   157.51513
    83  H   1.0    0.06    1.02    1.43    -3.55322    60.79700   155.11642
    84  H   1.0    0.04    1.02    1.43     0.01381    57.01643   155.45265
    85  H   1.0    0.05    1.02    1.43    -0.87471    58.13410   152.45257
    86  H   1.0    0.04    1.02    1.43     3.62821    59.79778   155.62975
    87  H   1.0    0.04    1.03    1.43     3.62464    58.90621   152.41177
    88  N   5.0   -0.14    3.43    2.04    -1.64737    66.84424   157.04070
    89  C   4.0    0.03    4.38    4.34    -1.61221    68.50694   159.23396
    90  C   4.0    0.16    3.51    3.12    -1.12502    66.99775   161.63691
    91  O   6.0   -0.33    1.33    1.80     0.31015    67.76417   163.28730
    92  C   4.0   -0.04    4.24    4.07    -4.11858    69.96965   159.62149
    93  C   4.0   -0.04    4.17    3.94    -3.93387    72.86398   159.31624
    94  C   4.0    0.15    3.19    3.04    -5.28726    73.88793   156.96282
    95  O   6.0   -0.29    1.20    1.80    -7.25530    73.01711   156.14765
    96  N   5.0   -0.19    3.18    1.95    -4.18257    75.91767   155.88910
    97  H   1.0    0.08    1.06    1.44    -3.08255    67.07342   155.80460
    98  H   1.0    0.05    1.05    1.44    -0.02350    69.82439   159.02833
    99  H   1.0    0.06    1.03    1.43    -5.52563    69.27516   158.27778
   100  H   1.0    0.04    1.04    1.43    -4.83521    69.54006   161.50511
   101  H   1.0    0.04    1.03    1.43    -4.86102    73.77189   160.92014
   102  H   1.0    0.03    1.03    1.43    -1.96723    73.46817   159.29138
   103  H   1.0    0.08    1.03    1.43    -2.56426    76.64543   156.56235
   104  H   1.0    0.10    1.03    1.43    -5.03290    76.70187   154.37855
   105  N   5.0   -0.14    3.61    2.16    -2.51326    64.92793   161.95264
   106  C   4.0    0.04    4.47    4.49    -2.86165    63.89226   164.45716
   107  C   4.0    0.15    3.40    3.08    -1.63424    61.31109   164.78252
   108  O   6.0   -0.29    1.23    1.80    -2.41612    59.69901   166.23785
   109  C   4.0   -0.04    4.24    4.09    -5.65630    63.90561   165.29724
   110  C   4.0   -0.03    4.21    4.01    -7.50932    63.96093   163.06308
   111  C   4.0    0.25    3.17    3.03    -6.96814    61.67096   161.31612
   112  O   6.0   -0.31    1.30    1.80    -5.64619    62.11833   159.37844
   113  O   6.0   -0.27    1.16    1.80    -7.83078    59.59374   161.96996
   114  H   1.0    0.11    1.17    1.46    -3.65273    64.15124   160.55734
   115  H   1.0    0.05    1.08    1.44    -1.77108    65.09968   165.75489
   116  H   1.0    0.07    1.04    1.43    -5.98078    62.17927   166.38102
   117  H   1.0    0.04    1.02    1.43    -6.01640    65.52218   166.52684
   118  H   1.0    0.05    1.02    1.43    -9.43316    63.79297   163.77761
   119  H   1.0    0.05    1.02    1.43    -7.33058    65.70499   161.98141
   120  N   5.0   -0.13    3.53    2.10     0.52887    61.10360   163.50512
   121  C   4.0    0.03    4.40    4.37     2.32654    59.07111   163.89510
   122  C   4.0    0.15    3.41    3.08     4.02159    59.74350   166.17150
   123  O   6.0   -0.32    1.28    1.80     5.00270    61.85180   166.31076
   124  C   4.0   -0.04    4.39    4.37     3.94914    58.89666   161.52272
   125  C   4.0   -0.02    4.18    3.95     5.47861    56.46831   161.25626
   126  C   4.0   -0.07    4.10    3.81     3.77217    54.24027   160.58843
   127  C   4.0   -0.08    4.12    3.83     7.45221    56.87068   159.18924
   128  H   1.0    0.10    1.10    1.44     0.93320    62.50522   162.26887
   129  H   1.0    0.05    1.05    1.44     1.27286    57.34232   164.28977
   130  H   1.0    0.04    1.04    1.43     2.69396    59.09582   159.89745
   131  H   1.0    0.05    1.04    1.43     5.21278    60.52806   161.53337
   132  H   1.0    0.05    1.05    1.44     6.43830    56.08097   163.04613
   133  H   1.0    0.04    1.00    1.43     4.88751    52.54846   160.25492
   134  H   1.0    0.05    1.00    1.43     2.45704    53.85978   162.11586
   135  H   1.0    0.04    1.00    1.43     2.68445    54.65511   158.89405
   136  H   1.0    0.04    1.00    1.43     8.61836    55.18885   158.99457
   137  H   1.0    0.03    1.00    1.43     6.51181    57.21312   157.39822
   138  H   1.0    0.04    1.00    1.43     8.66844    58.45999   159.64066
   139  N   5.0   -0.14    3.43    2.03     4.31302    57.93194   167.92497
   140  C   4.0    0.04    4.44    4.45     6.11559    58.12765   169.99185
   141  C   4.0    0.17    3.50    3.11     8.80377    57.70591   168.98679
   142  O   6.0   -0.31    1.29    1.80     9.26558    56.39193   167.12770
   143  C   4.0    0.05    4.22    4.05     5.73803    56.26877   172.21099
   144  O   6.0   -0.24    2.15    1.85     7.47230    54.22453   171.99358
   145  C   4.0   -0.07    4.09    3.78     3.05057    55.28816   172.44867
   146  H   1.0    0.08    1.06    1.44     3.65471    56.17882   167.46000
   147  H   1.0    0.07    1.09    1.44     6.00222    60.06023   170.70328
   148  H   1.0    0.05    1.04    1.43     6.22847    57.33344   173.93190
   149  H   1.0    0.12    1.03    1.43     6.96744    52.97506   173.23497
   150  H   1.0    0.05    1.00    1.43     2.85282    54.17597   174.16526
   151  H   1.0    0.05    1.00    1.43     1.74984    56.87410   172.54905
   152  H   1.0    0.05    1.00    1.43     2.53640    54.14090   170.83238
   153  N   5.0   -0.15    3.46    2.05    10.61800    58.82987   170.32394
   154  C   4.0    0.04    4.37    4.33    13.25779    58.57474   169.62653
   155  C   4.0    0.09    3.27    3.05    14.21795    55.89306   169.96773
   156  O   6.0   -0.29    1.13    1.80    16.14628    55.22054   168.87795
   157  C   4.0   -0.04    4.45    4.46    14.87292    60.19234   171.32903
   158  C   4.0   -0.04    4.07    3.74    15.05234    62.88547   170.44973
   159  S   6.0   -0.06    2.53    3.10    17.78950    63.41994   168.53602
   160  C   4.0   -0.06    3.92    3.49    20.09823    61.21160   169.74833
   161  H   1.0    0.10    1.08    1.44    10.10245    60.14632   171.61435
   162  H   1.0    0.05    1.05    1.44    13.52897    59.08793   167.63650
   163  H   1.0    0.04    1.04    1.43    14.00278    60.16624   173.21003
   164  H   1.0    0.05    1.08    1.44    16.72232    59.32936   171.55408
   165  H   1.0    0.04    1.08    1.44    13.41753    63.45803   169.33672
   166  H   1.0    0.04    1.07    1.44    15.19520    64.15422   172.07539
   167  H   1.0    0.04    1.06    1.44    21.87243    61.82244   168.91461
   168  H   1.0    0.04    1.04    1.43    20.21558    61.35858   171.79136
   169  H   1.0    0.05    1.03    1.43    19.69262    59.29324   169.14071
   170  N   5.0   -0.20    3.20    1.96    12.27173    53.00991   164.18997
   171  C   4.0    0.04    4.27    4.13    13.96417    53.97729   162.29608
   172  C   4.0    0.09    3.25    3.04    16.46332    52.56024   162.28014
   173  O   6.0   -0.28    1.11    1.80    17.42034    51.77664   160.30548
   174  C   4.0   -0.03    4.32    4.24    14.59125    56.77130   162.55878
   175  C   4.0   -0.01    3.54    3.14    15.75485    57.75687   160.12662
   176  C   4.0   -0.04    3.47    3.10    14.83528    57.10273   157.71482
   177  C   4.0   -0.04    3.46    3.10    17.77625    59.42716   160.21710
   178  C   4.0   -0.04    3.39    3.07    15.90764    58.10577   155.56216
   179  C   4.0   -0.04    3.38    3.07    18.78391    60.49647   158.01146
   180  C   4.0   -0.04    3.35    3.06    17.87926    59.83326   155.67056
   181  H   1.0    0.12    1.06    1.44    11.23093    54.25021   165.22435
   182  H   1.0    0.05    1.07    1.44    13.09479    53.63095   160.44489
   183  H   1.0    0.04    1.04    1.43    12.82062    57.75886   162.93215
   184  H   1.0    0.05    1.03    1.43    15.87799    57.09472   164.13287
   185  H   1.0    0.05    1.03    1.43    13.23793    55.85555   157.50852
   186  H   1.0    0.05    1.03    1.43    18.55474    59.98255   162.01716
   187  H   1.0    0.05    1.03    1.43    15.18144    57.55447   153.73526
   188  H   1.0    0.05    1.03    1.43    20.32698    61.81466   158.20570
   189  H   1.0    0.05    1.03    1.43    18.64833    60.62054   153.95727
   190  N   5.0   -0.19    3.25    1.97    28.37357    70.19074   169.30482
   191  C   4.0    0.03    4.33    4.25    27.41729    72.22695   167.73976
   192  C   4.0    0.08    3.23    3.04    29.58029    74.10597   167.47889
   193  O   6.0   -0.27    1.13    1.80    30.90394    74.73453   169.28399
   194  C   4.0   -0.02    4.25    4.10    24.91604    73.25058   168.71981
   195  C   4.0   -0.08    4.14    3.87    24.17642    75.55397   167.17002
   196  C   4.0   -0.08    4.11    3.83    22.86073    71.21644   168.55156
   197  H   1.0    0.08    1.02    1.43    28.01547    70.22769   171.19635
   198  H   1.0    0.04    1.06    1.44    27.09210    71.43069   165.85256
   199  H   1.0    0.05    1.05    1.44    25.15362    73.79744   170.70047
   200  H   1.0    0.04    1.01    1.43    22.30668    76.18616   167.72203
   201  H   1.0    0.05    1.00    1.43    25.48224    77.11171   167.45178
   202  H   1.0    0.04    1.00    1.43    24.15831    75.09002   165.16656
   203  H   1.0    0.03    1.00    1.43    21.10916    71.96065   169.30849
   204  H   1.0    0.04    1.00    1.43    22.55670    70.70907   166.58435
   205  H   1.0    0.04    1.00    1.43    23.40246    69.53401   169.59299
   206  N   5.0   -0.18    3.27    1.97    24.09964    67.25132   179.47534
   207  C   4.0    0.03    4.29    4.19    21.52553    68.15125   179.54057
   208  C   4.0    0.08    3.27    3.05    19.89705    66.13031   180.70159
   209  O   6.0   -0.28    1.15    1.80    20.66868    63.99138   181.14087
   210  C   4.0   -0.03    4.26    4.11    20.50797    68.76781   176.85549
   211  C   4.0   -0.08    4.09    3.79    22.00570    70.83349   175.49522
   212  C   4.0   -0.07    4.15    3.90    20.43329    66.38919   175.25536
   213  H   1.0    0.09    1.03    1.43    24.44576    65.75325   178.34316
   214  H   1.0    0.04    1.05    1.44    21.51171    69.86222   180.70220
   215  H   1.0    0.04    1.06    1.44    18.57801    69.46446   177.10409
   216  H   1.0    0.04    1.00    1.43    21.09112    71.27512   173.71394
   217  H   1.0    0.05    1.00    1.43    22.07099    72.55038   176.62643
   218  H   1.0    0.04    1.00    1.43    23.93404    70.24871   175.11022
   219  H   1.0    0.03    1.00    1.43    19.55059    66.80230   173.44664
   220  H   1.0    0.04    1.00    1.43    22.33176    65.69749   174.86809
   221  H   1.0    0.05    1.00    1.43    19.36118    64.89543   176.17478
   222  N   5.0   -0.19    3.22    1.96     8.52700    63.00288   177.81337
   223  C   4.0    0.03    4.25    4.10     7.42647    65.22937   176.64768
   224  C   4.0    0.15    3.43    3.09     6.45265    64.58573   174.00817
   225  O   6.0   -0.31    1.29    1.80     7.32838    62.76182   172.86501
   226  C   4.0   -0.07    4.13    3.87     9.42792    67.27436   176.31758
   227  H   1.0    0.08    1.03    1.43    10.43575    62.84575   177.77646
   228  H   1.0    0.05    1.05    1.44     5.83633    65.88322   177.79960
   229  H   1.0    0.05    1.01    1.43     8.78337    68.66865   174.95987
   230  H   1.0    0.05    1.00    1.43     9.76953    68.23296   178.10288
   231  H   1.0    0.04    1.00    1.43    11.17790    66.41997   175.66764
   232  N   5.0   -0.14    3.48    2.06     4.75689    66.19417   173.06971
   233  C   4.0    0.04    4.47    4.50     3.93428    66.11651   170.47354
   234  C   4.0    0.16    3.48    3.10     5.61720    67.78134   168.82018
   235  O   6.0   -0.32    1.33    1.80     6.82651    69.56958   169.67623
   236  C   4.0    0.05    4.26    4.11     1.21640    67.15009   170.14000
   237  O   6.0   -0.26    2.15    1.85     1.11433    69.69928   170.92641
   238  C   4.0   -0.07    4.06    3.73    -0.72975    65.53227   171.52602
   239  H   1.0    0.11    1.11    1.45     4.04525    67.57468   174.22466
   240  H   1.0    0.06    1.06    1.44     4.04462    64.16461   169.80410
   241  H   1.0    0.05    1.04    1.44     0.79693    67.18180   168.11090
   242  H   1.0    0.14    1.07    1.44     1.31205    69.70974   172.76881
   243  H   1.0    0.05    1.00    1.43    -2.60461    66.32098   171.24495
   244  H   1.0    0.05    1.00    1.43    -0.70355    63.60689   170.81452
   245  H   1.0    0.06    1.00    1.43    -0.31502    65.52198   173.54054
   246  N   5.0   -0.14    3.55    2.11     5.48307    67.18628   166.37627
   247  C   4.0    0.04    4.54    4.60     6.87064    68.56930   164.47926
   248  C   4.0    0.15    3.49    3.11     5.92409    71.27138   164.38066
   249  O   6.0   -0.32    1.33    1.80     7.38742    73.02999   164.04579
   250  C   4.0   -0.04    4.38    4.35     6.69495    67.24127   161.95086
   251  C   4.0   -0.04    4.10    3.81     8.23573    64.83037   162.01807
   252  S   6.0   -0.05    2.64    3.10    11.52890    65.63165   162.57679
   253  C   4.0   -0.07    3.92    3.49    12.70941    62.45642   162.68458
   254  H   1.0    0.10    1.10    1.44     4.66376    65.53004   165.89040
   255  H   1.0    0.05    1.11    1.45     8.87799    68.68017   165.00148
   256  H   1.0    0.07    1.03    1.43     4.72783    66.81187   161.49673
   257  H   1.0    0.04    1.04    1.43     7.45706    68.48122   160.49185
   258  H   1.0    0.06    1.08    1.44     7.62458    63.59152   163.54727
   259  H   1.0    0.04    1.06    1.44     8.12153    63.83611   160.21633
   260  H   1.0    0.04    1.05    1.44    14.65245    62.53501   163.33226
   261  H   1.0    0.05    1.05    1.44    11.54774    61.40197   164.01400
   262  H   1.0    0.04    1.04    1.43    12.62752    61.62897   160.80747
   263  N   5.0   -0.14    3.57    2.13     3.45823    71.56043   164.70565
   264  C   4.0    0.03    4.35    4.29     2.26963    74.01471   164.91410
   265  C   4.0    0.16    3.50    3.11     3.76862    75.51993   166.88316
   266  O   6.0   -0.31    1.28    1.80     4.79128    77.52565   166.35372
   267  C   4.0   -0.07    4.11    3.83    -0.49417    73.65008   165.63661
   268  H   1.0    0.11    1.14    1.45     2.30794    70.03195   164.58680
   269  H   1.0    0.05    1.05    1.44     2.44059    75.04979   163.12456
   270  H   1.0    0.04    1.00    1.43    -1.44838    75.46358   165.71102
   271  H   1.0    0.05    1.00    1.43    -1.40103    72.44954   164.24016
   272  H   1.0    0.05    1.00    1.43    -0.64529    72.72574   167.46452
   273  N   5.0   -0.14    3.51    2.09     3.80850    74.45566   169.17325
   274  C   4.0    0.04    4.40    4.38     5.27637    75.47615   171.22654
   275  C   4.0    0.16    3.48    3.11     7.97877    76.07341   170.34491
   276  O   6.0   -0.30    1.31    1.80     8.84947    78.21587   170.56693
   277  C   4.0   -0.04    4.23    4.06     5.17511    73.66113   173.49311
   278  C   4.0   -0.03    4.17    3.94     2.62957    73.83763   174.86000
   279  C   4.0    0.25    3.08    3.02     2.07499    71.78909   176.91944
   280  O   6.0   -0.32    1.26    1.80     2.24416    69.49705   176.30663
   281  O   6.0   -0.28    1.17    1.80     1.37243    72.58553   179.00474
   282  H   1.0    0.10    1.09    1.44     3.03821    72.72259   169.45117
   283  H   1.0    0.06    1.05    1.44     4.47947    77.31136   171.79636
   284  H   1.0    0.07    1.04    1.43     5.51037    71.74363   172.82347
   285  H   1.0    0.05    1.02    1.43     6.69538    74.14174   174.80792
   286  H   1.0    0.05    1.04    1.43     2.49914    75.65532   175.81026
   287  H   1.0    0.05    1.03    1.43     1.10417    73.70873   173.47344
   288  N   5.0   -0.14    3.52    2.09     9.30932    74.22651   169.28237
   289  C   4.0    0.04    4.55    4.61    11.92853    74.71537   168.63249
   290  C   4.0    0.16    3.48    3.11    12.19375    76.92138   166.77916
   291  O   6.0   -0.33    1.30    1.80    14.03487    78.33434   166.83223
   292  C   4.0   -0.02    4.35    4.29    13.21326    72.41368   167.43125
   293  C   4.0   -0.04    4.22    4.03    12.59351    69.94846   168.80978
   294  C   4.0   -0.08    4.15    3.89    16.06710    72.82580   167.44931
   295  C   4.0   -0.07    4.04    3.69    12.86587    70.10474   171.67949
   296  H   1.0    0.11    1.11    1.45     8.60943    72.44949   169.19007
   297  H   1.0    0.05    1.06    1.44    12.95891    75.27180   170.34807
   298  H   1.0    0.05    1.05    1.44    12.55020    72.23835   165.47820
   299  H   1.0    0.06    1.04    1.44    10.68296    69.33737   168.37956
   300  H   1.0    0.04    1.03    1.43    13.86395    68.49210   168.08469
   301  H   1.0    0.03    1.00    1.43    17.00537    71.20147   166.61136
   302  H   1.0    0.05    1.00    1.43    16.58744    74.49637   166.37547
   303  H   1.0    0.04    1.00    1.43    16.74258    73.06691   169.37158
   304  H   1.0    0.04    1.01    1.43    12.55014    68.23713   172.45955
   305  H   1.0    0.04    1.00    1.43    14.74849    70.71500   172.22462
   306  H   1.0    0.05    1.00    1.43    11.49203    71.38476   172.50810
   307  N   5.0   -0.13    3.53    2.10    10.40806    77.12991   165.01965
   308  C   4.0    0.04    4.42    4.42    10.50913    78.96188   162.96795
   309  C   4.0    0.16    3.45    3.10    10.05007    81.63124   163.96732
   310  O   6.0   -0.32    1.33    1.80    11.34820    83.44854   163.29643
   311  C   4.0   -0.03    4.33    4.26     8.49710    78.24541   160.98857
   312  C   4.0   -0.02    3.54    3.13     8.75740    79.69442   158.55117
   313  C   4.0   -0.05    3.48    3.11    10.89349    79.33296   157.06342
   314  C   4.0   -0.05    3.45    3.09     6.90918    81.36078   157.71707
   315  C   4.0   -0.05    3.44    3.09    11.19967    80.61334   154.81587
   316  C   4.0   -0.04    3.45    3.10     7.21034    82.68572   155.48496
   317  C   4.0    0.07    3.45    3.09     9.37646    82.34555   154.02149
   318  O   6.0   -0.25    2.12    1.84     9.62831    83.69214   151.86236
   319  H   1.0    0.12    1.13    1.45     8.98741    75.84493   164.96637
   320  H   1.0    0.05    1.05    1.44    12.41068    78.93679   162.14039
   321  H   1.0    0.05    1.03    1.43     8.72161    76.22816   160.61868
   322  H   1.0    0.05    1.03    1.43     6.63571    78.52764   161.82600
   323  H   1.0    0.04    1.03    1.43    12.32185    78.02244   157.68710
   324  H   1.0    0.05    1.03    1.43     5.24006    81.64597   158.85088
   325  H   1.0    0.07    1.04    1.43    12.85049    80.27725   153.67001
   326  H   1.0    0.06    1.03    1.43     5.85073    84.08993   154.90558
   327  H   1.0    0.15    1.10    1.44    11.21941    83.20121   151.04813
   328  N   5.0   -0.14    3.53    2.10     8.06388    81.80364   165.49232
   329  C   4.0    0.03    4.42    4.41     7.46551    84.01011   167.01541
   330  C   4.0    0.16    3.48    3.11     9.90371    85.01464   168.21591
   331  O   6.0   -0.30    1.27    1.80    10.65724    87.17278   167.85304
   332  C   4.0   -0.04    4.30    4.19     5.48780    83.25648   168.98988
   333  C   4.0   -0.04    4.19    3.98     5.07460    85.35116   170.91826
   334  C   4.0   -0.01    4.18    3.97     2.57981    85.08345   172.34614
   335  N   5.0   -0.14    3.38    2.01     1.90281    82.54468   173.19811
   336  C   4.0    0.10    3.33    3.06     2.49469    81.52023   175.43522
   337  N   5.0   -0.19    3.24    1.97     0.84181    79.88594   176.46256
   338  N   5.0   -0.17    3.25    1.97     4.56777    82.16100   176.67470
   339  H   1.0    0.11    1.12    1.45     7.14437    80.18658   165.96745
   340  H   1.0    0.05    1.05    1.44     6.69162    85.50583   165.80512
   341  H   1.0    0.05    1.03    1.43     3.73767    82.80764   167.99736
   342  H   1.0    0.07    1.04    1.43     6.12873    81.55661   169.96138
   343  H   1.0    0.07    1.05    1.44     6.65845    85.36157   172.22398
   344  H   1.0    0.05    1.03    1.43     5.02765    87.18460   169.97872
   345  H   1.0    0.05    1.03    1.43     2.63255    86.33274   173.98865
   346  H   1.0    0.04    1.03    1.43     1.04271    85.68001   171.11087
   347  H   1.0    0.08    1.08    1.44     0.33546    81.83124   172.37638
   348  H   1.0    0.09    1.03    1.43    -0.81267    79.46788   175.62301
   349  H   1.0    0.09    1.03    1.43     1.26090    78.95772   178.06963
   350  H   1.0    0.13    1.10    1.44     6.17719    82.87072   175.77545
   351  H   1.0    0.10    1.04    1.43     4.95478    81.26871   178.31200
   352  N   5.0   -0.13    3.55    2.11    11.14180    83.27258   169.52685
   353  C   4.0    0.05    4.40    4.39    13.15466    83.85731   171.24707
   354  C   4.0    0.16    3.40    3.08    15.78101    84.18955   170.06084
   355  O   6.0   -0.28    1.24    1.80    17.35181    85.41641   171.22999
   356  C   4.0   -0.02    4.27    4.14    13.14656    81.85669   173.31505
   357  C   4.0    0.26    3.10    3.02    10.73607    81.86441   175.04710
   358  O   6.0   -0.32    1.32    1.80     9.02840    83.42644   174.56920
   359  O   6.0   -0.28    1.16    1.80    10.68803    80.29902   176.79591
   360  H   1.0    0.11    1.11    1.45    10.32974    81.55957   169.79876
   361  H   1.0    0.07    1.06    1.44    12.75735    85.70421   172.12369
   362  H   1.0    0.06    1.03    1.43    13.24962    79.97649   172.47520
   363  H   1.0    0.06    1.02    1.43    14.78141    82.07797   174.55438
   364  N   5.0   -0.13    3.42    2.03    16.19474    83.30052   167.68923
   365  C   4.0    0.04    4.37    4.32    18.76496    83.34907   166.69987
   366  C   4.0    0.15    3.40    3.08    18.96416    83.54868   163.79375
   367  O   6.0   -0.30    1.27    1.80    20.95252    82.98181   162.72941
   368  C   4.0   -0.02    4.32    4.24    20.36842    81.00402   167.48578
   369  C   4.0   -0.01    3.54    3.13    20.06787    80.12523   170.17298
   370  C   4.0   -0.04    3.49    3.11    18.10316    78.48236   170.79243
   371  C   4.0   -0.03    3.45    3.10    21.76362    80.76912   172.06626
   372  C   4.0   -0.04    3.43    3.09    17.75842    77.62984   173.22381
   373  C   4.0   -0.04    3.42    3.08    21.41980    79.94615   174.53316
   374  C   4.0    0.07    3.43    3.09    19.33757    78.46792   175.16800
   375  O   6.0   -0.24    2.10    1.84    18.70876    77.86788   177.61504
   376  H   1.0    0.11    1.09    1.44    15.14506    81.79062   167.11563
   377  H   1.0    0.07    1.06    1.44    19.65828    85.04875   167.48218
   378  H   1.0    0.05    1.04    1.43    19.79713    79.46352   166.23265
   379  H   1.0    0.05    1.03    1.43    22.34100    81.43628   167.08295
   380  H   1.0    0.07    1.06    1.44    16.82404    77.89925   169.32555
   381  H   1.0    0.06    1.03    1.43    23.36029    81.95982   171.61832
   382  H   1.0    0.06    1.03    1.43    16.19822    76.41084   173.71855
   383  H   1.0    0.06    1.03    1.43    22.68548    80.58024   176.00690
   384  H   1.0    0.12    1.03    1.43    19.90084    78.61695   178.77599
   385  N   5.0   -0.13    3.41    2.02    16.95199    84.34771   162.45384
   386  C   4.0    0.04    4.28    4.16    17.21011    84.65963   159.70006
   387  C   4.0    0.09    3.25    3.04    19.27400    86.60687   159.05317
   388  O   6.0   -0.28    1.13    1.80    19.47480    88.63381   160.16062
   389  C   4.0   -0.05    4.22    4.05    14.66853    85.24221   158.41087
   390  C   4.0   -0.04    4.19    3.98    14.24737    87.93849   157.41889
   391  C   4.0   -0.05    4.16    3.92    11.92094    89.18878   158.55752
   392  C   4.0   -0.03    4.12    3.85    12.33559    89.82998   161.35795
   393  N   5.0   -0.11    4.05    2.99    10.42525    88.55882   162.97998
   394  H   1.0    0.10    1.07    1.44    15.30192    84.73585   163.33490
   395  H   1.0    0.04    1.06    1.44    17.93568    82.85328   158.98358
   396  H   1.0    0.04    1.03    1.43    14.51638    83.96012   156.80457
   397  H   1.0    0.06    1.04    1.44    13.17890    84.70564   159.72920
   398  H   1.0    0.06    1.05    1.44    15.88814    89.13251   157.74833
   399  H   1.0    0.04    1.03    1.43    14.04087    87.86590   155.36817
   400  H   1.0    0.04    1.03    1.43    11.52843    90.90418   157.49039
   401  H   1.0    0.04    1.03    1.43    10.31825    87.91302   158.32120
   402  H   1.0    0.06    1.03    1.43    14.22114    89.23473   161.93511
   403  H   1.0    0.05    1.02    1.43    12.20456    91.86316   161.65298
   404  H   1.0    0.09    1.05    1.44    10.65335    89.02377   164.87607
   405  H   1.0    0.06    1.02    1.43     8.64932    89.07374   162.38415
   406  H   1.0    0.10    1.08    1.44    10.64663    86.58066   162.88416
   407  N   5.0   -0.21    3.10    1.94    17.02779    87.57576   147.48772
   408  C   4.0    0.01    4.06    3.74    15.09824    86.10332   148.73227
   409  C   4.0    0.08    3.11    3.03    15.82123    83.39497   149.34895
   410  O   6.0   -0.32    1.22    1.80    14.20754    82.01737   150.30961
   411  H   1.0    0.09    1.02    1.43    16.54383    88.53568   145.91767
   412  H   1.0    0.04    1.03    1.43    14.66438    86.96879   150.57226
   413  H   1.0    0.05    1.03    1.43    13.37644    86.08793   147.60244
   414  N   5.0   -0.19    3.23    1.96    19.13552    78.09650   153.91908
   415  C   4.0    0.03    4.31    4.22    20.34373    77.61393   156.36305
   416  C   4.0    0.08    3.28    3.05    22.45709    75.66314   155.97411
   417  O   6.0   -0.28    1.13    1.80    22.03320    73.58439   155.04092
   418  C   4.0   -0.02    4.27    4.14    18.47414    76.67420   158.36258
   419  C   4.0   -0.07    4.14    3.89    16.54039    74.85755   157.28650
   420  C   4.0   -0.07    4.19    3.99    19.98043    75.39092   160.42897
   421  H   1.0    0.11    1.03    1.43    18.37625    76.58111   153.02752
   422  H   1.0    0.04    1.05    1.44    21.17643    79.40655   156.97682
   423  H   1.0    0.04    1.05    1.44    17.51357    78.33075   159.15090
   424  H   1.0    0.04    1.00    1.43    15.32006    74.17542   158.79111
   425  H   1.0    0.05    1.00    1.43    15.38348    75.73788   155.83674
   426  H   1.0    0.06    1.00    1.43    17.50550    73.24713   156.45314
   427  H   1.0    0.04    1.00    1.43    18.74053    74.85881   161.98155
   428  H   1.0    0.05    1.01    1.43    20.90104    73.68514   159.74772
   429  H   1.0    0.04    1.00    1.43    21.41898    76.65141   161.19264
   430  H   1.0    0.09    1.07    1.44     5.16382    77.75130   138.58393
   431  H   1.0    0.06    1.05    1.44     0.42390    81.35508   136.32776
   432  H   1.0    0.09    1.08    1.44     2.88609    72.28597   151.26102
   433  H   1.0    0.06    1.04    1.44    15.64035    70.70260   149.95358
   434  H   1.0    0.09    1.08    1.44     8.87010    63.62558   149.22486
   435  H   1.0    0.07    1.05    1.44    13.27733    54.68666   171.07719
   436  H   1.0    0.10    1.08    1.44    11.12201    51.99278   163.45774
   437  H   1.0    0.07    1.05    1.44    17.37860    52.24054   163.90221
   438  H   1.0    0.09    1.07    1.44    27.72172    68.71235   168.77376
   439  H   1.0    0.05    1.05    1.44    29.96598    74.87511   165.79641
   440  H   1.0    0.09    1.08    1.44    25.12225    68.49524   178.92809
   441  H   1.0    0.05    1.05    1.44    18.10023    66.50645   181.14995
   442  H   1.0    0.09    1.07    1.44     8.10072    62.95424   179.45912
   443  H   1.0    0.06    1.05    1.44    20.52064    86.24176   157.68071
   444  H   1.0    0.09    1.07    1.44    17.62291    88.75402   148.56013
   445  H   1.0    0.06    1.04    1.43    17.56639    82.77425   148.97455
   446  H   1.0    0.09    1.07    1.44    17.85916    79.20150   154.12510
   447  H   1.0    0.05    1.04    1.44    24.22892    76.07483   156.48615

  Z AO/shell   Hii/eV     exponent
  1     Wed Apr 25 08:07:45 CEST 2018   EN: 2.200 GM2: 0.406  GM3: 0.0800  RAES: 1.40
     1s    -10.707211    1.230000
  6     Wed Apr 25 08:07:45 CEST 2018   EN: 2.550 GM2: 0.538  GM3: 0.1500  RAES: 3.00
     2s    -13.970922    2.096432
     2p    -10.063292    1.800000
  7     Wed Apr 25 08:07:45 CEST 2018   EN: 3.040 GM2: 0.461  GM3:-0.0640  RAES: 1.90
     2s    -16.686243    2.339881
     2p    -12.523956    2.014332
  8     Wed Apr 25 08:07:45 CEST 2018   EN: 3.440 GM2: 0.452  GM3:-0.0517  RAES: 1.80
     2s    -20.229985    2.439742
     2p    -15.503117    2.137023
 16     Tue Apr 24 11:44:34 CEST 2018   EN: 2.580 GM2: 0.340  GM3:-0.0502  RAES: 3.10
     3s    -20.029654    1.981333
     3p    -11.377694    2.025643
     3d     -0.420282    1.702555
 no old-style atom pair restraining (fixing) potential

molecular fragmentation (1/2 indicates fragments):
111111111111111111111111222222222222222222222222222222222222222222222222
222222222222222222222222222222222222222222222222222222222222222222222222
222222222222222222222222222222222222222222222222222222222222222222222222
222222222222222222222222222222222222222222222222222222222222222222222222
222222222222222222222222222222222222222222222222222222222222222222222222
222222222222222222222222222222222222222222222222222222222222222222222112
222222222222222
# atoms in fragment 1/2:    26   421
 fragment masses (1/2) :      159.21     2868.50
CMA distance (Bohr)    :  23.276
constraining FC (au)   :  0.0500
           ------------------------------------------------- 
          |        Self-Consistent Charge Iterations        |
           ------------------------------------------------- 

 Ncao       : 1092
 Nao        : 1090
 Nshell     : 660
 Nel        : 1192
 T(el)      :   500.0
 intcut     :    35.0
 scfconv/Eh :  0.100E-06
   qconv/e  :  0.100E-04
 intneglect :  0.100E-08
 broydamp   :      0.400
 iter      E             dE          RMSdq      gap      omega  full diag
   1   -679.1002675 -0.679100E+03  0.456E+00    2.92       0.0  T
   2   -680.6443270 -0.154406E+01  0.216E+00    1.61       1.0  T
   3   -680.7402935 -0.959665E-01  0.122E+00    1.86       1.0  T
   4   -680.8560760 -0.115782E+00  0.256E-01    1.33       1.0  T
   5   -680.8615955 -0.551958E-02  0.131E-01    1.47       1.0  T
   6   -680.8629090 -0.131341E-02  0.598E-02    1.46       1.0  T
   7   -680.8632954 -0.386485E-03  0.283E-02    1.43       1.0  T
   8   -680.8633633 -0.678932E-04  0.147E-02    1.42       1.0  T
   9   -680.8633856 -0.222979E-04  0.682E-03    1.41       1.0  T
  10   -680.8633899 -0.427906E-05  0.306E-03    1.40       1.5  T
  11   -680.8633908 -0.862789E-06  0.153E-03    1.40       3.1  T
  12   -680.8633909 -0.166324E-06  0.768E-04    1.40       6.2  T
  13   -680.8633910 -0.560474E-07  0.376E-04    1.40      12.6  T
  14   -680.8633910 -0.806301E-08  0.170E-04    1.40      27.8  T
  15   -680.8633910 -0.237674E-08  0.749E-05    1.40      63.2  T
  16   -680.8633910 -0.400064E-09  0.363E-05    1.40     130.4  T
speedup  1.99
cpu  time for SCC   19.20 s
wall time for SCC    9.64 s

   *** convergence criteria satisfied after 16 iterations ***

          eigenvalues
 #    :         584        585        586        587        588        589        590        591
 occ. :        2.000      2.000      2.000      2.000      2.000      2.000      2.000      2.000
 eps  :       -10.169    -10.109    -10.102    -10.073     -9.928     -9.911     -9.862     -9.849
 #    :         592        593        594        595        596        597        598        599
 occ. :        2.000      2.000      2.000      2.000      2.000      0.000      0.000      0.000
 eps  :        -9.838     -9.811     -9.771     -9.492     -9.450     -8.050     -7.842     -7.744
 #    :         600        601        602        603        604        605        606        607
 occ. :        0.000      0.000      0.000      0.000      0.000      0.000      0.000      0.000
 eps  :        -7.726     -7.704     -7.682     -7.622     -7.549     -7.449     -6.994     -6.773


   #   Z            q   n(s)   n(p)   n(d)      C6AA      α(0)
   1   7 N     -0.402  1.322  4.079  0.000    30.417     8.191
   2   6 C      0.033  1.056  2.911  0.000    20.037     6.376
   3   6 C      0.200  1.093  2.708  0.000    23.751     7.981
   4   8 O     -0.389  1.757  4.631  0.000    21.453     6.210
   5   6 C     -0.074  1.058  3.016  0.000    21.914     6.665
   6   6 C     -0.086  1.056  3.031  0.000    22.146     6.700
   7   6 C     -0.027  1.054  2.972  0.000    21.135     6.561
   8   7 N     -0.134  1.207  3.927  0.000    23.900     7.261
   9   6 C      0.225  1.020  2.755  0.000    23.263     7.897
  10   7 N     -0.238  1.221  4.017  0.000    26.234     7.607
  11   7 N     -0.245  1.223  4.021  0.000    26.380     7.628
  12   1 H      0.168  0.832  0.000  0.000     1.282     1.774
  13   1 H      0.072  0.928  0.000  0.000     2.066     2.248
  14   1 H      0.067  0.933  0.000  0.000     2.124     2.279
  15   1 H      0.054  0.946  0.000  0.000     2.273     2.358
  16   1 H      0.069  0.931  0.000  0.000     2.094     2.263
  17   1 H      0.088  0.912  0.000  0.000     1.896     2.153
  18   1 H      0.086  0.914  0.000  0.000     1.922     2.168
  19   1 H      0.075  0.925  0.000  0.000     2.026     2.226
  20   1 H      0.230  0.770  0.000  0.000     0.964     1.538
  21   1 H      0.245  0.755  0.000  0.000     0.903     1.488
  22   1 H      0.239  0.761  0.000  0.000     0.926     1.508
  23   1 H      0.234  0.766  0.000  0.000     0.949     1.526
  24   1 H      0.242  0.758  0.000  0.000     0.916     1.499
  25   7 N     -0.405  1.319  4.086  0.000    30.501     8.202
  26   6 C      0.028  1.058  2.914  0.000    20.111     6.386
  27   6 C      0.266  1.044  2.689  0.000    22.508     7.770
  28   8 O     -0.510  1.750  4.760  0.000    24.005     6.569
  29   6 C     -0.022  1.065  2.957  0.000    20.924     6.505
  30   6 C     -0.076  1.055  3.021  0.000    21.946     6.669
  31   6 C     -0.110  1.038  3.073  0.000    22.662     6.788
  32   6 C     -0.103  1.035  3.068  0.000    22.522     6.767
  33   1 H      0.169  0.831  0.000  0.000     1.276     1.770
  34   1 H      0.053  0.947  0.000  0.000     2.286     2.364
  35   1 H      0.024  0.976  0.000  0.000     2.670     2.555
  36   1 H      0.067  0.933  0.000  0.000     2.117     2.276
  37   1 H      0.052  0.948  0.000  0.000     2.294     2.369
  38   1 H      0.034  0.966  0.000  0.000     2.535     2.490
  39   1 H      0.018  0.982  0.000  0.000     2.770     2.603
  40   1 H      0.057  0.943  0.000  0.000     2.240     2.340
  41   1 H      0.037  0.963  0.000  0.000     2.491     2.468
  42   1 H      0.014  0.986  0.000  0.000     2.829     2.630
  43   1 H      0.029  0.971  0.000  0.000     2.607     2.525
  44   7 N     -0.076  1.230  3.846  0.000    22.720     7.079
  45   6 C      0.025  1.062  2.913  0.000    20.140     6.386
  46   6 C      0.200  1.088  2.712  0.000    23.732     7.978
  47   8 O     -0.344  1.746  4.598  0.000    20.592     6.084
  48   6 C     -0.067  1.052  3.015  0.000    21.756     6.637
  49   6 C     -0.075  1.053  3.022  0.000    21.920     6.662
  50   6 C     -0.020  1.058  2.963  0.000    20.987     6.531
  51   1 H      0.066  0.934  0.000  0.000     2.128     2.281
  52   1 H      0.059  0.941  0.000  0.000     2.211     2.325
  53   1 H      0.070  0.930  0.000  0.000     2.084     2.257
  54   1 H      0.078  0.922  0.000  0.000     1.997     2.210
  55   1 H      0.080  0.920  0.000  0.000     1.975     2.198
  56   1 H      0.079  0.921  0.000  0.000     1.988     2.205
  57   1 H      0.080  0.920  0.000  0.000     1.974     2.197
  58   7 N     -0.415  1.318  4.097  0.000    30.783     8.240
  59   6 C      0.037  1.061  2.901  0.000    19.968     6.366
  60   6 C      0.263  1.062  2.675  0.000    22.564     7.779
  61   8 O     -0.475  1.738  4.737  0.000    23.240     6.463
  62   6 C     -0.006  1.062  2.944  0.000    20.654     6.464
  63   6 C     -0.108  1.042  3.066  0.000    22.614     6.779
  64   6 C     -0.102  1.036  3.066  0.000    22.487     6.760
  65   1 H      0.208  0.792  0.000  0.000     1.068     1.619
  66   1 H      0.026  0.974  0.000  0.000     2.645     2.544
  67   1 H     -0.003  1.003  0.000  0.000     3.102     2.754
  68   1 H      0.031  0.969  0.000  0.000     2.568     2.506
  69   1 H      0.030  0.970  0.000  0.000     2.581     2.512
  70   1 H      0.042  0.958  0.000  0.000     2.423     2.434
  71   1 H      0.028  0.972  0.000  0.000     2.609     2.526
  72   1 H      0.044  0.956  0.000  0.000     2.393     2.419
  73   1 H      0.059  0.941  0.000  0.000     2.215     2.327
  74   7 N     -0.103  1.259  3.844  0.000    23.268     7.164
  75   6 C      0.024  1.069  2.907  0.000    20.153     6.389
  76   6 C      0.286  1.045  2.669  0.000    22.153     7.707
  77   8 O     -0.502  1.746  4.756  0.000    23.821     6.544
  78   6 C     -0.054  1.051  3.003  0.000    21.516     6.600
  79   6 C     -0.066  1.048  3.018  0.000    21.740     6.636
  80   6 C      0.003  1.048  2.949  0.000    20.549     6.458
  81   1 H      0.060  0.940  0.000  0.000     2.204     2.322
  82   1 H      0.033  0.967  0.000  0.000     2.540     2.492
  83   1 H      0.062  0.938  0.000  0.000     2.180     2.309
  84   1 H      0.054  0.946  0.000  0.000     2.266     2.354
  85   1 H      0.070  0.930  0.000  0.000     2.089     2.260
  86   1 H      0.043  0.957  0.000  0.000     2.404     2.425
  87   1 H      0.069  0.931  0.000  0.000     2.091     2.262
  88   7 N     -0.188  1.251  3.936  0.000    25.072     7.437
  89   6 C      0.019  1.065  2.916  0.000    20.258     6.410
  90   6 C      0.284  1.041  2.675  0.000    22.192     7.715
  91   8 O     -0.501  1.728  4.772  0.000    23.796     6.540
  92   6 C     -0.066  1.053  3.013  0.000    21.763     6.642
  93   6 C     -0.111  1.065  3.046  0.000    22.616     6.771
  94   6 C      0.288  1.038  2.674  0.000    22.126     7.702
  95   8 O     -0.501  1.761  4.739  0.000    23.804     6.541
  96   7 N     -0.285  1.262  4.022  0.000    27.346     7.766
  97   1 H      0.212  0.788  0.000  0.000     1.048     1.604
  98   1 H      0.091  0.909  0.000  0.000     1.868     2.137
  99   1 H      0.071  0.929  0.000  0.000     2.079     2.255
 100   1 H      0.046  0.954  0.000  0.000     2.374     2.410
 101   1 H      0.092  0.908  0.000  0.000     1.855     2.130
 102   1 H      0.081  0.919  0.000  0.000     1.968     2.194
 103   1 H      0.236  0.764  0.000  0.000     0.940     1.519
 104   1 H      0.241  0.759  0.000  0.000     0.920     1.502
 105   7 N     -0.217  1.269  3.948  0.000    25.731     7.534
 106   6 C      0.031  1.058  2.912  0.000    20.053     6.375
 107   6 C      0.272  1.042  2.686  0.000    22.411     7.752
 108   8 O     -0.499  1.750  4.749  0.000    23.772     6.537
 109   6 C     -0.061  1.052  3.008  0.000    21.668     6.627
 110   6 C     -0.098  1.066  3.032  0.000    22.378     6.736
 111   6 C      0.370  1.025  2.605  0.000    20.731     7.451
 112   8 O     -0.622  1.765  4.857  0.000    26.671     6.924
 113   8 O     -0.621  1.778  4.843  0.000    26.636     6.919
 114   1 H      0.236  0.764  0.000  0.000     0.941     1.519
 115   1 H      0.065  0.935  0.000  0.000     2.146     2.291
 116   1 H      0.051  0.949  0.000  0.000     2.310     2.377
 117   1 H      0.049  0.951  0.000  0.000     2.339     2.391
 118   1 H      0.035  0.965  0.000  0.000     2.511     2.478
 119   1 H      0.035  0.965  0.000  0.000     2.515     2.480
 120   7 N     -0.183  1.241  3.942  0.000    24.956     7.419
 121   6 C      0.032  1.060  2.907  0.000    20.039     6.375
 122   6 C      0.269  1.051  2.680  0.000    22.457     7.760
 123   8 O     -0.493  1.738  4.755  0.000    23.635     6.518
 124   6 C     -0.063  1.055  3.009  0.000    21.702     6.630
 125   6 C     -0.012  1.054  2.958  0.000    20.760     6.481
 126   6 C     -0.116  1.041  3.075  0.000    22.767     6.803
 127   6 C     -0.105  1.040  3.065  0.000    22.563     6.772
 128   1 H      0.202  0.798  0.000  0.000     1.098     1.641
 129   1 H      0.059  0.941  0.000  0.000     2.214     2.327
 130   1 H      0.052  0.948  0.000  0.000     2.292     2.368
 131   1 H      0.049  0.951  0.000  0.000     2.328     2.386
 132   1 H      0.035  0.965  0.000  0.000     2.512     2.479
 133   1 H      0.056  0.944  0.000  0.000     2.242     2.342
 134   1 H      0.029  0.971  0.000  0.000     2.594     2.519
 135   1 H      0.044  0.956  0.000  0.000     2.401     2.423
 136   1 H      0.047  0.953  0.000  0.000     2.352     2.398
 137   1 H      0.044  0.956  0.000  0.000     2.390     2.418
 138   1 H      0.037  0.963  0.000  0.000     2.490     2.468
 139   7 N     -0.163  1.254  3.909  0.000    24.529     7.356
 140   6 C      0.008  1.065  2.927  0.000    20.451     6.440
 141   6 C      0.286  1.042  2.672  0.000    22.148     7.707
 142   8 O     -0.483  1.735  4.747  0.000    23.402     6.486
 143   6 C      0.113  1.048  2.838  0.000    18.819     6.194
 144   8 O     -0.495  1.737  4.758  0.000    22.782     6.443
 145   6 C     -0.136  1.042  3.094  0.000    23.182     6.866
 146   1 H      0.207  0.793  0.000  0.000     1.071     1.621
 147   1 H      0.096  0.904  0.000  0.000     1.824     2.112
 148   1 H      0.041  0.959  0.000  0.000     2.441     2.444
 149   1 H      0.351  0.649  0.000  0.000     0.587     1.203
 150   1 H      0.073  0.927  0.000  0.000     2.049     2.238
 151   1 H      0.052  0.948  0.000  0.000     2.297     2.370
 152   1 H      0.061  0.939  0.000  0.000     2.190     2.314
 153   7 N     -0.178  1.248  3.930  0.000    24.856     7.405
 154   6 C      0.038  1.051  2.911  0.000    19.939     6.358
 155   6 C      0.207  1.083  2.710  0.000    23.615     7.959
 156   8 O     -0.354  1.748  4.606  0.000    20.790     6.113
 157   6 C     -0.067  1.046  3.021  0.000    21.733     6.629
 158   6 C     -0.004  1.053  2.951  0.000    20.652     6.470
 159  16 S     -0.212  1.906  4.255  0.051   150.072    20.618
 160   6 C     -0.064  1.053  3.011  0.000    21.803     6.661
 161   1 H      0.221  0.779  0.000  0.000     1.006     1.571
 162   1 H      0.089  0.911  0.000  0.000     1.891     2.151
 163   1 H      0.059  0.941  0.000  0.000     2.205     2.322
 164   1 H      0.083  0.917  0.000  0.000     1.953     2.185
 165   1 H      0.053  0.947  0.000  0.000     2.281     2.362
 166   1 H      0.046  0.954  0.000  0.000     2.365     2.405
 167   1 H      0.082  0.918  0.000  0.000     1.960     2.189
 168   1 H      0.058  0.942  0.000  0.000     2.224     2.332
 169   1 H      0.060  0.940  0.000  0.000     2.204     2.321
 170   7 N     -0.405  1.311  4.095  0.000    30.524     8.205
 171   6 C      0.053  1.048  2.899  0.000    19.704     6.322
 172   6 C      0.202  1.093  2.705  0.000    23.698     7.973
 173   8 O     -0.388  1.761  4.628  0.000    21.449     6.209
 174   6 C     -0.067  1.055  3.012  0.000    21.771     6.641
 175   6 C      0.005  1.090  2.905  0.000    27.915     8.666
 176   6 C     -0.039  1.081  2.958  0.000    28.969     8.826
 177   6 C     -0.043  1.084  2.959  0.000    29.065     8.841
 178   6 C     -0.031  1.080  2.951  0.000    28.781     8.798
 179   6 C     -0.032  1.082  2.950  0.000    28.810     8.802
 180   6 C     -0.035  1.079  2.957  0.000    28.878     8.812
 181   1 H      0.182  0.818  0.000  0.000     1.201     1.717
 182   1 H      0.039  0.961  0.000  0.000     2.457     2.452
 183   1 H      0.056  0.944  0.000  0.000     2.243     2.342
 184   1 H      0.051  0.949  0.000  0.000     2.307     2.376
 185   1 H      0.031  0.969  0.000  0.000     2.567     2.506
 186   1 H      0.034  0.966  0.000  0.000     2.526     2.485
 187   1 H      0.038  0.962  0.000  0.000     2.479     2.462
 188   1 H      0.042  0.958  0.000  0.000     2.419     2.432
 189   1 H      0.045  0.955  0.000  0.000     2.384     2.414
 190   7 N     -0.381  1.314  4.067  0.000    29.857     8.115
 191   6 C      0.037  1.058  2.906  0.000    19.970     6.364
 192   6 C      0.202  1.088  2.709  0.000    23.694     7.972
 193   8 O     -0.376  1.761  4.614  0.000    21.204     6.174
 194   6 C     -0.013  1.060  2.953  0.000    20.774     6.483
 195   6 C     -0.119  1.040  3.080  0.000    22.832     6.812
 196   6 C     -0.116  1.041  3.074  0.000    22.769     6.803
 197   1 H      0.153  0.847  0.000  0.000     1.384     1.843
 198   1 H      0.055  0.945  0.000  0.000     2.263     2.353
 199   1 H      0.036  0.964  0.000  0.000     2.507     2.476
 200   1 H      0.049  0.951  0.000  0.000     2.331     2.387
 201   1 H      0.031  0.969  0.000  0.000     2.570     2.507
 202   1 H      0.048  0.952  0.000  0.000     2.339     2.392
 203   1 H      0.044  0.956  0.000  0.000     2.394     2.419
 204   1 H      0.049  0.951  0.000  0.000     2.327     2.386
 205   1 H      0.047  0.953  0.000  0.000     2.355     2.400
 206   7 N     -0.380  1.315  4.065  0.000    29.810     8.109
 207   6 C      0.034  1.057  2.909  0.000    20.017     6.373
 208   6 C      0.203  1.079  2.718  0.000    23.684     7.971
 209   8 O     -0.377  1.757  4.620  0.000    21.219     6.176
 210   6 C     -0.018  1.063  2.955  0.000    20.858     6.496
 211   6 C     -0.107  1.037  3.070  0.000    22.604     6.779
 212   6 C     -0.103  1.034  3.069  0.000    22.521     6.766
 213   1 H      0.163  0.837  0.000  0.000     1.317     1.798
 214   1 H      0.066  0.934  0.000  0.000     2.132     2.284
 215   1 H      0.028  0.972  0.000  0.000     2.616     2.529
 216   1 H      0.052  0.948  0.000  0.000     2.298     2.370
 217   1 H      0.036  0.964  0.000  0.000     2.504     2.475
 218   1 H      0.045  0.955  0.000  0.000     2.380     2.412
 219   1 H      0.051  0.949  0.000  0.000     2.304     2.374
 220   1 H      0.047  0.953  0.000  0.000     2.353     2.399
 221   1 H      0.023  0.977  0.000  0.000     2.687     2.563
 222   7 N     -0.387  1.315  4.072  0.000    30.007     8.136
 223   6 C      0.041  1.051  2.908  0.000    19.907     6.355
 224   6 C      0.270  1.050  2.680  0.000    22.442     7.758
 225   8 O     -0.498  1.734  4.764  0.000    23.730     6.531
 226   6 C     -0.111  1.043  3.068  0.000    22.666     6.787
 227   1 H      0.164  0.836  0.000  0.000     1.313     1.795
 228   1 H      0.029  0.971  0.000  0.000     2.598     2.521
 229   1 H      0.039  0.961  0.000  0.000     2.458     2.452
 230   1 H      0.047  0.953  0.000  0.000     2.354     2.400
 231   1 H      0.053  0.947  0.000  0.000     2.281     2.362
 232   7 N     -0.195  1.251  3.944  0.000    25.231     7.460
 233   6 C      0.019  1.060  2.922  0.000    20.264     6.409
 234   6 C      0.276  1.042  2.682  0.000    22.337     7.740
 235   8 O     -0.482  1.731  4.751  0.000    23.385     6.484
 236   6 C      0.112  1.050  2.837  0.000    18.826     6.194
 237   8 O     -0.472  1.709  4.763  0.000    22.306     6.376
 238   6 C     -0.130  1.042  3.088  0.000    23.068     6.849
 239   1 H      0.226  0.774  0.000  0.000     0.981     1.552
 240   1 H      0.061  0.939  0.000  0.000     2.188     2.313
 241   1 H      0.044  0.956  0.000  0.000     2.396     2.421
 242   1 H      0.325  0.675  0.000  0.000     0.650     1.266
 243   1 H      0.067  0.933  0.000  0.000     2.121     2.277
 244   1 H      0.040  0.960  0.000  0.000     2.450     2.448
 245   1 H      0.058  0.942  0.000  0.000     2.217     2.329
 246   7 N     -0.181  1.250  3.931  0.000    24.909     7.413
 247   6 C      0.028  1.054  2.918  0.000    20.093     6.381
 248   6 C      0.273  1.038  2.688  0.000    22.378     7.747
 249   8 O     -0.482  1.723  4.759  0.000    23.390     6.484
 250   6 C     -0.059  1.046  3.013  0.000    21.599     6.609
 251   6 C     -0.006  1.063  2.943  0.000    20.688     6.476
 252  16 S     -0.209  1.909  4.251  0.049   149.966    20.611
 253   6 C     -0.046  1.049  2.997  0.000    21.464     6.608
 254   1 H      0.217  0.783  0.000  0.000     1.025     1.586
 255   1 H      0.081  0.919  0.000  0.000     1.974     2.197
 256   1 H      0.061  0.939  0.000  0.000     2.188     2.313
 257   1 H      0.072  0.928  0.000  0.000     2.059     2.244
 258   1 H      0.044  0.956  0.000  0.000     2.400     2.423
 259   1 H      0.044  0.956  0.000  0.000     2.398     2.422
 260   1 H      0.075  0.925  0.000  0.000     2.028     2.227
 261   1 H      0.034  0.966  0.000  0.000     2.535     2.490
 262   1 H      0.050  0.950  0.000  0.000     2.322     2.383
 263   7 N     -0.194  1.254  3.940  0.000    25.217     7.458
 264   6 C      0.017  1.064  2.919  0.000    20.292     6.414
 265   6 C      0.274  1.042  2.684  0.000    22.370     7.745
 266   8 O     -0.461  1.720  4.741  0.000    22.929     6.420
 267   6 C     -0.145  1.045  3.100  0.000    23.350     6.890
 268   1 H      0.235  0.765  0.000  0.000     0.945     1.523
 269   1 H      0.094  0.906  0.000  0.000     1.840     2.121
 270   1 H      0.093  0.907  0.000  0.000     1.849     2.127
 271   1 H      0.073  0.927  0.000  0.000     2.054     2.241
 272   1 H      0.057  0.943  0.000  0.000     2.231     2.336
 273   7 N     -0.182  1.247  3.935  0.000    24.934     7.416
 274   6 C      0.027  1.062  2.911  0.000    20.130     6.389
 275   6 C      0.277  1.043  2.680  0.000    22.314     7.736
 276   8 O     -0.502  1.739  4.764  0.000    23.835     6.546
 277   6 C     -0.059  1.050  3.009  0.000    21.628     6.621
 278   6 C     -0.114  1.073  3.041  0.000    22.684     6.782
 279   6 C      0.368  1.027  2.605  0.000    20.764     7.457
 280   8 O     -0.637  1.767  4.870  0.000    27.047     6.973
 281   8 O     -0.612  1.771  4.841  0.000    26.418     6.891
 282   1 H      0.212  0.788  0.000  0.000     1.048     1.604
 283   1 H      0.068  0.932  0.000  0.000     2.108     2.271
 284   1 H      0.057  0.943  0.000  0.000     2.229     2.335
 285   1 H      0.020  0.980  0.000  0.000     2.733     2.585
 286   1 H      0.042  0.958  0.000  0.000     2.422     2.434
 287   1 H      0.051  0.949  0.000  0.000     2.304     2.374
 288   7 N     -0.194  1.255  3.938  0.000    25.199     7.456
 289   6 C      0.041  1.057  2.902  0.000    19.881     6.347
 290   6 C      0.278  1.043  2.679  0.000    22.296     7.732
 291   8 O     -0.498  1.733  4.764  0.000    23.734     6.532
 292   6 C     -0.018  1.062  2.956  0.000    20.854     6.495
 293   6 C     -0.066  1.050  3.016  0.000    21.756     6.640
 294   6 C     -0.113  1.039  3.074  0.000    22.713     6.794
 295   6 C     -0.101  1.033  3.068  0.000    22.499     6.764
 296   1 H      0.229  0.771  0.000  0.000     0.968     1.541
 297   1 H      0.045  0.955  0.000  0.000     2.378     2.412
 298   1 H      0.044  0.956  0.000  0.000     2.398     2.422
 299   1 H      0.037  0.963  0.000  0.000     2.495     2.470
 300   1 H      0.052  0.948  0.000  0.000     2.294     2.369
 301   1 H      0.061  0.939  0.000  0.000     2.183     2.311
 302   1 H      0.047  0.953  0.000  0.000     2.353     2.399
 303   1 H      0.041  0.959  0.000  0.000     2.432     2.439
 304   1 H      0.034  0.966  0.000  0.000     2.529     2.487
 305   1 H      0.041  0.959  0.000  0.000     2.438     2.442
 306   1 H      0.020  0.980  0.000  0.000     2.738     2.588
 307   7 N     -0.191  1.253  3.938  0.000    25.140     7.447
 308   6 C      0.022  1.064  2.913  0.000    20.206     6.401
 309   6 C      0.263  1.048  2.689  0.000    22.565     7.779
 310   8 O     -0.473  1.716  4.757  0.000    23.199     6.458
 311   6 C     -0.085  1.058  3.027  0.000    22.109     6.693
 312   6 C     -0.008  1.075  2.932  0.000    28.209     8.712
 313   6 C     -0.043  1.083  2.960  0.000    29.057     8.840
 314   6 C     -0.053  1.085  2.968  0.000    29.311     8.878
 315   6 C     -0.082  1.081  3.001  0.000    30.045     8.989
 316   6 C     -0.084  1.075  3.009  0.000    30.097     8.996
 317   6 C      0.143  1.046  2.811  0.000    24.891     8.177
 318   8 O     -0.423  1.707  4.716  0.000    21.295     6.230
 319   1 H      0.232  0.768  0.000  0.000     0.956     1.531
 320   1 H      0.079  0.921  0.000  0.000     1.994     2.208
 321   1 H      0.067  0.933  0.000  0.000     2.123     2.278
 322   1 H      0.070  0.930  0.000  0.000     2.084     2.258
 323   1 H      0.032  0.968  0.000  0.000     2.558     2.501
 324   1 H      0.064  0.936  0.000  0.000     2.149     2.292
 325   1 H      0.058  0.942  0.000  0.000     2.221     2.331
 326   1 H      0.087  0.913  0.000  0.000     1.906     2.159
 327   1 H      0.343  0.657  0.000  0.000     0.605     1.222
 328   7 N     -0.167  1.248  3.919  0.000    24.615     7.369
 329   6 C     -0.004  1.074  2.930  0.000    20.646     6.470
 330   6 C      0.274  1.039  2.687  0.000    22.371     7.745
 331   8 O     -0.473  1.725  4.748  0.000    23.194     6.457
 332   6 C     -0.087  1.057  3.030  0.000    22.160     6.701
 333   6 C     -0.090  1.051  3.039  0.000    22.218     6.711
 334   6 C     -0.026  1.057  2.969  0.000    21.118     6.558
 335   7 N     -0.158  1.227  3.932  0.000    24.426     7.340
 336   6 C      0.237  1.023  2.740  0.000    23.043     7.859
 337   7 N     -0.268  1.238  4.030  0.000    26.929     7.707
 338   7 N     -0.258  1.263  3.994  0.000    26.699     7.674
 339   1 H      0.232  0.768  0.000  0.000     0.955     1.531
 340   1 H      0.108  0.892  0.000  0.000     1.714     2.047
 341   1 H      0.088  0.912  0.000  0.000     1.896     2.153
 342   1 H      0.055  0.945  0.000  0.000     2.259     2.351
 343   1 H      0.071  0.929  0.000  0.000     2.077     2.254
 344   1 H      0.079  0.921  0.000  0.000     1.990     2.206
 345   1 H      0.080  0.920  0.000  0.000     1.982     2.202
 346   1 H      0.103  0.897  0.000  0.000     1.754     2.071
 347   1 H      0.231  0.769  0.000  0.000     0.960     1.535
 348   1 H      0.245  0.755  0.000  0.000     0.901     1.487
 349   1 H      0.218  0.782  0.000  0.000     1.018     1.580
 350   1 H      0.268  0.732  0.000  0.000     0.816     1.415
 351   1 H      0.209  0.791  0.000  0.000     1.063     1.615
 352   7 N     -0.171  1.247  3.924  0.000    24.701     7.381
 353   6 C      0.039  1.053  2.908  0.000    19.932     6.357
 354   6 C      0.278  1.050  2.672  0.000    22.298     7.733
 355   8 O     -0.493  1.752  4.741  0.000    23.627     6.517
 356   6 C     -0.085  1.064  3.020  0.000    22.111     6.694
 357   6 C      0.371  1.026  2.603  0.000    20.711     7.447
 358   8 O     -0.573  1.740  4.833  0.000    25.471     6.766
 359   8 O     -0.630  1.777  4.853  0.000    26.875     6.951
 360   1 H      0.219  0.781  0.000  0.000     1.016     1.579
 361   1 H      0.067  0.933  0.000  0.000     2.117     2.275
 362   1 H      0.032  0.968  0.000  0.000     2.556     2.500
 363   1 H      0.020  0.980  0.000  0.000     2.737     2.587
 364   7 N     -0.194  1.271  3.923  0.000    25.210     7.457
 365   6 C      0.023  1.065  2.911  0.000    20.194     6.400
 366   6 C      0.265  1.050  2.686  0.000    22.536     7.774
 367   8 O     -0.494  1.751  4.743  0.000    23.652     6.520
 368   6 C     -0.068  1.055  3.013  0.000    21.797     6.646
 369   6 C      0.005  1.080  2.915  0.000    27.913     8.666
 370   6 C     -0.055  1.089  2.966  0.000    29.361     8.886
 371   6 C     -0.038  1.085  2.953  0.000    28.939     8.822
 372   6 C     -0.054  1.070  2.983  0.000    29.331     8.881
 373   6 C     -0.075  1.078  2.997  0.000    29.870     8.962
 374   6 C      0.138  1.049  2.813  0.000    24.991     8.193
 375   8 O     -0.453  1.731  4.722  0.000    21.903     6.318
 376   1 H      0.222  0.778  0.000  0.000     1.000     1.567
 377   1 H      0.078  0.922  0.000  0.000     1.995     2.209
 378   1 H      0.056  0.944  0.000  0.000     2.241     2.341
 379   1 H      0.066  0.934  0.000  0.000     2.135     2.285
 380   1 H      0.070  0.930  0.000  0.000     2.090     2.261
 381   1 H      0.043  0.957  0.000  0.000     2.406     2.426
 382   1 H      0.017  0.983  0.000  0.000     2.781     2.608
 383   1 H      0.037  0.963  0.000  0.000     2.490     2.467
 384   1 H      0.343  0.657  0.000  0.000     0.605     1.221
 385   7 N     -0.165  1.244  3.920  0.000    24.566     7.361
 386   6 C      0.028  1.064  2.909  0.000    20.122     6.389
 387   6 C      0.210  1.086  2.704  0.000    23.558     7.948
 388   8 O     -0.366  1.758  4.608  0.000    21.014     6.146
 389   6 C     -0.094  1.060  3.034  0.000    22.289     6.722
 390   6 C     -0.078  1.049  3.028  0.000    21.982     6.675
 391   6 C     -0.097  1.057  3.040  0.000    22.348     6.731
 392   6 C     -0.046  1.057  2.989  0.000    21.492     6.618
 393   7 N     -0.171  1.244  3.927  0.000    24.694     7.381
 394   1 H      0.223  0.777  0.000  0.000     0.996     1.564
 395   1 H      0.072  0.928  0.000  0.000     2.061     2.245
 396   1 H      0.076  0.924  0.000  0.000     2.023     2.224
 397   1 H      0.104  0.896  0.000  0.000     1.752     2.070
 398   1 H      0.053  0.947  0.000  0.000     2.285     2.364
 399   1 H      0.062  0.938  0.000  0.000     2.174     2.306
 400   1 H      0.089  0.911  0.000  0.000     1.890     2.150
 401   1 H      0.091  0.909  0.000  0.000     1.865     2.135
 402   1 H      0.100  0.900  0.000  0.000     1.781     2.087
 403   1 H      0.107  0.893  0.000  0.000     1.720     2.051
 404   1 H      0.284  0.716  0.000  0.000     0.763     1.368
 405   1 H      0.286  0.714  0.000  0.000     0.757     1.363
 406   1 H      0.283  0.717  0.000  0.000     0.767     1.372
 407   7 N     -0.394  1.308  4.086  0.000    30.216     8.164
 408   6 C     -0.014  1.045  2.969  0.000    20.920     6.528
 409   6 C      0.194  1.096  2.710  0.000    23.862     8.000
 410   8 O     -0.369  1.742  4.628  0.000    21.080     6.156
 411   1 H      0.169  0.831  0.000  0.000     1.279     1.772
 412   1 H      0.088  0.912  0.000  0.000     1.895     2.153
 413   1 H      0.100  0.900  0.000  0.000     1.783     2.088
 414   7 N     -0.380  1.318  4.062  0.000    29.809     8.109
 415   6 C      0.032  1.061  2.907  0.000    20.045     6.376
 416   6 C      0.209  1.088  2.702  0.000    23.560     7.949
 417   8 O     -0.375  1.758  4.617  0.000    21.198     6.173
 418   6 C     -0.010  1.057  2.952  0.000    20.712     6.473
 419   6 C     -0.106  1.033  3.073  0.000    22.585     6.775
 420   6 C     -0.110  1.037  3.073  0.000    22.647     6.784
 421   1 H      0.173  0.827  0.000  0.000     1.253     1.753
 422   1 H      0.047  0.953  0.000  0.000     2.356     2.400
 423   1 H      0.035  0.965  0.000  0.000     2.515     2.480
 424   1 H      0.034  0.966  0.000  0.000     2.527     2.486
 425   1 H      0.058  0.942  0.000  0.000     2.217     2.329
 426   1 H      0.043  0.957  0.000  0.000     2.407     2.426
 427   1 H      0.038  0.962  0.000  0.000     2.480     2.463
 428   1 H      0.033  0.967  0.000  0.000     2.546     2.495
 429   1 H      0.033  0.967  0.000  0.000     2.550     2.497
 430   1 H      0.186  0.814  0.000  0.000     1.181     1.702
 431   1 H      0.066  0.934  0.000  0.000     2.126     2.280
 432   1 H      0.185  0.815  0.000  0.000     1.184     1.705
 433   1 H      0.054  0.946  0.000  0.000     2.270     2.356
 434   1 H      0.172  0.828  0.000  0.000     1.259     1.758
 435   1 H      0.080  0.920  0.000  0.000     1.983     2.202
 436   1 H      0.175  0.825  0.000  0.000     1.244     1.747
 437   1 H      0.070  0.930  0.000  0.000     2.087     2.259
 438   1 H      0.184  0.816  0.000  0.000     1.190     1.709
 439   1 H      0.067  0.933  0.000  0.000     2.113     2.273
 440   1 H      0.183  0.817  0.000  0.000     1.197     1.713
 441   1 H      0.052  0.948  0.000  0.000     2.295     2.369
 442   1 H      0.182  0.818  0.000  0.000     1.200     1.716
 443   1 H      0.081  0.919  0.000  0.000     1.971     2.195
 444   1 H      0.183  0.817  0.000  0.000     1.195     1.712
 445   1 H      0.084  0.916  0.000  0.000     1.935     2.175
 446   1 H      0.183  0.817  0.000  0.000     1.194     1.712
 447   1 H      0.060  0.940  0.000  0.000     2.201     2.320

 Mol. C6AA /au·bohr⁶  :    1843208.527590
 Mol. C8AA /au·bohr⁸  :   41497936.730970
 Mol. α(0) /au        :       2039.943312

 
molecular dipole:
                 x           y           z       tot (Debye)
 q only:       -3.076      32.357     -28.433
   full:       -4.993      28.632     -24.689      96.932
molecular quadrupole (traceless):
                xx          xy          yy          xz          yz          zz
 q only:     1934.794    -284.068    9531.158   -1156.246    4480.966  -11465.952
  q+dip:     1562.616    -499.669    8369.114   -1589.833    3990.486   -9931.730
   full:     1561.777    -503.293    8372.146   -1591.219    3990.893   -9933.923
speedup  1.99
cpu  time for grad   22.94 s
wall time for grad   11.51 s

SCC energy    :    -680.8830150
rep           :       8.3753966
ES            :       1.9425583
AES           :      -0.1238979
AXC           :       0.2428545
disp          :      -0.6071387
XB            :       0.0000000
fix           :       0.0000000
Gborn         :       0.0000000
Gsasa         :       0.0000000
Ghb           :       0.0000000
Gshift        :       0.0000000
Gsolv         :      -0.4749244     -298.02
Etot ala COSMO:    -680.8830150
grad norm     :       0.6735996
total E       :    -672.4388402
atomizationE  :     123.9529243    77781.63
(atE without considering molecular charge,
 total energy contains solvation terms)
H-L gap (eV)  :          1.4007

------------------------------------------------------------------------
 * finished run on 2019/05/07 at 23:36:06.943     
------------------------------------------------------------------------
 total:
 * wall-time:     0 d,  0 h,  0 min, 12.088 sec
 *  cpu-time:     0 d,  0 h,  0 min, 23.995 sec
 * ratio c/w:     1.985 speedup
 SCF:
 * wall-time:     0 d,  0 h,  0 min, 11.854 sec
 *  cpu-time:     0 d,  0 h,  0 min, 23.631 sec
 * ratio c/w:     1.993 speedup

