      -----------------------------------------------------------      
     |                   =====================                   |     
     |                           x T B                           |     
     |                   =====================                   |     
     |                         S. Grimme                         |     
     |          Mulliken Center for Theoretical Chemistry        |     
     |                    University of Bonn                     |     
     |                 Version 6.0.1 (SAW181210)                 |     
      -----------------------------------------------------------      

   This program is distributed in the hope that it will be useful,
   but WITHOUT ANY WARRANTY; without even the implied warranty of
   MERCHANTABILITY or FITNESS FOR A PARTICULAR PURPOSE.
   
   FOR NON-COMMERCIAL, ACADEMIA USE ONLY.
   
   Cite this work as:
   S. Grimme, C. Bannwarth, P. Shushkov, J. Comput. Theory Chem., 2017,
   13, 1989-2009.
   C. Bannwarth, S. Ehlert and S. Grimme., ChemRxiv, 2018, preprint.
   http://doi.org/10.26434/chemrxiv.7246238.v1
   
   for sTDA-xTB:
   S. Grimme and C. Bannwarth, J. Chem. Phys., 2016, 145, 054103.
   
   in the mass-spec context:
   V. Asgeirsson, C. Bauer and S. Grimme, Chem. Sci., 2017, 8, 4879.
   
   if GBSA is used:
   P. Shushkov, F. März and S. Grimme, unpublished.
   
   for ANC optimizer:
   S. Grimme, unpublished.
   Rational Function algorithm used in ANCopt:
   F. Eckert, P. Pulay, H.-J. Werner, J. Comput. Chem., 1997, 18, 1473.
   
   with help from (in alphabetical order)
   C. Bannwarth, F. Bohle, G. Brandenburg, E. Caldeweyher, M. Checinski,
   S. Dohm, S. Ehlert, S. Ehrlich, F. März, H. Neugebauer, J. Pisarek,
   P. Pracht, P. Shushkov, and S. Spicher.
   
 * started run on 2019/05/08 at 06:42:03.427     
========================================================================
 # omp threads = 2
========================================================================
number of atoms            : 588
number of electrons        : 1572
charge                     : 6
spin                       : .0
first test random number   : .0107

########################################################################
# WARNING! Please study the warnings concerning your input carefully
#  - Process number higher than OMP_NUM_THREADS, I hope you know what you are doing.
########################################################################

           ------------------------------------------------- 
          |                 G F N 2 - x T B                 |
          | Geometry, Frequencies, Noncovalent interactions |
          |            JCTC 2018 parametrisation            |
           ------------------------------------------------- 
 
      method parameters     
 k(s)        :  1.8500
 k(p)        :  2.2300
 k(d)        :  2.2300
 k(f)        :  2.0000
 kEN (H0ij)  : -2.0000
 D4 a1       :  0.5200
 D4 a2       :  5.0000
 D4 s6       :  1.0000
 D4 s8       :  2.7000
 D4 s9       :  5.0000
 alphaj      :  2.0000

 Solvent             : h2o
 Using internal parameter file: .param_gbsa2_h2o
 Gsolv ref. state (COSMO-RS): gsolv [1 M gas/solution]
 temperature (mdtemp)       :    298.150000000000     
 dielectric constant        :    80.2000000000000     
 rho                        :    1.00000000000000     
 mass                       :    18.0000000000000     
 surface tension            :    15.5689454083859     
 probe radius               :   0.975313790000000     
 vdW radii scaling          :    1.00000000000000     
 Gshift (Eh)                :   1.857443126794793E-003
 c1                         :    1.55243817000000     
 soset                      :   0.130326360000000     
 HB correction              :  T

            Z     q(EN)     CN     RAES       Cart. coordinates
     1  N   5.0   -0.21    3.26    1.97    -7.74977    74.29080   188.94236
     2  C   4.0    0.03    4.38    4.34    -7.47576    76.81358   187.82175
     3  C   4.0    0.14    3.45    3.10    -7.69496    76.73043   184.92480
     4  O   6.0   -0.31    1.29    1.80    -6.39483    78.11371   183.56798
     5  C   4.0   -0.03    4.38    4.35    -4.95297    77.98143   188.57386
     6  C   4.0    0.06    3.76    3.29    -4.33881    77.86427   191.33475
     7  N   5.0   -0.14    2.60    1.91    -5.25344    79.59904   193.03551
     8  C   4.0    0.02    3.67    3.21    -2.84404    76.26934   192.66512
     9  C   4.0    0.09    3.63    3.19    -4.35771    79.06802   195.30318
    10  N   5.0   -0.10    3.54    2.10    -2.96687    77.00444   195.13877
    11  H   1.0    0.13    1.08    1.44    -9.01777    74.18686   189.95525
    12  H   1.0    0.05    1.13    1.45    -8.83825    77.86616   188.45103
    13  H   1.0    0.05    1.10    1.44    -3.61883    77.09893   187.68002
    14  H   1.0    0.05    1.10    1.44    -4.96809    79.74832   188.09198
    15  H   1.0    0.07    1.07    1.44    -1.91051    74.92763   192.01883
    16  H   1.0    0.08    1.07    1.44    -4.65440    79.99399   196.76771
    17  H   1.0    0.12    1.12    1.45    -2.25444    76.24477   196.38788
    18  N   5.0   -0.17    3.49    2.07    -9.45997    75.17897   183.94214
    19  C   4.0    0.03    4.46    4.48    -9.52044    74.66496   181.22283
    20  C   4.0    0.16    3.49    3.11    -9.72075    77.04791   179.64869
    21  O   6.0   -0.29    1.24    1.80    -9.08391    77.03279   177.40558
    22  C   4.0    0.04    4.28    4.15   -11.78622    72.99633   180.44615
    23  O   6.0   -0.22    2.09    1.84   -11.65205    70.50945   181.26440
    24  H   1.0    0.10    1.12    1.45   -10.61459    74.42308   184.79819
    25  H   1.0    0.06    1.13    1.45    -7.95386    73.77868   180.87701
    26  H   1.0    0.06    1.08    1.44   -13.30556    73.74278   181.14913
    27  H   1.0    0.08    1.08    1.44   -11.88071    72.98500   178.61501
    28  H   1.0    0.16    1.09    1.44   -11.35725    70.46788   182.82532
    29  N   5.0   -0.15    3.57    2.13   -10.82057    79.03401   180.72961
    30  C   4.0    0.03    4.60    4.67   -11.36670    81.41506   179.45216
    31  C   4.0    0.16    3.50    3.11    -8.94218    82.89472   179.06854
    32  O   6.0   -0.31    1.35    1.80    -8.12393    83.30101   176.89536
    33  C   4.0   -0.03    4.50    4.54   -13.21107    83.03456   181.00173
    34  C   4.0   -0.09    4.27    4.14   -13.78555    85.47986   179.64869
    35  C   4.0   -0.07    4.30    4.20   -15.51087    81.51900   181.47227
    36  H   1.0    0.10    1.16    1.45   -11.29300    79.05102   182.28297
    37  H   1.0    0.06    1.13    1.45   -12.10369    81.02011   177.82132
    38  H   1.0    0.04    1.17    1.46   -12.47597    83.50699   182.61367
    39  H   1.0    0.05    1.06    1.44   -14.98553    86.44551   180.64457
    40  H   1.0    0.05    1.06    1.44   -12.23220    86.43040   179.44838
    41  H   1.0    0.05    1.06    1.44   -14.50365    85.09814   178.00463
    42  H   1.0    0.06    1.06    1.44   -16.71274    82.53189   182.41525
    43  H   1.0    0.06    1.07    1.44   -16.23842    81.02200   179.86412
    44  H   1.0    0.06    1.07    1.44   -15.05734    80.02800   182.43792
    45  N   5.0   -0.17    3.55    2.11    -7.87260    83.77344   181.21527
    46  C   4.0    0.03    4.63    4.70    -5.37249    84.87326   181.39290
    47  C   4.0    0.17    3.62    3.18    -3.52245    83.60526   179.64302
    48  O   6.0   -0.30    1.26    1.80    -2.21287    84.88271   178.20683
    49  C   4.0   -0.03    4.55    4.61    -4.20086    84.53311   183.99506
    50  C   4.0   -0.08    4.33    4.25    -1.71587    85.83702   183.98183
    51  C   4.0   -0.08    4.31    4.23    -5.95642    85.30412   185.99250
    52  H   1.0    0.08    1.16    1.46    -8.62282    83.73943   182.65524
    53  H   1.0    0.05    1.13    1.45    -5.63327    86.63260   180.94882
    54  H   1.0    0.05    1.16    1.46    -3.87583    82.77378   184.39379
    55  H   1.0    0.05    1.06    1.44    -0.95431    85.68773   185.64290
    56  H   1.0    0.06    1.08    1.44    -0.63684    85.04901   182.72705
    57  H   1.0    0.05    1.06    1.44    -1.97098    87.60392   183.56609
    58  H   1.0    0.05    1.07    1.44    -5.09659    85.21341   187.61010
    59  H   1.0    0.05    1.07    1.44    -6.50633    87.02188   185.67313
    60  H   1.0    0.05    1.08    1.44    -7.40017    84.17406   185.98683
    61  N   5.0   -0.16    3.52    2.09    -3.20498    81.10515   179.97750
    62  C   4.0    0.04    4.46    4.49    -1.75178    79.58581   178.18037
    63  C   4.0    0.17    3.49    3.11    -2.45853    80.17918   175.41948
    64  O   6.0   -0.26    1.26    1.80    -0.86172    81.00688   173.92471
    65  C   4.0   -0.05    4.38    4.35    -2.08437    76.80413   178.78508
    66  C   4.0   -0.05    4.22    4.04    -0.67841    75.92919   181.15291
    67  C   4.0   -0.05    4.21    4.01    -1.63650    73.19664   181.97305
    68  C   4.0   -0.02    4.24    4.07    -0.00756    71.87195   184.00640
    69  N   5.0   -0.15    4.12    3.20    -1.21509    69.64963   185.18747
    70  H   1.0    0.11    1.15    1.45    -3.81158    80.25855   181.22472
    71  H   1.0    0.06    1.13    1.45     0.02457    79.99777   178.36745
    72  H   1.0    0.06    1.10    1.44    -3.86827    76.46965   179.04397
    73  H   1.0    0.06    1.10    1.44    -1.45887    75.81769   177.37157
    74  H   1.0    0.06    1.08    1.44     1.11872    75.84415   180.80520
    75  H   1.0    0.05    1.08    1.44    -0.99778    77.10082   182.52674
    76  H   1.0    0.05    1.08    1.44    -3.33348    73.35349   182.64768
    77  H   1.0    0.06    1.08    1.44    -1.64784    72.11572   180.49339
    78  H   1.0    0.07    1.08    1.44     1.55335    71.30503   183.22972
    79  H   1.0    0.06    1.09    1.44     0.35716    73.07570   185.34054
    80  H   1.0    0.11    1.09    1.44    -0.13228    68.89185   186.22682
    81  H   1.0    0.09    1.09    1.44    -2.56814    70.12962   186.06242
    82  H   1.0    0.10    1.09    1.44    -1.69130    68.55737   184.00073
    83  N   5.0   -0.15    3.50    2.08    -4.81880    79.79935   174.66548
    84  C   4.0    0.05    4.57    4.63    -5.35548    80.21509   171.98396
    85  C   4.0    0.17    3.54    3.14    -5.23076    82.99865   171.34523
    86  O   6.0   -0.27    1.29    1.80    -3.76244    83.78289   169.72763
    87  C   4.0   -0.05    4.35    4.28    -7.90850    79.14928   171.14492
    88  C   4.0   -0.04    4.27    4.14    -7.54379    76.41674   170.21895
    89  C   4.0   -0.04    4.22    4.04    -5.81091    76.06903   167.83979
    90  C   4.0   -0.02    4.25    4.11    -5.01344    73.25145   167.61680
    91  N   5.0   -0.15    4.12    3.19    -3.99299    72.56926   165.10725
    92  H   1.0    0.12    1.13    1.45    -6.06413    79.33070   175.59711
    93  H   1.0    0.07    1.15    1.45    -4.07425    79.28534   171.05799
    94  H   1.0    0.07    1.09    1.44    -9.07824    79.14928   172.55466
    95  H   1.0    0.06    1.09    1.44    -8.58314    80.15840   169.77109
    96  H   1.0    0.06    1.09    1.44    -6.79168    75.44542   171.57956
    97  H   1.0    0.06    1.09    1.44    -9.18785    75.73077   169.79377
    98  H   1.0    0.07    1.08    1.44    -6.72931    76.54713   166.32801
    99  H   1.0    0.06    1.08    1.44    -4.30480    77.10082   168.01175
   100  H   1.0    0.07    1.08    1.44    -3.71331    72.90563   168.86213
   101  H   1.0    0.07    1.09    1.44    -6.47798    72.19509   167.93050
   102  H   1.0    0.11    1.09    1.44    -2.83837    71.35794   165.26598
   103  H   1.0    0.11    1.09    1.44    -5.23076    72.01746   164.11325
   104  H   1.0    0.10    1.09    1.44    -3.27678    73.91474   164.39293
   105  N   5.0   -0.16    3.67    2.24    -6.76522    84.53122   172.58300
   106  C   4.0    0.05    4.76    4.81    -6.80301    87.21652   171.94994
   107  C   4.0    0.17    3.54    3.13    -4.18196    88.42217   171.97829
   108  O   6.0   -0.31    1.32    1.80    -3.81536    90.43095   170.87658
   109  C   4.0   -0.05    4.31    4.22    -8.56802    88.55823   173.79432
   110  S   6.0   -0.00    2.87    3.11   -11.44040    87.58124   172.83056
   111  H   1.0    0.13    1.22    1.47    -7.78000    84.08525   173.77164
   112  H   1.0    0.06    1.18    1.46    -7.44741    87.43762   170.24919
   113  H   1.0    0.06    1.17    1.46    -8.25432    88.03666   175.52342
   114  H   1.0    0.06    1.18    1.46    -8.42251    90.37992   173.65448
   115  N   5.0   -0.14    3.57    2.13    -2.33948    87.29967   173.18960
   116  C   4.0    0.05    4.52    4.56     0.13606    88.43917   172.96851
   117  C   4.0    0.11    3.28    3.05     1.26234    87.70785   170.43816
   118  O   6.0   -0.27    1.16    1.80     2.11838    89.37081   169.05866
   119  C   4.0   -0.03    4.25    4.10     1.80658    87.65305   175.20027
   120  S   6.0    0.02    2.41    3.10     5.03990    89.04389   175.33066
   121  H   1.0    0.13    1.14    1.45    -2.45664    85.95796   174.10045
   122  H   1.0    0.07    1.15    1.45     0.03968    90.26654   173.05732
   123  H   1.0    0.06    1.14    1.45     0.95242    88.13871   176.74796
   124  H   1.0    0.07    1.13    1.45     2.00878    85.83135   175.14169
   125  N   5.0   -0.20    3.32    1.99    -0.97321    85.89182   164.66694
   126  C   4.0    0.05    4.41    4.40    -1.83303    87.47352   162.57690
   127  C   4.0    0.16    3.44    3.09    -0.79180    90.15694   162.80934
   128  O   6.0   -0.26    1.23    1.80     0.05102    91.28321   160.93662
   129  C   4.0   -0.03    4.35    4.30    -4.72998    87.48108   162.46352
   130  C   4.0    0.26    3.17    3.03    -5.84870    84.82980   162.68462
   131  O   6.0   -0.24    1.24    1.80    -4.38038    82.98543   162.54478
   132  O   6.0   -0.25    1.17    1.80    -8.18629    84.60114   162.92650
   133  H   1.0    0.13    1.09    1.44    -2.15051    85.29656   165.61558
   134  H   1.0    0.08    1.13    1.45    -1.22076    86.77055   160.99898
   135  H   1.0    0.05    1.09    1.44    -5.38194    88.49020   163.84869
   136  H   1.0    0.07    1.09    1.44    -5.26667    88.19351   160.86292
   137  N   5.0   -0.15    3.43    2.03    -0.70865    91.13770   165.11480
   138  C   4.0    0.03    4.27    4.13     0.22299    93.68883   165.53054
   139  C   4.0    0.12    3.15    3.03     3.00844    94.06489   164.91260
   140  O   6.0   -0.26    1.17    1.80     3.75111    96.10579   164.06034
   141  H   1.0    0.12    1.13    1.45    -1.17919    90.36858   166.46785
   142  H   1.0    0.06    1.10    1.44    -0.74266    94.84724   164.48931
   143  H   1.0    0.07    1.09    1.44    -0.02268    94.12725   167.29366
   144  N   5.0   -0.21    3.25    1.97    -0.63495   109.26773   159.54389
   145  C   4.0    0.03    4.32    4.23    -1.80847   107.58021   161.37882
   146  C   4.0    0.09    3.22    3.04    -4.43519   108.52696   162.00432
   147  O   6.0   -0.31    1.17    1.80    -6.24743   107.07754   161.91928
   148  C   4.0   -0.05    4.18    3.96    -0.19275   107.33076   163.75987
   149  S   6.0    0.01    2.29    3.10     3.19364   106.01741   163.34791
   150  H   1.0    0.12    1.08    1.44     0.76723   109.94237   160.01254
   151  H   1.0    0.05    1.13    1.45    -1.92752   105.89646   160.66639
   152  H   1.0    0.05    1.12    1.45    -0.03024   108.99561   164.51009
   153  H   1.0    0.05    1.12    1.45    -1.06203   106.20449   164.91638
   154  N   5.0   -0.22    3.27    1.97    -9.44107   106.41236   157.03056
   155  C   4.0    0.03    4.36    4.31    -9.86437   103.69304   157.34614
   156  C   4.0    0.15    3.44    3.09   -11.27788   103.07132   159.82168
   157  O   6.0   -0.30    1.25    1.80   -12.94084   101.44805   159.85003
   158  C   4.0   -0.05    4.41    4.40    -7.30001   102.33433   157.32346
   159  C   4.0   -0.05    4.30    4.20    -5.53879   103.07510   155.26555
   160  C   4.0   -0.01    4.27    4.15    -2.71176   102.50440   155.95152
   161  N   5.0   -0.15    3.42    2.03    -2.22232    99.80399   156.41829
   162  C   4.0    0.13    3.45    3.10     0.04346    98.75519   156.83403
   163  N   5.0   -0.21    3.31    1.98     2.12405   100.17059   156.83214
   164  N   5.0   -0.21    3.28    1.97     0.21732    96.25886   157.21764
   165  H   1.0    0.12    1.10    1.44    -7.86882   106.78463   156.85670
   166  H   1.0    0.05    1.12    1.45   -10.89994   103.09967   155.95530
   167  H   1.0    0.05    1.11    1.45    -6.45341   102.68204   158.91083
   168  H   1.0    0.05    1.10    1.44    -7.60426   100.53531   157.15528
   169  H   1.0    0.06    1.09    1.44    -5.95831   102.13591   153.74810
   170  H   1.0    0.06    1.10    1.44    -5.69941   104.87412   154.95375
   171  H   1.0    0.07    1.08    1.44    -1.64217   103.03920   154.56258
   172  H   1.0    0.05    1.08    1.44    -2.26956   103.42659   157.47275
   173  H   1.0    0.10    1.14    1.45    -3.50922    98.81188   156.42396
   174  H   1.0    0.12    1.09    1.44     2.01823   101.76930   156.56191
   175  H   1.0    0.14    1.09    1.44     3.57158    99.48462   157.10048
   176  H   1.0    0.13    1.09    1.44    -1.12250    95.33856   157.19496
   177  H   1.0    0.14    1.09    1.44     1.66674    95.57667   157.48409
   178  N   5.0   -0.17    3.53    2.10   -10.59758   104.24106   161.92306
   179  C   4.0    0.04    4.47    4.49   -11.86937   103.61745   164.27766
   180  C   4.0    0.15    3.45    3.09   -14.57735   104.56421   164.41183
   181  O   6.0   -0.30    1.22    1.80   -15.91716   103.81021   166.18250
   182  C   4.0   -0.08    4.24    4.08   -10.43129   104.71160   166.52832
   183  H   1.0    0.12    1.16    1.46    -9.43729   105.37301   162.03644
   184  H   1.0    0.06    1.13    1.45   -11.88449   101.79009   164.40616
   185  H   1.0    0.05    1.06    1.44   -11.34780   104.32232   168.06656
   186  H   1.0    0.05    1.06    1.44    -8.76077   103.96138   166.58879
   187  H   1.0    0.05    1.06    1.44   -10.29523   106.52763   166.32234
   188  N   5.0   -0.16    3.50    2.07   -15.35969   106.23850   162.65249
   189  C   4.0    0.04    4.40    4.39   -17.99586   107.06809   162.47864
   190  C   4.0    0.17    3.40    3.08   -19.67961   104.93837   161.46763
   191  O   6.0   -0.23    1.21    1.80   -21.77153   104.54153   162.41817
   192  C   4.0   -0.06    4.22    4.04   -18.16405   109.39624   160.79489
   193  H   1.0    0.10    1.13    1.45   -14.38837   106.91691   161.54133
   194  H   1.0    0.07    1.13    1.45   -18.60435   107.52730   164.14349
   195  H   1.0    0.08    1.06    1.44   -19.88748   110.02362   160.81379
   196  H   1.0    0.06    1.06    1.44   -17.02454   110.68125   161.43551
   197  H   1.0    0.06    1.06    1.44   -17.68595   108.93325   159.08658
   198  N   5.0   -0.16    3.52    2.09   -18.73474   103.47383   159.60058
   199  C   4.0    0.05    4.46    4.47   -20.03298   101.35356   158.38927
   200  C   4.0    0.18    3.43    3.09   -20.44117    99.04243   160.09002
   201  O   6.0   -0.24    1.23    1.80   -21.86602    97.35868   159.33224
   202  C   4.0   -0.04    4.40    4.38   -18.49664   100.50885   156.10270
   203  C   4.0   -0.04    4.35    4.28   -17.70862   102.70472   154.41329
   204  C   4.0   -0.00    4.32    4.24   -15.59024   102.02063   152.55380
   205  N   5.0   -0.15    3.47    2.06   -14.92317   104.30531   151.20831
   206  C   4.0    0.14    3.47    3.10   -15.61103   104.83822   148.84237
   207  N   5.0   -0.20    3.31    1.99   -16.97163   103.18849   147.52146
   208  N   5.0   -0.20    3.27    1.97   -14.91372   107.03030   147.77846
   209  H   1.0    0.10    1.15    1.45   -17.25131   103.69493   158.97509
   210  H   1.0    0.08    1.13    1.45   -21.69027   101.94883   157.87904
   211  H   1.0    0.06    1.10    1.44   -16.97541    99.66793   156.68474
   212  H   1.0    0.07    1.09    1.44   -19.50575    99.35612   155.09926
   213  H   1.0    0.07    1.09    1.44   -19.15993   103.25274   153.43630
   214  H   1.0    0.05    1.11    1.44   -17.10769   104.08044   155.46775
   215  H   1.0    0.05    1.08    1.44   -14.12381   101.39703   153.45898
   216  H   1.0    0.06    1.10    1.44   -16.17416   100.75830   151.35949
   217  H   1.0    0.10    1.14    1.45   -14.01421   105.40135   151.99066
   218  H   1.0    0.13    1.10    1.44   -17.41005   101.77497   148.19231
   219  H   1.0    0.15    1.09    1.44   -17.41382   103.53620   145.99645
   220  H   1.0    0.13    1.09    1.44   -14.02177   108.09610   148.62317
   221  H   1.0    0.15    1.09    1.44   -15.35969   107.37234   146.25345
   222  N   5.0   -0.14    3.51    2.08   -19.20340    98.90448   162.29344
   223  C   4.0    0.04    4.53    4.58   -19.52087    96.80877   164.06601
   224  C   4.0    0.16    3.47    3.10   -22.21751    96.78798   165.02977
   225  O   6.0   -0.23    1.21    1.80   -23.41370    98.80243   165.37559
   226  C   4.0   -0.03    4.43    4.43   -17.64626    97.16593   166.27510
   227  C   4.0   -0.05    4.31    4.21   -14.93828    96.82767   165.33401
   228  C   4.0   -0.09    4.20    3.99   -18.24341    95.49541   168.66371
   229  C   4.0   -0.09    4.16    3.92   -12.96919    97.18861   167.37681
   230  H   1.0    0.11    1.14    1.45   -18.14704   100.02319   162.81312
   231  H   1.0    0.06    1.13    1.45   -19.19584    95.20817   163.23642
   232  H   1.0    0.06    1.13    1.45   -17.85413    98.88747   166.87225
   233  H   1.0    0.05    1.09    1.44   -14.75120    95.13069   164.66694
   234  H   1.0    0.06    1.10    1.44   -14.61325    98.05788   164.01498
   235  H   1.0    0.04    1.05    1.44   -16.93950    95.76564   169.92227
   236  H   1.0    0.05    1.05    1.44   -19.87614    95.98485   169.34023
   237  H   1.0    0.05    1.05    1.44   -18.27554    93.73230   168.16482
   238  H   1.0    0.05    1.06    1.44   -11.30056    97.05444   166.62848
   239  H   1.0    0.05    1.06    1.44   -13.18462    98.84590   168.12892
   240  H   1.0    0.05    1.06    1.44   -13.18651    95.89036   168.65237
   241  N   5.0   -0.16    3.47    2.06   -23.13403    94.48063   165.63637
   242  C   4.0    0.05    4.45    4.46   -25.67949    94.11969   166.67383
   243  C   4.0    0.16    3.44    3.09   -25.85145    92.91027   169.29299
   244  O   6.0   -0.24    1.24    1.80   -27.96227    92.49264   170.21895
   245  C   4.0    0.06    4.27    4.15   -27.22150    92.47185   164.84079
   246  O   6.0   -0.26    2.14    1.85   -26.01397    90.10780   164.74442
   247  H   1.0    0.10    1.12    1.45   -22.30066    93.09735   165.45685
   248  H   1.0    0.08    1.14    1.45   -26.41081    95.79210   166.84012
   249  H   1.0    0.08    1.07    1.44   -28.93548    92.27721   165.46062
   250  H   1.0    0.08    1.07    1.44   -27.24040    93.23530   163.17406
   251  H   1.0    0.17    1.08    1.44   -26.69994    89.19318   163.64460
   252  N   5.0   -0.17    3.53    2.10   -23.72929    92.32634   170.49485
   253  C   4.0    0.04    4.50    4.54   -23.70661    90.75220   172.73985
   254  C   4.0    0.16    3.45    3.09   -23.35512    92.26398   175.13413
   255  O   6.0   -0.26    1.25    1.80   -22.89970    91.11125   177.12401
   256  C   4.0   -0.05    4.46    4.48   -21.59012    88.76421   172.62269
   257  C   4.0   -0.03    4.27    4.13   -21.48618    86.86881   170.45517
   258  C   4.0   -0.07    4.17    3.93   -20.40715    84.29312   171.48507
   259  C   4.0   -0.06    4.21    4.03   -23.99574    86.50221   169.07756
   260  H   1.0    0.09    1.14    1.45   -22.25530    92.83279   170.03565
   261  H   1.0    0.08    1.14    1.45   -25.31855    89.88104   172.79276
   262  H   1.0    0.04    1.10    1.44   -19.99897    89.67317   172.57733
   263  H   1.0    0.06    1.11    1.45   -21.69972    87.76832   174.15903
   264  H   1.0    0.05    1.13    1.45   -20.37125    87.54344   169.16449
   265  H   1.0    0.07    1.05    1.44   -20.42227    83.05535   170.13203
   266  H   1.0    0.05    1.05    1.44   -18.68939    84.55579   172.07089
   267  H   1.0    0.06    1.05    1.44   -21.45784    83.71675   172.87024
   268  H   1.0    0.07    1.06    1.44   -23.76708    85.27388   167.73585
   269  H   1.0    0.07    1.06    1.44   -25.24863    85.89938   170.27187
   270  H   1.0    0.07    1.07    1.44   -24.52864    88.10658   168.37080
   271  N   5.0   -0.14    3.39    2.01   -23.36835    94.80377   174.97351
   272  C   4.0    0.02    4.34    4.28   -23.43260    96.39303   177.22795
   273  C   4.0    0.15    3.42    3.08   -21.09690    96.43272   178.91925
   274  O   6.0   -0.28    1.27    1.80   -19.49063    94.77920   178.78319
   275  H   1.0    0.10    1.13    1.45   -23.34001    95.63336   173.57700
   276  H   1.0    0.05    1.10    1.44   -23.73307    98.12024   176.69316
   277  H   1.0    0.07    1.10    1.44   -24.83667    95.83934   178.26919
   278  N   5.0   -0.11    3.67    2.23   -20.97596    98.24874   180.65969
   279  C   4.0    0.02    4.63    4.70   -18.54010    99.25786   181.57999
   280  C   4.0    0.16    3.50    3.11   -16.27621    97.50986   181.75762
   281  O   6.0   -0.32    1.60    1.81   -14.50554    97.78009   180.24017
   282  C   4.0   -0.05    4.53    4.58   -19.16938   100.18760   184.25584
   283  C   4.0   -0.04    4.45    4.46   -21.86791   100.76586   184.14435
   284  C   4.0   -0.01    4.44    4.45   -23.07166    98.88369   182.33966
   285  H   1.0    0.04    1.13    1.45   -18.11869   100.58822   180.39135
   286  H   1.0    0.05    1.11    1.45   -18.82545    98.86668   185.47849
   287  H   1.0    0.04    1.09    1.44   -18.18672   101.68237   184.65079
   288  H   1.0    0.06    1.10    1.44   -22.59356   100.59956   185.81864
   289  H   1.0    0.05    1.11    1.45   -22.09657   102.47606   183.52829
   290  H   1.0    0.07    1.08    1.44   -23.66882    97.40025   183.23728
   291  H   1.0    0.06    1.08    1.44   -24.45116    99.65281   181.41180
   292  N   5.0   -0.16    3.49    2.07   -16.28755    95.82044   183.65491
   293  C   4.0    0.03    4.44    4.45   -14.27499    93.97796   184.13679
   294  C   4.0    0.17    3.56    3.14   -12.94840    93.30900   181.68959
   295  O   6.0   -0.31    1.32    1.80   -10.75821    93.96473   181.33810
   296  C   4.0   -0.06    4.31    4.21   -15.26332    91.55155   185.41046
   297  C   4.0   -0.05    4.17    3.95   -13.55500    90.56323   187.68758
   298  C   4.0   -0.01    4.24    4.08   -14.14649    87.77210   188.35276
   299  N   5.0   -0.16    3.38    2.01   -12.79344    85.77277   186.86933
   300  C   4.0    0.11    3.47    3.10   -12.42684    83.36904   187.64223
   301  N   5.0   -0.22    3.32    1.99   -13.27721    82.59425   189.85510
   302  N   5.0   -0.24    3.36    2.00   -11.18907    81.73821   186.23627
   303  H   1.0    0.09    1.14    1.45   -17.49886    95.70139   184.73205
   304  H   1.0    0.05    1.13    1.45   -13.08257    94.74330   185.30086
   305  H   1.0    0.06    1.09    1.44   -16.93950    91.88037   186.07565
   306  H   1.0    0.05    1.10    1.44   -15.33702    90.21930   184.15190
   307  H   1.0    0.05    1.08    1.44   -11.78811    90.67850   187.21515
   308  H   1.0    0.06    1.08    1.44   -13.87437    91.58746   189.17480
   309  H   1.0    0.06    1.09    1.44   -13.71563    87.50754   190.11588
   310  H   1.0    0.06    1.09    1.44   -15.94173    87.49809   188.09765
   311  H   1.0    0.09    1.13    1.45   -12.20385    86.19040   185.41424
   312  H   1.0    0.12    1.10    1.44   -14.07657    83.62604   190.82453
   313  H   1.0    0.12    1.09    1.44   -13.03344    81.05979   190.32753
   314  H   1.0    0.10    1.12    1.45   -10.59380    82.19363   184.79441
   315  H   1.0    0.11    1.10    1.44   -10.97364    80.21320   186.75973
   316  N   5.0   -0.16    3.52    2.09   -14.27877    92.14115   179.91703
   317  C   4.0    0.04    4.70    4.76   -13.22808    91.79344   177.38480
   318  C   4.0    0.17    3.66    3.21   -12.29267    94.26709   176.24529
   319  O   6.0   -0.32    1.41    1.80   -10.19318    94.34646   175.20783
   320  C   4.0   -0.05    4.34    4.28   -15.15560    90.69173   175.59334
   321  S   6.0   -0.02    2.76    3.11   -13.75532    90.68606   172.60190
   322  H   1.0    0.10    1.13    1.45   -15.77543    91.54021   180.11923
   323  H   1.0    0.05    1.15    1.45   -11.82968    90.62370   177.57566
   324  H   1.0    0.04    1.16    1.46   -15.57701    88.97586   176.08088
   325  H   1.0    0.06    1.15    1.45   -16.66927    91.72541   175.56499
   326  N   5.0   -0.14    3.65    2.21   -13.80067    96.31933   176.47206
   327  C   4.0    0.04    4.58    4.64   -13.15627    98.67960   175.17949
   328  C   4.0    0.17    3.53    3.13   -10.72608    99.75485   176.23584
   329  O   6.0   -0.32    1.30    1.80    -9.01966   100.44271   174.79398
   330  C   4.0   -0.03    4.46    4.47   -15.29733   100.63547   175.35523
   331  C   4.0   -0.06    4.34    4.28   -17.63303    99.75674   173.92282
   332  C   4.0   -0.08    4.25    4.10   -14.52632   103.20360   174.19494
   333  C   4.0   -0.08    4.16    3.92   -19.91771   101.41592   174.39147
   334  H   1.0    0.13    1.19    1.46   -15.16883    96.37602   177.34511
   335  H   1.0    0.05    1.13    1.45   -12.92006    98.27898   173.40692
   336  H   1.0    0.05    1.13    1.45   -15.64693   100.81877   177.14669
   337  H   1.0    0.05    1.10    1.44   -17.27398    99.78131   172.12569
   338  H   1.0    0.05    1.10    1.44   -18.05255    98.05221   174.45572
   339  H   1.0    0.04    1.06    1.44   -15.90582   104.39224   174.40659
   340  H   1.0    0.05    1.06    1.44   -13.03155   103.82343   175.05665
   341  H   1.0    0.05    1.06    1.44   -14.16728   102.96928   172.41293
   342  H   1.0    0.06    1.06    1.44   -21.35579   100.71861   173.49385
   343  H   1.0    0.05    1.06    1.44   -20.26542   101.45939   176.19049
   344  H   1.0    0.05    1.06    1.44   -19.56055   103.10912   173.78298
   345  N   5.0   -0.16    3.61    2.16   -10.56924   100.01186   178.74918
   346  C   4.0    0.03    4.54    4.59    -8.23921   100.92459   179.90947
   347  C   4.0    0.17    3.53    3.13    -6.11326    99.18794   179.14224
   348  O   6.0   -0.30    1.29    1.80    -4.31991    99.97217   177.90069
   349  C   4.0   -0.06    4.47    4.49    -8.48109   100.96995   182.78185
   350  C   4.0   -0.06    4.39    4.36   -11.01521   101.76174   183.67758
   351  C   4.0   -0.05    4.36    4.31   -11.08513   101.66159   186.51973
   352  C   4.0   -0.04    4.26    4.12   -13.37737   102.85022   187.72349
   353  N   5.0   -0.16    4.13    3.22   -12.93328   102.95038   190.54107
   354  H   1.0    0.12    1.20    1.46   -11.76543    99.67737   179.79798
   355  H   1.0    0.05    1.13    1.45    -7.90283   102.64046   179.36145
   356  H   1.0    0.05    1.11    1.45    -8.15795    99.28620   183.42814
   357  H   1.0    0.05    1.10    1.44    -7.25277   102.14914   183.46026
   358  H   1.0    0.04    1.10    1.44   -11.35914   103.47950   183.13523
   359  H   1.0    0.05    1.11    1.45   -12.29267   100.62791   183.01240
   360  H   1.0    0.05    1.10    1.44   -11.04545    99.90414   187.03941
   361  H   1.0    0.05    1.11    1.44    -9.61115   102.54031   187.16791
   362  H   1.0    0.05    1.08    1.44   -13.61359   104.55476   187.08665
   363  H   1.0    0.04    1.08    1.44   -14.86836   101.84111   187.37956
   364  H   1.0    0.09    1.08    1.44   -14.23342   103.69871   191.30263
   365  H   1.0    0.09    1.08    1.44   -12.76510   101.39325   191.15334
   366  H   1.0    0.09    1.09    1.44   -11.53300   103.81965   190.87366
   367  N   5.0   -0.15    3.56    2.12    -6.37405    96.78987   179.81120
   368  C   4.0    0.04    4.44    4.44    -4.74510    94.75275   179.04020
   369  C   4.0    0.17    3.50    3.12    -3.74922    95.04188   176.36245
   370  O   6.0   -0.28    1.23    1.80    -1.42485    94.99085   175.92782
   371  C   4.0   -0.07    4.27    4.14    -6.25121    92.28666   179.30476
   372  H   1.0    0.12    1.17    1.46    -7.57024    96.26831   180.78063
   373  H   1.0    0.05    1.13    1.45    -3.25411    94.73007   180.10600
   374  H   1.0    0.05    1.05    1.44    -5.17785    90.87881   178.82855
   375  H   1.0    0.06    1.06    1.44    -6.79168    92.09957   181.04519
   376  H   1.0    0.07    1.07    1.44    -7.71197    92.35847   178.20116
   377  N   5.0   -0.15    3.53    2.10    -5.51989    95.21762   174.55966
   378  C   4.0    0.05    4.48    4.50    -4.82636    95.62391   171.91782
   379  C   4.0    0.17    3.48    3.11    -3.09915    97.94072   171.66271
   380  O   6.0   -0.29    1.24    1.80    -0.95809    97.75552   170.73296
   381  C   4.0   -0.04    4.38    4.35    -7.23576    95.88092   170.25108
   382  C   4.0   -0.01    3.63    3.19    -6.60648    96.31366   167.50531
   383  C   4.0   -0.04    3.49    3.11    -6.35515    94.21796   165.87825
   384  C   4.0   -0.04    3.52    3.12    -6.20964    98.77787   166.56233
   385  C   4.0   -0.04    3.40    3.08    -5.66918    94.56000   163.41783
   386  C   4.0   -0.04    3.42    3.08    -5.60115    99.19549   164.18884
   387  C   4.0   -0.04    3.44    3.09    -5.30068    97.10168   162.53533
   388  H   1.0    0.14    1.21    1.47    -7.11860    95.10991   174.82233
   389  H   1.0    0.08    1.15    1.45    -3.90795    94.16126   171.30744
   390  H   1.0    0.06    1.09    1.44    -8.22031    94.33890   170.37580
   391  H   1.0    0.06    1.09    1.44    -8.22598    97.30577   170.84256
   392  H   1.0    0.06    1.10    1.44    -6.65939    92.59657   166.48486
   393  H   1.0    0.06    1.11    1.45    -6.38349   100.14603   167.65082
   394  H   1.0    0.07    1.09    1.44    -5.44619    93.18806   162.34069
   395  H   1.0    0.06    1.10    1.44    -5.37060   100.83578   163.60302
   396  H   1.0    0.06    1.08    1.44    -4.85849    97.38136   160.85725
   397  N   5.0   -0.15    3.53    2.10    -4.00811   100.14981   172.53009
   398  C   4.0    0.04    4.55    4.61    -2.65695   102.51952   172.16348
   399  C   4.0    0.16    3.52    3.13     0.01323   102.33244   173.13480
   400  O   6.0   -0.31    1.37    1.80     1.81792   102.51385   171.67404
   401  C   4.0    0.05    4.37    4.33    -4.11582   104.62468   173.50141
   402  O   6.0   -0.29    2.16    1.85    -6.64050   104.63035   172.50363
   403  C   4.0   -0.08    4.19    3.98    -2.91774   107.21927   173.23307
   404  H   1.0    0.12    1.16    1.46    -5.40840   100.31043   173.33700
   405  H   1.0    0.05    1.13    1.45    -2.56247   102.91448   170.37769
   406  H   1.0    0.05    1.12    1.45    -4.11204   104.30342   175.30610
   407  H   1.0    0.17    1.11    1.44    -7.42662   103.34722   173.00819
   408  H   1.0    0.05    1.05    1.44    -3.94953   108.47594   174.07966
   409  H   1.0    0.04    1.06    1.44    -1.24533   107.21927   173.98329
   410  H   1.0    0.05    1.06    1.44    -2.77412   107.66525   171.46050
   411  N   5.0   -0.16    3.53    2.10     0.28346   101.97717   175.63491
   412  C   4.0    0.03    4.51    4.56     2.70609   102.05276   176.95394
   413  C   4.0    0.17    3.59    3.16     4.70731   100.73562   175.44594
   414  O   6.0   -0.27    1.24    1.80     6.51389   101.90347   174.54076
   415  C   4.0   -0.05    4.49    4.53     2.45097   100.74129   179.49562
   416  C   4.0   -0.03    4.31    4.21     4.90006   100.13469   180.82221
   417  C   4.0    0.25    3.15    3.03     4.38605    99.69627   183.65491
   418  O   6.0   -0.28    1.24    1.80     2.12972    99.95705   184.42591
   419  O   6.0   -0.25    1.16    1.80     6.13027    98.93471   185.02496
   420  H   1.0    0.12    1.15    1.45    -0.96187   101.67859   176.63646
   421  H   1.0    0.05    1.13    1.45     3.18230   103.80265   177.21661
   422  H   1.0    0.06    1.11    1.45     1.48343   101.82977   180.60867
   423  H   1.0    0.06    1.10    1.44     1.56280    99.15770   179.23862
   424  H   1.0    0.06    1.09    1.44     5.63138    98.61157   180.10978
   425  H   1.0    0.06    1.09    1.44     6.06791   101.53498   180.64268
   426  N   5.0   -0.16    3.62    2.18     4.29157    98.30543   175.03398
   427  C   4.0    0.05    4.56    4.62     5.99799    96.77476   173.51842
   428  C   4.0    0.17    3.45    3.10     6.43263    97.79899   170.81611
   429  O   6.0   -0.22    1.22    1.80     8.44519    97.29821   169.66715
   430  C   4.0   -0.03    4.36    4.31     4.87360    94.13670   173.35023
   431  S   6.0   -0.00    2.61    3.10     4.39361    92.63248   176.22639
   432  H   1.0    0.11    1.17    1.46     3.01789    97.48151   175.61601
   433  H   1.0    0.07    1.13    1.45     7.64016    96.75775   174.33478
   434  H   1.0    0.07    1.17    1.46     3.24466    94.25575   172.51686
   435  H   1.0    0.07    1.19    1.46     6.00744    93.08601   172.36568
   436  N   5.0   -0.14    3.55    2.12     4.56936    99.10857   169.71062
   437  C   4.0    0.06    4.65    4.72     5.01722   100.23484   167.25208
   438  C   4.0    0.17    3.56    3.14     6.85026   102.46094   167.42405
   439  O   6.0   -0.21    1.24    1.80     8.76833   102.54031   166.07857
   440  C   4.0   -0.03    4.34    4.27     2.55302   101.07199   166.14471
   441  S   6.0    0.03    2.51    3.10     2.96120   102.31732   163.00776
   442  H   1.0    0.14    1.17    1.46     3.08781    99.35423   170.33612
   443  H   1.0    0.10    1.16    1.46     5.76744    98.97629   166.14848
   444  H   1.0    0.07    1.15    1.45     1.41352    99.63958   166.05400
   445  H   1.0    0.06    1.16    1.46     1.83114   102.38535   167.19917
   446  N   5.0   -0.15    3.53    2.10     6.31924   104.26374   169.11913
   447  C   4.0    0.05    4.53    4.58     7.87638   106.52196   169.30433
   448  C   4.0    0.12    3.32    3.06    10.51632   105.80765   170.06211
   449  O   6.0   -0.20    1.12    1.80    12.36259   106.70338   168.93016
   450  C   4.0   -0.03    4.42    4.42     6.74821   108.38712   171.18838
   451  C   4.0   -0.06    4.29    4.18     8.53589   110.55653   171.49641
   452  C   4.0   -0.08    4.23    4.06     4.14984   109.28852   170.20384
   453  H   1.0    0.12    1.15    1.45     5.07580   104.21461   170.16604
   454  H   1.0    0.07    1.14    1.45     7.92362   107.32699   167.66027
   455  H   1.0    0.06    1.13    1.45     6.49688   107.60478   172.82489
   456  H   1.0    0.06    1.06    1.44     7.72520   111.85855   172.49985
   457  H   1.0    0.07    1.07    1.44    10.04956   109.96504   172.34490
   458  H   1.0    0.08    1.06    1.44     8.96486   111.21793   169.84290
   459  H   1.0    0.05    1.06    1.44     3.37316   110.36377   171.46995
   460  H   1.0    0.06    1.05    1.44     4.39361   110.22960   168.65048
   461  H   1.0    0.05    1.06    1.44     3.09159   107.82587   169.89014
   462  N   5.0   -0.20    3.25    1.97     8.11637    85.91072   183.36956
   463  C   4.0    0.04    4.28    4.15     8.79856    87.96485   181.63479
   464  C   4.0    0.12    3.18    3.03    11.62181    88.22753   180.96394
   465  O   6.0   -0.21    1.11    1.80    12.33991    87.63037   178.83233
   466  C   4.0   -0.05    4.39    4.37     7.88016    90.46874   182.79697
   467  C   4.0   -0.05    4.40    4.39     5.45186    90.26654   184.30119
   468  C   4.0   -0.04    4.38    4.35     4.50889    92.81578   185.10055
   469  C   4.0   -0.04    4.34    4.27     1.79335    92.66649   185.77896
   470  N   5.0   -0.15    4.19    3.41     0.88250    95.27053   186.20604
   471  H   1.0    0.11    1.11    1.45     7.14505    86.39071   184.58087
   472  H   1.0    0.06    1.13    1.45     7.98787    87.56990   180.03986
   473  H   1.0    0.07    1.10    1.44     9.18029    91.09613   183.92892
   474  H   1.0    0.05    1.10    1.44     7.59481    91.66872   181.44393
   475  H   1.0    0.04    1.10    1.44     4.16118    89.47285   183.26751
   476  H   1.0    0.06    1.10    1.44     5.75044    89.26498   185.80730
   477  H   1.0    0.07    1.10    1.44     5.44997    93.39215   186.56319
   478  H   1.0    0.06    1.11    1.44     4.70353    94.00631   183.71916
   479  H   1.0    0.04    1.09    1.44     0.83715    91.90493   184.41269
   480  H   1.0    0.06    1.09    1.44     1.57603    91.68761   187.31531
   481  H   1.0    0.08    1.09    1.44    -0.66140    95.23841   186.87122
   482  H   1.0    0.10    1.10    1.44     1.91618    96.07367   187.26239
   483  H   1.0    0.09    1.11    1.44     0.83337    96.10768   184.74906
   484  N   5.0   -0.17    4.25    3.61   -19.24524   108.25003   177.46607
   485  C   4.0    0.01    4.31    4.21   -21.98917   109.01155   177.65504
   486  C   4.0    0.09    3.15    3.03   -23.06529   110.43703   175.30044
   487  O   6.0   -0.23    1.10    1.80   -24.03511   109.20285   173.54677
   488  C   4.0   -0.04    4.35    4.30   -22.43675   110.67118   180.05877
   489  C   4.0   -0.03    4.09    3.78   -22.29339   109.27014   182.64581
   490  S   6.0   -0.05    2.86    3.11   -19.66006   107.07880   182.81021
   491  C   4.0   -0.06    3.97    3.57   -19.18256   106.75441   186.19471
   492  H   1.0    0.07    1.22    1.47   -18.53079   108.35049   178.98541
   493  H   1.0    0.07    1.08    1.44   -19.13859   106.67069   176.89915
   494  H   1.0    0.07    1.09    1.44   -18.44962   109.28327   176.40215
   495  H   1.0    0.06    1.12    1.45   -22.91903   107.43603   177.78354
   496  H   1.0    0.06    1.09    1.44   -21.16729   111.99108   180.08712
   497  H   1.0    0.07    1.09    1.44   -24.10847   111.41239   179.93783
   498  H   1.0    0.07    1.14    1.45   -22.08981   110.50490   183.98373
   499  H   1.0    0.06    1.13    1.45   -23.83991   108.32052   182.89903
   500  H   1.0    0.04    1.10    1.44   -17.73505   105.67210   186.49140
   501  H   1.0    0.07    1.10    1.44   -18.88242   108.41151   186.91470
   502  H   1.0    0.06    1.10    1.44   -20.68382   106.00985   186.93926
   503  N   5.0   -0.21    3.23    1.96   -13.89125   115.20561   174.47274
   504  C   4.0    0.03    4.39    4.37   -11.97435   113.77895   173.09891
   505  C   4.0    0.09    3.28    3.05    -9.50689   115.25373   173.03277
   506  O   6.0   -0.30    1.15    1.80    -7.62317   114.43634   174.12881
   507  C   4.0   -0.03    4.44    4.44   -12.82366   113.11839   170.40416
   508  C   4.0   -0.05    4.32    4.23   -14.61252   110.84618   170.57613
   509  C   4.0   -0.08    4.29    4.17   -10.55808   112.55422   168.70341
   510  C   4.0   -0.07    4.16    3.93   -15.03388   109.45951   168.07602
   511  H   1.0    0.11    1.08    1.44   -15.30805   115.33900   173.68850
   512  H   1.0    0.05    1.13    1.45   -11.69338   112.21515   174.01354
   513  H   1.0    0.06    1.12    1.45   -13.69656   114.54337   169.65205
   514  H   1.0    0.04    1.10    1.44   -13.91030   109.64124   171.76665
   515  H   1.0    0.05    1.09    1.44   -16.24534   111.43310   171.16761
   516  H   1.0    0.05    1.06    1.44   -11.16375   112.08015   167.04045
   517  H   1.0    0.06    1.06    1.44    -9.51280   114.05454   168.58624
   518  H   1.0    0.05    1.06    1.44    -9.59492   111.17699   169.43284
   519  H   1.0    0.06    1.05    1.44   -16.28225   108.14087   168.32924
   520  H   1.0    0.06    1.06    1.44   -15.63480   110.65529   166.82502
   521  H   1.0    0.05    1.06    1.44   -13.44961   108.72236   167.52800
   522  N   5.0   -0.20    3.26    1.97    -6.36542   116.33210   178.96462
   523  C   4.0    0.04    4.45    4.46    -4.88125   114.23010   179.95106
   524  C   4.0    0.16    3.47    3.10    -2.31224   114.11168   178.66604
   525  O   6.0   -0.27    1.24    1.80    -0.37210   114.04696   179.90948
   526  C   4.0   -0.03    4.41    4.40    -6.27623   111.67251   179.72240
   527  C   4.0   -0.05    4.28    4.16    -8.74507   111.56072   181.23985
   528  C   4.0   -0.08    4.26    4.12    -4.50043   109.50758   180.57844
   529  C   4.0   -0.09    4.15    3.90    -9.72299   108.88170   181.79543
   530  H   1.0    0.13    1.09    1.44    -7.62252   115.92053   178.01976
   531  H   1.0    0.07    1.13    1.45    -4.63917   114.55534   181.73874
   532  H   1.0    0.05    1.13    1.45    -6.73342   111.48928   177.95551
   533  H   1.0    0.06    1.09    1.44    -8.47406   112.39145   182.85179
   534  H   1.0    0.05    1.09    1.44   -10.04892   112.43577   180.29499
   535  H   1.0    0.04    1.06    1.44    -5.35234   107.90288   180.32900
   536  H   1.0    0.05    1.06    1.44    -2.96539   109.56247   179.57878
   537  H   1.0    0.06    1.05    1.44    -4.09897   109.73064   182.35290
   538  H   1.0    0.05    1.05    1.44   -11.37763   108.99997   182.57778
   539  H   1.0    0.04    1.05    1.44    -9.84331   107.95250   180.21940
   540  H   1.0    0.05    1.06    1.44    -8.55338   108.04262   182.92926
   541  N   5.0   -0.16    3.49    2.07    -2.27832   113.96979   176.14893
   542  C   4.0    0.03    4.35    4.29     0.03953   113.56453   174.71652
   543  C   4.0    0.11    3.25    3.04     1.91569   115.70821   175.00753
   544  O   6.0   -0.27    1.12    1.80     4.21629   115.27991   174.78832
   545  C   4.0   -0.08    4.24    4.08    -0.59593   113.30457   171.91594
   546  H   1.0    0.12    1.15    1.45    -3.59786   114.10479   175.21162
   547  H   1.0    0.05    1.13    1.45     0.81426   112.02614   175.34390
   548  H   1.0    0.06    1.06    1.44     0.96103   113.12118   170.96541
   549  H   1.0    0.04    1.06    1.44    -1.65185   111.82647   171.67784
   550  H   1.0    0.07    1.06    1.44    -1.48956   114.80704   171.36603
   551  N   5.0   -0.19    3.26    1.97     7.06120   115.10693   179.96050
   552  C   4.0    0.05    4.33    4.25     9.33216   113.70576   179.35012
   553  C   4.0    0.12    3.21    3.04    11.16890   115.06733   177.60213
   554  O   6.0   -0.20    1.12    1.80    13.25764   114.10647   177.19584
   555  C   4.0   -0.03    4.43    4.43     8.54991   111.19426   178.16904
   556  C   4.0   -0.01    3.63    3.18     7.04464   109.61384   180.00397
   557  C   4.0   -0.02    3.51    3.12     8.24376   108.25500   181.92771
   558  C   4.0   -0.04    3.51    3.12     4.38869   109.51622   179.83011
   559  C   4.0   -0.01    3.47    3.10     6.87177   106.85191   183.60012
   560  C   4.0   -0.04    3.48    3.11     2.99382   108.19811   181.56299
   561  C   4.0    0.08    3.52    3.12     4.24146   106.89129   183.48106
   562  O   6.0   -0.22    2.14    1.85     2.82002   105.59275   185.23095
   563  H   1.0    0.13    1.09    1.44     5.86717   114.95653   178.86824
   564  H   1.0    0.08    1.13    1.45    10.26923   113.39795   180.89592
   565  H   1.0    0.05    1.10    1.44     7.51224   111.51381   176.69317
   566  H   1.0    0.07    1.10    1.44    10.04976   110.25563   177.68905
   567  H   1.0    0.08    1.10    1.44     9.99492   108.30593   182.06944
   568  H   1.0    0.06    1.10    1.44     3.57440   110.35970   178.52242
   569  H   1.0    0.09    1.10    1.44     7.68642   105.87553   184.81332
   570  H   1.0    0.06    1.10    1.44     1.24019   108.17413   181.46284
   571  H   1.0    0.15    1.10    1.44     1.27706   105.89551   185.01174
   572  H   1.0    0.11    1.09    1.44    -7.97522    73.14272   187.70800
   573  H   1.0    0.08    1.04    1.44     1.30214    85.89372   169.91052
   574  H   1.0    0.14    1.08    1.44    -0.12406    84.55216   164.05308
   575  H   1.0    0.09    1.04    1.43     4.23769    92.65809   165.19708
   576  H   1.0    0.11    1.08    1.44    -0.29999   108.40815   158.11509
   577  H   1.0    0.07    1.05    1.44    -4.69771   110.33484   162.48776
   578  H   1.0    0.11    1.08    1.44   -10.26226   106.95767   155.64461
   579  H   1.0    0.09    1.05    1.44    10.79588   104.60108   171.48938
   580  H   1.0    0.11    1.08    1.44     7.30046    84.69008   182.51113
   581  H   1.0    0.09    1.04    1.43    12.84282    88.87562   182.25241
   582  H   1.0    0.08    1.04    1.43   -22.97100   112.32237   175.21279
   583  H   1.0    0.10    1.08    1.44   -14.21195   114.44139   175.95789
   584  H   1.0    0.08    1.04    1.44    -9.41053   116.89274   172.09714
   585  H   1.0    0.12    1.08    1.44    -7.01231   117.22676   180.25833
   586  H   1.0    0.09    1.04    1.43     1.30216   117.45757   175.37412
   587  H   1.0    0.12    1.08    1.44     6.44288   114.56529   181.44942
   588  H   1.0    0.10    1.04    1.43    10.67543   116.70886   176.80656

  Z AO/shell   Hii/eV     exponent
  1     Wed Apr 25 08:07:45 CEST 2018   EN: 2.200 GM2: 0.406  GM3: 0.0800  RAES: 1.40
     1s    -10.707211    1.230000
  6     Wed Apr 25 08:07:45 CEST 2018   EN: 2.550 GM2: 0.538  GM3: 0.1500  RAES: 3.00
     2s    -13.970922    2.096432
     2p    -10.063292    1.800000
  7     Wed Apr 25 08:07:45 CEST 2018   EN: 3.040 GM2: 0.461  GM3:-0.0640  RAES: 1.90
     2s    -16.686243    2.339881
     2p    -12.523956    2.014332
  8     Wed Apr 25 08:07:45 CEST 2018   EN: 3.440 GM2: 0.452  GM3:-0.0517  RAES: 1.80
     2s    -20.229985    2.439742
     2p    -15.503117    2.137023
 16     Tue Apr 24 11:44:34 CEST 2018   EN: 2.580 GM2: 0.340  GM3:-0.0502  RAES: 3.10
     3s    -20.029654    1.981333
     3p    -11.377694    2.025643
     3d     -0.420282    1.702555
 no old-style atom pair restraining (fixing) potential

molecular fragmentation (1/2 indicates fragments):
111111111111111111111111111111111111111111111111111111111111111111111111
111111111111111111111111111111111111111111111111111122222222222222222221
111111111111111111111111111111111111111111111111111111111111111111111111
111111111111111111111111111111111111111111111111111111111111111111111111
111111111111111111111111111111111111111111111111111111111111111111111111
111111111111111111111111111111111111111111111111111111111111111111111111
111111111111111111111111111112222222222222222222222222222222222222222222
222222222222222222222222222222222222222222222222222222222222222222211221
111222222222
# atoms in fragment 1/2:   448   140
 fragment masses (1/2) :     3169.92      905.18
CMA distance (Bohr)    :  11.726
constraining FC (au)   :  0.0500
           ------------------------------------------------- 
          |        Self-Consistent Charge Iterations        |
           ------------------------------------------------- 

 Ncao       : 1464
 Nao        : 1457
 Nshell     : 873
 Nel        : 1572
 T(el)      :   500.0
 intcut     :    35.0
 scfconv/Eh :  0.100E-06
   qconv/e  :  0.100E-04
 intneglect :  0.100E-08
 broydamp   :      0.400
 iter      E             dE          RMSdq      gap      omega  full diag
   1   -899.8092214 -0.899809E+03  0.469E+00    2.22       0.0  T
   2   -901.7122588 -0.190304E+01  0.226E+00    1.18       1.0  T
   3   -901.8064906 -0.942317E-01  0.126E+00    1.33       1.0  T
   4   -901.9668688 -0.160378E+00  0.318E-01    0.48       1.0  T
   5   -901.9764389 -0.957009E-02  0.161E-01    0.78       1.0  T
   6   -901.9789627 -0.252377E-02  0.847E-02    0.75       1.0  T
   7   -901.9799734 -0.101071E-02  0.480E-02    0.77       1.0  T
   8   -901.9801446 -0.171196E-03  0.289E-02    0.78       1.0  T
   9   -901.9802401 -0.954627E-04  0.163E-02    0.77       1.0  T
  10   -901.9802608 -0.206788E-04  0.928E-03    0.78       1.0  T
  11   -901.9802679 -0.717123E-05  0.461E-03    0.78       1.0  T
  12   -901.9802702 -0.229362E-05  0.210E-03    0.78       2.0  T
  13   -901.9802707 -0.468099E-06  0.942E-04    0.78       4.4  T
  14   -901.9802708 -0.817101E-07  0.428E-04    0.77       9.6  T
  15   -901.9802708 -0.219901E-07  0.187E-04    0.77      22.0  T
  16   -901.9802708 -0.339992E-08  0.913E-05    0.77      45.2  T
  17   -901.9802708 -0.662340E-09  0.430E-05    0.77      96.0  T
speedup  1.98
cpu  time for SCC   56.36 s
wall time for SCC   28.50 s

   *** convergence criteria satisfied after 17 iterations ***

          eigenvalues
 #    :         774        775        776        777        778        779        780        781
 occ. :        2.000      2.000      2.000      2.000      2.000      2.000      2.000      2.000
 eps  :       -10.365    -10.226    -10.152    -10.100    -10.084    -10.045     -9.991     -9.916
 #    :         782        783        784        785        786        787        788        789
 occ. :        2.000      2.000      2.000      2.000      2.000      0.000      0.000      0.000
 eps  :        -9.882     -9.872     -9.842     -9.823     -9.647     -8.872     -8.492     -8.307
 #    :         790        791        792        793        794        795        796        797
 occ. :        0.000      0.000      0.000      0.000      0.000      0.000      0.000      0.000
 eps  :        -8.001     -7.945     -7.893     -7.797     -7.691     -7.591     -7.521     -7.364


   #   Z            q   n(s)   n(p)   n(d)      C6AA      α(0)
   1   7 N     -0.407  1.292  4.115  0.000    30.577     8.213
   2   6 C      0.008  1.040  2.951  0.000    20.450     6.440
   3   6 C      0.234  1.061  2.706  0.000    23.103     7.871
   4   8 O     -0.469  1.749  4.720  0.000    23.110     6.445
   5   6 C     -0.105  1.009  3.096  0.000    22.479     6.747
   6   6 C      0.048  1.066  2.886  0.000    26.796     8.482
   7   7 N     -0.314  1.467  3.847  0.000    28.932     7.977
   8   6 C     -0.042  1.038  3.004  0.000    28.970     8.826
   9   6 C      0.075  1.035  2.890  0.000    26.271     8.406
  10   7 N     -0.108  1.206  3.902  0.000    23.356     7.178
  11   1 H      0.187  0.813  0.000  0.000     1.174     1.697
  12   1 H      0.077  0.923  0.000  0.000     2.014     2.219
  13   1 H      0.089  0.911  0.000  0.000     1.891     2.150
  14   1 H      0.103  0.897  0.000  0.000     1.755     2.072
  15   1 H      0.069  0.931  0.000  0.000     2.097     2.265
  16   1 H      0.052  0.948  0.000  0.000     2.294     2.368
  17   1 H      0.191  0.809  0.000  0.000     1.152     1.681
  18   7 N     -0.210  1.209  4.001  0.000    25.576     7.511
  19   6 C     -0.014  1.051  2.964  0.000    20.832     6.499
  20   6 C      0.265  1.040  2.695  0.000    22.531     7.773
  21   8 O     -0.484  1.758  4.726  0.000    23.441     6.491
  22   6 C      0.058  0.995  2.947  0.000    19.773     6.361
  23   8 O     -0.491  1.687  4.804  0.000    22.704     6.432
  24   1 H      0.221  0.779  0.000  0.000     1.005     1.570
  25   1 H      0.116  0.884  0.000  0.000     1.645     2.006
  26   1 H      0.068  0.932  0.000  0.000     2.108     2.270
  27   1 H      0.087  0.913  0.000  0.000     1.909     2.160
  28   1 H      0.351  0.649  0.000  0.000     0.584     1.200
  29   7 N     -0.179  1.196  3.983  0.000    24.883     7.409
  30   6 C     -0.014  1.050  2.965  0.000    20.823     6.495
  31   6 C      0.258  1.049  2.693  0.000    22.664     7.796
  32   8 O     -0.497  1.772  4.725  0.000    23.726     6.531
  33   6 C     -0.060  1.036  3.024  0.000    21.616     6.611
  34   6 C     -0.168  0.980  3.188  0.000    23.798     6.951
  35   6 C     -0.174  0.980  3.195  0.000    23.915     6.966
  36   1 H      0.214  0.786  0.000  0.000     1.036     1.594
  37   1 H      0.111  0.889  0.000  0.000     1.690     2.033
  38   1 H      0.054  0.946  0.000  0.000     2.274     2.358
  39   1 H      0.097  0.903  0.000  0.000     1.813     2.105
  40   1 H      0.057  0.943  0.000  0.000     2.229     2.335
  41   1 H      0.069  0.931  0.000  0.000     2.095     2.263
  42   1 H      0.098  0.902  0.000  0.000     1.802     2.099
  43   1 H      0.073  0.927  0.000  0.000     2.048     2.238
  44   1 H      0.069  0.931  0.000  0.000     2.098     2.265
  45   7 N     -0.191  1.202  3.988  0.000    25.135     7.446
  46   6 C     -0.012  1.046  2.966  0.000    20.780     6.487
  47   6 C      0.274  1.040  2.686  0.000    22.366     7.746
  48   8 O     -0.510  1.766  4.745  0.000    24.017     6.571
  49   6 C     -0.054  1.028  3.026  0.000    21.495     6.591
  50   6 C     -0.171  0.978  3.193  0.000    23.838     6.955
  51   6 C     -0.182  0.977  3.205  0.000    24.088     6.992
  52   1 H      0.219  0.781  0.000  0.000     1.012     1.576
  53   1 H      0.101  0.899  0.000  0.000     1.772     2.081
  54   1 H      0.082  0.918  0.000  0.000     1.953     2.185
  55   1 H      0.092  0.908  0.000  0.000     1.861     2.133
  56   1 H      0.050  0.950  0.000  0.000     2.317     2.380
  57   1 H      0.072  0.928  0.000  0.000     2.059     2.244
  58   1 H      0.102  0.898  0.000  0.000     1.763     2.076
  59   1 H      0.089  0.911  0.000  0.000     1.890     2.150
  60   1 H      0.057  0.943  0.000  0.000     2.231     2.336
  61   7 N     -0.200  1.212  3.988  0.000    25.339     7.476
  62   6 C      0.003  1.042  2.955  0.000    20.533     6.452
  63   6 C      0.270  1.044  2.686  0.000    22.444     7.759
  64   8 O     -0.522  1.775  4.747  0.000    24.271     6.605
  65   6 C     -0.110  1.011  3.099  0.000    22.577     6.762
  66   6 C     -0.106  1.019  3.087  0.000    22.523     6.757
  67   6 C     -0.121  1.021  3.100  0.000    22.820     6.801
  68   6 C     -0.079  1.018  3.061  0.000    22.087     6.706
  69   7 N     -0.136  1.141  3.995  0.000    23.934     7.266
  70   1 H      0.248  0.752  0.000  0.000     0.892     1.479
  71   1 H      0.093  0.907  0.000  0.000     1.852     2.128
  72   1 H      0.089  0.911  0.000  0.000     1.892     2.151
  73   1 H      0.078  0.922  0.000  0.000     2.000     2.211
  74   1 H      0.075  0.925  0.000  0.000     2.032     2.229
  75   1 H      0.089  0.911  0.000  0.000     1.885     2.147
  76   1 H      0.092  0.908  0.000  0.000     1.855     2.129
  77   1 H      0.092  0.908  0.000  0.000     1.858     2.131
  78   1 H      0.125  0.875  0.000  0.000     1.573     1.961
  79   1 H      0.134  0.866  0.000  0.000     1.506     1.919
  80   1 H      0.292  0.708  0.000  0.000     0.739     1.346
  81   1 H      0.290  0.710  0.000  0.000     0.744     1.351
  82   1 H      0.290  0.710  0.000  0.000     0.744     1.351
  83   7 N     -0.180  1.210  3.970  0.000    24.902     7.411
  84   6 C      0.010  1.040  2.950  0.000    20.390     6.426
  85   6 C      0.284  1.036  2.679  0.000    22.184     7.714
  86   8 O     -0.531  1.771  4.759  0.000    24.470     6.632
  87   6 C     -0.102  1.014  3.088  0.000    22.435     6.741
  88   6 C     -0.111  1.019  3.092  0.000    22.606     6.768
  89   6 C     -0.114  1.019  3.096  0.000    22.685     6.781
  90   6 C     -0.078  1.021  3.058  0.000    22.080     6.705
  91   7 N     -0.142  1.143  3.999  0.000    24.068     7.286
  92   1 H      0.236  0.764  0.000  0.000     0.938     1.517
  93   1 H      0.097  0.903  0.000  0.000     1.810     2.104
  94   1 H      0.101  0.899  0.000  0.000     1.778     2.085
  95   1 H      0.060  0.940  0.000  0.000     2.201     2.320
  96   1 H      0.094  0.906  0.000  0.000     1.840     2.121
  97   1 H      0.092  0.908  0.000  0.000     1.859     2.132
  98   1 H      0.079  0.921  0.000  0.000     1.988     2.205
  99   1 H      0.069  0.931  0.000  0.000     2.096     2.264
 100   1 H      0.135  0.865  0.000  0.000     1.493     1.911
 101   1 H      0.140  0.860  0.000  0.000     1.459     1.889
 102   1 H      0.298  0.702  0.000  0.000     0.718     1.327
 103   1 H      0.292  0.708  0.000  0.000     0.738     1.345
 104   1 H      0.281  0.719  0.000  0.000     0.774     1.378
 105   7 N     -0.216  1.218  3.998  0.000    25.712     7.531
 106   6 C      0.043  1.030  2.928  0.000    19.782     6.318
 107   6 C      0.272  1.039  2.689  0.000    22.410     7.754
 108   8 O     -0.510  1.747  4.763  0.000    24.002     6.569
 109   6 C     -0.022  1.003  3.019  0.000    20.946     6.513
 110  16 S     -0.144  1.918  4.120  0.106   147.120    20.414
 111   1 H      0.260  0.740  0.000  0.000     0.846     1.441
 112   1 H      0.061  0.939  0.000  0.000     2.188     2.313
 113   1 H      0.080  0.920  0.000  0.000     1.982     2.201
 114   1 H      0.087  0.913  0.000  0.000     1.912     2.162
 115   7 N     -0.162  1.201  3.962  0.000    24.512     7.353
 116   6 C      0.034  1.026  2.940  0.000    19.978     6.360
 117   6 C      0.203  1.086  2.711  0.000    23.688     7.971
 118   8 O     -0.369  1.759  4.611  0.000    21.076     6.155
 119   6 C     -0.067  1.044  3.022  0.000    21.772     6.643
 120  16 S     -0.097  1.940  4.067  0.090   145.102    20.274
 121   1 H      0.228  0.772  0.000  0.000     0.976     1.547
 122   1 H      0.101  0.899  0.000  0.000     1.779     2.085
 123   1 H      0.134  0.866  0.000  0.000     1.503     1.917
 124   1 H      0.110  0.890  0.000  0.000     1.699     2.038
 125   7 N     -0.414  1.269  4.146  0.000    30.777     8.239
 126   6 C      0.039  1.031  2.931  0.000    19.934     6.358
 127   6 C      0.259  1.055  2.686  0.000    22.645     7.793
 128   8 O     -0.501  1.743  4.758  0.000    23.817     6.543
 129   6 C     -0.106  1.015  3.091  0.000    22.518     6.754
 130   6 C      0.371  1.022  2.607  0.000    20.704     7.447
 131   8 O     -0.643  1.768  4.875  0.000    27.201     6.993
 132   8 O     -0.657  1.772  4.885  0.000    27.566     7.039
 133   1 H      0.175  0.825  0.000  0.000     1.242     1.746
 134   1 H      0.049  0.951  0.000  0.000     2.334     2.389
 135   1 H      0.039  0.961  0.000  0.000     2.455     2.450
 136   1 H      0.044  0.956  0.000  0.000     2.393     2.419
 137   7 N     -0.159  1.197  3.962  0.000    24.449     7.344
 138   6 C     -0.030  1.004  3.026  0.000    21.162     6.559
 139   6 C      0.205  1.084  2.711  0.000    23.653     7.964
 140   8 O     -0.367  1.749  4.618  0.000    21.036     6.149
 141   1 H      0.209  0.791  0.000  0.000     1.062     1.615
 142   1 H      0.123  0.877  0.000  0.000     1.591     1.973
 143   1 H      0.117  0.883  0.000  0.000     1.638     2.001
 144   7 N     -0.399  1.271  4.129  0.000    30.350     8.182
 145   6 C      0.015  1.034  2.951  0.000    20.339     6.422
 146   6 C      0.190  1.094  2.716  0.000    23.929     8.011
 147   8 O     -0.339  1.735  4.605  0.000    20.507     6.071
 148   6 C     -0.079  1.056  3.023  0.000    22.027     6.684
 149  16 S     -0.091  1.936  4.060  0.096   144.852    20.257
 150   1 H      0.188  0.812  0.000  0.000     1.170     1.694
 151   1 H      0.090  0.910  0.000  0.000     1.875     2.141
 152   1 H      0.112  0.888  0.000  0.000     1.681     2.027
 153   1 H      0.092  0.908  0.000  0.000     1.863     2.134
 154   7 N     -0.416  1.284  4.131  0.000    30.819     8.245
 155   6 C      0.005  1.043  2.952  0.000    20.511     6.450
 156   6 C      0.251  1.052  2.696  0.000    22.777     7.816
 157   8 O     -0.518  1.754  4.764  0.000    24.192     6.594
 158   6 C     -0.111  1.007  3.104  0.000    22.598     6.765
 159   6 C     -0.107  1.010  3.096  0.000    22.527     6.756
 160   6 C     -0.055  1.023  3.032  0.000    21.646     6.638
 161   7 N     -0.149  1.178  3.971  0.000    24.222     7.310
 162   6 C      0.218  1.024  2.758  0.000    23.390     7.918
 163   7 N     -0.248  1.167  4.081  0.000    26.462     7.640
 164   7 N     -0.255  1.170  4.085  0.000    26.634     7.665
 165   1 H      0.187  0.813  0.000  0.000     1.173     1.696
 166   1 H      0.067  0.933  0.000  0.000     2.123     2.278
 167   1 H      0.080  0.920  0.000  0.000     1.977     2.199
 168   1 H      0.066  0.934  0.000  0.000     2.127     2.280
 169   1 H      0.089  0.911  0.000  0.000     1.892     2.151
 170   1 H      0.095  0.905  0.000  0.000     1.834     2.118
 171   1 H      0.105  0.895  0.000  0.000     1.744     2.065
 172   1 H      0.097  0.903  0.000  0.000     1.808     2.103
 173   1 H      0.233  0.767  0.000  0.000     0.950     1.527
 174   1 H      0.256  0.744  0.000  0.000     0.859     1.452
 175   1 H      0.237  0.763  0.000  0.000     0.937     1.516
 176   1 H      0.242  0.758  0.000  0.000     0.914     1.498
 177   1 H      0.234  0.766  0.000  0.000     0.949     1.526
 178   7 N     -0.186  1.213  3.973  0.000    25.028     7.430
 179   6 C      0.004  1.038  2.958  0.000    20.513     6.447
 180   6 C      0.262  1.049  2.688  0.000    22.577     7.781
 181   8 O     -0.479  1.751  4.728  0.000    23.320     6.475
 182   6 C     -0.166  0.986  3.180  0.000    23.758     6.945
 183   1 H      0.245  0.755  0.000  0.000     0.904     1.489
 184   1 H      0.101  0.899  0.000  0.000     1.771     2.081
 185   1 H      0.098  0.902  0.000  0.000     1.799     2.097
 186   1 H      0.083  0.917  0.000  0.000     1.949     2.183
 187   1 H      0.083  0.917  0.000  0.000     1.947     2.182
 188   7 N     -0.199  1.210  3.989  0.000    25.316     7.473
 189   6 C      0.008  1.042  2.950  0.000    20.442     6.438
 190   6 C      0.266  1.049  2.685  0.000    22.507     7.768
 191   8 O     -0.494  1.770  4.723  0.000    23.648     6.520
 192   6 C     -0.169  0.984  3.185  0.000    23.818     6.955
 193   1 H      0.221  0.779  0.000  0.000     1.004     1.570
 194   1 H      0.108  0.892  0.000  0.000     1.715     2.048
 195   1 H      0.079  0.921  0.000  0.000     1.993     2.207
 196   1 H      0.096  0.904  0.000  0.000     1.823     2.111
 197   1 H      0.078  0.922  0.000  0.000     2.003     2.213
 198   7 N     -0.203  1.209  3.994  0.000    25.413     7.487
 199   6 C      0.012  1.042  2.946  0.000    20.382     6.429
 200   6 C      0.275  1.045  2.680  0.000    22.348     7.741
 201   8 O     -0.517  1.761  4.756  0.000    24.171     6.592
 202   6 C     -0.102  1.010  3.092  0.000    22.423     6.739
 203   6 C     -0.115  1.015  3.100  0.000    22.689     6.779
 204   6 C     -0.046  1.015  3.030  0.000    21.457     6.606
 205   7 N     -0.145  1.175  3.969  0.000    24.128     7.295
 206   6 C      0.221  1.022  2.756  0.000    23.332     7.909
 207   7 N     -0.255  1.169  4.086  0.000    26.623     7.663
 208   7 N     -0.268  1.177  4.091  0.000    26.942     7.709
 209   1 H      0.225  0.775  0.000  0.000     0.987     1.556
 210   1 H      0.091  0.909  0.000  0.000     1.867     2.137
 211   1 H      0.085  0.915  0.000  0.000     1.928     2.171
 212   1 H      0.084  0.916  0.000  0.000     1.941     2.179
 213   1 H      0.088  0.912  0.000  0.000     1.896     2.153
 214   1 H      0.083  0.917  0.000  0.000     1.946     2.181
 215   1 H      0.109  0.891  0.000  0.000     1.709     2.044
 216   1 H      0.096  0.904  0.000  0.000     1.818     2.108
 217   1 H      0.238  0.762  0.000  0.000     0.931     1.511
 218   1 H      0.250  0.750  0.000  0.000     0.885     1.473
 219   1 H      0.251  0.749  0.000  0.000     0.877     1.467
 220   1 H      0.259  0.741  0.000  0.000     0.850     1.444
 221   1 H      0.253  0.747  0.000  0.000     0.872     1.463
 222   7 N     -0.171  1.202  3.970  0.000    24.707     7.382
 223   6 C      0.011  1.039  2.950  0.000    20.386     6.428
 224   6 C      0.273  1.048  2.679  0.000    22.385     7.748
 225   8 O     -0.491  1.769  4.722  0.000    23.591     6.512
 226   6 C     -0.048  1.050  2.998  0.000    21.394     6.578
 227   6 C     -0.092  1.005  3.087  0.000    22.247     6.713
 228   6 C     -0.167  0.985  3.182  0.000    23.794     6.954
 229   6 C     -0.157  0.976  3.181  0.000    23.569     6.919
 230   1 H      0.218  0.782  0.000  0.000     1.016     1.579
 231   1 H      0.077  0.923  0.000  0.000     2.011     2.218
 232   1 H      0.086  0.914  0.000  0.000     1.913     2.163
 233   1 H      0.051  0.949  0.000  0.000     2.302     2.372
 234   1 H      0.057  0.943  0.000  0.000     2.234     2.337
 235   1 H      0.096  0.904  0.000  0.000     1.819     2.109
 236   1 H      0.054  0.946  0.000  0.000     2.268     2.355
 237   1 H      0.056  0.944  0.000  0.000     2.244     2.343
 238   1 H      0.054  0.946  0.000  0.000     2.276     2.359
 239   1 H      0.073  0.927  0.000  0.000     2.054     2.241
 240   1 H      0.061  0.939  0.000  0.000     2.182     2.310
 241   7 N     -0.196  1.211  3.986  0.000    25.263     7.465
 242   6 C      0.004  1.041  2.955  0.000    20.519     6.450
 243   6 C      0.272  1.041  2.687  0.000    22.409     7.752
 244   8 O     -0.499  1.762  4.737  0.000    23.761     6.535
 245   6 C      0.066  0.996  2.938  0.000    19.638     6.341
 246   8 O     -0.492  1.665  4.827  0.000    22.720     6.435
 247   1 H      0.222  0.778  0.000  0.000     1.000     1.566
 248   1 H      0.102  0.898  0.000  0.000     1.764     2.077
 249   1 H      0.063  0.937  0.000  0.000     2.160     2.298
 250   1 H      0.054  0.946  0.000  0.000     2.275     2.358
 251   1 H      0.343  0.657  0.000  0.000     0.604     1.220
 252   7 N     -0.184  1.199  3.984  0.000    24.980     7.423
 253   6 C      0.003  1.041  2.955  0.000    20.524     6.450
 254   6 C      0.263  1.045  2.692  0.000    22.561     7.778
 255   8 O     -0.467  1.746  4.720  0.000    23.062     6.439
 256   6 C     -0.110  1.016  3.094  0.000    22.591     6.764
 257   6 C     -0.038  1.041  2.997  0.000    21.220     6.552
 258   6 C     -0.163  0.987  3.175  0.000    23.707     6.940
 259   6 C     -0.156  0.977  3.178  0.000    23.550     6.916
 260   1 H      0.215  0.785  0.000  0.000     1.030     1.590
 261   1 H      0.104  0.896  0.000  0.000     1.751     2.069
 262   1 H      0.074  0.926  0.000  0.000     2.040     2.233
 263   1 H      0.104  0.896  0.000  0.000     1.744     2.065
 264   1 H      0.051  0.949  0.000  0.000     2.304     2.373
 265   1 H      0.050  0.950  0.000  0.000     2.315     2.379
 266   1 H      0.065  0.935  0.000  0.000     2.141     2.288
 267   1 H      0.065  0.935  0.000  0.000     2.143     2.289
 268   1 H      0.047  0.953  0.000  0.000     2.361     2.403
 269   1 H      0.049  0.951  0.000  0.000     2.332     2.388
 270   1 H      0.056  0.944  0.000  0.000     2.248     2.344
 271   7 N     -0.180  1.197  3.983  0.000    24.903     7.412
 272   6 C     -0.051  1.007  3.044  0.000    21.544     6.619
 273   6 C      0.268  1.040  2.692  0.000    22.468     7.762
 274   8 O     -0.460  1.744  4.716  0.000    22.907     6.417
 275   1 H      0.203  0.797  0.000  0.000     1.093     1.637
 276   1 H      0.106  0.894  0.000  0.000     1.727     2.055
 277   1 H      0.100  0.900  0.000  0.000     1.786     2.090
 278   7 N     -0.125  1.232  3.893  0.000    23.704     7.231
 279   6 C     -0.022  1.058  2.964  0.000    20.942     6.511
 280   6 C      0.253  1.045  2.702  0.000    22.750     7.810
 281   8 O     -0.494  1.762  4.732  0.000    23.639     6.519
 282   6 C     -0.117  1.015  3.103  0.000    22.706     6.778
 283   6 C     -0.105  1.003  3.102  0.000    22.456     6.739
 284   6 C     -0.032  1.015  3.017  0.000    21.179     6.557
 285   1 H      0.120  0.880  0.000  0.000     1.615     1.987
 286   1 H      0.090  0.910  0.000  0.000     1.883     2.146
 287   1 H      0.115  0.885  0.000  0.000     1.656     2.012
 288   1 H      0.088  0.912  0.000  0.000     1.903     2.157
 289   1 H      0.095  0.905  0.000  0.000     1.830     2.115
 290   1 H      0.071  0.929  0.000  0.000     2.076     2.253
 291   1 H      0.077  0.923  0.000  0.000     2.006     2.215
 292   7 N     -0.169  1.204  3.964  0.000    24.649     7.374
 293   6 C     -0.021  1.048  2.972  0.000    20.947     6.517
 294   6 C      0.268  1.036  2.696  0.000    22.472     7.763
 295   8 O     -0.466  1.738  4.728  0.000    23.046     6.436
 296   6 C     -0.131  1.029  3.103  0.000    23.015     6.830
 297   6 C     -0.124  1.028  3.095  0.000    22.869     6.809
 298   6 C     -0.063  1.028  3.035  0.000    21.798     6.662
 299   7 N     -0.154  1.186  3.968  0.000    24.330     7.326
 300   6 C      0.210  1.021  2.769  0.000    23.549     7.945
 301   7 N     -0.239  1.170  4.069  0.000    26.247     7.609
 302   7 N     -0.253  1.150  4.102  0.000    26.569     7.655
 303   1 H      0.236  0.764  0.000  0.000     0.940     1.519
 304   1 H      0.135  0.865  0.000  0.000     1.497     1.913
 305   1 H      0.102  0.898  0.000  0.000     1.763     2.076
 306   1 H      0.081  0.919  0.000  0.000     1.966     2.192
 307   1 H      0.108  0.892  0.000  0.000     1.716     2.048
 308   1 H      0.117  0.883  0.000  0.000     1.636     2.000
 309   1 H      0.115  0.885  0.000  0.000     1.650     2.009
 310   1 H      0.118  0.882  0.000  0.000     1.625     1.993
 311   1 H      0.228  0.772  0.000  0.000     0.975     1.547
 312   1 H      0.263  0.737  0.000  0.000     0.833     1.430
 313   1 H      0.255  0.745  0.000  0.000     0.864     1.456
 314   1 H      0.204  0.796  0.000  0.000     1.087     1.633
 315   1 H      0.230  0.770  0.000  0.000     0.963     1.537
 316   7 N     -0.182  1.201  3.981  0.000    24.951     7.419
 317   6 C      0.000  1.042  2.958  0.000    20.517     6.437
 318   6 C      0.268  1.045  2.687  0.000    22.482     7.766
 319   8 O     -0.509  1.754  4.755  0.000    23.988     6.567
 320   6 C     -0.067  1.024  3.042  0.000    21.762     6.638
 321  16 S     -0.070  1.922  4.073  0.075   143.964    20.194
 322   1 H      0.228  0.772  0.000  0.000     0.973     1.545
 323   1 H      0.089  0.911  0.000  0.000     1.883     2.146
 324   1 H      0.113  0.887  0.000  0.000     1.673     2.022
 325   1 H      0.120  0.880  0.000  0.000     1.612     1.985
 326   7 N     -0.162  1.214  3.948  0.000    24.512     7.353
 327   6 C     -0.002  1.044  2.958  0.000    20.617     6.464
 328   6 C      0.274  1.043  2.683  0.000    22.376     7.746
 329   8 O     -0.523  1.756  4.768  0.000    24.308     6.610
 330   6 C     -0.067  1.051  3.015  0.000    21.741     6.631
 331   6 C     -0.101  1.007  3.094  0.000    22.411     6.737
 332   6 C     -0.170  0.985  3.184  0.000    23.834     6.957
 333   6 C     -0.166  0.979  3.187  0.000    23.772     6.949
 334   1 H      0.251  0.749  0.000  0.000     0.881     1.470
 335   1 H      0.088  0.912  0.000  0.000     1.899     2.155
 336   1 H      0.100  0.900  0.000  0.000     1.787     2.091
 337   1 H      0.060  0.940  0.000  0.000     2.200     2.319
 338   1 H      0.049  0.951  0.000  0.000     2.334     2.389
 339   1 H      0.086  0.914  0.000  0.000     1.917     2.165
 340   1 H      0.071  0.929  0.000  0.000     2.071     2.250
 341   1 H      0.062  0.938  0.000  0.000     2.174     2.306
 342   1 H      0.046  0.954  0.000  0.000     2.367     2.406
 343   1 H      0.074  0.926  0.000  0.000     2.043     2.235
 344   1 H      0.072  0.928  0.000  0.000     2.067     2.248
 345   7 N     -0.180  1.212  3.968  0.000    24.892     7.410
 346   6 C     -0.008  1.041  2.967  0.000    20.716     6.479
 347   6 C      0.272  1.037  2.691  0.000    22.410     7.752
 348   8 O     -0.525  1.761  4.764  0.000    24.345     6.615
 349   6 C     -0.124  1.012  3.112  0.000    22.841     6.800
 350   6 C     -0.116  1.003  3.113  0.000    22.704     6.781
 351   6 C     -0.134  1.012  3.122  0.000    23.047     6.831
 352   6 C     -0.081  1.026  3.055  0.000    22.126     6.711
 353   7 N     -0.149  1.148  4.001  0.000    24.219     7.309
 354   1 H      0.261  0.739  0.000  0.000     0.842     1.437
 355   1 H      0.099  0.901  0.000  0.000     1.795     2.095
 356   1 H      0.088  0.912  0.000  0.000     1.898     2.154
 357   1 H      0.091  0.909  0.000  0.000     1.869     2.137
 358   1 H      0.097  0.903  0.000  0.000     1.811     2.104
 359   1 H      0.087  0.913  0.000  0.000     1.911     2.162
 360   1 H      0.107  0.893  0.000  0.000     1.726     2.054
 361   1 H      0.098  0.902  0.000  0.000     1.806     2.101
 362   1 H      0.135  0.865  0.000  0.000     1.496     1.913
 363   1 H      0.139  0.861  0.000  0.000     1.468     1.895
 364   1 H      0.290  0.710  0.000  0.000     0.743     1.350
 365   1 H      0.296  0.704  0.000  0.000     0.725     1.333
 366   1 H      0.285  0.715  0.000  0.000     0.760     1.366
 367   7 N     -0.186  1.206  3.980  0.000    25.022     7.429
 368   6 C      0.004  1.036  2.960  0.000    20.514     6.449
 369   6 C      0.271  1.046  2.684  0.000    22.423     7.754
 370   8 O     -0.543  1.778  4.765  0.000    24.757     6.671
 371   6 C     -0.178  0.987  3.190  0.000    24.001     6.981
 372   1 H      0.260  0.740  0.000  0.000     0.847     1.441
 373   1 H      0.092  0.908  0.000  0.000     1.859     2.132
 374   1 H      0.058  0.942  0.000  0.000     2.219     2.329
 375   1 H      0.125  0.875  0.000  0.000     1.570     1.960
 376   1 H      0.086  0.914  0.000  0.000     1.921     2.167
 377   7 N     -0.204  1.225  3.979  0.000    25.433     7.490
 378   6 C      0.017  1.042  2.941  0.000    20.295     6.415
 379   6 C      0.278  1.050  2.672  0.000    22.290     7.731
 380   8 O     -0.534  1.768  4.766  0.000    24.546     6.643
 381   6 C     -0.102  1.016  3.086  0.000    22.424     6.740
 382   6 C     -0.008  1.095  2.913  0.000    28.219     8.714
 383   6 C     -0.054  1.054  3.000  0.000    29.336     8.882
 384   6 C     -0.062  1.049  3.013  0.000    29.553     8.915
 385   6 C     -0.057  1.061  2.996  0.000    29.419     8.894
 386   6 C     -0.056  1.053  3.003  0.000    29.391     8.890
 387   6 C     -0.073  1.071  3.002  0.000    29.815     8.955
 388   1 H      0.261  0.739  0.000  0.000     0.842     1.437
 389   1 H      0.090  0.910  0.000  0.000     1.881     2.144
 390   1 H      0.077  0.923  0.000  0.000     2.011     2.217
 391   1 H      0.097  0.903  0.000  0.000     1.808     2.103
 392   1 H      0.037  0.963  0.000  0.000     2.492     2.468
 393   1 H      0.077  0.923  0.000  0.000     2.010     2.217
 394   1 H      0.038  0.962  0.000  0.000     2.469     2.457
 395   1 H      0.089  0.911  0.000  0.000     1.890     2.150
 396   1 H      0.070  0.930  0.000  0.000     2.084     2.257
 397   7 N     -0.185  1.212  3.973  0.000    25.007     7.427
 398   6 C      0.001  1.039  2.960  0.000    20.554     6.454
 399   6 C      0.274  1.044  2.683  0.000    22.375     7.746
 400   8 O     -0.514  1.755  4.759  0.000    24.090     6.581
 401   6 C      0.089  1.026  2.885  0.000    19.187     6.251
 402   8 O     -0.461  1.663  4.798  0.000    22.065     6.341
 403   6 C     -0.172  0.981  3.191  0.000    23.879     6.964
 404   1 H      0.250  0.750  0.000  0.000     0.882     1.471
 405   1 H      0.094  0.906  0.000  0.000     1.836     2.119
 406   1 H      0.070  0.930  0.000  0.000     2.088     2.259
 407   1 H      0.336  0.664  0.000  0.000     0.622     1.239
 408   1 H      0.105  0.895  0.000  0.000     1.744     2.065
 409   1 H      0.052  0.948  0.000  0.000     2.291     2.367
 410   1 H      0.081  0.919  0.000  0.000     1.971     2.196
 411   7 N     -0.200  1.218  3.982  0.000    25.346     7.477
 412   6 C      0.013  1.034  2.953  0.000    20.353     6.423
 413   6 C      0.291  1.033  2.676  0.000    22.066     7.693
 414   8 O     -0.519  1.763  4.756  0.000    24.212     6.597
 415   6 C     -0.092  1.007  3.085  0.000    22.231     6.709
 416   6 C     -0.113  1.007  3.106  0.000    22.658     6.775
 417   6 C      0.358  1.029  2.614  0.000    20.931     7.487
 418   8 O     -0.624  1.750  4.874  0.000    26.720     6.930
 419   8 O     -0.632  1.776  4.855  0.000    26.910     6.955
 420   1 H      0.247  0.753  0.000  0.000     0.895     1.482
 421   1 H      0.080  0.920  0.000  0.000     1.976     2.198
 422   1 H      0.099  0.901  0.000  0.000     1.793     2.094
 423   1 H      0.072  0.928  0.000  0.000     2.066     2.247
 424   1 H      0.031  0.969  0.000  0.000     2.577     2.510
 425   1 H      0.023  0.977  0.000  0.000     2.689     2.564
 426   7 N     -0.197  1.205  3.991  0.000    25.272     7.466
 427   6 C      0.033  1.033  2.934  0.000    19.986     6.360
 428   6 C      0.267  1.051  2.682  0.000    22.494     7.767
 429   8 O     -0.529  1.777  4.753  0.000    24.445     6.629
 430   6 C     -0.020  1.007  3.013  0.000    20.905     6.506
 431  16 S     -0.062  1.893  4.081  0.088   143.635    20.171
 432   1 H      0.229  0.771  0.000  0.000     0.969     1.542
 433   1 H      0.072  0.928  0.000  0.000     2.059     2.244
 434   1 H      0.061  0.939  0.000  0.000     2.191     2.315
 435   1 H      0.052  0.948  0.000  0.000     2.298     2.370
 436   7 N     -0.191  1.220  3.971  0.000    25.149     7.448
 437   6 C      0.042  1.025  2.934  0.000    19.838     6.335
 438   6 C      0.277  1.043  2.680  0.000    22.307     7.734
 439   8 O     -0.516  1.770  4.745  0.000    24.137     6.587
 440   6 C     -0.040  1.021  3.019  0.000    21.274     6.564
 441  16 S     -0.104  1.920  4.067  0.116   145.395    20.295
 442   1 H      0.244  0.756  0.000  0.000     0.908     1.492
 443   1 H      0.082  0.918  0.000  0.000     1.956     2.187
 444   1 H      0.081  0.919  0.000  0.000     1.967     2.193
 445   1 H      0.086  0.914  0.000  0.000     1.921     2.167
 446   7 N     -0.184  1.212  3.972  0.000    24.992     7.425
 447   6 C      0.024  1.036  2.940  0.000    20.158     6.390
 448   6 C      0.212  1.080  2.709  0.000    23.519     7.943
 449   8 O     -0.384  1.767  4.617  0.000    21.358     6.196
 450   6 C     -0.029  1.035  2.994  0.000    21.044     6.524
 451   6 C     -0.149  0.975  3.174  0.000    23.398     6.891
 452   6 C     -0.171  0.986  3.185  0.000    23.871     6.963
 453   1 H      0.236  0.764  0.000  0.000     0.939     1.518
 454   1 H      0.106  0.894  0.000  0.000     1.733     2.058
 455   1 H      0.063  0.937  0.000  0.000     2.166     2.301
 456   1 H      0.082  0.918  0.000  0.000     1.962     2.190
 457   1 H      0.037  0.963  0.000  0.000     2.491     2.468
 458   1 H      0.066  0.934  0.000  0.000     2.127     2.281
 459   1 H      0.088  0.912  0.000  0.000     1.901     2.156
 460   1 H      0.079  0.921  0.000  0.000     1.988     2.205
 461   1 H      0.072  0.928  0.000  0.000     2.063     2.246
 462   7 N     -0.423  1.287  4.136  0.000    31.013     8.271
 463   6 C      0.018  1.038  2.944  0.000    20.283     6.415
 464   6 C      0.197  1.096  2.707  0.000    23.806     7.990
 465   8 O     -0.395  1.774  4.621  0.000    21.577     6.228
 466   6 C     -0.103  1.012  3.092  0.000    22.452     6.743
 467   6 C     -0.101  1.005  3.096  0.000    22.406     6.736
 468   6 C     -0.111  1.003  3.108  0.000    22.595     6.764
 469   6 C     -0.076  1.018  3.058  0.000    22.011     6.690
 470   7 N     -0.137  1.144  3.992  0.000    23.949     7.268
 471   1 H      0.213  0.787  0.000  0.000     1.043     1.600
 472   1 H      0.068  0.932  0.000  0.000     2.108     2.270
 473   1 H      0.063  0.937  0.000  0.000     2.165     2.301
 474   1 H      0.056  0.944  0.000  0.000     2.250     2.345
 475   1 H      0.085  0.915  0.000  0.000     1.929     2.172
 476   1 H      0.084  0.916  0.000  0.000     1.939     2.177
 477   1 H      0.084  0.916  0.000  0.000     1.938     2.177
 478   1 H      0.068  0.932  0.000  0.000     2.110     2.272
 479   1 H      0.134  0.866  0.000  0.000     1.508     1.920
 480   1 H      0.150  0.850  0.000  0.000     1.394     1.846
 481   1 H      0.315  0.685  0.000  0.000     0.671     1.283
 482   1 H      0.279  0.721  0.000  0.000     0.778     1.382
 483   1 H      0.270  0.730  0.000  0.000     0.811     1.411
 484   7 N     -0.123  1.139  3.984  0.000    23.662     7.225
 485   6 C     -0.036  1.063  2.973  0.000    21.244     6.567
 486   6 C      0.187  1.090  2.722  0.000    23.984     8.020
 487   8 O     -0.320  1.787  4.533  0.000    20.150     6.018
 488   6 C     -0.119  1.024  3.096  0.000    22.763     6.789
 489   6 C     -0.045  1.031  3.015  0.000    21.381     6.583
 490  16 S     -0.208  1.893  4.265  0.050   149.918    20.608
 491   6 C     -0.103  0.998  3.105  0.000    22.515     6.765
 492   1 H      0.305  0.695  0.000  0.000     0.697     1.308
 493   1 H      0.292  0.708  0.000  0.000     0.739     1.346
 494   1 H      0.284  0.716  0.000  0.000     0.763     1.368
 495   1 H      0.166  0.834  0.000  0.000     1.290     1.776
 496   1 H      0.113  0.887  0.000  0.000     1.673     2.023
 497   1 H      0.099  0.901  0.000  0.000     1.790     2.092
 498   1 H      0.072  0.928  0.000  0.000     2.059     2.244
 499   1 H      0.071  0.929  0.000  0.000     2.068     2.249
 500   1 H      0.104  0.896  0.000  0.000     1.746     2.066
 501   1 H      0.068  0.932  0.000  0.000     2.108     2.270
 502   1 H      0.074  0.926  0.000  0.000     2.038     2.232
 503   7 N     -0.426  1.293  4.134  0.000    31.117     8.285
 504   6 C      0.015  1.040  2.945  0.000    20.326     6.420
 505   6 C      0.196  1.092  2.712  0.000    23.826     7.994
 506   8 O     -0.380  1.755  4.625  0.000    21.279     6.185
 507   6 C     -0.048  1.045  3.003  0.000    21.402     6.579
 508   6 C     -0.101  1.011  3.090  0.000    22.407     6.737
 509   6 C     -0.161  0.979  3.182  0.000    23.658     6.932
 510   6 C     -0.159  0.979  3.180  0.000    23.622     6.927
 511   1 H      0.191  0.809  0.000  0.000     1.151     1.680
 512   1 H      0.085  0.915  0.000  0.000     1.927     2.170
 513   1 H      0.058  0.942  0.000  0.000     2.223     2.331
 514   1 H      0.074  0.926  0.000  0.000     2.041     2.234
 515   1 H      0.058  0.942  0.000  0.000     2.221     2.330
 516   1 H      0.073  0.927  0.000  0.000     2.056     2.242
 517   1 H      0.042  0.958  0.000  0.000     2.421     2.433
 518   1 H      0.068  0.932  0.000  0.000     2.108     2.270
 519   1 H      0.064  0.936  0.000  0.000     2.156     2.296
 520   1 H      0.044  0.956  0.000  0.000     2.395     2.420
 521   1 H      0.061  0.939  0.000  0.000     2.188     2.313
 522   7 N     -0.429  1.291  4.138  0.000    31.199     8.296
 523   6 C      0.017  1.039  2.944  0.000    20.296     6.416
 524   6 C      0.273  1.048  2.679  0.000    22.393     7.749
 525   8 O     -0.520  1.761  4.759  0.000    24.223     6.599
 526   6 C     -0.052  1.049  3.003  0.000    21.469     6.590
 527   6 C     -0.093  1.007  3.087  0.000    22.272     6.717
 528   6 C     -0.155  0.980  3.175  0.000    23.536     6.914
 529   6 C     -0.173  0.984  3.190  0.000    23.921     6.971
 530   1 H      0.191  0.809  0.000  0.000     1.153     1.682
 531   1 H      0.055  0.945  0.000  0.000     2.258     2.350
 532   1 H      0.067  0.933  0.000  0.000     2.119     2.276
 533   1 H      0.045  0.955  0.000  0.000     2.386     2.416
 534   1 H      0.055  0.945  0.000  0.000     2.260     2.351
 535   1 H      0.083  0.917  0.000  0.000     1.950     2.183
 536   1 H      0.027  0.973  0.000  0.000     2.631     2.536
 537   1 H      0.054  0.946  0.000  0.000     2.268     2.355
 538   1 H      0.087  0.913  0.000  0.000     1.912     2.162
 539   1 H      0.069  0.931  0.000  0.000     2.091     2.261
 540   1 H      0.067  0.933  0.000  0.000     2.117     2.275
 541   7 N     -0.193  1.210  3.983  0.000    25.185     7.453
 542   6 C      0.023  1.032  2.945  0.000    20.189     6.398
 543   6 C      0.199  1.088  2.713  0.000    23.753     7.982
 544   8 O     -0.395  1.773  4.622  0.000    21.580     6.228
 545   6 C     -0.174  0.987  3.187  0.000    23.921     6.969
 546   1 H      0.240  0.760  0.000  0.000     0.921     1.503
 547   1 H      0.092  0.908  0.000  0.000     1.863     2.134
 548   1 H      0.087  0.913  0.000  0.000     1.911     2.161
 549   1 H      0.109  0.891  0.000  0.000     1.701     2.040
 550   1 H      0.092  0.908  0.000  0.000     1.857     2.131
 551   7 N     -0.411  1.277  4.134  0.000    30.678     8.226
 552   6 C      0.035  1.031  2.934  0.000    19.986     6.367
 553   6 C      0.196  1.092  2.712  0.000    23.819     7.993
 554   8 O     -0.402  1.770  4.632  0.000    21.715     6.248
 555   6 C     -0.086  1.009  3.077  0.000    22.117     6.692
 556   6 C     -0.016  1.088  2.927  0.000    28.397     8.741
 557   6 C     -0.061  1.056  3.004  0.000    29.507     8.908
 558   6 C     -0.058  1.057  3.002  0.000    29.450     8.900
 559   6 C     -0.075  1.047  3.027  0.000    29.860     8.961
 560   6 C     -0.092  1.050  3.041  0.000    30.304     9.027
 561   6 C      0.134  1.053  2.813  0.000    25.066     8.206
 562   8 O     -0.445  1.685  4.760  0.000    21.738     6.294
 563   1 H      0.187  0.813  0.000  0.000     1.176     1.699
 564   1 H      0.081  0.919  0.000  0.000     1.963     2.191
 565   1 H      0.072  0.928  0.000  0.000     2.061     2.245
 566   1 H      0.055  0.945  0.000  0.000     2.253     2.347
 567   1 H      0.050  0.950  0.000  0.000     2.318     2.381
 568   1 H      0.067  0.933  0.000  0.000     2.113     2.273
 569   1 H      0.057  0.943  0.000  0.000     2.231     2.335
 570   1 H      0.085  0.915  0.000  0.000     1.924     2.169
 571   1 H      0.359  0.641  0.000  0.000     0.566     1.182
 572   1 H      0.176  0.824  0.000  0.000     1.235     1.740
 573   1 H      0.079  0.921  0.000  0.000     1.986     2.204
 574   1 H      0.178  0.822  0.000  0.000     1.225     1.734
 575   1 H      0.066  0.934  0.000  0.000     2.125     2.280
 576   1 H      0.189  0.811  0.000  0.000     1.163     1.689
 577   1 H      0.096  0.904  0.000  0.000     1.819     2.109
 578   1 H      0.179  0.821  0.000  0.000     1.217     1.728
 579   1 H      0.054  0.946  0.000  0.000     2.272     2.357
 580   1 H      0.189  0.811  0.000  0.000     1.163     1.689
 581   1 H      0.066  0.934  0.000  0.000     2.131     2.283
 582   1 H      0.117  0.883  0.000  0.000     1.639     2.002
 583   1 H      0.194  0.806  0.000  0.000     1.137     1.670
 584   1 H      0.058  0.942  0.000  0.000     2.227     2.333
 585   1 H      0.175  0.825  0.000  0.000     1.242     1.746
 586   1 H      0.073  0.927  0.000  0.000     2.050     2.239
 587   1 H      0.185  0.815  0.000  0.000     1.188     1.707
 588   1 H      0.078  0.922  0.000  0.000     2.004     2.214

 Mol. C6AA /au·bohr⁶  :    3206004.761555
 Mol. C8AA /au·bohr⁸  :   74547722.130872
 Mol. α(0) /au        :       2692.568757

 
molecular dipole:
                 x           y           z       tot (Debye)
 q only:      -91.036     551.992    1075.336
   full:      -91.025     548.782    1074.967    3076.526
molecular quadrupole (traceless):
                xx          xy          yy          xz          yz          zz
 q only:  -122438.739  -13657.014  -45137.507  -24307.693  147459.013  167576.247
  q+dip:  -122077.596  -13644.821  -45681.707  -24308.712  146599.419  167759.302
   full:  -122076.870  -13646.488  -45682.011  -24309.198  146601.805  167758.881
speedup  1.98
cpu  time for grad    1 m 10.8 s
wall time for grad    0 m 35.7 s

SCC energy    :    -902.0067615
rep           :      19.4496917
ES            :       3.7572709
AES           :      -0.2048521
AXC           :       0.1834186
disp          :      -0.8036766
XB            :       0.0000000
fix           :       0.0000000
Gborn         :       0.0000000
Gsasa         :       0.0000000
Ghb           :       0.0000000
Gshift        :       0.0000000
Gsolv         :      -1.7798662    -1116.88
Etot ala COSMO:    -902.0067615
grad norm     :       3.1686590
total E       :    -882.4641904
atomizationE  :     155.0351577    97286.03
(atE without considering molecular charge,
 total energy contains solvation terms)
H-L gap (eV)  :          0.7747

------------------------------------------------------------------------
 * finished run on 2019/05/08 at 06:42:41.107     
------------------------------------------------------------------------
 total:
 * wall-time:     0 d,  0 h,  0 min, 37.678 sec
 *  cpu-time:     0 d,  0 h,  1 min, 14.331 sec
 * ratio c/w:     1.973 speedup
 SCF:
 * wall-time:     0 d,  0 h,  0 min, 37.344 sec
 *  cpu-time:     0 d,  0 h,  1 min, 13.857 sec
 * ratio c/w:     1.978 speedup

