      -----------------------------------------------------------      
     |                   =====================                   |     
     |                           x T B                           |     
     |                   =====================                   |     
     |                         S. Grimme                         |     
     |          Mulliken Center for Theoretical Chemistry        |     
     |                    University of Bonn                     |     
     |                 Version 6.0.1 (SAW181210)                 |     
      -----------------------------------------------------------      

   This program is distributed in the hope that it will be useful,
   but WITHOUT ANY WARRANTY; without even the implied warranty of
   MERCHANTABILITY or FITNESS FOR A PARTICULAR PURPOSE.
   
   FOR NON-COMMERCIAL, ACADEMIA USE ONLY.
   
   Cite this work as:
   S. Grimme, C. Bannwarth, P. Shushkov, J. Comput. Theory Chem., 2017,
   13, 1989-2009.
   C. Bannwarth, S. Ehlert and S. Grimme., ChemRxiv, 2018, preprint.
   http://doi.org/10.26434/chemrxiv.7246238.v1
   
   for sTDA-xTB:
   S. Grimme and C. Bannwarth, J. Chem. Phys., 2016, 145, 054103.
   
   in the mass-spec context:
   V. Asgeirsson, C. Bauer and S. Grimme, Chem. Sci., 2017, 8, 4879.
   
   if GBSA is used:
   P. Shushkov, F. März and S. Grimme, unpublished.
   
   for ANC optimizer:
   S. Grimme, unpublished.
   Rational Function algorithm used in ANCopt:
   F. Eckert, P. Pulay, H.-J. Werner, J. Comput. Chem., 1997, 18, 1473.
   
   with help from (in alphabetical order)
   C. Bannwarth, F. Bohle, G. Brandenburg, E. Caldeweyher, M. Checinski,
   S. Dohm, S. Ehlert, S. Ehrlich, F. März, H. Neugebauer, J. Pisarek,
   P. Pracht, P. Shushkov, and S. Spicher.
   
 * started run on 2019/05/12 at 07:57:32.671     
========================================================================
 # omp threads = 2
========================================================================
number of atoms            : 474
number of electrons        : 1286
charge                     : 0
spin                       : .0
first test random number   : .3533

########################################################################
# WARNING! Please study the warnings concerning your input carefully
#  - Process number higher than OMP_NUM_THREADS, I hope you know what you are doing.
########################################################################

           ------------------------------------------------- 
          |                 G F N 2 - x T B                 |
          | Geometry, Frequencies, Noncovalent interactions |
          |            JCTC 2018 parametrisation            |
           ------------------------------------------------- 
 
      method parameters     
 k(s)        :  1.8500
 k(p)        :  2.2300
 k(d)        :  2.2300
 k(f)        :  2.0000
 kEN (H0ij)  : -2.0000
 D4 a1       :  0.5200
 D4 a2       :  5.0000
 D4 s6       :  1.0000
 D4 s8       :  2.7000
 D4 s9       :  5.0000
 alphaj      :  2.0000

 Solvent             : h2o
 Using internal parameter file: .param_gbsa2_h2o
 Gsolv ref. state (COSMO-RS): gsolv [1 M gas/solution]
 temperature (mdtemp)       :    298.150000000000     
 dielectric constant        :    80.2000000000000     
 rho                        :    1.00000000000000     
 mass                       :    18.0000000000000     
 surface tension            :    15.5689454083859     
 probe radius               :   0.975313790000000     
 vdW radii scaling          :    1.00000000000000     
 Gshift (Eh)                :   1.857443126794793E-003
 c1                         :    1.55243817000000     
 soset                      :   0.130326360000000     
 HB correction              :  T

            Z     q(EN)     CN     RAES       Cart. coordinates
     1  N   5.0   -0.21    3.22    1.96    13.29114    51.92973   -15.17857
     2  C   4.0    0.03    4.37    4.34    11.86321    51.23987   -13.03153
     3  C   4.0    0.18    3.38    3.07    12.54846    48.52972   -12.01507
     4  O   6.0   -0.32    1.31    1.80    12.39948    47.00774   -13.13911
     5  C   4.0   -0.04    4.32    4.24     9.03020    51.17983   -13.55816
     6  C   4.0   -0.04    4.22    4.05     7.34775    50.46085   -11.33053
     7  C   4.0   -0.04    4.19    3.99     5.16697    48.89798   -12.31062
     8  C   4.0   -0.03    4.12    3.84     3.34513    48.33106   -10.17176
     9  N   5.0   -0.10    3.88    2.58     1.43872    46.23312   -10.77089
    10  H   1.0    0.10    1.07    1.44    14.32507    50.48265   -15.69828
    11  H   1.0    0.05    1.07    1.44    12.14993    52.57126   -11.52191
    12  H   1.0    0.04    1.01    1.43     8.39038    53.16290   -13.98041
    13  H   1.0    0.05    1.04    1.43     8.58333    49.92959   -15.11757
    14  H   1.0    0.07    1.07    1.44     8.41023    49.26055   -10.12816
    15  H   1.0    0.05    1.04    1.43     6.47455    52.14128   -10.54483
    16  H   1.0    0.05    1.02    1.43     4.06216    49.81628   -13.82173
    17  H   1.0    0.06    1.02    1.43     5.71353    47.01682   -13.03466
    18  H   1.0    0.05    1.04    1.43     4.30621    47.76929    -8.50672
    19  H   1.0    0.05    1.02    1.43     2.16638    50.00017    -9.86796
    20  H   1.0    0.06    0.97    1.43     0.19063    45.95549    -9.13940
    21  H   1.0    0.07    0.97    1.43     0.31568    46.68138   -12.43017
    22  H   1.0    0.07    0.98    1.43     2.35171    44.46014   -11.13784
    23  N   5.0   -0.13    3.44    2.04    13.49616    48.76615    -9.47791
    24  C   4.0    0.04    4.60    4.66    14.28648    46.35013    -8.24600
    25  C   4.0    0.21    3.42    3.09    12.17031    45.47365    -6.63259
    26  O   6.0   -0.33    1.44    1.80    11.42227    46.39106    -5.37591
    27  C   4.0   -0.04    4.40    4.38    16.73427    46.53125    -6.90416
    28  C   4.0   -0.02    3.58    3.15    17.84069    44.16837    -6.00072
    29  C   4.0   -0.04    3.54    3.13    19.54219    42.81109    -7.36729
    30  C   4.0   -0.03    3.54    3.14    16.69488    42.81031    -4.05028
    31  C   4.0   -0.04    3.42    3.08    20.43892    40.48606    -6.54401
    32  C   4.0   -0.04    3.35    3.06    17.47690    40.41867    -3.18823
    33  C   4.0   -0.04    3.38    3.07    19.43796    39.27767    -4.47715
    34  H   1.0    0.10    1.04    1.43    14.20603    50.30307    -8.52689
    35  H   1.0    0.06    1.11    1.45    14.57256    45.11966    -9.82887
    36  H   1.0    0.04    1.06    1.44    18.20864    47.38330    -8.00550
    37  H   1.0    0.05    1.06    1.44    16.34066    47.57466    -5.16309
    38  H   1.0    0.05    1.05    1.44    20.36717    43.64800    -8.96558
    39  H   1.0    0.06    1.02    1.43    15.15390    43.66966    -2.92674
    40  H   1.0    0.05    1.04    1.43    21.83857    39.53799    -7.61831
    41  H   1.0    0.05    1.01    1.43    16.65110    39.56622    -1.48269
    42  H   1.0    0.05    1.04    1.43    20.01024    37.46056    -3.90085
    43  N   5.0   -0.12    3.45    2.04    11.55107    42.97018    -7.48163
    44  C   4.0    0.01    4.35    4.29     9.68026    41.62811    -5.88214
    45  C   4.0    0.16    3.39    3.08     7.15669    42.05142    -6.98673
    46  O   6.0   -0.30    1.32    1.80     6.80705    43.18922    -8.71581
    47  H   1.0    0.08    1.02    1.43    12.36777    41.64434    -8.70372
    48  H   1.0    0.04    1.02    1.43     9.99371    39.54528    -5.82526
    49  H   1.0    0.05    1.04    1.43     9.58210    42.15356    -3.92325
    50  N   5.0   -0.07    3.70    2.27     5.16488    40.61200    -5.98925
    51  C   4.0    0.02    4.48    4.50     5.71490    38.79708    -4.01759
    52  C   4.0    0.08    3.27    3.05     5.77613    36.26442    -5.18458
    53  O   6.0   -0.28    1.20    1.80     5.74509    36.09430    -7.42303
    54  C   4.0   -0.04    4.33    4.26     3.24019    39.04718    -2.31770
    55  C   4.0   -0.04    4.30    4.20     1.27752    39.97746    -3.91251
    56  C   4.0   -0.01    4.26    4.11     2.28077    41.20278    -6.22474
    57  H   1.0    0.04    1.05    1.44     7.29719    39.31447    -2.78704
    58  H   1.0    0.04    1.02    1.43     2.75702    37.13328    -1.61090
    59  H   1.0    0.06    1.02    1.43     3.53860    40.37054    -0.70476
    60  H   1.0    0.05    1.04    1.43     0.08171    38.45034    -4.61657
    61  H   1.0    0.04    1.03    1.43     0.15530    41.45172    -2.95703
    62  H   1.0    0.06    1.03    1.43     1.69038    40.38316    -7.96941
    63  H   1.0    0.04    1.01    1.43     1.88717    43.24214    -6.28698
    64  N   5.0   -0.21    3.18    1.95    23.57042    45.16898    -2.88166
    65  C   4.0    0.02    4.22    4.03    22.62035    47.37090    -1.29700
    66  C   4.0    0.06    3.33    3.06    23.97945    49.51194    -1.80552
    67  O   6.0   -0.30    1.13    1.80    23.65680    51.76986    -1.13409
    68  C   4.0   -0.02    4.30    4.20    22.56157    46.70652     1.55328
    69  C   4.0   -0.01    3.64    3.19    20.71648    44.83641     2.52755
    70  C   4.0   -0.01    3.49    3.11    21.23800    42.36858     3.05989
    71  C   4.0    0.00    3.77    3.30    18.00557    45.13480     2.21363
    72  N   5.0   -0.11    3.38    2.01    18.91422    41.08465     3.40888
    73  C   4.0    0.03    3.79    3.33    16.88271    42.80124     2.84736
    74  C   4.0   -0.05    3.41    3.08    16.24762    47.03631     1.51041
    75  C   4.0   -0.05    3.35    3.06    14.21378    42.33650     2.89349
    76  C   4.0   -0.04    3.37    3.07    13.70284    46.58976     1.31420
    77  C   4.0   -0.04    3.38    3.07    12.67768    44.28176     2.05959
    78  H   1.0    0.09    1.04    1.43    22.44073    44.86370    -4.33530
    79  H   1.0    0.04    1.09    1.44    20.70071    47.84852    -1.80268
    80  H   1.0    0.05    1.03    1.43    24.41891    45.85414     2.03013
    81  H   1.0    0.06    1.06    1.44    21.98518    48.36366     2.57919
    82  H   1.0    0.05    1.01    1.43    23.07833    41.54225     3.16351
    83  H   1.0    0.07    1.00    1.43    18.65808    39.16583     3.95261
    84  H   1.0    0.05    1.02    1.43    17.04729    48.81220     0.78658
    85  H   1.0    0.05    1.01    1.43    13.54296    40.42735     3.36582
    86  H   1.0    0.05    1.04    1.44    12.41025    48.08800     0.95642
    87  H   1.0    0.06    1.05    1.44    10.74148    43.98023     2.26052
    88  N   5.0   -0.23    3.41    2.03    10.62622    69.89067    -6.77273
    89  C   4.0    0.06    4.42    4.41    10.52411    67.95884    -6.12853
    90  C   4.0    0.20    3.60    3.17     7.86200    66.90681    -4.72397
    91  O   6.0   -0.34    1.60    1.81     7.01247    68.15895    -4.12352
    92  C   4.0   -0.03    4.25    4.09    12.47974    67.44816    -3.73937
    93  C   4.0   -0.05    4.16    3.93    15.00006    67.12289    -4.82705
    94  C   4.0   -0.10    3.64    3.19    12.55155    64.73505    -1.83004
    95  C   4.0   -0.08    3.96    3.56    17.09521    68.99852    -3.50953
    96  H   1.0    0.10    1.18    1.46    10.67588    71.18278    -5.71509
    97  H   1.0    0.03    0.99    1.43    11.39995    66.22019    -7.27288
    98  H   1.0    0.05    1.09    1.44    12.54139    68.81585    -2.43224
    99  H   1.0    0.04    0.92    1.42    16.12536    65.15667    -4.72957
   100  H   1.0    0.04    1.07    1.44    15.22475    67.86026    -6.65790
   101  H   1.0    0.05    1.04    1.43    13.43912    64.54774    -0.86033
   102  H   1.0    0.05    0.89    1.42    10.23430    64.86583    -1.43005
   103  H   1.0    0.04    0.82    1.41    12.03867    63.27559    -3.64965
   104  H   1.0    0.04    1.00    1.43    18.89505    68.74289    -4.32606
   105  H   1.0    0.05    1.04    1.43    16.37324    70.70803    -3.57931
   106  H   1.0    0.04    0.97    1.43    17.06234    68.24842    -1.49549
   107  N   5.0   -0.13    3.79    2.41     7.19851    64.38142    -4.52077
   108  C   4.0    0.06    4.47    4.49     5.54650    64.00543    -3.46065
   109  C   4.0    0.20    3.26    3.04     5.55961    60.56952    -2.78831
   110  O   6.0   -0.35    1.42    1.80     7.09413    59.89410    -3.28813
   111  C   4.0   -0.02    4.35    4.28     3.39494    63.80750    -5.51487
   112  C   4.0   -0.02    3.28    3.05     3.66680    61.97550    -7.55761
   113  C   4.0   -0.08    2.90    3.01     1.59020    59.03475    -7.22975
   114  C   4.0   -0.06    3.23    3.04     5.01732    62.74872    -9.79999
   115  C   4.0   -0.03    3.38    3.07     2.17941    57.83429    -9.02466
   116  C   4.0   -0.03    3.52    3.13     5.03934    60.55490   -11.38083
   117  C   4.0    0.11    3.27    3.05     3.76820    57.92084   -11.35106
   118  O   6.0   -0.27    2.26    1.87     4.00096    56.96064   -12.97367
   119  H   1.0    0.08    1.02    1.43     8.55483    62.82112    -5.15978
   120  H   1.0    0.06    1.05    1.44     4.67163    64.73840    -1.71533
   121  H   1.0    0.04    0.83    1.42     1.23845    63.60419    -4.52384
   122  H   1.0    0.05    1.05    1.44     3.22682    65.65586    -6.38211
   123  H   1.0    0.07    1.07    1.44     0.92991    59.20866    -5.68946
   124  H   1.0    0.06    1.10    1.44     5.74779    64.08725    -9.78249
   125  H   1.0    0.06    1.09    1.44     1.32968    55.97552    -8.90950
   126  H   1.0    0.05    1.03    1.43     6.11854    60.86372   -13.09113
   127  H   1.0    0.12    1.07    1.44     5.02413    57.01972   -14.45279
   128  N   5.0   -0.15    3.43    2.04     3.64023    60.00994    -1.30997
   129  C   4.0    0.01    4.33    4.26     3.72347    57.34576    -0.44406
   130  C   4.0    0.13    3.33    3.06     2.26463    57.34569     2.03911
   131  O   6.0   -0.31    1.45    1.80     1.84569    59.32747     3.35283
   132  H   1.0    0.11    1.09    1.44     2.23683    60.90139    -0.50266
   133  H   1.0    0.04    1.06    1.44     2.75844    56.24552    -1.74603
   134  H   1.0    0.05    1.03    1.43     5.67829    56.70861    -0.24151
   135  N   5.0   -0.14    3.46    2.05     1.90768    54.93409     2.92958
   136  C   4.0    0.04    4.53    4.58     0.65797    54.49244     5.38472
   137  C   4.0    0.16    3.54    3.13     1.71637    52.32769     6.78327
   138  O   6.0   -0.31    1.29    1.80     2.62121    50.50507     5.91363
   139  C   4.0   -0.03    4.48    4.50    -1.95983    53.83672     5.04303
   140  C   4.0   -0.03    4.40    4.38    -2.50620    51.76783     3.47597
   141  C   4.0    0.17    3.21    3.04    -4.32511    49.83237     4.52695
   142  O   6.0   -0.27    1.25    1.80    -3.95725    47.97682     5.32327
   143  N   5.0   -0.18    3.16    1.95    -6.84560    50.69107     4.17479
   144  H   1.0    0.10    1.06    1.44     2.33554    53.28295     2.10849
   145  H   1.0    0.07    1.08    1.44     1.06690    56.23274     6.43626
   146  H   1.0    0.06    1.06    1.44    -2.87380    53.43013     6.87128
   147  H   1.0    0.05    1.03    1.43    -2.94595    55.53911     4.24636
   148  H   1.0    0.05    1.03    1.43    -3.31569    52.50452     1.66002
   149  H   1.0    0.07    1.08    1.44    -0.78318    50.79096     3.04888
   150  H   1.0    0.08    1.03    1.43    -7.29463    52.13127     3.09314
   151  H   1.0    0.09    0.95    1.42    -8.39678    49.36655     4.65711
   152  N   5.0   -0.13    3.47    2.06     1.75877    52.78566     9.36363
   153  C   4.0    0.04    4.51    4.54     2.82903    50.75209    11.00819
   154  C   4.0    0.15    3.49    3.11     0.74943    49.77799    12.64682
   155  O   6.0   -0.32    1.33    1.80    -0.28243    51.19012    14.08507
   156  C   4.0   -0.02    4.29    4.17     5.00372    51.64399    12.81767
   157  C   4.0   -0.07    4.11    3.82     5.28831    49.81934    15.04361
   158  C   4.0   -0.08    4.05    3.72     7.47228    51.86020    11.35677
   159  H   1.0    0.11    1.11    1.45     1.59717    54.36804    10.37301
   160  H   1.0    0.05    1.07    1.44     3.52979    49.14293     9.80827
   161  H   1.0    0.05    1.08    1.44     4.59792    53.46292    13.50745
   162  H   1.0    0.04    1.00    1.43     6.85174    50.59326    16.18019
   163  H   1.0    0.06    1.01    1.43     3.40988    49.85268    15.99497
   164  H   1.0    0.05    0.98    1.43     5.74426    47.91904    14.24482
   165  H   1.0    0.04    1.00    1.43     8.96106    52.47508    12.60490
   166  H   1.0    0.04    0.97    1.43     7.81028    49.90575    10.50679
   167  H   1.0    0.04    0.98    1.43     7.10029    53.17402     9.73276
   168  N   5.0   -0.13    3.39    2.02    -0.01519    47.40420    12.03062
   169  C   4.0    0.03    4.23    4.05    -1.88962    46.04829    13.62625
   170  C   4.0    0.07    3.22    3.04    -0.68916    44.44761    15.59109
   171  O   6.0   -0.28    1.13    1.80     0.35988    42.37822    14.99811
   172  C   4.0   -0.05    4.06    3.74    -3.63348    44.38320    11.96244
   173  H   1.0    0.10    1.06    1.44     0.68266    46.22475    10.66250
   174  H   1.0    0.04    1.04    1.43    -3.16861    47.38109    14.62813
   175  H   1.0    0.05    1.00    1.43    -5.03356    43.50882    13.15053
   176  H   1.0    0.06    0.97    1.43    -4.48893    45.77180    10.55558
   177  H   1.0    0.08    0.99    1.43    -2.27265    43.06469    11.01709
   178  N   5.0   -0.18    3.19    1.95    19.80904    61.00227    13.00942
   179  C   4.0    0.02    4.17    3.93    20.58570    61.59046    10.38450
   180  C   4.0    0.08    3.23    3.04    22.78142    63.31780    10.30889
   181  O   6.0   -0.28    1.11    1.80    23.08434    65.42249    11.38322
   182  C   4.0   -0.05    4.33    4.26    18.31988    62.85442     9.01361
   183  C   4.0   -0.03    4.20    4.00    18.63681    63.25330     6.12973
   184  C   4.0   -0.08    4.04    3.70    18.84643    60.76240     4.71248
   185  C   4.0   -0.07    4.03    3.68    16.66952    65.07321     4.99854
   186  H   1.0    0.12    1.07    1.44    18.70583    62.40063    13.73152
   187  H   1.0    0.03    1.05    1.44    20.79533    59.89934     9.14662
   188  H   1.0    0.04    1.03    1.43    16.57672    61.83178     9.22269
   189  H   1.0    0.05    1.02    1.43    18.06452    64.77122     9.85644
   190  H   1.0    0.04    1.07    1.44    20.34966    64.39474     5.90073
   191  H   1.0    0.04    1.00    1.43    19.12801    61.31257     2.73633
   192  H   1.0    0.04    0.99    1.43    20.48751    59.79836     5.66161
   193  H   1.0    0.04    1.00    1.43    17.01485    59.85227     5.12845
   194  H   1.0    0.04    1.00    1.43    17.06532    65.32140     2.99943
   195  H   1.0    0.04    0.99    1.43    14.85102    64.11092     5.37651
   196  H   1.0    0.05    0.97    1.43    16.77183    66.92149     6.07217
   197  N   5.0   -0.20    3.19    1.95    19.33464    69.30434    13.85448
   198  C   4.0    0.03    4.27    4.14    16.89022    68.53215    14.76074
   199  C   4.0    0.09    3.24    3.04    16.93585    66.34323    16.62964
   200  O   6.0   -0.31    1.25    1.80    18.25996    64.73875    16.29072
   201  C   4.0   -0.04    4.28    4.15    14.98177    67.94483    12.66089
   202  C   4.0   -0.03    4.22    4.04    12.19112    68.12023    13.25719
   203  C   4.0    0.15    3.17    3.03    10.47641    66.40212    11.62689
   204  O   6.0   -0.32    1.25    1.80    10.90124    66.52958     9.43948
   205  N   5.0   -0.19    3.16    1.95     8.57154    65.10886    12.87176
   206  H   1.0    0.13    1.07    1.44    20.45224    67.84039    14.05997
   207  H   1.0    0.04    1.08    1.44    16.07188    69.94695    15.98983
   208  H   1.0    0.05    1.04    1.43    15.15070    69.34840    11.16234
   209  H   1.0    0.05    1.06    1.44    15.16309    66.02254    12.02925
   210  H   1.0    0.04    1.03    1.43    11.90313    67.52275    15.23045
   211  H   1.0    0.05    1.02    1.43    11.50671    70.07981    13.09136
   212  H   1.0    0.07    1.02    1.43     8.40837    65.30326    14.84797
   213  H   1.0    0.09    1.02    1.43     7.45263    63.96107    11.73798
   214  N   5.0   -0.20    3.10    1.94    12.14355    61.26630    21.04735
   215  C   4.0    0.03    4.19    3.98     9.59650    60.13439    21.66436
   216  C   4.0    0.10    3.14    3.03     9.40373    58.65304    24.18480
   217  O   6.0   -0.29    1.19    1.80    10.56267    56.90198    24.27336
   218  C   4.0   -0.04    4.28    4.15     8.69338    58.40890    19.45526
   219  C   4.0   -0.03    4.19    3.97     8.37658    59.77136    16.79520
   220  C   4.0   -0.08    4.07    3.75     7.86657    57.96368    14.67552
   221  C   4.0   -0.07    4.06    3.73     6.41721    61.88932    16.85095
   222  H   1.0    0.10    1.01    1.43    13.46551    59.80219    21.27267
   223  H   1.0    0.03    1.04    1.43     8.18835    61.68443    21.73118
   224  H   1.0    0.05    1.04    1.43    10.20924    57.08457    19.09612
   225  H   1.0    0.05    1.06    1.44     6.86855    57.75782    19.81162
   226  H   1.0    0.04    1.06    1.44    10.14698    60.75685    16.31745
   227  H   1.0    0.04    1.00    1.43     7.70075    59.02610    12.91434
   228  H   1.0    0.04    0.99    1.43     9.46843    56.60177    14.74513
   229  H   1.0    0.04    1.01    1.43     6.10234    57.03851    15.28582
   230  H   1.0    0.05    1.02    1.43     6.49628    62.93465    14.96204
   231  H   1.0    0.05    1.00    1.43     4.64003    60.97834    17.42480
   232  H   1.0    0.04    0.97    1.43     7.03135    63.22544    18.40234
   233  N   5.0   -0.19    3.25    1.97    -7.57552    52.43259    18.06257
   234  C   4.0    0.03    4.41    4.39    -6.24631    52.34040    15.67003
   235  C   4.0    0.17    3.43    3.09    -5.70248    55.09254    15.05112
   236  O   6.0   -0.30    1.29    1.80    -7.25551    56.45985    14.74522
   237  C   4.0   -0.02    4.34    4.28    -8.00263    51.31776    13.54099
   238  C   4.0   -0.06    4.17    3.93    -8.83388    48.53958    14.07059
   239  C   4.0   -0.06    4.06    3.73    -6.85308    51.58530    10.78083
   240  C   4.0   -0.07    4.00    3.63    -9.38458    47.05875    11.62484
   241  H   1.0    0.08    1.04    1.43    -9.01102    51.16323    18.07168
   242  H   1.0    0.05    1.04    1.43    -4.67416    50.97021    15.68697
   243  H   1.0    0.06    1.06    1.44    -9.74946    52.38747    13.59911
   244  H   1.0    0.04    1.05    1.44    -7.28891    47.64478    14.99824
   245  H   1.0    0.04    1.04    1.43   -10.62778    48.62863    15.03644
   246  H   1.0    0.05    0.99    1.43    -8.32144    50.83196     9.47321
   247  H   1.0    0.06    1.00    1.43    -6.44780    53.62319    10.64966
   248  H   1.0    0.05    1.00    1.43    -5.14775    50.41050    10.91417
   249  H   1.0    0.05    0.99    1.43    -9.89657    45.12285    12.17387
   250  H   1.0    0.04    0.98    1.43   -10.84970    48.09699    10.54409
   251  H   1.0    0.05    0.98    1.43    -7.50059    47.16086    10.54997
   252  N   5.0   -0.13    3.41    2.03    -3.12886    55.42910    14.75456
   253  C   4.0    0.03    4.46    4.47    -2.19527    58.08508    14.27271
   254  C   4.0    0.17    3.40    3.08    -1.29684    58.58478    11.66070
   255  O   6.0   -0.33    1.38    1.80    -0.49439    56.98184    10.51963
   256  C   4.0   -0.05    4.29    4.17    -0.21400    58.77874    16.30551
   257  C   4.0   -0.02    4.38    4.34    -0.91715    59.08229    19.01502
   258  C   4.0    0.18    3.24    3.04     1.03221    58.70885    20.98089
   259  O   6.0   -0.30    1.48    1.80     1.72334    57.01071    21.26379
   260  N   5.0   -0.17    3.38    2.01     1.63768    60.66712    22.10706
   261  H   1.0    0.11    1.08    1.44    -1.53479    54.24537    14.74640
   262  H   1.0    0.06    1.07    1.44    -3.83561    59.32238    14.61575
   263  H   1.0    0.06    1.07    1.44     1.15263    57.37180    16.29613
   264  H   1.0    0.04    1.04    1.44     0.45587    60.66128    15.76522
   265  H   1.0    0.04    1.03    1.43    -1.81868    60.97841    19.22940
   266  H   1.0    0.05    1.01    1.43    -2.61419    57.81611    19.34266
   267  H   1.0    0.07    1.04    1.43     0.87210    62.38690    21.87188
   268  H   1.0    0.08    1.00    1.43     3.12732    60.67097    23.49781
   269  N   5.0   -0.14    3.47    2.06    -1.70932    61.06444    11.08464
   270  C   4.0    0.05    4.50    4.54    -0.59040    61.94070     8.73253
   271  C   4.0    0.16    3.44    3.09     2.09832    62.70709     8.77525
   272  O   6.0   -0.31    1.29    1.80     2.73254    63.89149    10.56000
   273  C   4.0   -0.03    4.33    4.25    -2.31940    64.13481     7.64527
   274  C   4.0    0.20    3.15    3.03    -4.45956    63.06821     5.94779
   275  O   6.0   -0.32    1.31    1.80    -5.57089    61.68289     6.37384
   276  N   5.0   -0.17    3.18    1.95    -4.57647    64.53065     3.65770
   277  H   1.0    0.08    1.07    1.44    -2.50216    62.52804    11.94069
   278  H   1.0    0.07    1.08    1.44    -0.75054    60.49077     7.24736
   279  H   1.0    0.05    1.04    1.43    -3.09508    65.05891     9.26391
   280  H   1.0    0.05    1.03    1.43    -1.06649    65.35551     6.51885
   281  H   1.0    0.10    1.00    1.43    -6.15879    64.05018     2.49468
   282  H   1.0    0.09    1.02    1.43    -3.41958    66.00350     3.43236
   283  N   5.0   -0.14    3.65    2.21     3.47011    62.00740     6.79609
   284  C   4.0    0.04    4.58    4.65     6.03194    62.90157     6.68165
   285  C   4.0    0.16    3.58    3.15     6.43199    64.40783     4.22464
   286  O   6.0   -0.30    1.35    1.80     5.01628    64.13699     2.70645
   287  C   4.0   -0.03    4.33    4.26     7.87504    60.74074     6.51082
   288  C   4.0   -0.07    4.13    3.85     6.62397    58.36156     7.58121
   289  C   4.0   -0.07    4.15    3.90     8.82630    60.37766     3.73314
   290  H   1.0    0.13    1.27    1.48     3.08979    60.76054     5.42051
   291  H   1.0    0.06    1.05    1.44     6.60408    64.09491     8.31400
   292  H   1.0    0.04    1.04    1.43     9.56293    61.10978     7.68655
   293  H   1.0    0.04    0.98    1.43     8.07159    56.81856     7.41896
   294  H   1.0    0.04    0.99    1.43     6.20343    58.75423     9.59105
   295  H   1.0    0.06    1.01    1.43     4.95046    58.06363     6.33068
   296  H   1.0    0.04    0.97    1.43    10.17460    58.72921     3.84008
   297  H   1.0    0.06    1.01    1.43     7.14271    59.91501     2.63546
   298  H   1.0    0.05    1.01    1.43     9.82906    62.14670     3.22952
   299  N   5.0   -0.12    3.24    1.97     8.14875    66.49815     4.39653
   300  C   4.0    0.00    4.03    3.67     8.67286    67.45707     1.77975
   301  C   4.0    0.12    2.94    3.01     9.04184    70.71091     2.29524
   302  O   6.0   -0.30    1.18    1.80     9.49861    71.70279     3.81451
   303  H   1.0    0.11    1.02    1.43     9.10310    66.87820     6.13831
   304  H   1.0    0.04    1.06    1.44    10.64915    67.24086     1.44561
   305  H   1.0    0.07    1.06    1.44     7.28226    67.24852     0.57329
   306  N   5.0   -0.18    3.14    1.94    22.73317    54.23577     5.13259
   307  C   4.0    0.03    4.24    4.09    20.94322    53.54565     7.15912
   308  C   4.0    0.11    3.25    3.04    21.80589    51.26004     8.66675
   309  O   6.0   -0.31    1.26    1.80    22.46106    49.71787     7.67430
   310  C   4.0   -0.05    4.43    4.43    18.30346    52.74384     6.25040
   311  C   4.0   -0.03    4.21    4.03    15.92537    52.90946     7.77267
   312  C   4.0   -0.08    4.05    3.71    15.57605    55.66326     8.79960
   313  C   4.0   -0.08    4.06    3.73    13.56589    51.91825     6.49160
   314  H   1.0    0.10    1.03    1.43    22.14788    53.19951     3.56527
   315  H   1.0    0.03    1.05    1.44    20.23911    55.07719     8.47212
   316  H   1.0    0.04    1.04    1.43    17.75933    54.00994     4.66613
   317  H   1.0    0.05    1.06    1.44    18.31242    50.88472     5.47802
   318  H   1.0    0.04    1.09    1.44    16.24086    51.80501     9.42983
   319  H   1.0    0.03    0.97    1.43    13.87908    55.56444    10.08788
   320  H   1.0    0.03    0.99    1.43    17.31378    56.16641     9.82263
   321  H   1.0    0.03    0.99    1.43    15.14310    56.86060     7.15349
   322  H   1.0    0.04    0.98    1.43    12.01137    52.08158     7.92630
   323  H   1.0    0.04    1.00    1.43    13.22591    53.17101     4.87684
   324  H   1.0    0.04    1.01    1.43    13.94813    49.97645     5.98373
   325  N   5.0   -0.22    3.19    1.95    -0.16809    36.97667     3.86180
   326  C   4.0    0.02    4.37    4.32    -1.79194    39.31217     3.77832
   327  C   4.0    0.19    3.38    3.07    -0.66555    41.97380     4.50881
   328  O   6.0   -0.28    1.46    1.80    -1.62735    43.42762     5.01216
   329  C   4.0   -0.03    4.45    4.47    -3.94776    38.97177     5.20242
   330  C   4.0    0.21    3.24    3.04    -5.80945    41.30944     5.51077
   331  O   6.0   -0.30    1.33    1.80    -5.63975    42.51931     6.87153
   332  N   5.0   -0.18    3.11    1.94    -7.36083    41.54155     3.17916
   333  H   1.0    0.09    1.03    1.43     1.42199    37.24386     4.87787
   334  H   1.0    0.04    1.08    1.44    -2.20119    39.54033     1.79906
   335  H   1.0    0.04    1.02    1.43    -5.22332    37.44479     4.44562
   336  H   1.0    0.05    1.04    1.44    -3.64698    38.46982     7.17883
   337  H   1.0    0.10    1.00    1.43    -8.48533    43.16046     3.14461
   338  H   1.0    0.08    1.00    1.43    -7.14264    40.25438     1.72413
   339  N   5.0   -0.14    3.46    2.05     2.06805    41.64969     4.55083
   340  C   4.0    0.04    4.41    4.40     3.53268    44.01249     4.87905
   341  C   4.0    0.13    3.41    3.08     5.41131    44.40223     2.61806
   342  O   6.0   -0.33    1.26    1.80     6.31990    42.78270     1.34820
   343  C   4.0    0.04    4.19    3.98     5.12951    43.85775     7.15731
   344  O   6.0   -0.24    1.94    1.82     3.36341    43.40298     9.50623
   345  C   4.0   -0.06    4.05    3.71     6.64871    46.23698     7.69691
   346  H   1.0    0.08    1.06    1.44     3.21143    40.33452     3.79135
   347  H   1.0    0.07    1.06    1.44     2.43746    45.76909     5.06053
   348  H   1.0    0.05    1.06    1.44     6.41325    42.32726     7.08432
   349  H   1.0    0.12    0.96    1.43     2.96525    41.52359     9.52331
   350  H   1.0    0.04    0.97    1.43     7.76511    45.95116     9.50633
   351  H   1.0    0.04    1.00    1.43     8.00591    46.52968     6.16760
   352  H   1.0    0.05    0.99    1.43     5.38913    47.90160     8.14191
   353  N   5.0   -0.13    3.52    2.09     5.91127    46.93101     2.06156
   354  C   4.0    0.03    4.46    4.48     7.38790    47.60261    -0.34113
   355  C   4.0    0.16    3.39    3.07     7.67370    50.64017    -0.05859
   356  O   6.0   -0.32    1.28    1.80     7.20670    52.00245     1.39428
   357  C   4.0   -0.02    4.43    4.44     6.07119    46.75473    -2.25829
   358  C   4.0   -0.02    3.62    3.18     3.52092    48.11496    -2.50388
   359  C   4.0   -0.04    3.52    3.12     3.05868    50.44069    -3.74986
   360  C   4.0   -0.03    3.48    3.11     1.21303    47.19519    -1.38956
   361  C   4.0   -0.04    3.40    3.08     0.78731    51.76254    -3.92606
   362  C   4.0   -0.04    3.44    3.09    -1.04347    48.28839    -1.67385
   363  C   4.0    0.07    3.49    3.11    -1.21471    50.61374    -2.87086
   364  O   6.0   -0.23    2.08    1.84    -3.58637    51.65361    -3.00683
   365  H   1.0    0.10    1.06    1.44     5.88132    48.40289     3.32768
   366  H   1.0    0.05    1.06    1.44     9.29536    46.75472     0.02647
   367  H   1.0    0.06    1.06    1.44     6.90092    47.38409    -4.08308
   368  H   1.0    0.06    1.06    1.44     5.52864    44.77545    -2.33635
   369  H   1.0    0.05    1.02    1.43     4.75492    51.41576    -4.48346
   370  H   1.0    0.06    1.02    1.43     1.38386    45.24969    -0.62510
   371  H   1.0    0.05    1.04    1.43     0.70443    53.57120    -4.75818
   372  H   1.0    0.06    1.01    1.43    -2.73373    47.39184    -0.82330
   373  H   1.0    0.11    0.96    1.43    -4.94135    50.71632    -1.96421
   374  N   5.0   -0.14    3.51    2.08     9.06472    51.21592    -2.19646
   375  C   4.0    0.04    4.29    4.18     9.30895    53.95340    -2.87310
   376  C   4.0    0.06    3.17    3.03     9.93380    54.32435    -5.66676
   377  O   6.0   -0.29    1.19    1.80    11.26771    52.50786    -6.54149
   378  C   4.0   -0.03    4.21    4.01    10.87956    55.28621    -0.83477
   379  C   4.0   -0.02    3.49    3.11    13.81053    55.11867    -0.91975
   380  C   4.0   -0.02    3.44    3.09    15.40202    53.17253     0.11730
   381  C   4.0    0.00    3.64    3.19    15.48284    56.60720    -2.69980
   382  N   5.0   -0.12    3.38    2.01    17.87224    53.53601    -0.70373
   383  C   4.0    0.04    3.73    3.26    17.98002    55.47676    -2.54687
   384  C   4.0   -0.04    3.31    3.06    15.09601    58.25474    -4.84232
   385  C   4.0   -0.04    3.35    3.06    19.91629    56.11135    -4.25742
   386  C   4.0   -0.05    3.27    3.05    16.98740    59.06164    -6.46738
   387  C   4.0   -0.04    3.38    3.07    19.40663    57.85968    -6.07178
   388  H   1.0    0.11    1.07    1.44     9.89651    50.23403    -3.68410
   389  H   1.0    0.05    1.06    1.44     7.35822    54.72053    -2.84078
   390  H   1.0    0.05    1.04    1.43    10.63671    57.32955    -1.06551
   391  H   1.0    0.06    1.07    1.44    10.50256    54.56998     0.97971
   392  H   1.0    0.04    1.02    1.43    14.53825    51.97101     1.47012
   393  H   1.0    0.09    1.05    1.44    19.25406    52.39005    -0.16403
   394  H   1.0    0.05    0.95    1.42    13.00693    58.89331    -5.19785
   395  H   1.0    0.07    1.03    1.43    21.80487    55.51998    -3.84018
   396  H   1.0    0.05    1.03    1.43    16.72320    60.58923    -7.69726
   397  H   1.0    0.05    1.04    1.43    20.99266    58.80190    -6.88523
   398  N   5.0   -0.20    2.98    1.92    -9.83240    75.16800     0.48345
   399  C   4.0    0.04    3.89    3.45    -8.10187    74.08182     0.34189
   400  C   4.0    0.22    3.46    3.10    -7.26108    72.39852    -2.32379
   401  O   6.0   -0.32    1.68    1.81    -8.59149    72.36186    -3.23706
   402  H   1.0    0.09    0.84    1.42   -10.55679    76.36867    -1.35165
   403  H   1.0    0.04    0.81    1.41    -5.88052    74.97992     0.70799
   404  H   1.0    0.03    0.80    1.41    -7.80995    72.31395     1.99600
   405  N   5.0   -0.14    3.38    2.01    -5.16015    71.31157    -2.56681
   406  C   4.0    0.08    4.43    4.44    -4.97519    69.88975    -4.14702
   407  C   4.0    0.21    3.53    3.13    -5.26603    66.46166    -4.01122
   408  O   6.0   -0.35    1.31    1.80    -4.04642    65.95534    -2.63852
   409  C   4.0    0.08    4.06    3.74    -1.78644    69.74093    -5.01283
   410  O   6.0   -0.25    2.06    1.83    -1.24914    71.90711    -5.50183
   411  C   4.0   -0.07    3.74    3.27    -1.09249    68.64987    -7.99192
   412  H   1.0    0.07    0.78    1.41    -3.78614    71.09495    -0.62889
   413  H   1.0    0.05    1.04    1.43    -5.60127    70.33458    -6.16574
   414  H   1.0    0.05    1.05    1.44    -0.83821    68.74428    -3.64680
   415  H   1.0    0.10    0.77    1.41     0.89380    72.32085    -5.69769
   416  H   1.0    0.05    1.00    1.43     0.92334    68.42349    -7.98017
   417  H   1.0    0.04    0.74    1.41    -1.89010    66.36624    -7.44747
   418  H   1.0    0.06    1.03    1.43    -2.24220    69.29022    -9.14209
   419  N   5.0   -0.27    3.40    2.02    -7.38074    66.25785    -5.69561
   420  C   4.0    0.05    4.00    3.62    -7.56388    63.73162    -5.02647
   421  C   4.0    0.19    3.25    3.04    -8.33782    61.26770    -8.27551
   422  O   6.0   -0.33    1.28    1.80    -8.97009    62.81706    -9.16218
   423  C   4.0   -0.02    3.96    3.56   -10.84450    64.13840    -4.06110
   424  C   4.0   -0.01    3.52    3.12   -10.49448    64.12268    -1.40003
   425  C   4.0   -0.06    3.45    3.10   -11.02702    62.64328     0.69441
   426  C   4.0   -0.04    3.49    3.11   -10.63740    66.77031    -0.97456
   427  C   4.0    0.04    4.10    3.81   -10.81654    64.10853     3.21945
   428  C   4.0    0.03    4.11    3.82   -10.75873    67.82955     2.41283
   429  C   4.0    0.01    3.62    3.18   -10.85346    66.28140     3.19919
   430  O   6.0   -0.13    2.97    2.72   -11.38401    66.85316     4.91305
   431  H   1.0    0.17    1.20    1.47    -7.66966    66.69300    -6.65284
   432  H   1.0    0.05    1.02    1.43    -6.65544    62.30367    -3.89973
   433  H   1.0    0.06    1.05    1.44   -11.81121    64.68796    -5.30377
   434  H   1.0    0.05    0.70    1.41   -11.43785    61.63086    -3.97153
   435  H   1.0    0.06    1.08    1.44   -10.95514    60.92288     0.36182
   436  H   1.0    0.07    0.99    1.43   -10.47535    68.29773    -2.40752
   437  H   1.0    0.05    0.83    1.42   -11.31223    62.29475     4.70719
   438  H   1.0    0.04    0.99    1.43   -10.69767    69.94184     1.90985
   439  H   1.0    0.06    0.45    1.40   -10.95635    68.97804     6.19434
   440  N   5.0   -0.16    3.48    2.07    -6.91691    59.29776    -7.48339
   441  C   4.0    0.06    4.65    4.72    -7.77560    58.27765    -9.48352
   442  C   4.0    0.11    3.37    3.07    -9.54497    56.07897    -8.51223
   443  O   6.0   -0.29    1.52    1.80   -10.04875    55.08016    -7.31324
   444  C   4.0   -0.06    4.04    3.70    -5.10443    55.86606    -9.68440
   445  C   4.0    0.00    4.24    4.08    -5.77703    53.96771   -11.90230
   446  C   4.0    0.30    2.88    3.01    -2.97278    52.03451   -11.63609
   447  O   6.0   -0.29    1.62    1.81    -2.28593    53.34695   -12.90675
   448  O   6.0   -0.32    1.30    1.80    -3.47223    50.24604   -11.23775
   449  H   1.0    0.08    1.01    1.43    -5.87557    58.72174    -5.88150
   450  H   1.0    0.04    1.13    1.45    -7.58355    58.66666   -11.18895
   451  H   1.0    0.06    1.00    1.43    -3.58119    57.15402   -10.28282
   452  H   1.0    0.06    1.04    1.43    -4.94227    55.04301    -7.97716
   453  H   1.0    0.06    1.04    1.43    -7.29744    52.91521   -11.34742
   454  H   1.0    0.06    1.07    1.44    -5.65501    54.88229   -13.53144
   455  H   1.0    0.10    1.09    1.44    12.24063    52.37008   -16.44154
   456  H   1.0    0.05    1.05    1.44     5.84271    34.72278    -4.09371
   457  H   1.0    0.09    1.07    1.44    25.12974    45.51930    -3.46336
   458  H   1.0    0.06    1.08    1.44    25.52533    49.41496    -2.88807
   459  H   1.0    0.09    1.26    1.48    12.03850    70.10761    -7.69521
   460  H   1.0    0.06    1.04    1.43    -0.70419    44.99946    17.39838
   461  H   1.0    0.09    1.06    1.44    18.92712    59.54816    13.02821
   462  H   1.0    0.06    1.06    1.44    24.30811    62.86141     9.29302
   463  H   1.0    0.10    1.08    1.44    19.21690    69.75698    12.21930
   464  H   1.0    0.05    1.06    1.44    15.79000    66.35971    18.13224
   465  H   1.0    0.09    1.06    1.44    12.13561    61.84404    19.44775
   466  H   1.0    0.05    1.05    1.44     8.29655    59.29441    25.57544
   467  H   1.0    0.10    1.07    1.44    -6.49795    52.06258    19.32531
   468  H   1.0    0.07    1.10    1.44     8.77241    71.92896     0.87580
   469  H   1.0    0.09    1.06    1.44    22.64855    55.91012     4.84629
   470  H   1.0    0.05    1.07    1.44    21.72587    51.28832    10.55457
   471  H   1.0    0.09    1.08    1.44    -1.04208    35.70265     4.57285
   472  H   1.0    0.05    1.03    1.43     9.30748    55.85574    -6.57981
   473  H   1.0    0.10    1.23    1.47   -11.12738    74.12770     0.84865
   474  H   1.0    0.08    1.41    1.55   -10.79180    55.28086    -9.68674

  Z AO/shell   Hii/eV     exponent
  1     Wed Apr 25 08:07:45 CEST 2018   EN: 2.200 GM2: 0.406  GM3: 0.0800  RAES: 1.40
     1s    -10.707211    1.230000
  6     Wed Apr 25 08:07:45 CEST 2018   EN: 2.550 GM2: 0.538  GM3: 0.1500  RAES: 3.00
     2s    -13.970922    2.096432
     2p    -10.063292    1.800000
  7     Wed Apr 25 08:07:45 CEST 2018   EN: 3.040 GM2: 0.461  GM3:-0.0640  RAES: 1.90
     2s    -16.686243    2.339881
     2p    -12.523956    2.014332
  8     Wed Apr 25 08:07:45 CEST 2018   EN: 3.440 GM2: 0.452  GM3:-0.0517  RAES: 1.80
     2s    -20.229985    2.439742
     2p    -15.503117    2.137023
 no old-style atom pair restraining (fixing) potential

molecular fragmentation (1/2 indicates fragments):
111111111111111111111111111111111111111111111111111111111111111222222222
222222222222222222222222222222222222222222222222222222222222222222222222
222222222222222222222222222222222222222222222222222222222222222222222222
222222222222222222222222222222222222222222222222222222222222222222222222
222222222222222222222222222222222222222222222222222222222222222222222222
222222222222222222222222222222222222222222222222222222222222222222222222
222222222222222222222211222222222222222222
# atoms in fragment 1/2:    65   409
 fragment masses (1/2) :      432.54     2829.30
CMA distance (Bohr)    :  17.992
constraining FC (au)   :  0.0500
           ------------------------------------------------- 
          |        Self-Consistent Charge Iterations        |
           ------------------------------------------------- 

 Ncao       : 1170
 Nao        : 1170
 Nshell     : 706
 Nel        : 1286
 T(el)      :   500.0
 intcut     :    35.0
 scfconv/Eh :  0.100E-06
   qconv/e  :  0.100E-04
 intneglect :  0.100E-08
 broydamp   :      0.400
 iter      E             dE          RMSdq      gap      omega  full diag
   1   -729.7584638 -0.729758E+03  0.466E+00    0.09       0.0  T
   2   -726.7829816  0.297548E+01  0.358E+00    0.01       1.0  T
   3   -730.9101285 -0.412715E+01  0.240E+00    0.10       1.0  T
   4   -731.7573935 -0.847265E+00  0.171E+00    0.21       1.0  T
   5   -732.1824307 -0.425037E+00  0.113E+00    0.20       1.0  T
   6   -732.7093064 -0.526876E+00  0.809E-01    0.39       1.0  T
   7   -732.8151415 -0.105835E+00  0.577E-01    0.03       1.0  T
   8   -732.8102456  0.489587E-02  0.543E-01    0.18       1.0  T
   9   -732.5586203  0.251625E+00  0.792E-01    0.00       1.0  T
  10   -732.8408925 -0.282272E+00  0.396E-01    0.11       1.0  T
  11   -732.8458458 -0.495330E-02  0.358E-01    0.04       1.0  T
  12   -732.7770840  0.687617E-01  0.504E-01    0.03       1.0  T
  13   -732.7286225  0.484615E-01  0.564E-01    0.04       1.0  T
  14   -732.8796230 -0.151001E+00  0.214E-01    0.14       1.0  T
  15   -732.8907493 -0.111263E-01  0.166E-01    0.04       1.0  T
  16   -732.8806952  0.100542E-01  0.204E-01    0.04       1.0  T
  17   -732.8845176 -0.382247E-02  0.186E-01    0.13       1.0  T
  18   -732.8952132 -0.106956E-01  0.135E-01    0.07       1.0  T
  19   -732.8988745 -0.366130E-02  0.108E-01    0.06       1.0  T
  20   -732.9051904 -0.631583E-02  0.292E-02    0.08       1.0  T
  21   -732.9048560  0.334325E-03  0.374E-02    0.08       1.0  T
  22   -732.9055343 -0.678240E-03  0.157E-02    0.08       1.0  T
  23   -732.9055527 -0.184195E-04  0.147E-02    0.08       1.0  T
  24   -732.9056458 -0.931514E-04  0.696E-03    0.08       1.0  T
  25   -732.9056639 -0.180500E-04  0.407E-03    0.08       1.1  T
  26   -732.9056699 -0.596837E-05  0.262E-03    0.08       1.8  T
  27   -732.9056725 -0.260814E-05  0.142E-03    0.08       3.2  T
  28   -732.9056728 -0.337058E-06  0.119E-03    0.08       3.9  T
  29   -732.9056736 -0.797148E-06  0.233E-04    0.08      19.7  T
  30   -732.9056736  0.203561E-07  0.299E-04    0.08      15.3  T
  31   -732.9056736 -0.450124E-07  0.118E-04    0.08      38.9  T
  32   -732.9056736 -0.605428E-08  0.575E-05    0.08      79.8  T
  33   -732.9056736 -0.253522E-09  0.557E-05    0.08      82.4  T
speedup  2.00
cpu  time for SCC    1 m  1.0 s
wall time for SCC    0 m 30.5 s

   *** convergence criteria satisfied after 33 iterations ***

          eigenvalues
 #    :         631        632        633        634        635        636        637        638
 occ. :        2.000      2.000      2.000      2.000      2.000      2.000      2.000      2.000
 eps  :        -9.554     -9.491     -9.474     -9.133     -8.638     -8.601     -8.160     -8.063
 #    :         639        640        641        642        643        644        645        646
 occ. :        2.000      2.000      1.999      1.966      1.018      0.288      0.254      0.204
 eps  :        -7.881     -7.736     -7.694     -7.542     -7.370     -7.291     -7.285     -7.274
 #    :         647        648        649        650        651        652        653        654
 occ. :        0.177      0.048      0.039      0.008      0.000      0.000      0.000      0.000
 eps  :        -7.268     -7.209     -7.199     -7.129     -6.956     -6.909     -6.410     -6.319


   #   Z            q   n(s)   n(p)   n(d)      C6AA      α(0)
   1   7 N     -0.401  1.325  4.076  0.000    30.398     8.188
   2   6 C     -0.004  1.055  2.949  0.000    20.661     6.474
   3   6 C      0.326  1.018  2.656  0.000    21.460     7.585
   4   8 O     -0.286  1.625  4.661  0.000    19.532     5.926
   5   6 C     -0.080  1.065  3.015  0.000    22.013     6.679
   6   6 C     -0.073  1.046  3.028  0.000    21.895     6.661
   7   6 C     -0.087  1.059  3.028  0.000    22.158     6.701
   8   6 C     -0.042  1.069  2.974  0.000    21.425     6.607
   9   7 N     -0.142  1.265  3.877  0.000    24.056     7.285
  10   1 H      0.151  0.849  0.000  0.000     1.391     1.847
  11   1 H      0.034  0.966  0.000  0.000     2.536     2.490
  12   1 H      0.037  0.963  0.000  0.000     2.494     2.470
  13   1 H      0.052  0.948  0.000  0.000     2.299     2.371
  14   1 H      0.053  0.947  0.000  0.000     2.278     2.360
  15   1 H      0.058  0.942  0.000  0.000     2.223     2.331
  16   1 H      0.073  0.927  0.000  0.000     2.048     2.238
  17   1 H      0.073  0.927  0.000  0.000     2.052     2.240
  18   1 H      0.109  0.891  0.000  0.000     1.708     2.043
  19   1 H      0.101  0.899  0.000  0.000     1.780     2.087
  20   1 H      0.285  0.715  0.000  0.000     0.761     1.367
  21   1 H      0.297  0.703  0.000  0.000     0.725     1.334
  22   1 H      0.290  0.710  0.000  0.000     0.746     1.353
  23   7 N     -0.301  1.297  4.004  0.000    27.742     7.823
  24   6 C     -0.016  1.058  2.958  0.000    20.835     6.493
  25   6 C      0.370  0.982  2.649  0.000    20.732     7.456
  26   8 O     -0.191  1.555  4.636  0.000    17.902     5.674
  27   6 C     -0.064  1.034  3.030  0.000    21.706     6.630
  28   6 C      0.006  1.075  2.919  0.000    27.889     8.662
  29   6 C     -0.046  1.071  2.974  0.000    29.130     8.853
  30   6 C     -0.040  1.091  2.949  0.000    28.990     8.831
  31   6 C     -0.036  1.075  2.961  0.000    28.898     8.816
  32   6 C     -0.033  1.090  2.944  0.000    28.830     8.805
  33   6 C     -0.034  1.074  2.960  0.000    28.855     8.809
  34   1 H      0.188  0.812  0.000  0.000     1.168     1.693
  35   1 H      0.042  0.958  0.000  0.000     2.421     2.433
  36   1 H      0.048  0.952  0.000  0.000     2.350     2.397
  37   1 H      0.039  0.961  0.000  0.000     2.464     2.455
  38   1 H      0.034  0.966  0.000  0.000     2.535     2.490
  39   1 H      0.014  0.986  0.000  0.000     2.821     2.626
  40   1 H      0.039  0.961  0.000  0.000     2.457     2.451
  41   1 H      0.035  0.965  0.000  0.000     2.520     2.483
  42   1 H      0.042  0.958  0.000  0.000     2.417     2.431
  43   7 N     -0.321  1.302  4.019  0.000    28.258     7.895
  44   6 C     -0.023  1.041  2.982  0.000    21.058     6.546
  45   6 C      0.288  1.032  2.681  0.000    22.126     7.703
  46   8 O     -0.388  1.668  4.720  0.000    21.433     6.207
  47   1 H      0.165  0.835  0.000  0.000     1.303     1.788
  48   1 H      0.041  0.959  0.000  0.000     2.436     2.441
  49   1 H      0.057  0.943  0.000  0.000     2.234     2.337
  50   7 N     -0.170  1.275  3.895  0.000    24.666     7.376
  51   6 C      0.009  1.064  2.927  0.000    20.430     6.435
  52   6 C      0.208  1.061  2.732  0.000    23.595     7.956
  53   8 O     -0.370  1.736  4.634  0.000    21.095     6.158
  54   6 C     -0.063  1.060  3.003  0.000    21.688     6.628
  55   6 C     -0.061  1.032  3.030  0.000    21.656     6.622
  56   6 C     -0.015  1.070  2.945  0.000    20.919     6.526
  57   1 H      0.073  0.927  0.000  0.000     2.050     2.239
  58   1 H      0.052  0.948  0.000  0.000     2.293     2.368
  59   1 H      0.063  0.937  0.000  0.000     2.161     2.299
  60   1 H      0.059  0.941  0.000  0.000     2.211     2.325
  61   1 H      0.059  0.941  0.000  0.000     2.216     2.328
  62   1 H      0.078  0.922  0.000  0.000     1.997     2.210
  63   1 H      0.063  0.937  0.000  0.000     2.168     2.303
  64   7 N     -0.400  1.337  4.063  0.000    30.382     8.186
  65   6 C      0.046  1.039  2.915  0.000    19.825     6.343
  66   6 C      0.173  1.051  2.775  0.000    24.262     8.068
  67   8 O     -0.497  1.776  4.720  0.000    23.713     6.529
  68   6 C     -0.061  1.048  3.012  0.000    21.662     6.625
  69   6 C     -0.027  1.077  2.950  0.000    28.639     8.778
  70   6 C     -0.001  1.081  2.920  0.000    28.049     8.685
  71   6 C     -0.018  1.082  2.936  0.000    28.420     8.744
  72   7 N     -0.140  1.261  3.878  0.000    24.021     7.279
  73   6 C      0.041  1.090  2.869  0.000    27.075     8.535
  74   6 C     -0.040  1.085  2.955  0.000    29.000     8.831
  75   6 C     -0.054  1.086  2.968  0.000    29.351     8.883
  76   6 C     -0.049  1.069  2.979  0.000    29.205     8.862
  77   6 C     -0.046  1.070  2.976  0.000    29.137     8.852
  78   1 H      0.155  0.845  0.000  0.000     1.370     1.833
  79   1 H      0.069  0.931  0.000  0.000     2.101     2.267
  80   1 H      0.053  0.947  0.000  0.000     2.286     2.365
  81   1 H      0.062  0.938  0.000  0.000     2.170     2.304
  82   1 H      0.053  0.947  0.000  0.000     2.279     2.361
  83   1 H      0.184  0.816  0.000  0.000     1.193     1.711
  84   1 H      0.020  0.980  0.000  0.000     2.731     2.584
  85   1 H      0.030  0.970  0.000  0.000     2.592     2.518
  86   1 H      0.036  0.964  0.000  0.000     2.505     2.475
  87   1 H      0.039  0.961  0.000  0.000     2.460     2.453
  88   7 N     -0.269  1.181  4.088  0.000    26.953     7.711
  89   6 C      0.002  1.048  2.950  0.000    20.540     6.452
  90   6 C      0.327  1.007  2.666  0.000    21.418     7.590
  91   8 O     -0.167  1.526  4.642  0.000    17.500     5.611
  92   6 C     -0.118  1.128  2.990  0.000    22.794     6.802
  93   6 C     -0.045  1.074  2.971  0.000    21.422     6.597
  94   6 C     -0.145  1.059  3.086  0.000    25.098     7.429
  95   6 C     -0.123  1.040  3.083  0.000    22.973     6.844
  96   1 H      0.210  0.790  0.000  0.000     1.057     1.609
  97   1 H     -0.048  1.048  0.000  0.000     4.057     3.152
  98   1 H      0.011  0.989  0.000  0.000     2.869     2.649
  99   1 H     -0.008  1.008  0.000  0.000     3.206     2.802
 100   1 H      0.018  0.982  0.000  0.000     2.765     2.600
 101   1 H      0.097  0.903  0.000  0.000     1.811     2.105
 102   1 H     -0.007  1.007  0.000  0.000     3.205     2.806
 103   1 H     -0.006  1.006  0.000  0.000     3.213     2.812
 104   1 H      0.026  0.974  0.000  0.000     2.641     2.541
 105   1 H      0.048  0.952  0.000  0.000     2.342     2.393
 106   1 H      0.003  0.997  0.000  0.000     3.004     2.711
 107   7 N     -0.172  1.201  3.972  0.000    24.723     7.385
 108   6 C     -0.006  1.004  3.002  0.000    20.623     6.455
 109   6 C      0.338  0.990  2.672  0.000    21.279     7.543
 110   8 O     -0.178  1.576  4.602  0.000    17.704     5.642
 111   6 C     -0.071  1.118  2.954  0.000    21.805     6.638
 112   6 C     -0.112  1.183  2.928  0.000    30.800     9.084
 113   6 C     -0.086  1.080  3.006  0.000    30.184     8.983
 114   6 C     -0.088  1.051  3.037  0.000    30.197     9.010
 115   6 C     -0.047  1.039  3.008  0.000    29.177     8.857
 116   6 C     -0.193  1.112  3.081  0.000    33.073     9.434
 117   6 C      0.203  1.004  2.793  0.000    23.693     7.975
 118   8 O     -0.151  1.497  4.654  0.000    16.587     5.499
 119   1 H      0.111  0.889  0.000  0.000     1.711     2.052
 120   1 H     -0.023  1.023  0.000  0.000     3.488     2.921
 121   1 H     -0.085  1.085  0.000  0.000     5.118     3.548
 122   1 H     -0.016  1.016  0.000  0.000     3.359     2.866
 123   1 H      0.078  0.922  0.000  0.000     1.997     2.210
 124   1 H      0.046  0.954  0.000  0.000     2.364     2.404
 125   1 H      0.025  0.975  0.000  0.000     2.664     2.552
 126   1 H     -0.049  1.049  0.000  0.000     4.068     3.154
 127   1 H      0.418  0.582  0.000  0.000     0.453     1.057
 128   7 N     -0.237  1.226  4.011  0.000    26.204     7.603
 129   6 C     -0.042  1.051  2.991  0.000    21.336     6.580
 130   6 C      0.261  1.055  2.684  0.000    22.608     7.786
 131   8 O     -0.478  1.762  4.716  0.000    23.293     6.471
 132   1 H      0.220  0.780  0.000  0.000     1.011     1.575
 133   1 H      0.090  0.910  0.000  0.000     1.882     2.145
 134   1 H      0.096  0.904  0.000  0.000     1.820     2.110
 135   7 N     -0.172  1.249  3.923  0.000    24.723     7.385
 136   6 C      0.015  1.044  2.941  0.000    20.310     6.414
 137   6 C      0.294  1.028  2.679  0.000    22.026     7.689
 138   8 O     -0.429  1.707  4.722  0.000    22.276     6.328
 139   6 C     -0.049  1.023  3.026  0.000    21.405     6.579
 140   6 C     -0.108  1.040  3.068  0.000    22.551     6.758
 141   6 C      0.313  1.020  2.667  0.000    21.680     7.624
 142   8 O     -0.352  1.681  4.671  0.000    20.738     6.106
 143   7 N     -0.354  1.309  4.045  0.000    29.134     8.016
 144   1 H      0.219  0.781  0.000  0.000     1.013     1.577
 145   1 H      0.083  0.917  0.000  0.000     1.953     2.186
 146   1 H      0.055  0.945  0.000  0.000     2.264     2.353
 147   1 H      0.054  0.946  0.000  0.000     2.274     2.358
 148   1 H      0.063  0.937  0.000  0.000     2.162     2.300
 149   1 H      0.071  0.929  0.000  0.000     2.079     2.255
 150   1 H      0.201  0.799  0.000  0.000     1.103     1.645
 151   1 H      0.177  0.823  0.000  0.000     1.233     1.740
 152   7 N     -0.231  1.276  3.955  0.000    26.052     7.581
 153   6 C      0.001  1.078  2.921  0.000    20.576     6.460
 154   6 C      0.291  1.033  2.676  0.000    22.071     7.693
 155   8 O     -0.469  1.723  4.746  0.000    23.106     6.445
 156   6 C     -0.022  1.060  2.962  0.000    20.935     6.507
 157   6 C     -0.114  1.056  3.058  0.000    22.759     6.806
 158   6 C     -0.122  1.059  3.064  0.000    22.927     6.832
 159   1 H      0.229  0.771  0.000  0.000     0.969     1.542
 160   1 H      0.073  0.927  0.000  0.000     2.052     2.240
 161   1 H      0.045  0.955  0.000  0.000     2.384     2.414
 162   1 H      0.059  0.941  0.000  0.000     2.210     2.325
 163   1 H      0.036  0.964  0.000  0.000     2.504     2.475
 164   1 H      0.037  0.963  0.000  0.000     2.490     2.468
 165   1 H      0.057  0.943  0.000  0.000     2.234     2.337
 166   1 H      0.044  0.956  0.000  0.000     2.402     2.424
 167   1 H      0.043  0.957  0.000  0.000     2.415     2.431
 168   7 N     -0.198  1.272  3.926  0.000    25.290     7.469
 169   6 C      0.038  1.056  2.905  0.000    19.947     6.362
 170   6 C      0.150  1.061  2.788  0.000    24.719     8.143
 171   8 O     -0.477  1.779  4.698  0.000    23.288     6.470
 172   6 C     -0.117  1.066  3.051  0.000    22.821     6.816
 173   1 H      0.222  0.778  0.000  0.000     1.002     1.568
 174   1 H      0.038  0.962  0.000  0.000     2.482     2.464
 175   1 H      0.061  0.939  0.000  0.000     2.187     2.313
 176   1 H      0.074  0.926  0.000  0.000     2.041     2.235
 177   1 H      0.062  0.938  0.000  0.000     2.180     2.309
 178   7 N     -0.397  1.343  4.054  0.000    30.292     8.174
 179   6 C      0.043  1.056  2.902  0.000    19.884     6.353
 180   6 C      0.173  1.066  2.761  0.000    24.271     8.069
 181   8 O     -0.465  1.777  4.689  0.000    23.033     6.435
 182   6 C     -0.064  1.066  2.998  0.000    21.732     6.637
 183   6 C     -0.019  1.061  2.957  0.000    20.877     6.499
 184   6 C     -0.111  1.054  3.056  0.000    22.690     6.795
 185   6 C     -0.102  1.054  3.047  0.000    22.519     6.771
 186   1 H      0.177  0.823  0.000  0.000     1.229     1.737
 187   1 H      0.037  0.963  0.000  0.000     2.489     2.467
 188   1 H      0.037  0.963  0.000  0.000     2.489     2.467
 189   1 H      0.024  0.976  0.000  0.000     2.671     2.556
 190   1 H      0.005  0.995  0.000  0.000     2.976     2.698
 191   1 H      0.051  0.949  0.000  0.000     2.313     2.378
 192   1 H      0.035  0.965  0.000  0.000     2.512     2.479
 193   1 H      0.053  0.947  0.000  0.000     2.287     2.365
 194   1 H      0.042  0.958  0.000  0.000     2.428     2.437
 195   1 H      0.040  0.960  0.000  0.000     2.449     2.448
 196   1 H      0.025  0.975  0.000  0.000     2.655     2.549
 197   7 N     -0.387  1.327  4.060  0.000    30.011     8.136
 198   6 C      0.022  1.046  2.931  0.000    20.212     6.403
 199   6 C      0.217  1.062  2.721  0.000    23.408     7.923
 200   8 O     -0.318  1.695  4.623  0.000    20.108     6.012
 201   6 C     -0.060  1.045  3.015  0.000    21.642     6.622
 202   6 C     -0.101  1.067  3.035  0.000    22.431     6.743
 203   6 C      0.286  1.041  2.673  0.000    22.150     7.706
 204   8 O     -0.450  1.723  4.726  0.000    22.695     6.387
 205   7 N     -0.303  1.293  4.011  0.000    27.816     7.833
 206   1 H      0.176  0.824  0.000  0.000     1.234     1.740
 207   1 H      0.047  0.953  0.000  0.000     2.361     2.403
 208   1 H      0.060  0.940  0.000  0.000     2.205     2.322
 209   1 H      0.044  0.956  0.000  0.000     2.397     2.421
 210   1 H      0.040  0.960  0.000  0.000     2.455     2.450
 211   1 H      0.070  0.930  0.000  0.000     2.090     2.261
 212   1 H      0.237  0.763  0.000  0.000     0.936     1.515
 213   1 H      0.210  0.790  0.000  0.000     1.056     1.610
 214   7 N     -0.383  1.359  4.024  0.000    29.903     8.121
 215   6 C      0.009  1.077  2.914  0.000    20.451     6.443
 216   6 C      0.228  1.062  2.710  0.000    23.218     7.891
 217   8 O     -0.305  1.695  4.611  0.000    19.875     5.977
 218   6 C     -0.081  1.058  3.023  0.000    22.053     6.687
 219   6 C     -0.019  1.065  2.953  0.000    20.877     6.500
 220   6 C     -0.109  1.049  3.060  0.000    22.645     6.787
 221   6 C     -0.138  1.068  3.071  0.000    23.259     6.883
 222   1 H      0.154  0.846  0.000  0.000     1.374     1.836
 223   1 H      0.038  0.962  0.000  0.000     2.471     2.458
 224   1 H      0.048  0.952  0.000  0.000     2.348     2.396
 225   1 H      0.050  0.950  0.000  0.000     2.321     2.382
 226   1 H      0.011  0.989  0.000  0.000     2.874     2.651
 227   1 H      0.048  0.952  0.000  0.000     2.350     2.397
 228   1 H      0.040  0.960  0.000  0.000     2.450     2.448
 229   1 H      0.037  0.963  0.000  0.000     2.489     2.467
 230   1 H      0.068  0.932  0.000  0.000     2.104     2.269
 231   1 H      0.044  0.956  0.000  0.000     2.397     2.421
 232   1 H      0.031  0.969  0.000  0.000     2.576     2.510
 233   7 N     -0.401  1.337  4.064  0.000    30.396     8.188
 234   6 C      0.021  1.065  2.914  0.000    20.238     6.407
 235   6 C      0.318  1.019  2.663  0.000    21.605     7.612
 236   8 O     -0.399  1.686  4.713  0.000    21.663     6.240
 237   6 C     -0.033  1.081  2.952  0.000    21.127     6.538
 238   6 C     -0.070  1.051  3.018  0.000    21.838     6.654
 239   6 C     -0.118  1.061  3.057  0.000    22.853     6.822
 240   6 C     -0.118  1.065  3.054  0.000    22.866     6.825
 241   1 H      0.160  0.840  0.000  0.000     1.336     1.810
 242   1 H      0.006  0.994  0.000  0.000     2.959     2.690
 243   1 H      0.031  0.969  0.000  0.000     2.578     2.511
 244   1 H      0.031  0.969  0.000  0.000     2.574     2.509
 245   1 H      0.033  0.967  0.000  0.000     2.547     2.495
 246   1 H      0.070  0.930  0.000  0.000     2.090     2.261
 247   1 H      0.032  0.968  0.000  0.000     2.565     2.504
 248   1 H      0.037  0.963  0.000  0.000     2.492     2.468
 249   1 H      0.045  0.955  0.000  0.000     2.379     2.412
 250   1 H      0.041  0.959  0.000  0.000     2.436     2.441
 251   1 H      0.055  0.945  0.000  0.000     2.261     2.352
 252   7 N     -0.261  1.292  3.969  0.000    26.760     7.683
 253   6 C     -0.003  1.072  2.931  0.000    20.634     6.466
 254   6 C      0.308  1.012  2.680  0.000    21.771     7.641
 255   8 O     -0.403  1.684  4.719  0.000    21.742     6.252
 256   6 C     -0.063  1.037  3.025  0.000    21.699     6.631
 257   6 C     -0.119  1.071  3.048  0.000    22.735     6.781
 258   6 C      0.378  0.950  2.672  0.000    20.601     7.432
 259   8 O     -0.379  1.605  4.774  0.000    21.205     6.177
 260   7 N     -0.321  1.266  4.055  0.000    28.248     7.894
 261   1 H      0.227  0.773  0.000  0.000     0.978     1.549
 262   1 H      0.052  0.948  0.000  0.000     2.292     2.368
 263   1 H      0.053  0.947  0.000  0.000     2.284     2.363
 264   1 H      0.049  0.951  0.000  0.000     2.327     2.386
 265   1 H      0.019  0.981  0.000  0.000     2.742     2.590
 266   1 H      0.032  0.968  0.000  0.000     2.559     2.502
 267   1 H      0.205  0.795  0.000  0.000     1.082     1.629
 268   1 H      0.192  0.808  0.000  0.000     1.149     1.679
 269   7 N     -0.217  1.252  3.965  0.000    25.733     7.534
 270   6 C      0.015  1.057  2.928  0.000    20.312     6.415
 271   6 C      0.286  1.020  2.694  0.000    22.159     7.710
 272   8 O     -0.492  1.720  4.772  0.000    23.606     6.514
 273   6 C     -0.142  1.085  3.058  0.000    23.236     6.862
 274   6 C      0.345  1.000  2.655  0.000    21.139     7.528
 275   8 O     -0.249  1.598  4.651  0.000    18.880     5.826
 276   7 N     -0.394  1.303  4.091  0.000    30.207     8.163
 277   1 H      0.218  0.782  0.000  0.000     1.019     1.581
 278   1 H      0.050  0.950  0.000  0.000     2.324     2.384
 279   1 H      0.070  0.930  0.000  0.000     2.087     2.259
 280   1 H      0.050  0.950  0.000  0.000     2.320     2.382
 281   1 H      0.177  0.823  0.000  0.000     1.234     1.740
 282   1 H      0.182  0.818  0.000  0.000     1.203     1.718
 283   7 N     -0.220  1.265  3.955  0.000    25.806     7.545
 284   6 C      0.013  1.055  2.932  0.000    20.338     6.418
 285   6 C      0.296  1.039  2.665  0.000    21.985     7.680
 286   8 O     -0.380  1.680  4.700  0.000    21.287     6.186
 287   6 C     -0.023  1.066  2.957  0.000    20.941     6.508
 288   6 C     -0.119  1.061  3.057  0.000    22.846     6.819
 289   6 C     -0.118  1.061  3.057  0.000    22.846     6.819
 290   1 H      0.271  0.729  0.000  0.000     0.805     1.404
 291   1 H      0.040  0.960  0.000  0.000     2.446     2.446
 292   1 H      0.023  0.977  0.000  0.000     2.687     2.564
 293   1 H      0.050  0.950  0.000  0.000     2.325     2.385
 294   1 H      0.040  0.960  0.000  0.000     2.450     2.448
 295   1 H      0.051  0.949  0.000  0.000     2.310     2.377
 296   1 H      0.049  0.951  0.000  0.000     2.339     2.392
 297   1 H      0.051  0.949  0.000  0.000     2.302     2.373
 298   1 H      0.042  0.958  0.000  0.000     2.427     2.436
 299   7 N     -0.262  1.297  3.966  0.000    26.800     7.689
 300   6 C     -0.073  1.067  3.006  0.000    22.171     6.752
 301   6 C      0.234  1.069  2.697  0.000    23.087     7.862
 302   8 O     -0.217  1.624  4.592  0.000    18.341     5.742
 303   1 H      0.197  0.803  0.000  0.000     1.122     1.660
 304   1 H      0.078  0.922  0.000  0.000     2.005     2.214
 305   1 H      0.093  0.907  0.000  0.000     1.854     2.129
 306   7 N     -0.375  1.354  4.021  0.000    29.692     8.093
 307   6 C      0.004  1.063  2.933  0.000    20.516     6.451
 308   6 C      0.251  1.036  2.713  0.000    22.780     7.818
 309   8 O     -0.268  1.640  4.628  0.000    19.207     5.876
 310   6 C     -0.070  1.050  3.020  0.000    21.821     6.647
 311   6 C     -0.020  1.053  2.967  0.000    20.903     6.503
 312   6 C     -0.111  1.060  3.051  0.000    22.707     6.799
 313   6 C     -0.114  1.048  3.065  0.000    22.746     6.803
 314   1 H      0.157  0.843  0.000  0.000     1.357     1.825
 315   1 H      0.025  0.975  0.000  0.000     2.658     2.550
 316   1 H      0.037  0.963  0.000  0.000     2.487     2.466
 317   1 H      0.027  0.973  0.000  0.000     2.623     2.532
 318   1 H      0.019  0.981  0.000  0.000     2.747     2.592
 319   1 H      0.035  0.965  0.000  0.000     2.518     2.482
 320   1 H      0.036  0.964  0.000  0.000     2.501     2.473
 321   1 H      0.040  0.960  0.000  0.000     2.450     2.448
 322   1 H      0.048  0.952  0.000  0.000     2.346     2.395
 323   1 H      0.048  0.952  0.000  0.000     2.339     2.392
 324   1 H      0.045  0.955  0.000  0.000     2.385     2.415
 325   7 N     -0.403  1.343  4.059  0.000    30.445     8.195
 326   6 C     -0.006  1.051  2.955  0.000    20.702     6.480
 327   6 C      0.334  1.008  2.658  0.000    21.320     7.561
 328   8 O     -0.207  1.610  4.597  0.000    18.170     5.715
 329   6 C     -0.119  1.053  3.066  0.000    22.757     6.788
 330   6 C      0.328  1.019  2.653  0.000    21.417     7.576
 331   8 O     -0.221  1.610  4.611  0.000    18.405     5.752
 332   7 N     -0.420  1.315  4.104  0.000    30.927     8.259
 333   1 H      0.145  0.855  0.000  0.000     1.438     1.878
 334   1 H      0.051  0.949  0.000  0.000     2.301     2.372
 335   1 H      0.033  0.967  0.000  0.000     2.540     2.493
 336   1 H      0.024  0.976  0.000  0.000     2.672     2.556
 337   1 H      0.178  0.822  0.000  0.000     1.224     1.733
 338   1 H      0.190  0.810  0.000  0.000     1.156     1.684
 339   7 N     -0.320  1.300  4.019  0.000    28.222     7.890
 340   6 C      0.010  1.061  2.928  0.000    20.414     6.435
 341   6 C      0.270  1.059  2.670  0.000    22.436     7.756
 342   8 O     -0.434  1.722  4.712  0.000    22.368     6.341
 343   6 C      0.100  1.063  2.838  0.000    19.087     6.248
 344   8 O     -0.512  1.789  4.723  0.000    23.187     6.499
 345   6 C     -0.126  1.060  3.066  0.000    23.015     6.846
 346   1 H      0.188  0.812  0.000  0.000     1.168     1.693
 347   1 H      0.073  0.927  0.000  0.000     2.049     2.239
 348   1 H      0.043  0.957  0.000  0.000     2.413     2.429
 349   1 H      0.302  0.698  0.000  0.000     0.717     1.331
 350   1 H      0.045  0.955  0.000  0.000     2.388     2.417
 351   1 H      0.056  0.944  0.000  0.000     2.242     2.341
 352   1 H      0.080  0.920  0.000  0.000     1.977     2.199
 353   7 N     -0.237  1.287  3.949  0.000    26.187     7.600
 354   6 C      0.014  1.071  2.915  0.000    20.332     6.419
 355   6 C      0.304  1.025  2.671  0.000    21.836     7.651
 356   8 O     -0.347  1.676  4.671  0.000    20.654     6.093
 357   6 C     -0.063  1.024  3.039  0.000    21.677     6.624
 358   6 C     -0.025  1.106  2.919  0.000    28.627     8.776
 359   6 C     -0.055  1.093  2.961  0.000    29.352     8.887
 360   6 C     -0.033  1.090  2.943  0.000    28.826     8.806
 361   6 C     -0.067  1.061  3.006  0.000    29.660     8.930
 362   6 C     -0.067  1.077  2.991  0.000    29.671     8.932
 363   6 C      0.148  1.044  2.808  0.000    24.778     8.161
 364   8 O     -0.434  1.724  4.710  0.000    21.530     6.264
 365   1 H      0.194  0.806  0.000  0.000     1.139     1.672
 366   1 H      0.068  0.932  0.000  0.000     2.105     2.269
 367   1 H      0.076  0.924  0.000  0.000     2.027     2.226
 368   1 H      0.083  0.917  0.000  0.000     1.951     2.184
 369   1 H      0.036  0.964  0.000  0.000     2.500     2.473
 370   1 H      0.022  0.978  0.000  0.000     2.703     2.571
 371   1 H      0.064  0.936  0.000  0.000     2.154     2.295
 372   1 H      0.044  0.956  0.000  0.000     2.391     2.418
 373   1 H      0.333  0.667  0.000  0.000     0.632     1.250
 374   7 N     -0.248  1.277  3.970  0.000    26.449     7.638
 375   6 C      0.030  1.069  2.901  0.000    20.083     6.383
 376   6 C      0.145  1.075  2.780  0.000    24.828     8.160
 377   8 O     -0.440  1.778  4.662  0.000    22.489     6.358
 378   6 C     -0.074  1.048  3.027  0.000    21.924     6.667
 379   6 C     -0.052  1.113  2.939  0.000    29.284     8.876
 380   6 C     -0.019  1.077  2.942  0.000    28.480     8.750
 381   6 C     -0.027  1.109  2.917  0.000    28.661     8.782
 382   7 N     -0.115  1.231  3.884  0.000    23.500     7.200
 383   6 C      0.044  1.085  2.871  0.000    27.011     8.525
 384   6 C     -0.027  1.105  2.922  0.000    28.672     8.779
 385   6 C     -0.052  1.071  2.981  0.000    29.286     8.873
 386   6 C     -0.051  1.079  2.973  0.000    29.268     8.870
 387   6 C     -0.043  1.079  2.964  0.000    29.064     8.841
 388   1 H      0.220  0.780  0.000  0.000     1.008     1.573
 389   1 H      0.044  0.956  0.000  0.000     2.401     2.423
 390   1 H      0.058  0.942  0.000  0.000     2.221     2.331
 391   1 H      0.073  0.927  0.000  0.000     2.053     2.241
 392   1 H      0.066  0.934  0.000  0.000     2.130     2.282
 393   1 H      0.169  0.831  0.000  0.000     1.280     1.772
 394   1 H     -0.001  1.001  0.000  0.000     3.077     2.744
 395   1 H      0.031  0.969  0.000  0.000     2.577     2.510
 396   1 H      0.038  0.962  0.000  0.000     2.470     2.457
 397   1 H      0.021  0.979  0.000  0.000     2.725     2.581
 398   7 N     -0.237  1.270  3.966  0.000    26.225     7.605
 399   6 C      0.010  1.066  2.924  0.000    21.784     6.888
 400   6 C      0.338  0.970  2.692  0.000    21.193     7.546
 401   8 O     -0.180  1.511  4.670  0.000    17.659     5.639
 402   1 H      0.129  0.871  0.000  0.000     1.596     1.992
 403   1 H     -0.177  1.177  0.000  0.000     9.403     4.819
 404   1 H     -0.083  1.083  0.000  0.000     5.120     3.559
 405   7 N     -0.113  1.212  3.901  0.000    23.470     7.195
 406   6 C     -0.050  1.095  2.955  0.000    21.397     6.573
 407   6 C      0.319  1.019  2.663  0.000    21.406     7.570
 408   8 O     -0.218  1.641  4.577  0.000    18.355     5.744
 409   6 C      0.097  1.062  2.841  0.000    19.521     6.390
 410   8 O     -0.414  1.688  4.726  0.000    21.205     6.212
 411   6 C     -0.135  1.088  3.047  0.000    24.315     7.224
 412   1 H      0.125  0.875  0.000  0.000     1.690     2.069
 413   1 H      0.022  0.978  0.000  0.000     2.704     2.572
 414   1 H     -0.018  1.018  0.000  0.000     3.386     2.877
 415   1 H      0.314  0.686  0.000  0.000     0.741     1.380
 416   1 H      0.045  0.955  0.000  0.000     2.388     2.417
 417   1 H     -0.070  1.070  0.000  0.000     4.785     3.453
 418   1 H      0.080  0.920  0.000  0.000     1.981     2.201
 419   7 N     -0.205  1.170  4.036  0.000    25.464     7.495
 420   6 C     -0.145  1.129  3.016  0.000    28.103     8.294
 421   6 C      0.351  0.987  2.662  0.000    21.046     7.517
 422   8 O     -0.141  1.632  4.509  0.000    17.137     5.550
 423   6 C     -0.058  1.106  2.952  0.000    22.365     6.863
 424   6 C      0.000  1.076  2.923  0.000    28.016     8.682
 425   6 C     -0.081  1.098  2.983  0.000    30.017     8.986
 426   6 C     -0.209  1.270  2.939  0.000    33.546     9.501
 427   6 C     -0.111  1.068  3.044  0.000    22.577     6.757
 428   6 C     -0.054  1.072  2.982  0.000    21.477     6.586
 429   6 C      0.323  0.887  2.789  0.000    21.523     7.610
 430   8 O     -0.211  1.566  4.645  0.000    17.477     5.646
 431   1 H      0.243  0.757  0.000  0.000     0.910     1.494
 432   1 H      0.038  0.962  0.000  0.000     2.469     2.457
 433   1 H      0.084  0.916  0.000  0.000     1.934     2.175
 434   1 H     -0.117  1.117  0.000  0.000     7.113     4.311
 435   1 H      0.059  0.941  0.000  0.000     2.214     2.326
 436   1 H     -0.015  1.015  0.000  0.000     3.324     2.851
 437   1 H      0.016  0.984  0.000  0.000     2.839     2.644
 438   1 H      0.068  0.932  0.000  0.000     2.106     2.270
 439   1 H      0.240  0.760  0.000  0.000     2.215     2.711
 440   7 N     -0.130  1.190  3.940  0.000    23.826     7.250
 441   6 C     -0.088  1.031  3.057  0.000    22.082     6.674
 442   6 C      0.303  1.002  2.696  0.000    21.869     7.661
 443   8 O     -0.192  1.541  4.651  0.000    17.820     5.666
 444   6 C     -0.120  1.121  2.999  0.000    24.319     7.274
 445   6 C     -0.172  1.099  3.074  0.000    23.796     6.935
 446   6 C      0.524  0.922  2.554  0.000    18.468     7.023
 447   8 O     -0.370  1.646  4.724  0.000    20.955     6.144
 448   8 O     -0.334  1.621  4.712  0.000    20.388     6.055
 449   1 H      0.236  0.764  0.000  0.000     0.939     1.519
 450   1 H      0.109  0.891  0.000  0.000     1.706     2.043
 451   1 H      0.043  0.957  0.000  0.000     2.414     2.430
 452   1 H      0.048  0.952  0.000  0.000     2.348     2.396
 453   1 H      0.023  0.977  0.000  0.000     2.688     2.563
 454   1 H      0.047  0.953  0.000  0.000     2.361     2.403
 455   1 H      0.191  0.809  0.000  0.000     1.155     1.684
 456   1 H      0.046  0.954  0.000  0.000     2.365     2.405
 457   1 H      0.174  0.826  0.000  0.000     1.251     1.752
 458   1 H      0.027  0.973  0.000  0.000     2.624     2.533
 459   1 H      0.214  0.786  0.000  0.000     1.029     1.586
 460   1 H      0.020  0.980  0.000  0.000     2.736     2.586
 461   1 H      0.176  0.824  0.000  0.000     1.237     1.742
 462   1 H      0.029  0.971  0.000  0.000     2.594     2.518
 463   1 H      0.181  0.819  0.000  0.000     1.206     1.720
 464   1 H      0.046  0.954  0.000  0.000     2.365     2.404
 465   1 H      0.178  0.822  0.000  0.000     1.225     1.734
 466   1 H      0.051  0.949  0.000  0.000     2.301     2.372
 467   1 H      0.175  0.825  0.000  0.000     1.244     1.747
 468   1 H      0.029  0.971  0.000  0.000     2.600     2.521
 469   1 H      0.177  0.823  0.000  0.000     1.233     1.739
 470   1 H      0.007  0.993  0.000  0.000     2.939     2.681
 471   1 H      0.177  0.823  0.000  0.000     1.231     1.738
 472   1 H      0.052  0.948  0.000  0.000     2.289     2.366
 473   1 H      0.226  0.774  0.000  0.000     0.976     1.545
 474   1 H     -0.067  1.067  0.000  0.000     4.501     3.312

 Mol. C6AA /au·bohr⁶  :    2168925.608031
 Mol. C8AA /au·bohr⁸  :   48505513.241290
 Mol. α(0) /au        :       2229.216919

 
molecular dipole:
                 x           y           z       tot (Debye)
 q only:      -12.578      -5.801     -15.248
   full:      -11.822      -6.267     -14.144      49.490
molecular quadrupole (traceless):
                xx          xy          yy          xz          yz          zz
 q only:       38.767   -1188.617    -453.026    -109.163   -1114.686     414.260
  q+dip:       66.931   -1134.151    -484.092    -141.654   -1059.714     417.160
   full:       70.853   -1129.375    -491.748    -139.356   -1053.257     420.895
speedup  2.00
cpu  time for grad    1 m 11.0 s
wall time for grad    0 m 35.5 s

SCC energy    :    -732.9296028
rep           :      15.8924233
ES            :       1.4058163
AES           :       0.0663173
AXC           :       0.2079902
disp          :      -0.6518530
XB            :       0.0000000
fix           :       0.0000000
Gborn         :       0.0000000
Gsasa         :       0.0000000
Ghb           :       0.0000000
Gshift        :       0.0000000
Gsolv         :      -0.2400446     -150.63
Etot ala COSMO:    -732.9296028
grad norm     :       8.3484914
total E       :    -716.9684201
atomizationE  :     126.8403315    79593.51
(atE without considering molecular charge,
 total energy contains solvation terms)
H-L gap (eV)  :          0.0784

------------------------------------------------------------------------
 * finished run on 2019/05/12 at 07:58:09.627     
------------------------------------------------------------------------
 total:
 * wall-time:     0 d,  0 h,  0 min, 36.955 sec
 *  cpu-time:     0 d,  0 h,  1 min, 13.288 sec
 * ratio c/w:     1.983 speedup
 SCF:
 * wall-time:     0 d,  0 h,  0 min, 36.371 sec
 *  cpu-time:     0 d,  0 h,  1 min, 12.513 sec
 * ratio c/w:     1.994 speedup

