      -----------------------------------------------------------      
     |                   =====================                   |     
     |                           x T B                           |     
     |                   =====================                   |     
     |                         S. Grimme                         |     
     |          Mulliken Center for Theoretical Chemistry        |     
     |                    University of Bonn                     |     
     |                 Version 6.0.1 (SAW181210)                 |     
      -----------------------------------------------------------      

   This program is distributed in the hope that it will be useful,
   but WITHOUT ANY WARRANTY; without even the implied warranty of
   MERCHANTABILITY or FITNESS FOR A PARTICULAR PURPOSE.
   
   FOR NON-COMMERCIAL, ACADEMIA USE ONLY.
   
   Cite this work as:
   S. Grimme, C. Bannwarth, P. Shushkov, J. Comput. Theory Chem., 2017,
   13, 1989-2009.
   C. Bannwarth, S. Ehlert and S. Grimme., ChemRxiv, 2018, preprint.
   http://doi.org/10.26434/chemrxiv.7246238.v1
   
   for sTDA-xTB:
   S. Grimme and C. Bannwarth, J. Chem. Phys., 2016, 145, 054103.
   
   in the mass-spec context:
   V. Asgeirsson, C. Bauer and S. Grimme, Chem. Sci., 2017, 8, 4879.
   
   if GBSA is used:
   P. Shushkov, F. März and S. Grimme, unpublished.
   
   for ANC optimizer:
   S. Grimme, unpublished.
   Rational Function algorithm used in ANCopt:
   F. Eckert, P. Pulay, H.-J. Werner, J. Comput. Chem., 1997, 18, 1473.
   
   with help from (in alphabetical order)
   C. Bannwarth, F. Bohle, G. Brandenburg, E. Caldeweyher, M. Checinski,
   S. Dohm, S. Ehlert, S. Ehrlich, F. März, H. Neugebauer, J. Pisarek,
   P. Pracht, P. Shushkov, and S. Spicher.
   
 * started run on 2019/05/04 at 19:50:17.537     
========================================================================
 # omp threads = 2
========================================================================
number of atoms            : 330
number of electrons        : 906
charge                     : -2
spin                       : .0
first test random number   : .1807

########################################################################
# WARNING! Please study the warnings concerning your input carefully
#  - Process number higher than OMP_NUM_THREADS, I hope you know what you are doing.
########################################################################

           ------------------------------------------------- 
          |                 G F N 2 - x T B                 |
          | Geometry, Frequencies, Noncovalent interactions |
          |            JCTC 2018 parametrisation            |
           ------------------------------------------------- 
 
      method parameters     
 k(s)        :  1.8500
 k(p)        :  2.2300
 k(d)        :  2.2300
 k(f)        :  2.0000
 kEN (H0ij)  : -2.0000
 D4 a1       :  0.5200
 D4 a2       :  5.0000
 D4 s6       :  1.0000
 D4 s8       :  2.7000
 D4 s9       :  5.0000
 alphaj      :  2.0000

 Solvent             : h2o
 Using internal parameter file: .param_gbsa2_h2o
 Gsolv ref. state (COSMO-RS): gsolv [1 M gas/solution]
 temperature (mdtemp)       :    298.150000000000     
 dielectric constant        :    80.2000000000000     
 rho                        :    1.00000000000000     
 mass                       :    18.0000000000000     
 surface tension            :    15.5689454083859     
 probe radius               :   0.975313790000000     
 vdW radii scaling          :    1.00000000000000     
 Gshift (Eh)                :   1.857443126794793E-003
 c1                         :    1.55243817000000     
 soset                      :   0.130326360000000     
 HB correction              :  T

            Z     q(EN)     CN     RAES       Cart. coordinates
     1  N   5.0   -0.22    3.18    1.95    39.26851    28.82777    28.19471
     2  C   4.0    0.02    4.21    4.01    39.53307    27.97172    30.85356
     3  C   4.0    0.07    3.19    3.03    41.06941    29.78208    32.41069
     4  O   6.0   -0.31    1.17    1.80    40.58186    30.18081    34.66702
     5  C   4.0   -0.04    4.26    4.12    40.60643    25.21272    30.94993
     6  C   4.0   -0.04    4.23    4.06    38.64868    23.51953    29.71972
     7  C   4.0    0.25    3.13    3.03    39.65590    20.82856    29.50429
     8  O   6.0   -0.30    1.20    1.80    41.98215    20.59990    29.20949
     9  O   6.0   -0.32    1.24    1.80    38.09310    19.06167    29.44382
    10  H   1.0    0.08    1.02    1.43    39.98471    27.73173    26.79631
    11  H   1.0    0.04    1.05    1.44    37.62822    27.96039    31.67937
    12  H   1.0    0.06    1.03    1.43    42.39222    25.12580    29.93137
    13  H   1.0    0.06    1.02    1.43    40.93524    24.67604    32.90580
    14  H   1.0    0.04    1.03    1.43    36.89501    23.52520    30.80442
    15  H   1.0    0.04    1.03    1.43    38.23483    24.14881    27.79976
    16  N   5.0   -0.21    3.23    1.96    37.30697    35.97093    34.10388
    17  C   4.0    0.03    4.29    4.17    35.47771    35.53441    36.15424
    18  C   4.0    0.15    3.42    3.08    36.69092    33.93759    38.26884
    19  O   6.0   -0.32    1.34    1.80    35.38134    32.75840    39.80141
    20  C   4.0   -0.03    4.32    4.23    33.08532    34.20971    35.15079
    21  C   4.0   -0.02    3.54    3.13    31.49417    35.80653    33.43681
    22  C   4.0   -0.05    3.49    3.11    30.30931    37.95326    34.37412
    23  C   4.0   -0.05    3.44    3.09    31.35055    35.31709    30.85356
    24  C   4.0   -0.05    3.43    3.09    28.90525    39.56141    32.86800
    25  C   4.0   -0.05    3.43    3.09    29.66303    36.71926    29.40225
    26  C   4.0    0.06    3.44    3.09    28.44793    38.84332    30.37734
    27  O   6.0   -0.26    2.12    1.84    26.94938    40.37966    28.99407
    28  H   1.0    0.09    1.02    1.43    37.49405    34.58954    32.79619
    29  H   1.0    0.04    1.05    1.44    35.02418    37.38634    36.95926
    30  H   1.0    0.04    1.03    1.43    33.68059    32.49762    34.16247
    31  H   1.0    0.05    1.03    1.43    31.99495    33.64468    36.81186
    32  H   1.0    0.04    1.03    1.43    30.57010    38.42380    36.34321
    33  H   1.0    0.04    1.03    1.43    32.37856    33.75806    30.04097
    34  H   1.0    0.05    1.03    1.43    28.09834    41.26217    33.63523
    35  H   1.0    0.05    1.03    1.43    29.46083    36.24683    27.42937
    36  H   1.0    0.11    1.03    1.43    26.59789    39.65401    27.34811
    37  N   5.0   -0.14    3.48    2.06    39.18725    34.20215    38.54852
    38  C   4.0    0.04    4.34    4.27    40.53084    32.75084    40.43447
    39  C   4.0    0.16    3.51    3.12    39.34976    33.15902    43.09709
    40  O   6.0   -0.30    1.26    1.80    39.30630    31.37323    44.58241
    41  C   4.0   -0.07    4.12    3.85    43.27661    33.50106    40.60643
    42  H   1.0    0.08    1.07    1.44    40.27573    35.11111    37.25784
    43  H   1.0    0.06    1.05    1.44    40.33053    30.72316    40.04707
    44  H   1.0    0.05    1.00    1.43    44.24604    32.22550    41.88767
    45  H   1.0    0.04    1.00    1.43    44.15912    33.39335    38.75639
    46  H   1.0    0.05    1.00    1.43    43.44102    35.42291    41.31697
    47  N   5.0   -0.14    3.52    2.09    38.48994    35.43803    43.68668
    48  C   4.0    0.05    4.45    4.47    37.56775    35.90479    46.20947
    49  C   4.0    0.15    3.44    3.09    35.14512    34.46293    46.71780
    50  O   6.0   -0.28    1.24    1.80    34.31364    34.21160    48.87398
    51  C   4.0   -0.03    4.25    4.10    37.18981    38.71859    46.76127
    52  C   4.0    0.25    3.09    3.02    39.70125    40.26439    46.80095
    53  O   6.0   -0.29    1.17    1.80    41.73649    39.16457    47.20724
    54  O   6.0   -0.30    1.17    1.80    39.44425    42.57931    46.35498
    55  H   1.0    0.08    1.06    1.44    38.59765    36.91013    42.46214
    56  H   1.0    0.07    1.06    1.44    38.96426    35.17914    47.57007
    57  H   1.0    0.05    1.02    1.43    35.90668    39.55196    45.38177
    58  H   1.0    0.06    1.03    1.43    36.36967    38.88489    48.64722
    59  N   5.0   -0.14    3.56    2.12    33.93003    33.59177    44.70336
    60  C   4.0    0.03    4.41    4.40    31.54897    32.16880    44.93201
    61  C   4.0    0.15    3.44    3.09    31.87590    29.33989    44.48793
    62  O   6.0   -0.32    1.30    1.80    30.02964    27.92448    44.22337
    63  C   4.0   -0.04    4.38    4.35    29.61767    33.14957    43.04985
    64  C   4.0   -0.02    4.19    3.97    29.13579    36.00495    43.23693
    65  C   4.0   -0.08    4.10    3.80    27.21961    36.74194    41.19792
    66  C   4.0   -0.08    4.10    3.80    28.20038    36.75517    45.86554
    67  H   1.0    0.12    1.14    1.45    34.70293    33.61067    42.94969
    68  H   1.0    0.06    1.07    1.44    30.92914    32.42203    46.88977
    69  H   1.0    0.05    1.03    1.43    30.32632    32.71683    41.16012
    70  H   1.0    0.04    1.03    1.43    27.86401    32.10455    43.33331
    71  H   1.0    0.04    1.06    1.44    30.91592    36.98383    42.86843
    72  H   1.0    0.03    1.00    1.43    26.96828    38.77907    41.16390
    73  H   1.0    0.03    1.00    1.43    27.86779    36.13912    39.34598
    74  H   1.0    0.03    1.00    1.43    25.40737    35.85755    41.58153
    75  H   1.0    0.04    1.00    1.43    27.70338    38.74694    45.87499
    76  H   1.0    0.04    1.00    1.43    26.55254    35.64212    46.37010
    77  H   1.0    0.05    1.00    1.43    29.67059    36.46037    47.27149
    78  N   5.0   -0.13    3.48    2.06    34.23239    28.40069    44.44446
    79  C   4.0    0.05    4.44    4.45    34.57632    25.81177    43.71503
    80  C   4.0    0.17    3.48    3.11    33.51429    23.86535    45.55373
    81  O   6.0   -0.31    1.32    1.80    33.03241    21.72240    44.81296
    82  C   4.0    0.05    4.16    3.92    37.38634    25.17115    43.34842
    83  O   6.0   -0.20    2.09    1.84    38.53340    25.38091    45.69924
    84  H   1.0    0.11    1.08    1.44    35.79519    29.46272    44.73359
    85  H   1.0    0.06    1.06    1.44    33.58232    25.45272    41.92357
    86  H   1.0    0.06    1.01    1.43    37.51862    23.23229    42.59631
    87  H   1.0    0.05    1.01    1.43    38.20459    26.47884    41.95570
    88  H   1.0    0.13    1.01    1.43    40.23038    26.11790    45.60098
    89  N   5.0   -0.13    3.48    2.06    32.92658    24.68927    47.91400
    90  C   4.0    0.04    4.36    4.31    31.84755    22.82978    49.66956
    91  C   4.0    0.15    3.44    3.09    28.98273    22.94316    49.59964
    92  O   6.0   -0.30    1.27    1.80    27.69582    21.53910    50.93189
    93  C   4.0   -0.02    4.23    4.05    32.66580    23.30221    52.41344
    94  C   4.0    0.25    3.04    3.02    35.55708    23.84078    53.10508
    95  O   6.0   -0.28    1.17    1.80    35.78385    25.33556    54.95134
    96  O   6.0   -0.25    1.22    1.80    37.29752    22.84490    51.96368
    97  H   1.0    0.10    1.08    1.44    34.20971    25.88358    48.66800
    98  H   1.0    0.07    1.06    1.44    32.45604    20.92116    49.11587
    99  H   1.0    0.06    1.03    1.43    31.59622    24.90092    53.18067
   100  H   1.0    0.05    1.03    1.43    32.17825    21.61091    53.49814
   101  N   5.0   -0.13    3.47    2.06    27.77330    24.68738    48.17289
   102  C   4.0    0.04    4.45    4.47    25.05399    24.71195    48.15778
   103  C   4.0    0.14    3.50    3.12    23.79732    22.56711    46.64222
   104  O   6.0   -0.31    1.30    1.80    24.68360    21.69405    44.65989
   105  C   4.0   -0.05    4.30    4.21    24.07322    27.15158    46.90867
   106  C   4.0   -0.05    4.21    4.01    24.95950    29.52886    48.25793
   107  C   4.0   -0.05    4.19    3.97    23.79543    29.81421    50.86386
   108  C   4.0   -0.04    4.14    3.87    24.52675    32.35022    51.99959
   109  N   5.0   -0.11    4.05    2.99    23.68205    32.53163    54.66410
   110  H   1.0    0.11    1.09    1.44    28.71061    25.60768    46.77072
   111  H   1.0    0.05    1.07    1.44    24.47006    24.55321    50.13065
   112  H   1.0    0.06    1.03    1.43    24.76864    27.16103    44.96414
   113  H   1.0    0.04    1.03    1.43    22.01531    27.10623    46.85764
   114  H   1.0    0.05    1.03    1.43    27.01552    29.49484    48.38454
   115  H   1.0    0.04    1.03    1.43    24.42471    31.13512    47.08063
   116  H   1.0    0.03    1.03    1.43    21.74508    29.66114    50.71080
   117  H   1.0    0.04    1.03    1.43    24.48518    28.29676    52.07518
   118  H   1.0    0.05    1.02    1.43    26.57711    32.55998    51.96368
   119  H   1.0    0.04    1.02    1.43    23.68016    33.89035    50.92622
   120  H   1.0    0.09    1.10    1.44    24.38502    34.23617    55.46535
   121  H   1.0    0.06    1.02    1.43    21.75075    32.51651    54.85496
   122  H   1.0    0.06    1.02    1.43    24.39447    31.06520    55.71101
   123  N   5.0   -0.11    3.69    2.26    21.42571    21.96051    47.29039
   124  C   4.0    0.04    4.61    4.68    20.19172    19.86669    45.97325
   125  C   4.0    0.15    3.44    3.09    19.67394    20.42416    43.18591
   126  O   6.0   -0.32    1.28    1.80    19.56622    18.72151    41.61554
   127  C   4.0   -0.05    4.33    4.26    17.67083    19.46796    47.34519
   128  C   4.0   -0.05    4.27    4.15    18.22452    20.54321    49.96624
   129  C   4.0   -0.02    4.35    4.29    19.93661    22.79387    49.44468
   130  H   1.0    0.05    1.05    1.44    21.38981    18.18294    46.06396
   131  H   1.0    0.04    1.03    1.43    16.17227    20.53754    46.41734
   132  H   1.0    0.03    1.02    1.43    17.12848    17.48941    47.38488
   133  H   1.0    0.03    1.02    1.43    16.50487    21.07989    50.95268
   134  H   1.0    0.04    1.03    1.43    19.23174    19.14292    51.09252
   135  H   1.0    0.03    1.02    1.43    18.83112    24.46250    48.92500
   136  H   1.0    0.04    1.02    1.43    21.11769    23.23040    51.06984
   137  N   5.0   -0.15    3.52    2.09    19.22040    22.83923    42.62844
   138  C   4.0    0.04    4.41    4.39    18.65915    23.63480    40.09054
   139  C   4.0    0.16    3.43    3.09    21.03454    23.95795    38.42191
   140  O   6.0   -0.32    1.30    1.80    20.76053    24.84423    36.29030
   141  C   4.0   -0.04    4.36    4.30    17.17572    26.11034    40.16990
   142  C   4.0   -0.01    3.57    3.15    18.46829    28.30054    41.38311
   143  C   4.0   -0.04    3.48    3.11    20.26731    29.69137    40.06219
   144  C   4.0   -0.05    3.47    3.10    17.85224    29.04887    43.82274
   145  C   4.0   -0.05    3.38    3.07    21.36524    31.80031    41.12233
   146  C   4.0   -0.05    3.38    3.07    19.01442    31.14268    44.90178
   147  C   4.0   -0.05    3.37    3.07    20.76809    32.52218    43.57141
   148  H   1.0    0.08    1.08    1.44    19.50575    24.21117    43.92290
   149  H   1.0    0.06    1.06    1.44    17.51020    22.17782    39.17402
   150  H   1.0    0.05    1.04    1.43    16.74297    26.60167    38.21026
   151  H   1.0    0.03    1.03    1.43    15.38804    25.74185    41.13744
   152  H   1.0    0.06    1.03    1.43    20.75108    29.14902    38.15546
   153  H   1.0    0.04    1.03    1.43    16.42361    28.02653    44.86209
   154  H   1.0    0.04    1.03    1.43    22.72584    32.86800    40.03762
   155  H   1.0    0.04    1.03    1.43    18.48530    31.70582    46.78961
   156  H   1.0    0.04    1.03    1.43    21.62413    34.18703    44.38021
   157  N   5.0   -0.14    3.46    2.05    23.30788    23.48740    39.37055
   158  C   4.0    0.04    4.44    4.44    25.55476    24.19227    37.95515
   159  C   4.0    0.16    3.49    3.11    25.73996    22.77876    35.46449
   160  O   6.0   -0.32    1.28    1.80    26.28798    23.94283    33.51996
   161  C   4.0   -0.03    4.35    4.29    27.91503    23.67827    39.52362
   162  C   4.0   -0.01    3.57    3.15    30.36223    24.21117    38.16679
   163  C   4.0   -0.04    3.47    3.10    31.15213    26.69805    37.78885
   164  C   4.0   -0.03    3.48    3.11    31.99117    22.28365    37.50917
   165  C   4.0   -0.04    3.40    3.08    33.61445    27.15347    37.05186
   166  C   4.0   -0.03    3.38    3.07    34.31742    22.75419    36.44148
   167  C   4.0   -0.04    3.38    3.07    35.18103    25.23351    36.29408
   168  H   1.0    0.11    1.09    1.44    23.58567    22.70884    41.10343
   169  H   1.0    0.05    1.05    1.44    25.43382    26.20672    37.46571
   170  H   1.0    0.06    1.03    1.43    27.85645    24.85557    41.22248
   171  H   1.0    0.06    1.04    1.43    27.89424    21.70350    40.10754
   172  H   1.0    0.05    1.03    1.43    29.93893    28.25140    38.31230
   173  H   1.0    0.06    1.03    1.43    31.41291    20.34857    37.81531
   174  H   1.0    0.06    1.03    1.43    34.28152    29.08099    36.98383
   175  H   1.0    0.06    1.03    1.43    35.53819    21.21973    35.87834
   176  H   1.0    0.06    1.03    1.43    37.07831    25.62279    35.65157
   177  N   5.0   -0.14    3.47    2.06    25.39792    20.23519    35.51740
   178  C   4.0    0.04    4.44    4.45    25.65492    18.80466    33.17414
   179  C   4.0    0.15    3.50    3.11    23.88236    19.76653    31.18615
   180  O   6.0   -0.30    1.22    1.80    24.48896    19.90448    28.90903
   181  C   4.0   -0.05    4.29    4.18    25.07666    16.00409    33.62956
   182  C   4.0   -0.05    4.17    3.94    27.31032    14.65294    34.84655
   183  C   4.0   -0.05    4.16    3.92    29.27752    13.77988    32.88690
   184  C   4.0   -0.03    4.13    3.87    31.97605    14.51499    33.64468
   185  N   5.0   -0.11    4.06    3.03    33.70326    14.09169    31.45449
   186  H   1.0    0.10    1.09    1.44    25.09556    19.33001    37.18414
   187  H   1.0    0.05    1.05    1.44    27.58811    19.02198    32.44848
   188  H   1.0    0.05    1.03    1.43    23.42126    15.89448    34.85033
   189  H   1.0    0.04    1.03    1.43    24.60423    15.09702    31.83999
   190  H   1.0    0.05    1.03    1.43    28.18337    15.91149    36.21849
   191  H   1.0    0.04    1.03    1.43    26.59600    13.02021    35.87834
   192  H   1.0    0.03    1.02    1.43    29.14713    11.73898    32.65068
   193  H   1.0    0.04    1.03    1.43    28.86178    14.66238    31.07276
   194  H   1.0    0.06    1.03    1.43    32.04408    16.52565    34.08310
   195  H   1.0    0.04    1.02    1.43    32.63368    13.42461    35.25851
   196  H   1.0    0.07    1.02    1.43    35.46638    14.81167    31.80031
   197  H   1.0    0.05    1.02    1.43    33.81098    12.21519    30.98206
   198  H   1.0    0.07    1.05    1.44    32.96438    15.15938    29.98050
   199  N   5.0   -0.14    3.43    2.04    21.52020    20.22763    31.97227
   200  C   4.0    0.02    4.27    4.13    19.65315    21.09312    30.16947
   201  C   4.0    0.16    3.36    3.07    20.12180    23.75197    29.20382
   202  O   6.0   -0.29    1.23    1.80    19.53977    24.43038    27.03442
   203  H   1.0    0.11    1.09    1.44    20.97218    19.90259    33.78830
   204  H   1.0    0.05    1.03    1.43    19.60591    19.83456    28.52352
   205  H   1.0    0.04    1.03    1.43    17.80311    21.05155    31.07843
   206  N   5.0   -0.13    3.54    2.11    21.24052    25.32800    30.81009
   207  C   4.0    0.04    4.40    4.38    21.77531    27.89802    30.04475
   208  C   4.0    0.16    3.49    3.11    23.85779    27.77519    28.02464
   209  O   6.0   -0.29    1.24    1.80    23.79921    29.05076    26.08578
   210  C   4.0   -0.05    4.32    4.24    22.63703    29.40036    32.41636
   211  C   4.0   -0.02    4.18    3.96    24.15070    31.84188    31.93448
   212  C   4.0   -0.07    4.12    3.83    22.62380    33.84688    30.55876
   213  C   4.0   -0.08    4.13    3.86    25.01808    32.94548    34.42325
   214  H   1.0    0.11    1.10    1.44    21.42382    24.84234    32.65824
   215  H   1.0    0.06    1.05    1.44    20.10857    28.75596    29.16603
   216  H   1.0    0.04    1.02    1.43    20.95895    29.83688    33.53130
   217  H   1.0    0.06    1.03    1.43    23.83322    28.12857    33.51429
   218  H   1.0    0.05    1.06    1.44    25.80799    31.36756    30.78742
   219  H   1.0    0.04    1.00    1.43    23.69905    35.59110    30.41514
   220  H   1.0    0.05    1.00    1.43    22.15137    33.23272    28.65580
   221  H   1.0    0.04    1.00    1.43    20.87958    34.24561    31.56976
   222  H   1.0    0.04    1.00    1.43    26.15570    34.62545    34.10766
   223  H   1.0    0.04    1.00    1.43    23.39292    33.47083    35.56653
   224  H   1.0    0.04    1.00    1.43    26.15381    31.59433    35.48149
   225  N   5.0   -0.14    3.51    2.09    25.77208    26.23129    28.52730
   226  C   4.0    0.04    4.43    4.42    27.84511    26.01964    26.76797
   227  C   4.0    0.10    3.28    3.05    26.83978    24.99352    24.25463
   228  O   6.0   -0.29    1.11    1.80    27.53898    25.78720    22.19105
   229  C   4.0   -0.02    4.25    4.10    29.94082    24.35101    27.84322
   230  C   4.0   -0.07    4.10    3.79    31.87968    23.54788    25.80799
   231  C   4.0   -0.07    4.11    3.83    31.20693    25.74941    30.02208
   232  H   1.0    0.11    1.10    1.44    25.78153    25.21272    30.15625
   233  H   1.0    0.05    1.05    1.44    28.60856    27.90747    26.34845
   234  H   1.0    0.06    1.06    1.44    29.03186    22.64270    28.58022
   235  H   1.0    0.04    1.00    1.43    33.34799    22.37436    26.63569
   236  H   1.0    0.05    1.00    1.43    30.97828    22.50286    24.28865
   237  H   1.0    0.04    1.00    1.43    32.78863    25.20139    24.98407
   238  H   1.0    0.04    1.00    1.43    32.76407    24.65525    30.79686
   239  H   1.0    0.04    1.00    1.43    31.98172    27.54654    29.38713
   240  H   1.0    0.06    1.00    1.43    29.86334    26.09334    31.53764
   241  O   6.0   -0.30    1.96    1.82    29.34366    18.41538    44.07786
   242  H   1.0    0.17    1.04    1.43    30.88946    19.36402    44.23659
   243  H   1.0    0.15    0.99    1.43    28.00952    19.61158    44.47470
   244  O   6.0   -0.34    2.17    1.85    26.02531    36.69092    56.27226
   245  H   1.0    0.15    1.05    1.44    27.79220    36.01629    56.18344
   246  H   1.0    0.12    0.97    1.43    25.95161    38.15546    55.20267
   247  O   6.0   -0.32    1.98    1.82    19.02198    18.54010    36.35833
   248  H   1.0    0.16    1.01    1.43    19.34701    18.41349    38.16302
   249  H   1.0    0.12    0.97    1.43    17.97696    17.11525    35.94070
   250  O   6.0   -0.30    2.02    1.83    33.63145    37.42980    52.98414
   251  H   1.0    0.13    0.96    1.43    35.26796    37.57909    53.81373
   252  H   1.0    0.15    1.03    1.43    33.18926    39.10977    52.39454
   253  O   6.0   -0.32    1.99    1.83    42.54907    26.58844    37.78318
   254  H   1.0    0.12    0.96    1.43    42.83442    26.72828    39.59732
   255  H   1.0    0.15    1.01    1.43    41.55885    28.00574    37.18603
   256  O   6.0   -0.31    1.97    1.82    25.33745    17.65193    40.37022
   257  H   1.0    0.15    0.99    1.43    26.72639    17.54988    41.55696
   258  H   1.0    0.15    0.98    1.43    23.80677    17.42705    41.31508
   259  O   6.0   -0.32    2.02    1.83    33.15335    18.83490    30.66647
   260  H   1.0    0.15    1.03    1.43    34.92214    19.10135    30.20349
   261  H   1.0    0.12    0.97    1.43    32.30109    20.40526    30.38301
   262  O   6.0   -0.32    2.07    1.83    30.53419    34.71805    55.90376
   263  H   1.0    0.15    1.04    1.43    31.35811    34.41569    57.51192
   264  H   1.0    0.16    1.04    1.43    31.72283    35.62511    54.83040
   265  O   6.0   -0.32    1.93    1.82    21.39737    33.35177    59.49991
   266  H   1.0    0.14    1.00    1.43    22.57656    34.54419    60.25391
   267  H   1.0    0.12    0.97    1.43    20.81344    32.27841    60.83217
   268  O   6.0   -0.29    1.92    1.82    41.41334    21.56933    37.50728
   269  H   1.0    0.15    1.02    1.43    41.78940    23.36646    37.68114
   270  H   1.0    0.14    0.97    1.43    40.63478    21.05155    39.05686
   271  O   6.0   -0.32    1.99    1.82    31.86645    41.74594    50.97914
   272  H   1.0    0.12    0.96    1.43    31.92692    41.63255    49.14043
   273  H   1.0    0.12    0.97    1.43    30.09955    41.71192    51.42511
   274  O   6.0   -0.32    1.92    1.82    13.68729    34.64813    37.68869
   275  H   1.0    0.11    0.97    1.43    14.87403    35.84054    36.98761
   276  H   1.0    0.11    0.97    1.43    13.39816    35.17158    39.40268
   277  O   6.0   -0.32    1.92    1.82    18.28852    35.25553    67.58983
   278  H   1.0    0.12    0.97    1.43    19.55133    34.17567    66.84528
   279  H   1.0    0.14    1.00    1.43    17.98893    36.57945    66.34261
   280  O   6.0   -0.31    1.91    1.82    21.07944    42.25875    57.33051
   281  H   1.0    0.11    0.96    1.43    21.52650    42.03244    59.09740
   282  H   1.0    0.11    0.96    1.43    19.26979    42.60393    57.31539
   283  O   6.0   -0.32    1.96    1.82    24.78626    37.23297    60.97579
   284  H   1.0    0.15    1.06    1.44    25.17666    37.20307    59.16354
   285  H   1.0    0.12    0.96    1.43    23.86006    38.78429    61.33484
   286  O   6.0   -0.33    1.95    1.82    17.68487    38.90891    63.62896
   287  H   1.0    0.11    0.96    1.43    19.29699    39.65420    63.11496
   288  H   1.0    0.12    0.97    1.43    16.89915    38.38764    62.07372
   289  O   6.0   -0.32    2.00    1.83    31.90134    33.53779    60.54682
   290  H   1.0    0.13    0.97    1.43    31.31337    31.82363    60.63942
   291  H   1.0    0.12    0.96    1.43    30.94713    34.48378    61.80349
   292  O   6.0   -0.29    1.92    1.82    35.99639    18.16956    41.14878
   293  H   1.0    0.15    0.99    1.43    37.08124    18.55570    42.56608
   294  H   1.0    0.13    0.97    1.43    34.88518    16.86472    41.75538
   295  N   5.0   -0.21    3.18    1.95    37.84483    16.17062    52.42100
   296  C   4.0    0.04    4.17    3.94    35.69494    16.16590    50.66544
   297  C   4.0    0.07    3.22    3.04    34.36073    13.62820    50.73536
   298  O   6.0   -0.29    1.13    1.80    32.50132    13.21574    49.40311
   299  C   4.0   -0.02    4.23    4.05    36.51321    16.63831    47.92156
   300  C   4.0    0.25    3.04    3.02    38.42527    18.87295    47.22992
   301  O   6.0   -0.30    1.19    1.80    39.83316    18.32195    45.38366
   302  O   6.0   -0.24    1.23    1.80    38.43302    20.87815    48.37132
   303  H   1.0    0.10    1.03    1.43    39.52069    16.68469    51.66700
   304  H   1.0    0.05    1.04    1.44    34.34627    17.64718    51.21913
   305  H   1.0    0.05    1.03    1.43    37.36294    14.91267    47.15433
   306  H   1.0    0.06    1.03    1.43    34.80472    17.06173    46.83686
   307  N   5.0   -0.22    3.21    1.96    31.94837    47.87494    58.13931
   308  C   4.0    0.03    4.28    4.17    32.52343    45.64303    59.68321
   309  C   4.0    0.07    3.22    3.04    35.33924    45.10849    59.80605
   310  O   6.0   -0.30    1.11    1.80    36.39717    44.45150    61.80916
   311  C   4.0   -0.02    4.26    4.12    30.96283    43.43277    58.59284
   312  C   4.0   -0.07    4.12    3.84    32.04863    40.88693    59.35818
   313  C   4.0   -0.08    4.09    3.79    28.17712    43.73375    59.34306
   314  H   1.0    0.08    1.02    1.43    31.10495    47.68039    56.43289
   315  H   1.0    0.04    1.05    1.44    31.95897    46.01976    61.64097
   316  H   1.0    0.04    1.06    1.44    31.12502    43.59406    56.53115
   317  H   1.0    0.05    1.00    1.43    30.78892    39.37628    58.77048
   318  H   1.0    0.05    1.00    1.43    33.88281    40.61266    58.47190
   319  H   1.0    0.05    1.00    1.43    32.27333    40.85301    61.40098
   320  H   1.0    0.04    1.00    1.43    27.03652    42.27004    58.47001
   321  H   1.0    0.04    1.00    1.43    27.99996    43.56819    61.38397
   322  H   1.0    0.04    1.00    1.43    27.48307    45.57839    58.78559
   323  H   1.0    0.09    1.07    1.44    37.61931    28.98847    27.81146
   324  H   1.0    0.05    1.05    1.44    42.52553    30.69956    31.63029
   325  H   1.0    0.09    1.07    1.44    36.86365    37.36388    33.23456
   326  H   1.0    0.07    1.05    1.44    25.55142    23.61108    24.24607
   327  H   1.0    0.08    1.07    1.44    30.89686    48.90174    58.99523
   328  H   1.0    0.05    1.04    1.44    36.40208    45.27955    58.25293
   329  H   1.0    0.10    1.07    1.44    37.53768    17.25841    53.69180
   330  H   1.0    0.05    1.05    1.44    34.99103    12.26045    51.87687

  Z AO/shell   Hii/eV     exponent
  1     Wed Apr 25 08:07:45 CEST 2018   EN: 2.200 GM2: 0.406  GM3: 0.0800  RAES: 1.40
     1s    -10.707211    1.230000
  6     Wed Apr 25 08:07:45 CEST 2018   EN: 2.550 GM2: 0.538  GM3: 0.1500  RAES: 3.00
     2s    -13.970922    2.096432
     2p    -10.063292    1.800000
  7     Wed Apr 25 08:07:45 CEST 2018   EN: 3.040 GM2: 0.461  GM3:-0.0640  RAES: 1.90
     2s    -16.686243    2.339881
     2p    -12.523956    2.014332
  8     Wed Apr 25 08:07:45 CEST 2018   EN: 3.440 GM2: 0.452  GM3:-0.0517  RAES: 1.80
     2s    -20.229985    2.439742
     2p    -15.503117    2.137023
 no old-style atom pair restraining (fixing) potential

molecular fragmentation (1/2 indicates fragments):
111111111111111222222222222222222222222222222222222222222222222222222222
222222222222222222222222222222222222222222222222222222222222222222222222
222222222222222222222222222222222222222222222222222222222222222222222222
222222222222222222222222222222222222222222222222222222222222222222222222
222222222222222222222222222222222211222222
# atoms in fragment 1/2:    17   313
 fragment masses (1/2) :      130.12     2125.36
CMA distance (Bohr)    :  16.596
constraining FC (au)   :  0.0500
           ------------------------------------------------- 
          |        Self-Consistent Charge Iterations        |
           ------------------------------------------------- 

 Ncao       : 795
 Nao        : 795
 Nshell     : 485
 Nel        : 906
 T(el)      :   500.0
 intcut     :    35.0
 scfconv/Eh :  0.100E-06
   qconv/e  :  0.100E-04
 intneglect :  0.100E-08
 broydamp   :      0.400
 iter      E             dE          RMSdq      gap      omega  full diag
   1   -527.9972039 -0.527997E+03  0.494E+00    3.02       0.0  T
   2   -529.1933529 -0.119615E+01  0.239E+00    2.03       1.0  T
   3   -529.2720110 -0.786581E-01  0.122E+00    2.20       1.0  T
   4   -529.3680490 -0.960380E-01  0.310E-01    1.27       1.0  T
   5   -529.3726790 -0.462994E-02  0.143E-01    1.43       1.0  T
   6   -529.3742006 -0.152159E-02  0.584E-02    1.41       1.0  T
   7   -529.3745040 -0.303457E-03  0.299E-02    1.40       1.0  T
   8   -529.3745500 -0.459898E-04  0.123E-02    1.41       1.0  T
   9   -529.3745642 -0.141890E-04  0.552E-03    1.41       1.0  T
  10   -529.3745662 -0.195302E-05  0.256E-03    1.41       2.2  T
  11   -529.3745666 -0.447123E-06  0.109E-03    1.40       5.0  T
  12   -529.3745667 -0.918208E-07  0.518E-04    1.40      10.6  T
  13   -529.3745667 -0.218455E-07  0.268E-04    1.40      20.6  T
  14   -529.3745667 -0.543287E-08  0.102E-04    1.40      53.9  T
  15   -529.3745667 -0.875843E-09  0.442E-05    1.40     124.4  T
  16   -529.3745667 -0.131649E-09  0.198E-05    1.40     278.6  T
speedup  1.05
cpu  time for SCC   10.89 s
wall time for SCC   10.37 s

   *** convergence criteria satisfied after 16 iterations ***

          eigenvalues
 #    :         441        442        443        444        445        446        447        448
 occ. :        2.000      2.000      2.000      2.000      2.000      2.000      2.000      2.000
 eps  :       -10.518    -10.394    -10.363    -10.356    -10.309    -10.268    -10.211     -9.943
 #    :         449        450        451        452        453        454        455        456
 occ. :        2.000      2.000      2.000      2.000      2.000      0.000      0.000      0.000
 eps  :        -9.912     -9.856     -9.793     -9.766     -9.522     -8.121     -7.785     -7.766
 #    :         457        458        459        460        461        462        463        464
 occ. :        0.000      0.000      0.000      0.000      0.000      0.000      0.000      0.000
 eps  :        -7.661     -6.643     -6.606     -6.494     -6.438     -6.416     -6.388     -6.269


   #   Z            q   n(s)   n(p)   n(d)      C6AA      α(0)
   1   7 N     -0.388  1.314  4.074  0.000    30.040     8.140
   2   6 C      0.037  1.064  2.899  0.000    19.977     6.367
   3   6 C      0.196  1.092  2.711  0.000    23.815     7.992
   4   8 O     -0.401  1.755  4.646  0.000    21.701     6.246
   5   6 C     -0.042  1.055  2.987  0.000    21.316     6.573
   6   6 C     -0.084  1.060  3.023  0.000    22.094     6.691
   7   6 C      0.371  1.021  2.608  0.000    20.715     7.449
   8   8 O     -0.643  1.780  4.863  0.000    27.191     6.991
   9   8 O     -0.622  1.750  4.873  0.000    26.673     6.924
  10   1 H      0.165  0.835  0.000  0.000     1.302     1.787
  11   1 H      0.053  0.947  0.000  0.000     2.278     2.360
  12   1 H      0.050  0.950  0.000  0.000     2.326     2.385
  13   1 H      0.035  0.965  0.000  0.000     2.521     2.483
  14   1 H      0.028  0.972  0.000  0.000     2.613     2.528
  15   1 H      0.039  0.961  0.000  0.000     2.464     2.455
  16   7 N     -0.392  1.318  4.074  0.000    30.149     8.155
  17   6 C      0.027  1.067  2.905  0.000    20.131     6.392
  18   6 C      0.266  1.054  2.681  0.000    22.518     7.771
  19   8 O     -0.502  1.750  4.752  0.000    23.824     6.544
  20   6 C     -0.061  1.049  3.012  0.000    21.670     6.626
  21   6 C     -0.002  1.077  2.925  0.000    28.075     8.691
  22   6 C     -0.045  1.081  2.963  0.000    29.110     8.848
  23   6 C     -0.040  1.083  2.957  0.000    29.001     8.831
  24   6 C     -0.062  1.076  2.986  0.000    29.533     8.911
  25   6 C     -0.074  1.078  2.996  0.000    29.850     8.959
  26   6 C      0.147  1.043  2.810  0.000    24.799     8.162
  27   8 O     -0.424  1.712  4.712  0.000    21.309     6.232
  28   1 H      0.152  0.848  0.000  0.000     1.387     1.845
  29   1 H      0.066  0.934  0.000  0.000     2.134     2.284
  30   1 H      0.033  0.967  0.000  0.000     2.545     2.495
  31   1 H      0.053  0.947  0.000  0.000     2.286     2.364
  32   1 H      0.042  0.958  0.000  0.000     2.418     2.432
  33   1 H      0.028  0.972  0.000  0.000     2.608     2.525
  34   1 H      0.062  0.938  0.000  0.000     2.176     2.307
  35   1 H      0.038  0.962  0.000  0.000     2.471     2.458
  36   1 H      0.346  0.654  0.000  0.000     0.598     1.214
  37   7 N     -0.175  1.251  3.924  0.000    24.778     7.393
  38   6 C      0.031  1.056  2.913  0.000    20.056     6.377
  39   6 C      0.283  1.043  2.674  0.000    22.204     7.717
  40   8 O     -0.524  1.757  4.767  0.000    24.330     6.613
  41   6 C     -0.130  1.039  3.091  0.000    23.051     6.844
  42   1 H      0.236  0.764  0.000  0.000     0.941     1.519
  43   1 H      0.058  0.942  0.000  0.000     2.217     2.329
  44   1 H      0.061  0.939  0.000  0.000     2.181     2.310
  45   1 H      0.089  0.911  0.000  0.000     1.888     2.149
  46   1 H      0.061  0.939  0.000  0.000     2.187     2.313
  47   7 N     -0.173  1.241  3.931  0.000    24.734     7.386
  48   6 C      0.043  1.051  2.906  0.000    19.845     6.342
  49   6 C      0.272  1.040  2.688  0.000    22.398     7.750
  50   8 O     -0.491  1.746  4.746  0.000    23.595     6.513
  51   6 C     -0.102  1.073  3.029  0.000    22.442     6.745
  52   6 C      0.370  1.022  2.608  0.000    20.722     7.449
  53   8 O     -0.641  1.778  4.863  0.000    27.147     6.986
  54   8 O     -0.640  1.770  4.869  0.000    27.117     6.982
  55   1 H      0.202  0.798  0.000  0.000     1.095     1.639
  56   1 H      0.052  0.948  0.000  0.000     2.294     2.368
  57   1 H      0.044  0.956  0.000  0.000     2.402     2.424
  58   1 H      0.064  0.936  0.000  0.000     2.154     2.295
  59   7 N     -0.196  1.251  3.945  0.000    25.264     7.465
  60   6 C      0.024  1.060  2.916  0.000    20.183     6.398
  61   6 C      0.267  1.053  2.680  0.000    22.498     7.768
  62   8 O     -0.483  1.732  4.751  0.000    23.401     6.486
  63   6 C     -0.070  1.055  3.015  0.000    21.819     6.648
  64   6 C     -0.012  1.056  2.956  0.000    20.750     6.479
  65   6 C     -0.121  1.043  3.079  0.000    22.879     6.820
  66   6 C     -0.132  1.043  3.089  0.000    23.102     6.853
  67   1 H      0.214  0.786  0.000  0.000     1.038     1.596
  68   1 H      0.103  0.897  0.000  0.000     1.756     2.072
  69   1 H      0.041  0.959  0.000  0.000     2.442     2.444
  70   1 H      0.082  0.918  0.000  0.000     1.963     2.191
  71   1 H      0.016  0.984  0.000  0.000     2.797     2.615
  72   1 H      0.054  0.946  0.000  0.000     2.272     2.357
  73   1 H      0.034  0.966  0.000  0.000     2.537     2.491
  74   1 H      0.061  0.939  0.000  0.000     2.184     2.311
  75   1 H      0.061  0.939  0.000  0.000     2.193     2.316
  76   1 H      0.067  0.933  0.000  0.000     2.123     2.279
  77   1 H      0.039  0.961  0.000  0.000     2.463     2.454
  78   7 N     -0.178  1.243  3.936  0.000    24.862     7.406
  79   6 C      0.041  1.049  2.911  0.000    19.884     6.348
  80   6 C      0.304  1.045  2.652  0.000    21.844     7.654
  81   8 O     -0.482  1.736  4.746  0.000    23.389     6.484
  82   6 C      0.105  1.029  2.867  0.000    19.057     6.252
  83   8 O     -0.475  1.729  4.746  0.000    22.352     6.382
  84   1 H      0.201  0.799  0.000  0.000     1.101     1.644
  85   1 H      0.076  0.924  0.000  0.000     2.016     2.221
  86   1 H      0.028  0.972  0.000  0.000     2.613     2.528
  87   1 H      0.033  0.967  0.000  0.000     2.551     2.498
  88   1 H      0.333  0.667  0.000  0.000     0.629     1.246
  89   7 N     -0.196  1.273  3.923  0.000    25.258     7.464
  90   6 C      0.053  1.053  2.894  0.000    19.686     6.318
  91   6 C      0.270  1.049  2.681  0.000    22.448     7.759
  92   8 O     -0.501  1.737  4.763  0.000    23.794     6.540
  93   6 C     -0.096  1.080  3.016  0.000    22.344     6.731
  94   6 C      0.365  1.026  2.609  0.000    20.812     7.465
  95   8 O     -0.661  1.771  4.890  0.000    27.662     7.051
  96   8 O     -0.594  1.784  4.810  0.000    25.966     6.832
  97   1 H      0.190  0.810  0.000  0.000     1.161     1.688
  98   1 H      0.037  0.963  0.000  0.000     2.494     2.469
  99   1 H      0.040  0.960  0.000  0.000     2.443     2.444
 100   1 H      0.029  0.971  0.000  0.000     2.608     2.525
 101   7 N     -0.170  1.244  3.925  0.000    24.671     7.377
 102   6 C      0.022  1.058  2.919  0.000    20.198     6.399
 103   6 C      0.255  1.058  2.688  0.000    22.719     7.806
 104   8 O     -0.526  1.755  4.771  0.000    24.357     6.617
 105   6 C     -0.077  1.057  3.020  0.000    21.964     6.671
 106   6 C     -0.077  1.048  3.029  0.000    21.973     6.673
 107   6 C     -0.096  1.053  3.043  0.000    22.337     6.728
 108   6 C     -0.048  1.056  2.992  0.000    21.523     6.621
 109   7 N     -0.169  1.239  3.931  0.000    24.655     7.375
 110   1 H      0.207  0.793  0.000  0.000     1.070     1.621
 111   1 H      0.088  0.912  0.000  0.000     1.899     2.155
 112   1 H      0.053  0.947  0.000  0.000     2.282     2.362
 113   1 H      0.075  0.925  0.000  0.000     2.037     2.232
 114   1 H      0.040  0.960  0.000  0.000     2.449     2.447
 115   1 H      0.075  0.925  0.000  0.000     2.026     2.226
 116   1 H      0.092  0.908  0.000  0.000     1.856     2.130
 117   1 H      0.058  0.942  0.000  0.000     2.222     2.331
 118   1 H      0.099  0.901  0.000  0.000     1.794     2.095
 119   1 H      0.122  0.878  0.000  0.000     1.599     1.978
 120   1 H      0.313  0.687  0.000  0.000     0.676     1.288
 121   1 H      0.293  0.707  0.000  0.000     0.735     1.343
 122   1 H      0.270  0.730  0.000  0.000     0.810     1.410
 123   7 N     -0.093  1.239  3.854  0.000    23.057     7.132
 124   6 C      0.018  1.065  2.918  0.000    20.255     6.403
 125   6 C      0.273  1.042  2.685  0.000    22.381     7.747
 126   8 O     -0.491  1.741  4.750  0.000    23.577     6.510
 127   6 C     -0.076  1.056  3.020  0.000    21.926     6.663
 128   6 C     -0.078  1.052  3.026  0.000    21.956     6.666
 129   6 C     -0.024  1.058  2.967  0.000    21.050     6.539
 130   1 H      0.066  0.934  0.000  0.000     2.129     2.282
 131   1 H      0.075  0.925  0.000  0.000     2.031     2.228
 132   1 H      0.076  0.924  0.000  0.000     2.021     2.223
 133   1 H      0.093  0.907  0.000  0.000     1.850     2.127
 134   1 H      0.063  0.937  0.000  0.000     2.160     2.298
 135   1 H      0.091  0.909  0.000  0.000     1.868     2.137
 136   1 H      0.081  0.919  0.000  0.000     1.968     2.194
 137   7 N     -0.165  1.233  3.932  0.000    24.568     7.362
 138   6 C      0.015  1.063  2.922  0.000    20.321     6.419
 139   6 C      0.273  1.044  2.683  0.000    22.394     7.749
 140   8 O     -0.490  1.741  4.749  0.000    23.558     6.508
 141   6 C     -0.083  1.051  3.032  0.000    22.070     6.686
 142   6 C      0.004  1.079  2.917  0.000    27.932     8.669
 143   6 C     -0.040  1.082  2.959  0.000    28.997     8.831
 144   6 C     -0.054  1.084  2.970  0.000    29.332     8.882
 145   6 C     -0.035  1.081  2.953  0.000    28.863     8.810
 146   6 C     -0.040  1.082  2.958  0.000    28.994     8.830
 147   6 C     -0.039  1.080  2.958  0.000    28.961     8.825
 148   1 H      0.208  0.792  0.000  0.000     1.068     1.619
 149   1 H      0.104  0.896  0.000  0.000     1.753     2.070
 150   1 H      0.078  0.922  0.000  0.000     1.997     2.210
 151   1 H      0.077  0.923  0.000  0.000     2.011     2.217
 152   1 H      0.025  0.975  0.000  0.000     2.660     2.550
 153   1 H      0.052  0.948  0.000  0.000     2.290     2.367
 154   1 H      0.031  0.969  0.000  0.000     2.571     2.508
 155   1 H      0.067  0.933  0.000  0.000     2.120     2.277
 156   1 H      0.052  0.948  0.000  0.000     2.299     2.371
 157   7 N     -0.176  1.244  3.932  0.000    24.817     7.399
 158   6 C      0.037  1.056  2.907  0.000    19.952     6.360
 159   6 C      0.272  1.047  2.681  0.000    22.410     7.752
 160   8 O     -0.500  1.743  4.757  0.000    23.787     6.539
 161   6 C     -0.081  1.054  3.027  0.000    22.025     6.680
 162   6 C      0.011  1.082  2.907  0.000    27.757     8.642
 163   6 C     -0.042  1.079  2.962  0.000    29.040     8.837
 164   6 C     -0.039  1.080  2.959  0.000    28.968     8.827
 165   6 C     -0.037  1.077  2.960  0.000    28.915     8.818
 166   6 C     -0.030  1.082  2.948  0.000    28.753     8.793
 167   6 C     -0.041  1.077  2.964  0.000    29.022     8.834
 168   1 H      0.214  0.786  0.000  0.000     1.036     1.594
 169   1 H      0.068  0.932  0.000  0.000     2.108     2.271
 170   1 H      0.067  0.933  0.000  0.000     2.118     2.276
 171   1 H      0.072  0.928  0.000  0.000     2.062     2.246
 172   1 H      0.037  0.963  0.000  0.000     2.487     2.466
 173   1 H      0.046  0.954  0.000  0.000     2.370     2.408
 174   1 H      0.029  0.971  0.000  0.000     2.603     2.523
 175   1 H      0.040  0.960  0.000  0.000     2.455     2.450
 176   1 H      0.024  0.976  0.000  0.000     2.669     2.555
 177   7 N     -0.190  1.257  3.933  0.000    25.120     7.444
 178   6 C      0.019  1.059  2.921  0.000    20.246     6.406
 179   6 C      0.274  1.042  2.684  0.000    22.372     7.746
 180   8 O     -0.520  1.764  4.756  0.000    24.222     6.599
 181   6 C     -0.083  1.060  3.023  0.000    22.075     6.688
 182   6 C     -0.079  1.051  3.028  0.000    22.015     6.680
 183   6 C     -0.097  1.059  3.038  0.000    22.347     6.730
 184   6 C     -0.045  1.061  2.983  0.000    21.474     6.615
 185   7 N     -0.152  1.233  3.919  0.000    24.270     7.317
 186   1 H      0.238  0.762  0.000  0.000     0.932     1.512
 187   1 H      0.079  0.921  0.000  0.000     1.985     2.203
 188   1 H      0.075  0.925  0.000  0.000     2.026     2.226
 189   1 H      0.073  0.927  0.000  0.000     2.057     2.243
 190   1 H      0.059  0.941  0.000  0.000     2.213     2.327
 191   1 H      0.074  0.926  0.000  0.000     2.044     2.236
 192   1 H      0.085  0.915  0.000  0.000     1.926     2.170
 193   1 H      0.077  0.923  0.000  0.000     2.006     2.215
 194   1 H      0.108  0.892  0.000  0.000     1.714     2.047
 195   1 H      0.106  0.894  0.000  0.000     1.735     2.060
 196   1 H      0.279  0.721  0.000  0.000     0.779     1.383
 197   1 H      0.298  0.702  0.000  0.000     0.719     1.328
 198   1 H      0.303  0.697  0.000  0.000     0.704     1.314
 199   7 N     -0.182  1.247  3.935  0.000    24.937     7.417
 200   6 C     -0.031  1.050  2.981  0.000    21.194     6.565
 201   6 C      0.277  1.040  2.684  0.000    22.319     7.736
 202   8 O     -0.526  1.764  4.762  0.000    24.368     6.618
 203   1 H      0.236  0.764  0.000  0.000     0.941     1.519
 204   1 H      0.090  0.910  0.000  0.000     1.879     2.144
 205   1 H      0.099  0.901  0.000  0.000     1.798     2.097
 206   7 N     -0.182  1.252  3.930  0.000    24.940     7.417
 207   6 C      0.027  1.064  2.909  0.000    20.127     6.388
 208   6 C      0.285  1.042  2.674  0.000    22.181     7.713
 209   8 O     -0.512  1.752  4.760  0.000    24.049     6.575
 210   6 C     -0.077  1.065  3.012  0.000    21.963     6.672
 211   6 C     -0.004  1.051  2.952  0.000    20.611     6.457
 212   6 C     -0.116  1.039  3.077  0.000    22.770     6.803
 213   6 C     -0.111  1.039  3.072  0.000    22.676     6.788
 214   1 H      0.228  0.772  0.000  0.000     0.972     1.545
 215   1 H      0.069  0.931  0.000  0.000     2.095     2.263
 216   1 H      0.067  0.933  0.000  0.000     2.118     2.276
 217   1 H      0.055  0.945  0.000  0.000     2.255     2.348
 218   1 H      0.014  0.986  0.000  0.000     2.831     2.631
 219   1 H      0.044  0.956  0.000  0.000     2.396     2.420
 220   1 H      0.033  0.967  0.000  0.000     2.540     2.493
 221   1 H      0.052  0.948  0.000  0.000     2.291     2.367
 222   1 H      0.043  0.957  0.000  0.000     2.406     2.425
 223   1 H      0.057  0.943  0.000  0.000     2.239     2.340
 224   1 H      0.027  0.973  0.000  0.000     2.628     2.535
 225   7 N     -0.178  1.245  3.933  0.000    24.858     7.405
 226   6 C      0.037  1.057  2.906  0.000    19.951     6.359
 227   6 C      0.216  1.085  2.700  0.000    23.443     7.929
 228   8 O     -0.372  1.751  4.621  0.000    21.131     6.163
 229   6 C     -0.013  1.062  2.952  0.000    20.779     6.483
 230   6 C     -0.117  1.040  3.076  0.000    22.795     6.809
 231   6 C     -0.112  1.038  3.073  0.000    22.687     6.791
 232   1 H      0.228  0.772  0.000  0.000     0.975     1.546
 233   1 H      0.076  0.924  0.000  0.000     2.021     2.223
 234   1 H      0.057  0.943  0.000  0.000     2.236     2.338
 235   1 H      0.057  0.943  0.000  0.000     2.229     2.335
 236   1 H      0.045  0.955  0.000  0.000     2.386     2.416
 237   1 H      0.045  0.955  0.000  0.000     2.377     2.411
 238   1 H      0.039  0.961  0.000  0.000     2.457     2.451
 239   1 H      0.039  0.961  0.000  0.000     2.466     2.456
 240   1 H      0.058  0.942  0.000  0.000     2.226     2.333
 241   8 O     -0.630  1.746  4.884  0.000    25.916     6.871
 242   1 H      0.303  0.697  0.000  0.000     0.713     1.326
 243   1 H      0.306  0.694  0.000  0.000     0.703     1.317
 244   8 O     -0.614  1.744  4.869  0.000    25.515     6.817
 245   1 H      0.350  0.650  0.000  0.000     0.588     1.205
 246   1 H      0.332  0.668  0.000  0.000     0.633     1.249
 247   8 O     -0.647  1.759  4.888  0.000    26.336     6.926
 248   1 H      0.319  0.681  0.000  0.000     0.666     1.282
 249   1 H      0.333  0.667  0.000  0.000     0.628     1.245
 250   8 O     -0.625  1.761  4.864  0.000    25.789     6.854
 251   1 H      0.293  0.707  0.000  0.000     0.743     1.354
 252   1 H      0.330  0.670  0.000  0.000     0.637     1.254
 253   8 O     -0.618  1.756  4.861  0.000    25.610     6.830
 254   1 H      0.311  0.689  0.000  0.000     0.689     1.304
 255   1 H      0.323  0.677  0.000  0.000     0.655     1.271
 256   8 O     -0.613  1.734  4.879  0.000    25.506     6.816
 257   1 H      0.314  0.686  0.000  0.000     0.682     1.297
 258   1 H      0.307  0.693  0.000  0.000     0.700     1.314
 259   8 O     -0.616  1.726  4.890  0.000    25.569     6.825
 260   1 H      0.309  0.691  0.000  0.000     0.696     1.311
 261   1 H      0.279  0.721  0.000  0.000     0.789     1.395
 262   8 O     -0.654  1.742  4.912  0.000    26.503     6.948
 263   1 H      0.321  0.679  0.000  0.000     0.662     1.278
 264   1 H      0.317  0.683  0.000  0.000     0.671     1.287
 265   8 O     -0.654  1.752  4.902  0.000    26.511     6.949
 266   1 H      0.323  0.677  0.000  0.000     0.656     1.273
 267   1 H      0.307  0.693  0.000  0.000     0.700     1.315
 268   8 O     -0.641  1.761  4.881  0.000    26.200     6.908
 269   1 H      0.318  0.682  0.000  0.000     0.670     1.286
 270   1 H      0.289  0.711  0.000  0.000     0.754     1.364
 271   8 O     -0.625  1.773  4.852  0.000    25.788     6.854
 272   1 H      0.316  0.684  0.000  0.000     0.674     1.290
 273   1 H      0.350  0.650  0.000  0.000     0.589     1.205
 274   8 O     -0.669  1.783  4.887  0.000    26.902     7.000
 275   1 H      0.331  0.669  0.000  0.000     0.634     1.251
 276   1 H      0.338  0.662  0.000  0.000     0.617     1.234
 277   8 O     -0.672  1.787  4.885  0.000    26.982     7.011
 278   1 H      0.321  0.679  0.000  0.000     0.661     1.277
 279   1 H      0.330  0.670  0.000  0.000     0.636     1.253
 280   8 O     -0.637  1.776  4.861  0.000    26.095     6.894
 281   1 H      0.304  0.696  0.000  0.000     0.709     1.323
 282   1 H      0.333  0.667  0.000  0.000     0.630     1.247
 283   8 O     -0.663  1.777  4.886  0.000    26.740     6.979
 284   1 H      0.342  0.658  0.000  0.000     0.607     1.224
 285   1 H      0.292  0.708  0.000  0.000     0.746     1.356
 286   8 O     -0.641  1.781  4.860  0.000    26.195     6.908
 287   1 H      0.319  0.681  0.000  0.000     0.668     1.284
 288   1 H      0.343  0.657  0.000  0.000     0.604     1.221
 289   8 O     -0.644  1.778  4.866  0.000    26.260     6.916
 290   1 H      0.341  0.659  0.000  0.000     0.609     1.226
 291   1 H      0.345  0.655  0.000  0.000     0.600     1.217
 292   8 O     -0.603  1.741  4.862  0.000    25.249     6.782
 293   1 H      0.270  0.730  0.000  0.000     0.818     1.421
 294   1 H      0.319  0.681  0.000  0.000     0.667     1.283
 295   7 N     -0.381  1.302  4.079  0.000    29.838     8.113
 296   6 C      0.059  1.052  2.889  0.000    19.613     6.309
 297   6 C      0.194  1.093  2.713  0.000    23.853     7.999
 298   8 O     -0.384  1.750  4.634  0.000    21.365     6.197
 299   6 C     -0.086  1.081  3.005  0.000    22.142     6.700
 300   6 C      0.370  1.025  2.605  0.000    20.730     7.450
 301   8 O     -0.667  1.772  4.895  0.000    27.823     7.072
 302   8 O     -0.572  1.781  4.791  0.000    25.451     6.764
 303   1 H      0.145  0.855  0.000  0.000     1.438     1.879
 304   1 H      0.028  0.972  0.000  0.000     2.619     2.531
 305   1 H      0.023  0.977  0.000  0.000     2.683     2.561
 306   1 H      0.026  0.974  0.000  0.000     2.640     2.541
 307   7 N     -0.403  1.319  4.085  0.000    30.463     8.197
 308   6 C      0.035  1.061  2.904  0.000    20.003     6.371
 309   6 C      0.202  1.092  2.706  0.000    23.702     7.973
 310   8 O     -0.405  1.774  4.631  0.000    21.780     6.257
 311   6 C     -0.017  1.067  2.950  0.000    20.839     6.493
 312   6 C     -0.120  1.039  3.081  0.000    22.862     6.818
 313   6 C     -0.126  1.043  3.084  0.000    22.982     6.836
 314   1 H      0.170  0.830  0.000  0.000     1.275     1.769
 315   1 H      0.061  0.939  0.000  0.000     2.184     2.311
 316   1 H      0.047  0.953  0.000  0.000     2.355     2.400
 317   1 H      0.077  0.923  0.000  0.000     2.012     2.218
 318   1 H      0.018  0.982  0.000  0.000     2.771     2.603
 319   1 H      0.041  0.959  0.000  0.000     2.433     2.439
 320   1 H      0.073  0.927  0.000  0.000     2.048     2.238
 321   1 H      0.049  0.951  0.000  0.000     2.329     2.387
 322   1 H      0.050  0.950  0.000  0.000     2.314     2.379
 323   1 H      0.181  0.819  0.000  0.000     1.205     1.720
 324   1 H      0.085  0.915  0.000  0.000     1.930     2.172
 325   1 H      0.193  0.807  0.000  0.000     1.142     1.674
 326   1 H      0.064  0.936  0.000  0.000     2.149     2.292
 327   1 H      0.187  0.813  0.000  0.000     1.175     1.698
 328   1 H      0.061  0.939  0.000  0.000     2.183     2.310
 329   1 H      0.172  0.828  0.000  0.000     1.263     1.760
 330   1 H      0.087  0.913  0.000  0.000     1.908     2.160

 Mol. C6AA /au·bohr⁶  :     955200.925569
 Mol. C8AA /au·bohr⁸  :   20883857.404202
 Mol. α(0) /au        :       1457.326335

 
molecular dipole:
                 x           y           z       tot (Debye)
 q only:      -97.680     -48.245     -82.347
   full:      -95.278     -47.670     -81.368     340.744
molecular quadrupole (traceless):
                xx          xy          yy          xz          yz          zz
 q only:    -1841.409   -3778.055    2792.608   -6490.697   -2854.801    -951.199
  q+dip:    -1742.998   -3651.433    2719.402   -6293.992   -2793.285    -976.405
   full:    -1742.481   -3653.385    2717.027   -6291.373   -2793.921    -974.546
speedup  1.03
cpu  time for grad   12.80 s
wall time for grad   12.38 s

SCC energy    :    -529.3778379
rep           :       5.8274377
ES            :       2.4688679
AES           :      -0.1495468
AXC           :       0.1256319
disp          :      -0.4076760
XB            :       0.0000000
fix           :       0.0000000
Gborn         :       0.0000000
Gsasa         :       0.0000000
Ghb           :       0.0000000
Gshift        :       0.0000000
Gsolv         :      -0.7401964     -464.48
Etot ala COSMO:    -529.3778379
grad norm     :       0.4793490
total E       :    -523.5089997
atomizationE  :      89.4239566    56114.38
(atE without considering molecular charge,
 total energy contains solvation terms)
H-L gap (eV)  :          1.4016

------------------------------------------------------------------------
 * finished run on 2019/05/04 at 19:50:30.866     
------------------------------------------------------------------------
 total:
 * wall-time:     0 d,  0 h,  0 min, 13.327 sec
 *  cpu-time:     0 d,  0 h,  0 min, 13.619 sec
 * ratio c/w:     1.022 speedup
 SCF:
 * wall-time:     0 d,  0 h,  0 min, 12.992 sec
 *  cpu-time:     0 d,  0 h,  0 min, 13.387 sec
 * ratio c/w:     1.030 speedup

