 
        ______________________________________
       |                                      |
       |           ==================         |
       |                 x T B                |
       |           ==================         |
       |               S. Grimme              |
       |        Universitaet Bonn, MCTC       |
       |         2015-18, Version 5.8.2       |
       |      Thu Jul 12 08:31:35 CEST 2018   |
       |______________________________________|
 
        This code comes without any warranty
        for non-commercial, academia use only.
        Preliminary GFN2 test version.
        Cite GFN-xTB work as:
        S. Grimme, C. Bannwarth, P. Shushkov
        JCTC, 13 (2017) 1989-2009
        for GFN2:
        C. Bannwarth, S. Ehlert, S. Grimme
        to be published.
        sTDA-xTB:
        S. Grimme  &  C. Bannwarth, JCP 145 (2016) 054103
        in the mass-spec context additionally:
        V. Asgeirsson, C.Bauer, S. Grimme, Chem. Sci. 8 (2017) 4879
 
        with help from
        P. Shushkov, G. Brandenburg, S. Dohm, J. Pisarek,
        F. März, M. Checinski, S. Ehrlich, S. Spicher, 
        P. Pracht, E. Caldeweyher, S. Ehlert, and C. Bannwarth.
 
        usage        :
        xtb <coord_file> [options]
        where <coord_file> is a valid file of TM)
        (*coord, Bohr) or xmol (*xyz, Angstroem)
        format.

        options:
        -chrg <int>   : molecular charge
        -uhf  <int>   : # of unpaired electrons(=2*S)
        -nox          : skip second, extended part in sTDA-xTB
        -pop          : do population analysis
                      : (default for -nox)
        -mowr <real>  : cut MO write above (def.3 Eh)
        -molden       : write formatted molden file
        -parx <file>  : read parameters for sTDA-xTB
                        calc (def:~/.param_stda2.xtb)
        -parv <file>  : read parameters for vTB part in
                        sTDA-xTB (def: ~/.param_stda1.xtb)
        -xtemp <real> : el. temp for xTB (def. 0 K)
        -etemp <real> : el. temp for GFN (def. 300 K)
        -fod          : calculate the FOD and write
                        molden.input file with
                        appropriate occupations
                        for plotting. Def. T=12500 K
 
        -gfn1         : use GFN-xTB
        -gfn2         : use GFN2-xTB
        -gfn2d3       : GFN2-xTB with D3 instead of D4
        -grad         : GFNn-xTB gradient
        -acc <real>   : GFNn-xTB accuracy (def. 1.0)
        -opt [level]  : optimize at GFNn-xTB
                      : level=crude,vloose,loose,
                      :       tight,vtight
        -hess         : compute Hessian at GFNn-xTB
        -ohess        : optimize and compute Hessian
        -omd          : optimize and do MD
        -siman        : conformational search
        -screen       : opt. loop over ensemble
        -gmd          : annealed MD for GMD procedure
        -modef        : vib mode following
        -gbsa [string1] [string2]
                        use GBSA implicit solvent
                        for solvent [string1] and
                        solvation state [string2]=
                        reference, bar1M (default=1M)
        additional GFN/opt/MD/siman options read from
        $XTBHOME/.xtbrc or $set in coordinate file
 
       spin and charge state information can be on:
       <.CHRG> (charge) and <.UHF> (=nalpha-nbeta)
       -uhf and -chrg override the file info.
       useful machine settings:
       setenv MKL_NUM_THREADS <NCORE_ON_YOUR_MACHINE>
       setenv OMP_STACKSIZE 500m
       limit stacksize unlimited
 
       total energies in Eh, gaps/HL energies in eV
       please read REVISION and HOWTO files carefully
          88  days left until this code expires
 =============================
  # OMP threads =           2
 =============================
 
 xtbhome directory:/home/kruse/Progs/XTB/
 
 argument            1 :-chrg
 argument            2 :0
 argument            3 :-grad
 argument            4 :-gfn2
 argument            5 :-gbsa
 argument            6 :h2o
 argument            7 :-acc
 argument            8 :1
 argument            9 :-etemp
 argument           10 :500
 
 name of molecule           :
 comment line               :
 number of atoms            :   126
 number of electrons        :   354
 charge                     :  0
 spin                       : 0.0
 first test random number   :  0.4363
 
 
 -----------------------------------------
  G F N (Geometry, Frequency, Non-covalent)
        parametrization, gfnver=           3
     D4 dispersion model
 /home/kruse/Progs/XTB/.param_gfn2.xtb
 -----------------------------------------
      method parameters     
 k(s)        :  1.8500
 k(p)        :  2.2300
 k(d)        :  2.2300
 k(f)        :  2.0000
 kEN (H0ij)  : -2.0000
 D3 a1       :  0.5200
 D3 a2       :  5.0000
 D3 s8       :  2.7000
 D3atm       :  5.0000
 alphaj      :  2.0000
 
 Solvent             : h2o
 GBSA parameter file : /home/kruse/Progs/XTB/.param_gbsa_h2o
 Gsolv ref. state (COSMO-RS): gsolv [1 M gas/solution]
 temperature (mdtemp)       :    298.150000000000     
 dielectric constant        :    78.5000000000000     
 rho                        :   0.998000000000000     
 mass                       :    18.0000000000000     
 surface tension            :    15.5689470637553     
 probe radius               :   0.976041290000000     
 vdW radii scaling          :    1.00000000000000     
 Gshift (Eh)                :   2.075470419022681E-003
 c1                         :    1.58079374000000     
 soset                      :   7.194512000000000E-002
 HB correction              :  T
 
 doing EN charges ...
 sum q :  0.1443290D-14
 point charge moment (au)
     X       Y       Z   
   1.6706  -1.2364  -0.1645  total (Debye):    5.299
 
            Z     q(EN)     CN     RAES       Cart. coordinates
     1  N   5.0   -0.39    3.28    1.98   108.60744   177.74960   201.18673
     2  C   4.0    0.02    4.32    4.23   110.10834   176.70336   202.93620
     3  C   4.0    0.25    3.36    3.07   109.76350   177.97351   205.48710
     4  O   6.0   -0.20    1.19    1.80   108.08646   179.33000   205.82476
     5  C   4.0   -0.09    4.15    3.90   112.75162   176.47329   202.12730
     6  S   6.0   -0.08    2.28    3.10   114.97381   179.02891   202.46992
     7  H   1.0    0.12    1.09    1.44   109.15297   179.42202   200.61578
     8  H   1.0    0.04    1.03    1.43   109.45725   174.72236   203.24395
     9  H   1.0    0.05    1.06    1.44   113.68247   174.89163   203.08707
    10  H   1.0    0.04    1.04    1.43   112.86753   175.76871   200.16646
    11  H   1.0    0.08    1.00    1.43   117.20148   178.60573   202.44275
    12  N   5.0   -0.41    3.38    2.01   111.55247   177.35968   207.31042
    13  C   4.0   -0.10    4.29    4.17   111.21308   178.42826   209.79189
    14  C   4.0    0.20    3.30    3.05   112.69879   180.86273   210.22771
    15  O   6.0   -0.13    1.15    1.80   112.17707   182.03918   212.17853
    16  C   4.0   -0.28    4.16    3.92   112.10808   176.35627   211.69764
    17  H   1.0    0.30    1.07    1.44   112.81823   176.47132   206.93978
    18  H   1.0    0.15    1.09    1.44   109.56123   178.73571   210.01140
    19  H   1.0    0.08    1.03    1.43   111.88610   177.01023   213.42011
    20  H   1.0    0.10    1.03    1.43   111.02654   174.91498   211.63229
    21  H   1.0    0.10    1.03    1.43   113.80435   175.85173   211.38969
    22  N   5.0   -0.40    3.33    1.99   114.60323   181.45116   208.65446
    23  C   4.0   -0.09    4.27    4.13   115.84875   183.95826   208.80048
    24  C   4.0    0.20    3.30    3.05   113.86966   186.11119   208.77267
    25  O   6.0   -0.11    1.14    1.80   111.90194   185.82658   207.42753
    26  C   4.0   -0.28    4.17    3.93   117.61826   184.15662   206.54766
    27  H   1.0    0.28    1.09    1.44   114.96813   180.46641   207.44333
    28  H   1.0    0.13    1.08    1.44   116.76917   183.93526   210.27399
    29  H   1.0    0.09    1.03    1.43   118.50306   185.76888   206.65224
    30  H   1.0    0.09    1.03    1.43   118.93763   182.91398   206.64223
    31  H   1.0    0.10    1.03    1.43   116.76717   183.99266   204.97925
    32  N   5.0   -0.26    3.36    2.01   114.44315   188.13901   210.05753
    33  C   4.0   -0.00    4.34    4.28   112.73785   190.20463   210.47545
    34  C   4.0    0.23    3.30    3.05   111.91353   191.49592   208.17826
    35  O   6.0   -0.17    1.16    1.80   109.81784   192.07978   207.68303
    36  C   4.0   -0.09    4.26    4.13   113.59711   191.91049   212.55356
    37  C   4.0   -0.10    4.19    3.99   113.41181   191.11836   215.22393
    38  C   4.0    0.22    3.16    3.03   115.03909   188.88281   215.84123
    39  O   6.0   -0.15    1.20    1.80   116.49479   187.90226   214.35394
    40  N   5.0   -0.30    3.16    1.95   114.77662   187.96748   218.16573
    41  H   1.0    0.13    1.08    1.44   116.08241   188.36342   210.86117
    42  H   1.0    0.05    1.05    1.44   111.02485   189.31457   211.24818
    43  H   1.0    0.05    1.03    1.43   115.57222   192.34079   212.17644
    44  H   1.0    0.05    1.03    1.43   112.72354   193.72960   212.28994
    45  H   1.0    0.05    1.03    1.43   113.79131   192.63084   216.47476
    46  H   1.0    0.05    1.03    1.43   111.46485   190.67981   215.59015
    47  H   1.0    0.11    1.02    1.43   113.61709   188.70128   219.43307
    48  H   1.0    0.11    1.02    1.43   115.73527   186.47043   218.76303
    49  N   5.0   -0.26    3.38    2.01   113.87647   191.98909   206.46077
    50  C   4.0    0.01    4.33    4.25   113.54595   192.84618   203.99196
    51  C   4.0    0.20    3.30    3.05   114.02873   190.78723   202.06102
    52  O   6.0   -0.14    1.14    1.80   115.96609   190.66586   200.78263
    53  C   4.0   -0.09    4.32    4.23   114.85987   195.23324   203.48956
    54  C   4.0    0.25    3.16    3.03   113.36773   197.57607   203.71126
    55  O   6.0   -0.18    1.18    1.80   111.49519   197.68795   204.90267
    56  N   5.0   -0.30    3.18    1.95   114.23472   199.56689   202.43819
    57  H   1.0    0.15    1.06    1.44   115.57974   191.72586   206.91600
    58  H   1.0    0.05    1.05    1.44   111.54821   193.39357   203.77720
    59  H   1.0    0.05    1.03    1.43   116.50211   195.31739   204.69710
    60  H   1.0    0.05    1.02    1.43   115.75033   195.12367   201.62810
    61  H   1.0    0.11    1.02    1.43   113.36339   201.23109   202.47621
    62  H   1.0    0.11    1.02    1.43   115.80753   199.55121   201.43036
    63  N   5.0   -0.24    3.38    2.01   112.18640   188.96694   201.90725
    64  C   4.0   -0.00    4.32    4.24   112.16833   187.07537   200.04854
    65  C   4.0    0.08    3.32    3.06   111.58814   188.37391   197.66372
    66  O   6.0   -0.14    1.10    1.80   109.59435   189.50794   197.42856
    67  C   4.0   -0.09    4.12    3.85   110.50573   184.88924   200.39033
    68  S   6.0   -0.08    2.26    3.10   109.98341   182.73390   197.67388
    69  H   1.0    0.13    1.05    1.44   110.85364   188.80217   203.16768
    70  H   1.0    0.05    1.05    1.44   114.04882   186.24953   199.97190
    71  H   1.0    0.04    1.03    1.43   111.10272   183.80350   202.05558
    72  H   1.0    0.05    1.04    1.43   108.69150   185.61799   201.02936
    73  H   1.0    0.08    1.01    1.43   109.22788   180.62539   198.02842
    74  N   5.0   -0.82    3.09    1.94   118.31712   170.87805   206.17788
    75  C   4.0   -0.04    4.18    3.97   118.60146   173.46236   204.59867
    76  C   4.0    0.05    3.16    3.03   119.26264   172.89986   201.92094
    77  O   6.0   -0.12    1.08    1.80   120.58019   170.97092   201.46100
    78  C   4.0   -0.20    4.32    4.24   120.70153   174.90730   205.81638
    79  C   4.0   -0.00    3.43    3.09   120.17178   175.29168   208.54420
    80  C   4.0   -0.22    3.35    3.07   121.48074   173.60343   210.13763
    81  C   4.0   -0.10    3.38    3.07   118.46291   176.93896   209.65382
    82  C   4.0   -0.16    3.25    3.04   121.13745   173.81204   212.84111
    83  C   4.0   -0.30    3.24    3.04   118.00014   177.31165   212.19736
    84  C   4.0   -0.15    3.29    3.05   119.40521   175.61735   213.83499
    85  H   1.0    0.60    1.05    1.44   119.60870   170.31195   206.18089
    86  H   1.0    0.06    1.04    1.43   116.88748   174.48980   204.67653
    87  H   1.0    0.13    1.06    1.44   122.24223   174.21800   205.50956
    88  H   1.0    0.07    1.06    1.44   120.47043   176.70341   205.12429
    89  H   1.0    0.23    1.07    1.44   122.45854   172.52437   209.61614
    90  H   1.0    0.11    1.07    1.44   117.67569   177.99922   208.48274
    91  H   1.0    0.16    1.06    1.44   121.96116   172.89154   213.90329
    92  H   1.0    0.31    1.08    1.44   117.10125   178.34204   212.72592
    93  H   1.0    0.15    1.06    1.44   119.08690   175.84493   215.45001
    94  N   5.0   -0.38    3.23    1.96   123.14793   182.60132   196.29634
    95  C   4.0   -0.11    4.38    4.34   122.23408   184.31112   198.31653
    96  C   4.0    0.29    3.37    3.07   123.98032   184.29949   200.55633
    97  O   6.0   -0.15    1.26    1.80   123.70104   185.96997   202.11266
    98  C   4.0   -0.23    4.15    3.89   119.59005   183.23304   199.26661
    99  S   6.0   -0.08    2.47    3.10   117.52045   183.00728   196.90536
   100  H   1.0    0.14    1.05    1.44   121.97525   181.33053   195.78908
   101  H   1.0    0.15    1.10    1.44   121.80797   185.70568   197.46204
   102  H   1.0    0.12    1.13    1.45   119.87129   181.69217   200.03065
   103  H   1.0    0.11    1.12    1.45   119.03121   184.25654   200.61184
   104  H   1.0    0.09    1.00    1.43   115.72059   181.64191   197.10185
   105  N   5.0   -0.35    3.44    2.04   125.64750   182.80548   200.83897
   106  C   4.0   -0.09    4.43    4.43   127.34722   182.62333   202.91797
   107  C   4.0    0.15    3.20    3.04   130.03542   183.33908   202.30223
   108  O   6.0   -0.22    1.11    1.80   131.79594   183.33245   203.53264
   109  C   4.0   -0.03    4.23    4.06   127.04183   180.19269   204.48707
   110  C   4.0   -0.23    4.31    4.22   128.90915   179.67599   206.05883
   111  C   4.0   -0.27    4.25    4.10   124.57545   180.32669   205.85400
   112  H   1.0    0.16    1.10    1.44   125.89941   181.54213   199.62565
   113  H   1.0    0.14    1.14    1.45   127.06215   183.98251   203.92923
   114  H   1.0    0.03    0.95    1.42   127.03070   178.57606   202.87816
   115  H   1.0    0.09    1.05    1.44   128.68960   178.13921   207.01321
   116  H   1.0    0.06    1.04    1.43   130.60581   179.46397   205.11709
   117  H   1.0    0.08    1.05    1.44   129.06771   180.99630   207.36819
   118  H   1.0    0.09    1.05    1.44   124.43762   178.67092   206.62904
   119  H   1.0    0.10    1.03    1.43   124.60736   181.69819   207.01908
   120  H   1.0    0.08    1.03    1.43   123.15789   180.41345   204.64725
   121  H   1.0    0.20    1.07    1.44   108.55420   176.74896   199.81252
   122  H   1.0    0.07    1.03    1.43   112.82637   188.32727   196.23695
   123  H   1.0    0.20    1.03    1.43   117.78133   171.23122   207.75293
   124  H   1.0    0.07    1.02    1.43   118.66283   174.04159   200.53973
   125  H   1.0    0.20    1.04    1.43   123.51418   183.50998   194.90610
   126  H   1.0    0.07    1.04    1.44   130.48057   183.93358   200.56456
 
  Z AO/shell   Hii/eV     exponent
  1     Wed Apr 25 08:07:45 CEST 2018   EN: 2.200 GM2: 0.406  GM3: 0.0800  RAES: 1.40
     1s    -10.707211    1.230000
  6     Wed Apr 25 08:07:45 CEST 2018   EN: 2.550 GM2: 0.538  GM3: 0.1500  RAES: 3.00
     2s    -13.970922    2.096432
     2p    -10.063292    1.800000
  7     Wed Apr 25 08:07:45 CEST 2018   EN: 3.040 GM2: 0.461  GM3:-0.0640  RAES: 1.90
     2s    -16.686243    2.339881
     2p    -12.523956    2.014332
  8     Wed Apr 25 08:07:45 CEST 2018   EN: 3.440 GM2: 0.452  GM3:-0.0517  RAES: 1.80
     2s    -20.229985    2.439742
     2p    -15.503117    2.137023
 16     Tue Apr 24 11:44:34 CEST 2018   EN: 2.580 GM2: 0.340  GM3:-0.0502  RAES: 3.10
     3s    -20.029654    1.981333
     3p    -11.377694    2.025643
     3d     -0.420282    1.702555
 no old-style atom pair restraing (fixing) potential
 
 molecular fragmentation (1/2 indicates fragments):
11111111111111111111111111111111111111111111111111111111111111111111111112222222
2222222222222222222222222222222222222222112222
# atoms in fragment 1/2:    75    51
 fragment masses (1/2) :      592.68      353.48
CMA distance (Bohr)    :  12.090
constraining FC (au)   :  0.0500
 
             =======================================
             |                                     |
             |        S C C  calculation           |
             |                                     |
             =======================================
 #proc     :            2
 Ncao      :          333
 Nao       :          330
 Nel       :          354
 T(el)     :   500.0
 intcut    :    25.0
 scfconv   :  0.100E-05
   qconv   :  0.100E-03
 intneglect:  0.100E-07
 broydamp  :      0.400
 Nshell    :          192
 iter      E             dE          RMSdq      gap      omega  full diag
   1   -202.2336175 -0.202234E+03  0.526E+00    1.04       0.0  T
   2   -203.0601981 -0.826581E+00  0.251E+00    0.85       1.0  T
   3   -203.0895681 -0.293700E-01  0.119E+00    1.65       1.0  T
   4   -203.0988396 -0.927152E-02  0.413E-01    1.33       1.0  T
   5   -203.1048692 -0.602954E-02  0.166E-01    1.44       1.0  T
   6   -203.1053158 -0.446604E-03  0.771E-02    1.40       1.0  T
   7   -203.1054556 -0.139771E-03  0.327E-02    1.38       1.0  T
   8   -203.1054792 -0.236087E-04  0.167E-02    1.39       1.0  T
   9   -203.1054844 -0.522856E-05  0.672E-03    1.39       1.3  T
  10   -203.1054851 -0.692684E-06  0.280E-03    1.39       3.2  T
  11   -203.1054852 -0.125059E-06  0.132E-03    1.39       6.8  T
  12   -203.1054852 -0.203635E-07  0.536E-04    1.39      16.6  T
  13   -203.1054852 -0.515644E-08  0.236E-04    1.39      37.7  T
speedup  1.98
cpu  time for SCC    0.71 s
wall time for SCC    0.36 s

          eigenvalues
 #    :         165        166        167        168        169        170        171        172
 occ. :        2.000      2.000      2.000      2.000      2.000      2.000      2.000      2.000
 eps  :       -10.983    -10.912    -10.809    -10.722    -10.651    -10.616    -10.462    -10.378
 #    :         173        174        175        176        177        178        179        180
 occ. :        2.000      2.000      2.000      2.000      2.000      0.000      0.000      0.000
 eps  :       -10.188     -9.941     -9.894     -9.868     -9.574     -8.188     -7.821     -6.952
 #    :         181        182        183        184        185        186        187        188
 occ. :        0.000      0.000      0.000      0.000      0.000      0.000      0.000      0.000
 eps  :        -6.858     -6.471     -6.408     -6.249     -6.123     -6.069     -5.906     -5.901
 

   #   Z            q   n(s)   n(p)   n(d)      C6AA      α(0)    relVol
   1   7 N     -0.393  1.298  4.095  0.000    30.606     8.220     1.090
   2   6 C      0.059  1.025  2.916  0.000    19.579     6.296     0.510
   3   6 C      0.281  1.039  2.679  0.000    22.179     7.717     0.625
   4   8 O     -0.469  1.734  4.735  0.000    23.149     6.457     1.243
   5   6 C     -0.001  1.062  2.940  0.000    20.628     6.467     0.523
   6  16 S     -0.398  1.904  4.440  0.054   159.552    21.255     1.084
   7   1 H      0.175  0.825  0.000  0.000     1.197     1.712     0.339
   8   1 H      0.048  0.952  0.000  0.000     2.336     2.390     0.473
   9   1 H      0.048  0.952  0.000  0.000     2.333     2.388     0.472
  10   1 H      0.056  0.944  0.000  0.000     2.237     2.338     0.463
  11   1 H      0.262  0.738  0.000  0.000     0.779     1.380     0.273
  12   7 N     -0.235  1.215  4.020  0.000    26.488     7.647     1.014
  13   6 C      0.023  1.024  2.953  0.000    20.186     6.394     0.518
  14   6 C      0.268  1.050  2.682  0.000    22.415     7.753     0.627
  15   8 O     -0.541  1.767  4.774  0.000    24.729     6.674     1.284
  16   6 C     -0.151  0.978  3.174  0.000    23.511     6.915     0.560
  17   1 H      0.229  0.771  0.000  0.000     0.915     1.497     0.296
  18   1 H      0.079  0.921  0.000  0.000     1.967     2.192     0.434
  19   1 H      0.066  0.934  0.000  0.000     2.114     2.273     0.450
  20   1 H      0.077  0.923  0.000  0.000     1.995     2.208     0.437
  21   1 H      0.091  0.909  0.000  0.000     1.851     2.127     0.421
  22   7 N     -0.181  1.211  3.970  0.000    25.236     7.464     0.990
  23   6 C      0.020  1.035  2.945  0.000    20.248     6.405     0.518
  24   6 C      0.266  1.050  2.684  0.000    22.443     7.758     0.628
  25   8 O     -0.574  1.784  4.790  0.000    25.489     6.776     1.304
  26   6 C     -0.150  0.971  3.180  0.000    23.484     6.910     0.559
  27   1 H      0.238  0.762  0.000  0.000     0.874     1.463     0.289
  28   1 H      0.099  0.901  0.000  0.000     1.769     2.079     0.411
  29   1 H      0.073  0.927  0.000  0.000     2.042     2.234     0.442
  30   1 H      0.106  0.894  0.000  0.000     1.709     2.044     0.404
  31   1 H      0.076  0.924  0.000  0.000     2.009     2.216     0.438
  32   7 N     -0.169  1.235  3.934  0.000    24.963     7.424     0.985
  33   6 C      0.032  1.035  2.933  0.000    20.013     6.363     0.515
  34   6 C      0.289  1.035  2.675  0.000    22.026     7.685     0.622
  35   8 O     -0.452  1.735  4.717  0.000    22.801     6.408     1.233
  36   6 C     -0.062  1.028  3.034  0.000    21.687     6.626     0.536
  37   6 C     -0.103  1.037  3.066  0.000    22.493     6.752     0.546
  38   6 C      0.291  1.032  2.677  0.000    21.965     7.664     0.620
  39   8 O     -0.500  1.742  4.758  0.000    23.805     6.548     1.260
  40   7 N     -0.283  1.252  4.032  0.000    27.691     7.819     1.037
  41   1 H      0.256  0.744  0.000  0.000     0.802     1.402     0.277
  42   1 H      0.063  0.937  0.000  0.000     2.149     2.292     0.453
  43   1 H      0.074  0.926  0.000  0.000     2.029     2.227     0.441
  44   1 H      0.066  0.934  0.000  0.000     2.118     2.275     0.450
  45   1 H      0.102  0.898  0.000  0.000     1.746     2.066     0.409
  46   1 H      0.076  0.924  0.000  0.000     2.010     2.217     0.439
  47   1 H      0.230  0.770  0.000  0.000     0.915     1.498     0.296
  48   1 H      0.229  0.771  0.000  0.000     0.919     1.501     0.297
  49   7 N     -0.210  1.228  3.982  0.000    25.907     7.563     1.003
  50   6 C      0.042  1.024  2.933  0.000    19.850     6.339     0.513
  51   6 C      0.263  1.054  2.683  0.000    22.506     7.769     0.629
  52   8 O     -0.453  1.745  4.708  0.000    22.845     6.414     1.234
  53   6 C     -0.110  1.041  3.069  0.000    22.579     6.758     0.547
  54   6 C      0.307  1.016  2.677  0.000    21.690     7.615     0.616
  55   8 O     -0.499  1.734  4.765  0.000    23.784     6.545     1.260
  56   7 N     -0.297  1.255  4.043  0.000    28.044     7.868     1.044
  57   1 H      0.214  0.786  0.000  0.000     0.984     1.553     0.307
  58   1 H      0.067  0.933  0.000  0.000     2.100     2.266     0.448
  59   1 H      0.099  0.901  0.000  0.000     1.774     2.082     0.412
  60   1 H      0.087  0.913  0.000  0.000     1.891     2.150     0.425
  61   1 H      0.228  0.772  0.000  0.000     0.922     1.504     0.298
  62   1 H      0.231  0.769  0.000  0.000     0.907     1.491     0.295
  63   7 N     -0.174  1.226  3.948  0.000    25.059     7.438     0.987
  64   6 C      0.058  1.015  2.928  0.000    19.593     6.297     0.510
  65   6 C      0.223  1.073  2.704  0.000    23.274     7.907     0.640
  66   8 O     -0.379  1.756  4.623  0.000    21.384     6.206     1.194
  67   6 C      0.029  1.044  2.927  0.000    20.108     6.386     0.517
  68  16 S     -0.367  1.908  4.417  0.042   158.055    21.155     1.079
  69   1 H      0.190  0.810  0.000  0.000     1.109     1.649     0.326
  70   1 H      0.087  0.913  0.000  0.000     1.892     2.150     0.425
  71   1 H      0.060  0.940  0.000  0.000     2.182     2.309     0.457
  72   1 H      0.034  0.966  0.000  0.000     2.524     2.483     0.491
  73   1 H      0.293  0.707  0.000  0.000     0.672     1.282     0.254
  74   7 N     -0.443  1.301  4.142  0.000    32.051     8.412     1.116
  75   6 C      0.030  1.064  2.906  0.000    20.106     6.388     0.517
  76   6 C      0.197  1.085  2.718  0.000    23.739     7.972     0.645
  77   8 O     -0.408  1.786  4.622  0.000    21.944     6.286     1.210
  78   6 C     -0.076  1.004  3.072  0.000    21.924     6.658     0.539
  79   6 C      0.005  1.080  2.915  0.000    27.818     8.656     0.701
  80   6 C     -0.074  1.053  3.021  0.000    29.838     8.968     0.726
  81   6 C     -0.066  1.053  3.014  0.000    29.626     8.936     0.723
  82   6 C     -0.070  1.064  3.006  0.000    29.760     8.951     0.724
  83   6 C     -0.074  1.042  3.032  0.000    29.859     8.966     0.726
  84   6 C     -0.071  1.066  3.006  0.000    29.791     8.959     0.725
  85   1 H      0.204  0.796  0.000  0.000     1.037     1.594     0.315
  86   1 H      0.070  0.930  0.000  0.000     2.067     2.247     0.445
  87   1 H      0.086  0.914  0.000  0.000     1.900     2.155     0.426
  88   1 H      0.080  0.920  0.000  0.000     1.964     2.190     0.433
  89   1 H      0.083  0.917  0.000  0.000     1.924     2.168     0.429
  90   1 H      0.069  0.931  0.000  0.000     2.082     2.256     0.446
  91   1 H      0.068  0.932  0.000  0.000     2.092     2.261     0.447
  92   1 H      0.077  0.923  0.000  0.000     1.989     2.205     0.436
  93   1 H      0.057  0.943  0.000  0.000     2.218     2.328     0.461
  94   7 N     -0.420  1.306  4.113  0.000    31.369     8.322     1.104
  95   6 C      0.015  1.035  2.951  0.000    20.299     6.406     0.518
  96   6 C      0.282  1.013  2.705  0.000    22.173     7.718     0.625
  97   8 O     -0.574  1.744  4.831  0.000    25.410     6.766     1.302
  98   6 C      0.026  0.975  2.999  0.000    20.173     6.398     0.518
  99  16 S     -0.413  1.882  4.473  0.059   160.246    21.301     1.086
 100   1 H      0.185  0.815  0.000  0.000     1.140     1.672     0.331
 101   1 H      0.076  0.924  0.000  0.000     2.001     2.211     0.437
 102   1 H      0.077  0.923  0.000  0.000     1.994     2.206     0.437
 103   1 H      0.050  0.950  0.000  0.000     2.311     2.376     0.470
 104   1 H      0.263  0.737  0.000  0.000     0.773     1.375     0.272
 105   7 N     -0.121  1.189  3.932  0.000    23.906     7.265     0.964
 106   6 C     -0.012  1.022  2.991  0.000    20.763     6.478     0.524
 107   6 C      0.220  1.057  2.723  0.000    23.307     7.901     0.639
 108   8 O     -0.357  1.713  4.644  0.000    20.959     6.144     1.182
 109   6 C      0.023  1.040  2.936  0.000    20.171     6.390     0.517
 110   6 C     -0.137  0.962  3.175  0.000    23.131     6.843     0.554
 111   6 C     -0.158  0.979  3.179  0.000    23.571     6.910     0.559
 112   1 H      0.221  0.779  0.000  0.000     0.951     1.526     0.302
 113   1 H      0.134  0.866  0.000  0.000     1.473     1.896     0.375
 114   1 H      0.004  0.996  0.000  0.000     2.997     2.709     0.536
 115   1 H      0.081  0.919  0.000  0.000     1.950     2.183     0.432
 116   1 H      0.044  0.956  0.000  0.000     2.386     2.415     0.478
 117   1 H      0.064  0.936  0.000  0.000     2.142     2.288     0.453
 118   1 H      0.081  0.919  0.000  0.000     1.951     2.183     0.432
 119   1 H      0.072  0.928  0.000  0.000     2.050     2.238     0.443
 120   1 H      0.057  0.943  0.000  0.000     2.221     2.330     0.461
 121   1 H      0.201  0.799  0.000  0.000     1.052     1.605     0.318
 122   1 H      0.087  0.913  0.000  0.000     1.890     2.149     0.425
 123   1 H      0.175  0.825  0.000  0.000     1.198     1.714     0.339
 124   1 H      0.085  0.915  0.000  0.000     1.911     2.161     0.428
 125   1 H      0.175  0.825  0.000  0.000     1.199     1.714     0.339
 126   1 H      0.046  0.954  0.000  0.000     2.362     2.403     0.475

 Mol. C6AA /au*bohr^6 :     168270.104069
 Mol. C8AA /au*bohr^6 :    4106505.339222
 Mol. a(0) /au        :        624.349897

 
molecular dipole:
                 x           y           z       tot (Debye)
 q only:        5.130      -2.578       1.975
   full:        6.150      -2.633       2.621      15.632
molecular quadrupole (traceless):
                xx          xy          yy          xz          yz          zz
 q only:     1164.809    1000.500   -1915.742    1923.613    -225.237     750.933
  q+dip:      982.549     928.737   -2036.457    1957.265     -66.441    1053.908
   full:      982.162     933.160   -2034.865    1958.792     -66.121    1052.703
 SCC converged in           13  cycles
speedup  1.94
cpu  time for grad    0.19 s
wall time for grad    0.10 s
 
SCC energy    :    -203.0767490
rep           :       4.0670050
ES            :       0.5993274
AES           :      -0.0051516
AXC           :       0.0493600
disp          :      -0.1551716
XB            :       0.0000000
fix           :       0.0000000
Gborn         :      -0.1555552
Gsasa         :       0.0266608
Ghb           :      -0.0316844
Gshift        :       0.0020755
Gsolv         :      -0.1585034      -99.46
Etot ala COSMO:    -198.9975842
grad norm     :       1.9402226
total E       :    -199.0005323
atomizationE  :      33.8466736    21239.11
(atE without considerung molecular charge,
 total energy contains solvation terms)
H-L gap (eV)  :          1.3861
 
speedup  1.87
cpu  time for all    1.08 s
wall time for all    0.58 s
