      -----------------------------------------------------------      
     |                   =====================                   |     
     |                           x T B                           |     
     |                   =====================                   |     
     |                         S. Grimme                         |     
     |          Mulliken Center for Theoretical Chemistry        |     
     |                    University of Bonn                     |     
     |                 Version 6.0.1 (SAW181210)                 |     
      -----------------------------------------------------------      

   This program is distributed in the hope that it will be useful,
   but WITHOUT ANY WARRANTY; without even the implied warranty of
   MERCHANTABILITY or FITNESS FOR A PARTICULAR PURPOSE.
   
   FOR NON-COMMERCIAL, ACADEMIA USE ONLY.
   
   Cite this work as:
   S. Grimme, C. Bannwarth, P. Shushkov, J. Comput. Theory Chem., 2017,
   13, 1989-2009.
   C. Bannwarth, S. Ehlert and S. Grimme., ChemRxiv, 2018, preprint.
   http://doi.org/10.26434/chemrxiv.7246238.v1
   
   for sTDA-xTB:
   S. Grimme and C. Bannwarth, J. Chem. Phys., 2016, 145, 054103.
   
   in the mass-spec context:
   V. Asgeirsson, C. Bauer and S. Grimme, Chem. Sci., 2017, 8, 4879.
   
   if GBSA is used:
   P. Shushkov, F. März and S. Grimme, unpublished.
   
   for ANC optimizer:
   S. Grimme, unpublished.
   Rational Function algorithm used in ANCopt:
   F. Eckert, P. Pulay, H.-J. Werner, J. Comput. Chem., 1997, 18, 1473.
   
   with help from (in alphabetical order)
   C. Bannwarth, F. Bohle, G. Brandenburg, E. Caldeweyher, M. Checinski,
   S. Dohm, S. Ehlert, S. Ehrlich, F. März, H. Neugebauer, J. Pisarek,
   P. Pracht, P. Shushkov, and S. Spicher.
   
 * started run on 2019/05/11 at 08:42:32.841     
========================================================================
 # omp threads = 2
========================================================================
number of atoms            : 593
number of electrons        : 1536
charge                     : 2
spin                       : .0
first test random number   : .7455

########################################################################
# WARNING! Please study the warnings concerning your input carefully
#  - Process number higher than OMP_NUM_THREADS, I hope you know what you are doing.
########################################################################

           ------------------------------------------------- 
          |                 G F N 2 - x T B                 |
          | Geometry, Frequencies, Noncovalent interactions |
          |            JCTC 2018 parametrisation            |
           ------------------------------------------------- 
 
      method parameters     
 k(s)        :  1.8500
 k(p)        :  2.2300
 k(d)        :  2.2300
 k(f)        :  2.0000
 kEN (H0ij)  : -2.0000
 D4 a1       :  0.5200
 D4 a2       :  5.0000
 D4 s6       :  1.0000
 D4 s8       :  2.7000
 D4 s9       :  5.0000
 alphaj      :  2.0000

 Solvent             : h2o
 Using internal parameter file: .param_gbsa2_h2o
 Gsolv ref. state (COSMO-RS): gsolv [1 M gas/solution]
 temperature (mdtemp)       :    298.150000000000     
 dielectric constant        :    80.2000000000000     
 rho                        :    1.00000000000000     
 mass                       :    18.0000000000000     
 surface tension            :    15.5689454083859     
 probe radius               :   0.975313790000000     
 vdW radii scaling          :    1.00000000000000     
 Gshift (Eh)                :   1.857443126794793E-003
 c1                         :    1.55243817000000     
 soset                      :   0.130326360000000     
 HB correction              :  T

            Z     q(EN)     CN     RAES       Cart. coordinates
     1  N   5.0   -0.21    3.24    1.96    90.85263    19.40636    -5.35867
     2  C   4.0    0.03    4.35    4.28    90.08709    21.03484    -3.29889
     3  C   4.0    0.15    3.47    3.10    91.64716    20.41298    -0.95092
     4  O   6.0   -0.32    1.31    1.80    92.75110    22.03755     0.27981
     5  C   4.0   -0.04    4.34    4.28    87.26211    20.68164    -2.77521
     6  C   4.0   -0.01    3.57    3.15    86.29820    22.68633    -1.01335
     7  C   4.0   -0.04    3.47    3.10    86.09955    25.17210    -1.83645
     8  C   4.0   -0.04    3.46    3.10    85.61956    22.09834     1.44788
     9  C   4.0   -0.04    3.38    3.07    85.24817    27.03825    -0.21765
    10  C   4.0   -0.04    3.38    3.07    84.78206    23.97017     3.07245
    11  C   4.0   -0.04    3.38    3.07    84.59899    26.44228     2.24444
    12  H   1.0    0.09    1.03    1.43    89.46824    18.40718    -6.23353
    13  H   1.0    0.04    1.05    1.44    90.47999    23.01155    -3.79593
    14  H   1.0    0.05    1.03    1.43    86.26666    20.78095    -4.57984
    15  H   1.0    0.04    1.03    1.43    86.96419    18.80214    -1.98293
    16  H   1.0    0.05    1.03    1.43    86.60756    25.63847    -3.75739
    17  H   1.0    0.05    1.03    1.43    85.74455    20.16579     2.08613
    18  H   1.0    0.05    1.03    1.43    85.08261    28.96277    -0.87056
    19  H   1.0    0.04    1.03    1.43    84.28029    23.50435     4.99252
    20  H   1.0    0.05    1.03    1.43    83.94652    27.90325     3.50723
    21  N   5.0   -0.15    3.51    2.08    91.72992    17.96877    -0.37092
    22  C   4.0    0.04    4.45    4.46    93.18700    17.07611     1.75858
    23  C   4.0    0.17    3.52    3.12    95.79303    18.33063     1.76695
    24  O   6.0   -0.31    1.29    1.80    96.66236    19.30455     3.68059
    25  C   4.0   -0.04    4.32    4.23    93.40256    14.19895     1.66287
    26  C   4.0    0.16    3.23    3.04    94.28764    13.17129     4.20209
    27  O   6.0   -0.29    1.21    1.80    93.29087    13.80756     6.17783
    28  N   5.0   -0.18    3.18    1.95    96.16388    11.47376     4.07020
    29  H   1.0    0.08    1.07    1.44    90.71315    16.68068    -1.36639
    30  H   1.0    0.06    1.05    1.44    92.27280    17.63168     3.54134
    31  H   1.0    0.05    1.03    1.43    91.51115    13.44315     1.31149
    32  H   1.0    0.04    1.03    1.43    94.63717    13.63680     0.11640
    33  H   1.0    0.11    1.03    1.43    96.86704    10.74815     5.68352
    34  H   1.0    0.09    1.03    1.43    97.02212    11.05089     2.42900
    35  N   5.0   -0.14    3.47    2.06    97.07856    18.22116    -0.40806
    36  C   4.0    0.03    4.45    4.46    99.58114    19.32207    -0.51107
    37  C   4.0    0.16    3.55    3.14    99.55477    22.16365    -0.02400
    38  O   6.0   -0.33    1.41    1.80   101.20161    23.07064     1.35007
    39  C   4.0   -0.05    4.24    4.09   100.94401    18.78618    -3.00620
    40  C   4.0   -0.04    4.19    3.98   103.47061    20.19862    -3.25001
    41  C   4.0   -0.04    4.17    3.93   105.30010    19.70434    -1.05253
    42  C   4.0   -0.04    4.11    3.82   107.72720    21.24205    -1.31943
    43  N   5.0   -0.11    4.01    2.88   109.34708    21.07599     0.97933
    44  H   1.0    0.08    1.06    1.44    96.30461    17.45225    -1.98113
    45  H   1.0    0.06    1.06    1.44   100.65122    18.51482     1.07395
    46  H   1.0    0.05    1.03    1.43   101.25446    16.75507    -3.15133
    47  H   1.0    0.05    1.03    1.43    99.69015    19.36865    -4.53684
    48  H   1.0    0.04    1.03    1.43   104.34874    19.61309    -5.01887
    49  H   1.0    0.05    1.03    1.43   103.09309    22.22279    -3.36606
    50  H   1.0    0.06    1.04    1.43   104.38507    20.27204     0.70049
    51  H   1.0    0.05    1.02    1.43   105.72602    17.69180    -0.98013
    52  H   1.0    0.04    1.02    1.43   108.83295    20.55027    -2.91608
    53  H   1.0    0.04    1.02    1.43   107.24537    23.22153    -1.62732
    54  H   1.0    0.06    1.02    1.43   110.97841    22.10512     0.74086
    55  H   1.0    0.08    1.02    1.43   108.53608    21.76568     2.63618
    56  H   1.0    0.07    1.02    1.43   109.82880    19.22897     1.34821
    57  N   5.0   -0.14    3.50    2.08    97.88380    23.60601    -1.20942
    58  C   4.0    0.04    4.54    4.59    98.02242    26.31344    -0.77024
    59  C   4.0    0.16    3.51    3.12    97.78972    26.85238     2.06160
    60  O   6.0   -0.31    1.26    1.80    99.08226    28.48874     3.07661
    61  C   4.0   -0.02    4.31    4.22    96.18981    27.87882    -2.39191
    62  C   4.0   -0.05    4.19    3.98    93.43706    27.66902    -1.52723
    63  C   4.0   -0.06    4.14    3.88    96.53669    27.16172    -5.16179
    64  C   4.0   -0.08    4.02    3.66    91.62238    29.21366    -3.14721
    65  H   1.0    0.09    1.06    1.44    96.51699    22.84563    -2.30837
    66  H   1.0    0.06    1.06    1.44    99.94257    26.93943    -1.26466
    67  H   1.0    0.05    1.06    1.44    96.80009    29.84362    -2.15532
    68  H   1.0    0.06    1.04    1.43    92.85547    25.69688    -1.54121
    69  H   1.0    0.04    1.03    1.43    93.30787    28.34100     0.41886
    70  H   1.0    0.05    1.00    1.43    95.49837    28.46675    -6.35388
    71  H   1.0    0.06    1.00    1.43    98.52088    27.26254    -5.67440
    72  H   1.0    0.05    1.00    1.43    95.86229    25.25690    -5.53305
    73  H   1.0    0.04    1.00    1.43    89.77274    29.26372    -2.25732
    74  H   1.0    0.04    1.00    1.43    92.30994    31.14076    -3.32825
    75  H   1.0    0.04    1.00    1.43    91.40906    28.38888    -5.01653
    76  N   5.0   -0.14    3.52    2.09    96.12773    25.42928     3.32161
    77  C   4.0    0.04    4.51    4.56    95.86912    25.67306     6.03809
    78  C   4.0    0.16    3.54    3.14    98.43498    25.15534     7.25321
    79  O   6.0   -0.32    1.31    1.80    99.46868    26.67908     8.66111
    80  C   4.0   -0.02    4.33    4.25    93.84773    23.88490     7.10027
    81  C   4.0   -0.05    4.18    3.95    91.19777    24.50643     6.09185
    82  C   4.0   -0.08    4.14    3.88    93.92703    23.92880     9.98829
    83  C   4.0   -0.08    4.02    3.65    90.17160    27.09685     6.81535
    84  H   1.0    0.11    1.09    1.44    94.98963    24.19804     2.40050
    85  H   1.0    0.05    1.05    1.44    95.39197    27.63826     6.50065
    86  H   1.0    0.06    1.06    1.44    94.32082    21.97317     6.46376
    87  H   1.0    0.06    1.03    1.43    91.19106    24.33699     4.03750
    88  H   1.0    0.04    1.03    1.43    89.91783    23.07159     6.83182
    89  H   1.0    0.04    1.00    1.43    92.37088    22.83308    10.75552
    90  H   1.0    0.04    1.00    1.43    95.67937    23.10392    10.67484
    91  H   1.0    0.04    1.00    1.43    93.79926    25.85149    10.69659
    92  H   1.0    0.04    1.00    1.43    88.28118    27.31805     6.04410
    93  H   1.0    0.04    1.00    1.43    90.06910    27.29801     8.85483
    94  H   1.0    0.04    1.00    1.43    91.33172    28.60593     6.04746
    95  N   5.0   -0.14    3.54    2.11    99.50226    22.93945     6.68243
    96  C   4.0    0.04    4.52    4.56   101.87496    22.26532     7.86586
    97  C   4.0    0.17    3.52    3.12   103.84114    24.33637     7.38947
    98  O   6.0   -0.31    1.35    1.80   105.15011    25.14632     9.11830
    99  C   4.0   -0.03    4.10    3.81   102.86095    19.73291     6.94884
   100  S   6.0   -0.03    2.30    3.10   100.86486    17.13030     8.09270
   101  H   1.0    0.11    1.10    1.44    98.61116    21.65837     5.56820
   102  H   1.0    0.05    1.06    1.44   101.62266    22.18486     9.92885
   103  H   1.0    0.06    1.06    1.44   102.85333    19.68098     4.89310
   104  H   1.0    0.07    1.07    1.44   104.76507    19.40206     7.65609
   105  H   1.0    0.06    0.98    1.43   102.73140    15.74670     9.03675
   106  N   5.0   -0.14    3.52    2.09   104.01965    25.15366     5.02269
   107  C   4.0    0.05    4.42    4.41   105.86798    27.04262     4.33224
   108  C   4.0    0.17    3.50    3.11   105.70305    29.30535     6.11990
   109  O   6.0   -0.31    1.30    1.80   107.60591    30.20232     7.11258
   110  C   4.0    0.04    4.15    3.90   105.51164    27.88884     1.58604
   111  O   6.0   -0.26    2.06    1.83   107.67962    29.27305     0.90342
   112  H   1.0    0.12    1.14    1.45   102.82143    24.49882     3.67162
   113  H   1.0    0.07    1.05    1.44   107.76984    26.23906     4.57307
   114  H   1.0    0.05    1.01    1.43   105.27726    26.21056     0.39291
   115  H   1.0    0.06    1.01    1.43   103.78344    29.02056     1.41889
   116  H   1.0    0.13    1.02    1.43   107.53524    29.85591    -0.82239
   117  N   5.0   -0.14    3.52    2.09   103.39777    30.23965     6.45242
   118  C   4.0    0.03    4.41    4.40   102.89199    32.32093     8.16595
   119  C   4.0    0.16    3.49    3.11   103.95989    31.75646    10.78392
   120  O   6.0   -0.33    1.30    1.80   105.23204    33.32835    11.93732
   121  C   4.0   -0.05    4.37    4.32   100.02399    32.72929     8.25484
   122  C   4.0   -0.03    4.18    3.96    99.09009    34.68304    10.17836
   123  C   4.0   -0.08    4.10    3.81   100.03844    37.33397     9.55915
   124  C   4.0   -0.08    4.10    3.81    96.20237    34.65883    10.25501
   125  H   1.0    0.11    1.09    1.44   101.87934    29.44183     5.59131
   126  H   1.0    0.05    1.05    1.44   103.86646    34.01723     7.47709
   127  H   1.0    0.05    1.03    1.43    99.41760    33.29028     6.36567
   128  H   1.0    0.06    1.04    1.43    99.17249    30.90317     8.68973
   129  H   1.0    0.04    1.06    1.44    99.78686    34.13922    12.04711
   130  H   1.0    0.04    1.00    1.43    99.26856    38.69241    10.89356
   131  H   1.0    0.04    1.00    1.43   102.08503    37.41288     9.66737
   132  H   1.0    0.04    1.00    1.43    99.45560    37.87798     7.66451
   133  H   1.0    0.04    1.00    1.43    95.50145    35.93251    11.70735
   134  H   1.0    0.04    1.00    1.43    95.43690    35.26354     8.44665
   135  H   1.0    0.04    1.00    1.43    95.48962    32.77467    10.66086
   136  N   5.0   -0.14    3.53    2.10   103.34775    29.53060    11.78143
   137  C   4.0    0.03    4.52    4.56   104.03988    28.99599    14.37245
   138  C   4.0    0.16    3.47    3.10   106.89741    28.72338    14.67721
   139  O   6.0   -0.32    1.28    1.80   108.00303    29.64193    16.50042
   140  C   4.0   -0.03    4.24    4.09   102.65049    26.71765    15.55911
   141  C   4.0   -0.08    4.15    3.90    99.93401    26.60565    14.60906
   142  C   4.0   -0.07    4.13    3.87   103.95569    24.18382    15.13105
   143  H   1.0    0.11    1.09    1.44   102.36133    28.24665    10.76620
   144  H   1.0    0.05    1.07    1.44   103.51793    30.68469    15.45440
   145  H   1.0    0.04    1.06    1.44   102.63194    27.07522    17.59776
   146  H   1.0    0.03    1.00    1.43    98.79765    25.42084    15.83899
   147  H   1.0    0.04    1.01    1.43    99.12267    28.48313    14.54468
   148  H   1.0    0.06    1.01    1.43    99.85134    25.80904    12.72177
   149  H   1.0    0.04    1.00    1.43   102.82872    22.68557    15.97127
   150  H   1.0    0.06    1.01    1.43   104.15067    23.79461    13.12443
   151  H   1.0    0.05    1.00    1.43   105.82030    24.14177    15.99681
   152  N   5.0   -0.14    3.56    2.12   108.04676    27.43901    12.85456
   153  C   4.0    0.04    4.42    4.41   110.68584    26.76248    12.99000
   154  C   4.0    0.16    3.44    3.09   112.35353    29.11193    12.77935
   155  O   6.0   -0.29    1.21    1.80   114.28020    29.38161    14.01740
   156  C   4.0   -0.03    4.28    4.16   111.37775    24.98784    10.80732
   157  C   4.0   -0.02    4.16    3.92   110.20400    22.36628    10.97714
   158  C   4.0    0.25    3.09    3.02   109.59089    21.15159     8.36020
   159  O   6.0   -0.30    1.20    1.80   109.68518    22.46838     6.40083
   160  O   6.0   -0.29    1.18    1.80   108.95139    18.88375     8.41968
   161  H   1.0    0.12    1.13    1.45   107.02151    26.70793    11.41082
   162  H   1.0    0.06    1.05    1.44   111.08163    25.86961    14.82292
   163  H   1.0    0.07    1.04    1.43   110.71687    25.84419     9.04896
   164  H   1.0    0.06    1.03    1.43   113.43244    24.82286    10.72410
   165  H   1.0    0.05    1.02    1.43   111.40210    21.04937    12.02103
   166  H   1.0    0.05    1.03    1.43   108.39022    22.44660    11.95765
   167  N   5.0   -0.14    3.53    2.10   111.53244    30.80543    11.07398
   168  C   4.0    0.04    4.43    4.42   113.13210    32.80264    10.13299
   169  C   4.0    0.14    3.40    3.08   112.47229    35.43790    11.13882
   170  O   6.0   -0.32    1.24    1.80   113.97928    37.17716    10.90255
   171  C   4.0   -0.03    4.33    4.25   113.04455    32.86592     7.23643
   172  C   4.0    0.15    3.24    3.04   114.29171    30.50973     6.15577
   173  O   6.0   -0.29    1.19    1.80   116.57798    30.20240     6.15898
   174  N   5.0   -0.18    3.19    1.95   112.65596    28.84684     5.17632
   175  H   1.0    0.11    1.10    1.44   109.95695    30.41112    10.05501
   176  H   1.0    0.07    1.06    1.44   115.07004    32.38942    10.75494
   177  H   1.0    0.06    1.04    1.43   111.08787    32.99125     6.61430
   178  H   1.0    0.05    1.04    1.43   114.10562    34.51246     6.60995
   179  H   1.0    0.10    1.03    1.43   113.28474    27.13183     4.64161
   180  H   1.0    0.11    1.06    1.44   110.77288    29.13027     5.36585
   181  N   5.0   -0.14    3.48    2.07   110.21256    35.68746    12.23066
   182  C   4.0    0.03    4.50    4.54   109.39579    38.06858    13.30698
   183  C   4.0    0.14    3.47    3.10   108.62902    37.73810    16.07491
   184  O   6.0   -0.32    1.29    1.80   109.72375    38.89328    17.75337
   185  C   4.0   -0.02    4.32    4.23   107.26362    39.31368    11.74416
   186  C   4.0   -0.04    4.19    3.98   108.29385    40.02622     9.12818
   187  C   4.0   -0.08    4.14    3.88   106.23123    41.61522    13.14407
   188  C   4.0   -0.08    4.02    3.65   106.35947    41.28689     7.40727
   189  H   1.0    0.11    1.09    1.44   108.93088    34.26983    12.14029
   190  H   1.0    0.06    1.07    1.44   111.06956    39.28924    13.29952
   191  H   1.0    0.05    1.05    1.44   105.75770    37.91688    11.51593
   192  H   1.0    0.04    1.03    1.43   109.88680    41.31142     9.36840
   193  H   1.0    0.05    1.03    1.43   108.98606    38.31449     8.20642
   194  H   1.0    0.04    1.00    1.43   104.59503    42.37541    12.16916
   195  H   1.0    0.04    1.01    1.43   105.64244    41.10514    15.04208
   196  H   1.0    0.04    1.00    1.43   107.67012    43.07406    13.27164
   197  H   1.0    0.05    1.00    1.43   107.20687    41.65500     5.57277
   198  H   1.0    0.04    1.00    1.43   104.71752    40.08366     7.13683
   199  H   1.0    0.04    1.00    1.43   105.74336    43.07725     8.19440
   200  N   5.0   -0.15    3.48    2.06   106.69102    36.18377    16.52992
   201  C   4.0    0.03    4.51    4.55   105.57205    36.07116    19.03109
   202  C   4.0    0.16    3.50    3.11   107.50937    35.23183    21.00375
   203  O   6.0   -0.32    1.30    1.80   107.85460    36.47285    22.92911
   204  C   4.0   -0.03    4.33    4.25   103.24750    34.33912    19.11654
   205  C   4.0   -0.05    4.18    3.96   101.23172    35.10351    17.16956
   206  C   4.0   -0.08    4.14    3.88   102.15331    34.25074    21.78561
   207  C   4.0   -0.08    4.02    3.65    99.90044    37.60006    17.70079
   208  H   1.0    0.10    1.09    1.44   105.92763    35.15541    15.10803
   209  H   1.0    0.05    1.06    1.44   105.02624    37.99668    19.58762
   210  H   1.0    0.04    1.06    1.44   103.91291    32.43673    18.64330
   211  H   1.0    0.05    1.03    1.43   102.10455    35.21109    15.30531
   212  H   1.0    0.03    1.03    1.43    99.80955    33.60913    17.11296
   213  H   1.0    0.03    1.00    1.43   100.34712    33.27438    21.76221
   214  H   1.0    0.04    1.00    1.43   103.41751    33.24904    23.05655
   215  H   1.0    0.04    1.00    1.43   101.87849    36.14605    22.52413
   216  H   1.0    0.03    1.00    1.43    98.63847    38.04418    16.14185
   217  H   1.0    0.03    1.00    1.43    98.77481    37.48228    19.41191
   218  H   1.0    0.04    1.00    1.43   101.24870    39.13522    17.88550
   219  N   5.0   -0.15    3.50    2.08   108.76592    33.09683    20.52089
   220  C   4.0    0.04    4.43    4.43   110.48884    32.10224    22.40894
   221  C   4.0    0.15    3.52    3.12   112.69707    33.95065    22.82345
   222  O   6.0   -0.30    1.30    1.80   113.22968    34.62948    24.99494
   223  C   4.0   -0.04    4.31    4.22   111.30944    29.39994    21.79636
   224  C   4.0   -0.04    4.05    3.72   109.14592    27.54225    22.18765
   225  S   6.0   -0.03    2.46    3.10   109.94116    24.38694    20.97220
   226  C   4.0   -0.06    3.88    3.43   111.13225    22.85338    23.77317
   227  H   1.0    0.11    1.10    1.44   108.38155    31.98479    19.00147
   228  H   1.0    0.05    1.06    1.44   109.49810    32.06799    24.24173
   229  H   1.0    0.06    1.04    1.43   111.89468    29.23352    19.83043
   230  H   1.0    0.05    1.03    1.43   112.88645    28.87128    23.01582
   231  H   1.0    0.04    1.06    1.44   108.64062    27.31307    24.16979
   232  H   1.0    0.05    1.07    1.44   107.49617    28.12436    21.10675
   233  H   1.0    0.05    1.05    1.44   112.16459    21.18679    23.16977
   234  H   1.0    0.05    1.04    1.43   112.39275    24.10615    24.79631
   235  H   1.0    0.05    1.03    1.43   109.59388    22.24831    24.99797
   236  N   5.0   -0.10    3.68    2.24   113.90627    34.88538    20.83226
   237  C   4.0    0.04    4.61    4.67   115.82565    36.83565    21.21072
   238  C   4.0    0.16    3.46    3.10   114.92557    39.05909    22.81721
   239  O   6.0   -0.30    1.24    1.80   116.35018    40.05740    24.33322
   240  C   4.0   -0.04    4.35    4.30   116.50434    37.64939    18.52018
   241  C   4.0   -0.03    4.28    4.15   116.18939    35.19790    17.04735
   242  C   4.0    0.00    4.38    4.34   113.79053    34.08989    18.20007
   243  H   1.0    0.06    1.05    1.44   117.45142    36.00757    22.19640
   244  H   1.0    0.06    1.03    1.43   115.12011    39.01820    17.85088
   245  H   1.0    0.06    1.02    1.43   118.39359    38.42962    18.36069
   246  H   1.0    0.06    1.02    1.43   116.00834    35.49145    15.02477
   247  H   1.0    0.05    1.02    1.43   117.77052    33.92155    17.37840
   248  H   1.0    0.06    1.03    1.43   112.10871    34.87289    17.29664
   249  H   1.0    0.06    1.02    1.43   113.74072    32.04455    18.00724
   250  N   5.0   -0.14    3.46    2.05   112.63751    40.00656    22.25941
   251  C   4.0    0.04    4.43    4.43   111.54235    41.94795    23.86195
   252  C   4.0    0.16    3.52    3.12   111.53301    41.13662    26.63079
   253  O   6.0   -0.29    1.32    1.80   112.78181    42.28349    28.20687
   254  C   4.0   -0.04    4.38    4.35   108.83698    42.62142    23.10976
   255  C   4.0   -0.02    4.17    3.94   108.58143    44.16536    20.67417
   256  C   4.0   -0.08    4.12    3.84   105.81045    44.14437    19.86473
   257  C   4.0   -0.08    4.10    3.81   109.43752    46.89660    21.03863
   258  H   1.0    0.11    1.09    1.44   111.46007    39.10590    21.04470
   259  H   1.0    0.05    1.06    1.44   112.77562    43.61509    23.83262
   260  H   1.0    0.06    1.04    1.43   107.79941    40.85618    22.89282
   261  H   1.0    0.05    1.03    1.43   107.97953    43.66693    24.66866
   262  H   1.0    0.05    1.06    1.44   109.69111    43.21948    19.21196
   263  H   1.0    0.04    1.00    1.43   105.52539    45.27903    18.17776
   264  H   1.0    0.04    1.00    1.43   105.18788    42.22508    19.47178
   265  H   1.0    0.04    1.00    1.43   104.61725    44.89556    21.36172
   266  H   1.0    0.04    1.00    1.43   109.58838    47.83275    19.21954
   267  H   1.0    0.05    1.00    1.43   108.03948    47.90388    22.15873
   268  H   1.0    0.04    1.00    1.43   111.22086    47.00968    22.04210
   269  N   5.0   -0.14    3.53    2.10   109.96832    39.24492    27.19645
   270  C   4.0    0.04    4.53    4.58   109.53000    38.53668    29.79876
   271  C   4.0    0.16    3.52    3.12   112.04978    38.38500    31.22031
   272  O   6.0   -0.27    1.21    1.80   112.32297    39.43064    33.27115
   273  C   4.0   -0.02    4.33    4.25   108.03936    36.05217    29.97532
   274  C   4.0   -0.05    4.19    3.99   105.39895    36.44855    28.83846
   275  C   4.0   -0.06    4.13    3.87   107.89840    35.17249    32.72171
   276  C   4.0   -0.08    4.02    3.65   103.80930    34.05099    28.78260
   277  H   1.0    0.11    1.10    1.44   109.16994    38.18986    25.81353
   278  H   1.0    0.06    1.05    1.44   108.42975    40.04086    30.72130
   279  H   1.0    0.05    1.05    1.44   109.05373    34.62093    28.87152
   280  H   1.0    0.04    1.03    1.43   104.40892    37.89208    29.92826
   281  H   1.0    0.05    1.03    1.43   105.60809    37.10903    26.89869
   282  H   1.0    0.05    1.00    1.43   107.04488    33.30994    32.85420
   283  H   1.0    0.06    1.01    1.43   109.77462    35.03623    33.55582
   284  H   1.0    0.05    1.00    1.43   106.77830    36.48199    33.84258
   285  H   1.0    0.04    1.00    1.43   102.01650    34.40103    27.84274
   286  H   1.0    0.04    1.00    1.43   104.80331    32.56642    27.76079
   287  H   1.0    0.04    1.00    1.43   103.40894    33.37036    30.67656
   288  N   5.0   -0.14    3.43    2.04   113.83118    37.08976    29.98069
   289  C   4.0    0.03    4.23    4.07   116.25515    36.41720    31.02843
   290  C   4.0    0.16    3.31    3.06   118.04818    38.62216    31.55054
   291  O   6.0   -0.27    1.22    1.80   120.07733    38.22841    32.59469
   292  H   1.0    0.11    1.10    1.44   113.38416    36.29546    28.29610
   293  H   1.0    0.07    1.03    1.43   116.01284    35.47427    32.85612
   294  H   1.0    0.06    1.03    1.43   117.17788    35.09260    29.74587
   295  N   5.0   -0.13    3.48    2.06   117.30915    40.88885    30.73730
   296  C   4.0    0.05    4.33    4.25   118.71373    43.16484    31.25151
   297  C   4.0    0.10    3.20    3.04   117.32005    45.10442    32.89125
   298  O   6.0   -0.26    1.13    1.80   118.44963    46.99468    33.59953
   299  C   4.0   -0.03    4.29    4.17   119.47597    44.48312    28.78168
   300  C   4.0   -0.04    4.19    3.98   121.31766    42.89560    27.22319
   301  C   4.0   -0.05    4.17    3.94   122.56744    44.50073    25.16554
   302  C   4.0   -0.04    4.12    3.83   124.23444    42.93183    23.41313
   303  N   5.0   -0.12    4.02    2.92   126.53285    42.04189    24.77042
   304  H   1.0    0.13    1.12    1.45   115.67844    41.09327    29.74729
   305  H   1.0    0.07    1.07    1.44   120.39422    42.59442    32.32234
   306  H   1.0    0.06    1.03    1.43   117.74179    44.81664    27.72219
   307  H   1.0    0.06    1.03    1.43   120.32849    46.28555    29.30182
   308  H   1.0    0.05    1.03    1.43   122.71275    42.11633    28.52385
   309  H   1.0    0.07    1.03    1.43   120.25732    41.34564    26.37655
   310  H   1.0    0.04    1.03    1.43   121.06409    45.35453    24.05906
   311  H   1.0    0.05    1.02    1.43   123.65613    46.01714    26.03678
   312  H   1.0    0.05    1.02    1.43   123.17524    41.28523    22.76792
   313  H   1.0    0.04    1.02    1.43   124.85603    44.05162    21.79678
   314  H   1.0    0.06    1.02    1.43   127.60617    40.87581    23.64041
   315  H   1.0    0.06    1.02    1.43   127.61920    43.55868    25.33506
   316  H   1.0    0.06    1.02    1.43   125.99876    41.05083    26.36008
   317  N   5.0   -0.22    3.21    1.96    95.67047    22.40057    23.13342
   318  C   4.0    0.03    4.28    4.17    95.02614    22.23106    20.47421
   319  C   4.0    0.08    3.21    3.04    92.22869    22.94908    20.17058
   320  O   6.0   -0.32    1.13    1.80    91.49546    24.21373    18.37474
   321  C   4.0   -0.02    4.31    4.22    95.78839    19.66114    19.34284
   322  C   4.0   -0.05    4.18    3.96    96.23658    19.87547    16.48755
   323  C   4.0   -0.07    4.13    3.87    93.84677    17.61924    19.91866
   324  C   4.0   -0.07    4.02    3.65    97.46220    17.50812    15.39304
   325  H   1.0    0.08    1.02    1.43    96.18916    20.81626    24.07083
   326  H   1.0    0.04    1.06    1.44    96.08042    23.72700    19.48968
   327  H   1.0    0.04    1.06    1.44    97.58150    19.14569    20.25220
   328  H   1.0    0.05    1.03    1.43    94.43387    20.23694    15.55484
   329  H   1.0    0.03    1.03    1.43    97.47675    21.48362    16.12731
   330  H   1.0    0.05    1.00    1.43    94.59756    15.78044    19.40842
   331  H   1.0    0.05    1.00    1.43    93.40461    17.58997    21.91845
   332  H   1.0    0.05    1.00    1.43    92.11799    17.95142    18.85886
   333  H   1.0    0.05    1.00    1.43    97.97481    17.79655    13.42581
   334  H   1.0    0.04    1.00    1.43    99.16743    17.05532    16.45201
   335  H   1.0    0.05    1.00    1.43    96.18637    15.90478    15.49068
   336  N   5.0   -0.20    3.22    1.96    89.47323    26.94600    24.05917
   337  C   4.0    0.03    4.34    4.27    89.65281    29.66687    24.31536
   338  C   4.0    0.15    3.52    3.12    90.20656    30.87489    21.74699
   339  O   6.0   -0.31    1.29    1.80    88.96914    32.66678    20.95371
   340  C   4.0   -0.04    4.34    4.27    91.76600    30.39896    26.15653
   341  C   4.0   -0.01    3.62    3.18    92.45975    33.13634    25.81018
   342  C   4.0   -0.03    3.48    3.10    90.73228    35.03347    26.35982
   343  C   4.0   -0.04    3.47    3.10    94.80856    33.79395    24.84501
   344  C   4.0   -0.03    3.38    3.07    91.32831    37.53720    25.90812
   345  C   4.0   -0.05    3.38    3.07    95.41583    36.30249    24.42367
   346  C   4.0   -0.04    3.37    3.07    93.66898    38.17781    24.93362
   347  H   1.0    0.08    1.02    1.43    90.39630    25.83558    25.32137
   348  H   1.0    0.05    1.05    1.44    87.82985    30.42754    24.95170
   349  H   1.0    0.05    1.02    1.43    91.14701    30.02679    28.08837
   350  H   1.0    0.04    1.04    1.43    93.41055    29.23750    25.72559
   351  H   1.0    0.06    1.03    1.43    88.91794    34.53693    27.14810
   352  H   1.0    0.04    1.03    1.43    96.17230    32.33278    24.42881
   353  H   1.0    0.06    1.03    1.43    89.97335    38.99580    26.33695
   354  H   1.0    0.04    1.03    1.43    97.25782    36.79383    23.70061
   355  H   1.0    0.05    1.03    1.43    94.14792    40.12843    24.58722
   356  N   5.0   -0.14    3.51    2.08    92.14929    29.91371    20.48011
   357  C   4.0    0.03    4.37    4.32    92.89594    30.97880    18.07169
   358  C   4.0    0.16    3.52    3.12    90.62671    31.19781    16.30641
   359  O   6.0   -0.32    1.30    1.80    90.23542    33.09726    15.03826
   360  C   4.0   -0.08    4.14    3.88    94.89369    29.32004    16.85583
   361  H   1.0    0.08    1.06    1.44    93.26938    28.54901    21.22848
   362  H   1.0    0.04    1.05    1.44    93.62797    32.89881    18.35496
   363  H   1.0    0.04    1.00    1.43    95.43955    30.12846    15.04990
   364  H   1.0    0.03    1.00    1.43    96.53002    29.21107    18.09087
   365  H   1.0    0.06    1.00    1.43    94.14784    27.42903    16.55270
   366  N   5.0   -0.14    3.49    2.07    89.16525    29.15231    16.16281
   367  C   4.0    0.04    4.35    4.30    86.96540    29.20074    14.53878
   368  C   4.0    0.10    3.27    3.05    85.21367    31.37462    15.31698
   369  O   6.0   -0.29    1.13    1.80    84.36382    32.85486    13.74359
   370  C   4.0   -0.05    4.35    4.29    85.60262    26.66697    14.61703
   371  C   4.0   -0.02    4.20    3.99    83.32460    26.57496    12.83449
   372  C   4.0   -0.08    4.11    3.81    84.10489    26.60311    10.05692
   373  C   4.0   -0.07    4.11    3.83    81.79792    24.19307    13.37189
   374  H   1.0    0.10    1.08    1.44    89.58990    27.54947    17.11921
   375  H   1.0    0.05    1.06    1.44    87.58264    29.63452    12.60520
   376  H   1.0    0.04    1.03    1.43    86.94252    25.17975    14.11424
   377  H   1.0    0.05    1.03    1.43    84.98797    26.33286    16.55751
   378  H   1.0    0.06    1.06    1.44    82.14200    28.23141    13.20608
   379  H   1.0    0.04    1.00    1.43    82.44145    26.41351     8.86501
   380  H   1.0    0.04    1.00    1.43    85.04468    28.35608     9.54972
   381  H   1.0    0.03    1.00    1.43    85.37575    25.03728     9.66280
   382  H   1.0    0.05    1.00    1.43    80.22499    24.06902    12.05966
   383  H   1.0    0.04    1.00    1.43    82.98914    22.53330    13.14217
   384  H   1.0    0.05    1.00    1.43    81.07281    24.21916    15.29299
   385  N   5.0   -0.19    3.23    1.96    86.20242    36.79016    18.28204
   386  C   4.0    0.03    4.37    4.33    87.08195    39.23326    17.41161
   387  C   4.0    0.15    3.46    3.10    86.81178    39.47652    14.52949
   388  O   6.0   -0.27    1.26    1.80    85.85801    41.38183    13.60950
   389  C   4.0   -0.02    4.30    4.19    89.73963    39.95616    18.39595
   390  C   4.0   -0.04    4.22    4.04    90.70685    42.25749    16.91627
   391  C   4.0   -0.07    4.13    3.86    91.64030    37.79896    18.28316
   392  C   4.0   -0.08    4.02    3.65    93.13230    43.36792    18.00601
   393  H   1.0    0.12    1.05    1.44    87.45348    35.52193    18.97858
   394  H   1.0    0.06    1.06    1.44    85.72397    40.63473    18.12086
   395  H   1.0    0.04    1.05    1.44    89.53444    40.48897    20.38508
   396  H   1.0    0.05    1.03    1.43    91.04601    41.69379    14.96104
   397  H   1.0    0.06    1.03    1.43    89.24211    43.70673    16.89133
   398  H   1.0    0.04    1.00    1.43    93.45555    38.44888    18.98556
   399  H   1.0    0.06    1.01    1.43    91.05458    36.23211    19.47223
   400  H   1.0    0.05    1.00    1.43    91.88610    37.12375    16.36028
   401  H   1.0    0.05    1.00    1.43    93.56741    45.16010    17.10276
   402  H   1.0    0.04    1.00    1.43    92.93762    43.68138    20.02454
   403  H   1.0    0.04    1.00    1.43    94.72357    42.11398    17.67598
   404  N   5.0   -0.14    3.45    2.05    87.61705    37.53331    13.14482
   405  C   4.0    0.05    4.33    4.26    87.41386    37.57142    10.41118
   406  C   4.0    0.11    3.30    3.05    84.76797    38.41747     9.59445
   407  O   6.0   -0.25    1.11    1.80    84.44453    40.11300     8.04758
   408  C   4.0   -0.03    4.33    4.25    87.97906    34.93893     9.33453
   409  C   4.0   -0.01    3.57    3.15    87.79173    34.90504     6.49945
   410  C   4.0   -0.04    3.47    3.10    89.83350    35.64114     5.02250
   411  C   4.0   -0.03    3.47    3.10    85.58117    34.15076     5.30328
   412  C   4.0   -0.04    3.37    3.07    89.67796    35.60489     2.41310
   413  C   4.0   -0.03    3.37    3.07    85.41605    34.12519     2.69315
   414  C   4.0   -0.03    3.37    3.07    87.46731    34.84578     1.24157
   415  H   1.0    0.11    1.10    1.44    88.33855    35.95472    13.96200
   416  H   1.0    0.06    1.05    1.44    88.74164    38.96133     9.62178
   417  H   1.0    0.05    1.03    1.43    89.87771    34.39475     9.93021
   418  H   1.0    0.06    1.04    1.43    86.63205    33.61194    10.15263
   419  H   1.0    0.05    1.03    1.43    91.56178    36.24118     5.92780
   420  H   1.0    0.06    1.03    1.43    83.97422    33.57924     6.42381
   421  H   1.0    0.05    1.03    1.43    91.28142    36.16069     1.27904
   422  H   1.0    0.06    1.03    1.43    83.68516    33.54389     1.78268
   423  H   1.0    0.05    1.03    1.43    87.34821    34.81905    -0.79470
   424  N   5.0   -0.20    3.21    1.96    85.27673    12.92104     7.75711
   425  C   4.0    0.04    4.30    4.19    87.37306    14.06914     9.11056
   426  C   4.0    0.09    3.25    3.04    87.69987    12.81342    11.68298
   427  O   6.0   -0.26    1.11    1.80    89.66919    11.83212    12.39855
   428  C   4.0   -0.02    4.27    4.14    86.90363    16.91064     9.47729
   429  C   4.0   -0.07    4.13    3.87    88.90893    18.03975    11.21621
   430  C   4.0   -0.08    4.12    3.83    86.88435    18.26803     6.93860
   431  H   1.0    0.09    1.03    1.43    83.74279    13.99993     7.38213
   432  H   1.0    0.07    1.05    1.44    89.12771    13.75620     8.04579
   433  H   1.0    0.04    1.05    1.44    85.03638    17.13041    10.34853
   434  H   1.0    0.04    1.00    1.43    88.58820    20.05451    11.46011
   435  H   1.0    0.05    1.00    1.43    88.86468    17.16684    13.07541
   436  H   1.0    0.05    1.00    1.43    90.77856    17.75967    10.41010
   437  H   1.0    0.03    1.00    1.43    86.62457    20.28492     7.22645
   438  H   1.0    0.05    1.00    1.43    88.66893    17.97675     5.96275
   439  H   1.0    0.04    1.00    1.43    85.34112    17.58300     5.77271
   440  N   5.0   -0.18    3.20    1.96   121.86323    47.31577    -1.06250
   441  C   4.0    0.03    4.22    4.05   121.17654    48.61464     1.23512
   442  C   4.0    0.09    3.20    3.04   123.10243    48.41678     3.39492
   443  O   6.0   -0.28    1.12    1.80   124.51661    46.63631     3.73803
   444  C   4.0   -0.03    4.31    4.22   118.68450    47.57115     2.28659
   445  C   4.0   -0.02    3.67    3.22   116.38829    48.41867     0.88048
   446  C   4.0   -0.01    3.63    3.18   116.23716    49.58529    -1.41381
   447  C   4.0    0.01    3.91    3.47   113.85489    48.24131     1.80444
   448  N   5.0   -0.11    3.49    2.07   113.77979    50.13484    -1.98424
   449  C   4.0    0.04    3.89    3.45   112.27097    49.32458    -0.05794
   450  C   4.0   -0.04    3.41    3.08   112.80150    47.29020     4.02218
   451  C   4.0   -0.04    3.40    3.08   109.67088    49.47627     0.28361
   452  C   4.0   -0.04    3.38    3.07   110.22895    47.44526     4.34617
   453  C   4.0   -0.04    3.38    3.07   108.68495    48.53280     2.50088
   454  H   1.0    0.09    1.02    1.43   121.78596    45.41289    -1.12474
   455  H   1.0    0.05    1.05    1.44   120.96651    50.60514     0.71442
   456  H   1.0    0.06    1.03    1.43   118.84496    45.51112     2.31178
   457  H   1.0    0.06    1.04    1.43   118.48058    48.13413     4.26111
   458  H   1.0    0.05    1.02    1.43   117.71343    50.11704    -2.69138
   459  H   1.0    0.08    1.05    1.44   113.21046    50.84487    -3.65202
   460  H   1.0    0.06    1.03    1.43   114.00631    46.47104     5.44096
   461  H   1.0    0.06    1.03    1.43   108.47189    50.30213    -1.14549
   462  H   1.0    0.05    1.03    1.43   109.36571    46.72182     6.04190
   463  H   1.0    0.05    1.03    1.43   106.67611    48.64946     2.82767
   464  N   5.0   -0.20    3.24    1.97   123.25026    45.97433    16.10054
   465  C   4.0    0.03    4.40    4.38   122.92614    45.08827    13.51993
   466  C   4.0    0.14    3.41    3.08   120.46413    43.58254    13.45199
   467  O   6.0   -0.32    1.25    1.80   119.96728    42.04638    15.09836
   468  C   4.0   -0.02    4.32    4.23   125.30299    43.60831    12.66551
   469  C   4.0   -0.04    4.17    3.94   125.26208    43.09867     9.81469
   470  C   4.0   -0.06    4.11    3.83   125.67613    41.17863    14.17906
   471  C   4.0   -0.06    4.02    3.65   127.91094    42.63918     8.76625
   472  H   1.0    0.09    1.03    1.43   122.65826    44.75386    17.44992
   473  H   1.0    0.04    1.06    1.44   122.75749    46.75086    12.30428
   474  H   1.0    0.04    1.06    1.44   126.87867    44.90183    13.03018
   475  H   1.0    0.05    1.02    1.43   124.05611    41.48171     9.37487
   476  H   1.0    0.06    1.03    1.43   124.47239    44.71906     8.80744
   477  H   1.0    0.05    1.00    1.43   127.30570    40.18351    13.42711
   478  H   1.0    0.05    1.00    1.43   125.91508    41.62136    16.16721
   479  H   1.0    0.06    1.00    1.43   124.04343    39.95229    13.96390
   480  H   1.0    0.06    1.00    1.43   127.87475    42.78367     6.71610
   481  H   1.0    0.05    1.00    1.43   129.21599    44.07281     9.44595
   482  H   1.0    0.05    1.00    1.43   128.60921    40.77407     9.26078
   483  N   5.0   -0.14    3.54    2.11   118.85710    44.32842    11.65215
   484  C   4.0    0.03    4.38    4.34   116.61296    42.99306    10.83133
   485  C   4.0    0.14    3.50    3.11   116.82986    42.93387     7.95459
   486  O   6.0   -0.32    1.32    1.80   118.33034    44.33432     6.88995
   487  C   4.0   -0.05    4.24    4.08   114.10113    44.34639    11.53611
   488  C   4.0   -0.05    4.21    4.01   114.35972    46.29697    13.64430
   489  C   4.0   -0.05    4.18    3.96   114.96865    45.11407    16.20753
   490  C   4.0   -0.04    4.13    3.86   115.81693    47.15768    18.05261
   491  N   5.0   -0.12    4.01    2.89   116.73303    45.99734    20.45162
   492  H   1.0    0.09    1.11    1.45   119.49063    45.53326    10.29848
   493  H   1.0    0.06    1.05    1.44   116.63428    41.07084    11.58689
   494  H   1.0    0.04    1.03    1.43   113.38162    45.30538     9.85760
   495  H   1.0    0.04    1.03    1.43   112.72894    42.91623    12.08585
   496  H   1.0    0.05    1.03    1.43   115.83989    47.62625    13.11202
   497  H   1.0    0.04    1.03    1.43   112.58613    47.33723    13.76453
   498  H   1.0    0.04    1.03    1.43   113.28838    44.15795    16.91691
   499  H   1.0    0.07    1.05    1.44   116.45959    43.72037    15.95399
   500  H   1.0    0.05    1.02    1.43   117.35050    48.28160    17.24800
   501  H   1.0    0.04    1.02    1.43   114.24429    48.41561    18.48571
   502  H   1.0    0.06    1.02    1.43   117.46662    47.38132    21.61282
   503  H   1.0    0.06    1.02    1.43   115.25889    45.10917    21.37102
   504  H   1.0    0.06    1.02    1.43   118.07138    44.63493    20.05422
   505  N   5.0   -0.14    3.42    2.03   115.24339    41.39107     6.70342
   506  C   4.0    0.04    4.35    4.29   115.74325    40.94190     4.05977
   507  C   4.0    0.07    3.21    3.04   113.54060    41.15171     2.19601
   508  O   6.0   -0.31    1.15    1.80   111.53784    40.04333     2.43606
   509  C   4.0   -0.03    4.35    4.29   116.88190    38.27861     3.71429
   510  C   4.0   -0.01    3.56    3.14   119.59353    38.14496     4.53665
   511  C   4.0   -0.03    3.46    3.10   120.33902    36.69488     6.58942
   512  C   4.0   -0.03    3.48    3.11   121.42408    39.40293     3.13903
   513  C   4.0   -0.03    3.44    3.09   122.86753    36.42975     7.18003
   514  C   4.0   -0.03    3.43    3.09   123.95273    39.16468     3.72056
   515  C   4.0    0.07    3.46    3.10   124.69567    37.62652     5.71799
   516  O   6.0   -0.24    2.12    1.84   127.16690    37.24810     6.28617
   517  H   1.0    0.09    1.06    1.44   114.22350    40.10296     7.68397
   518  H   1.0    0.05    1.09    1.44   117.17339    42.34135     3.54510
   519  H   1.0    0.05    1.04    1.43   115.73850    36.93325     4.76894
   520  H   1.0    0.04    1.04    1.43   116.78307    37.75171     1.72738
   521  H   1.0    0.06    1.03    1.43   118.93593    35.71295     7.69416
   522  H   1.0    0.05    1.03    1.43   120.87994    40.54940     1.53839
   523  H   1.0    0.07    1.03    1.43   123.46157    35.24584     8.72488
   524  H   1.0    0.06    1.03    1.43   125.34610    40.14930     2.60008
   525  H   1.0    0.12    1.04    1.43   128.21275    38.11645     5.06732
   526  N   5.0   -0.20    3.27    1.97   113.78249    37.89583    -2.40285
   527  C   4.0    0.03    4.29    4.18   113.30260    35.23080    -2.89383
   528  C   4.0    0.15    3.43    3.09   110.48196    34.68506    -2.53630
   529  O   6.0   -0.31    1.29    1.80   109.36766    33.15152    -3.87758
   530  C   4.0   -0.04    4.34    4.28   114.99413    33.63288    -1.16101
   531  C   4.0   -0.02    4.17    3.94   115.65840    30.99690    -2.16893
   532  C   4.0   -0.07    4.11    3.82   117.88686    29.98093    -0.63320
   533  C   4.0   -0.06    4.10    3.80   113.43246    29.17557    -2.01731
   534  H   1.0    0.08    1.03    1.43   115.42905    38.36670    -1.55978
   535  H   1.0    0.05    1.05    1.44   113.74197    34.77432    -4.87043
   536  H   1.0    0.04    1.04    1.43   116.77903    34.65054    -0.97013
   537  H   1.0    0.05    1.03    1.43   114.13959    33.47213     0.70979
   538  H   1.0    0.05    1.05    1.44   116.23539    31.19276    -4.15038
   539  H   1.0    0.05    1.00    1.43   118.38640    28.08776    -1.24639
   540  H   1.0    0.05    1.00    1.43   119.53604    31.18317    -0.86731
   541  H   1.0    0.06    1.00    1.43   117.41658    29.93083     1.36682
   542  H   1.0    0.05    1.00    1.43   114.02930    27.31141    -2.63318
   543  H   1.0    0.05    1.00    1.43   112.73802    29.09695    -0.08606
   544  H   1.0    0.06    1.01    1.43   111.91211    29.79855    -3.24469
   545  N   5.0   -0.14    3.46    2.06   109.31342    35.91963    -0.67457
   546  C   4.0    0.04    4.36    4.30   106.58747    35.72449    -0.39828
   547  C   4.0    0.10    3.29    3.05   105.27940    36.30899    -2.91356
   548  O   6.0   -0.29    1.17    1.80   103.88471    34.76605    -3.94387
   549  C   4.0   -0.04    4.32    4.24   105.67043    37.49814     1.69124
   550  C   4.0   -0.02    3.57    3.15   102.83003    37.68317     1.76421
   551  C   4.0   -0.03    3.48    3.11   101.33630    35.52466     1.83018
   552  C   4.0   -0.04    3.46    3.10   101.65971    40.03190     1.79246
   553  C   4.0   -0.04    3.38    3.07    98.72898    35.71084     1.88947
   554  C   4.0   -0.04    3.37    3.07    99.05229    40.22160     1.88553
   555  C   4.0   -0.04    3.37    3.07    97.58021    38.06043     1.92044
   556  H   1.0    0.11    1.09    1.44   110.22418    37.19483     0.44014
   557  H   1.0    0.06    1.06    1.44   106.10891    33.76225     0.05809
   558  H   1.0    0.05    1.03    1.43   106.38479    36.78806     3.49316
   559  H   1.0    0.05    1.03    1.43   106.48753    39.36722     1.39794
   560  H   1.0    0.06    1.03    1.43   102.20079    33.67991     1.82816
   561  H   1.0    0.05    1.03    1.43   102.79661    41.72528     1.75471
   562  H   1.0    0.05    1.03    1.43    97.59898    34.01364     1.91322
   563  H   1.0    0.05    1.03    1.43    98.16837    42.05908     1.92444
   564  H   1.0    0.05    1.03    1.43    95.54785    38.21403     1.97543
   565  N   5.0   -0.19    3.21    1.96   105.89341    31.51261    -8.14918
   566  C   4.0    0.04    4.18    3.96   104.31746    29.28633    -8.04203
   567  C   4.0    0.09    3.20    3.04   101.65021    29.84343    -9.00942
   568  O   6.0   -0.28    1.12    1.80   100.37067    28.15814    -9.96186
   569  C   4.0    0.04    4.14    3.87   104.26721    28.20919    -5.34908
   570  O   6.0   -0.26    2.05    1.83   102.80473    29.57657    -3.62952
   571  H   1.0    0.12    1.04    1.43   106.83312    32.10513    -6.58480
   572  H   1.0    0.05    1.05    1.44   105.10972    27.87023    -9.34423
   573  H   1.0    0.05    1.02    1.43   103.44632    26.31517    -5.43470
   574  H   1.0    0.04    1.01    1.43   106.24528    28.06838    -4.71958
   575  H   1.0    0.16    1.06    1.44   103.16780    31.38130    -3.75242
   576  H   1.0    0.10    1.07    1.44    91.58556    20.33902    -6.57749
   577  H   1.0    0.08    1.04    1.43   115.51418    44.81572    33.36723
   578  H   1.0    0.09    1.07    1.44    96.98651    23.45935    23.33232
   579  H   1.0    0.06    1.05    1.44    90.96306    22.38253    21.45443
   580  H   1.0    0.10    1.07    1.44    87.84479    26.47059    24.18054
   581  H   1.0    0.07    1.04    1.44    84.74449    31.60623    17.13283
   582  H   1.0    0.10    1.07    1.44    85.08570    37.00629    19.54647
   583  H   1.0    0.07    1.05    1.44    83.24024    37.58080    10.32730
   584  H   1.0    0.10    1.07    1.44    85.81192    12.37762     6.23697
   585  H   1.0    0.06    1.05    1.44    86.25377    12.75869    12.89823
   586  H   1.0    0.09    1.08    1.44   120.84015    47.81679    -2.32537
   587  H   1.0    0.06    1.05    1.44   123.26080    49.81961     4.65112
   588  H   1.0    0.09    1.08    1.44   124.89893    46.26866    16.39689
   589  H   1.0    0.05    1.05    1.44   113.69753    42.25214     0.66778
   590  H   1.0    0.10    1.07    1.44   113.77589    38.75382    -3.87131
   591  H   1.0    0.06    1.05    1.44   105.55239    37.97895    -3.75486
   592  H   1.0    0.10    1.07    1.44   107.12349    31.28253    -9.30092
   593  H   1.0    0.07    1.04    1.44   100.93913    31.58855    -8.86800

  Z AO/shell   Hii/eV     exponent
  1     Wed Apr 25 08:07:45 CEST 2018   EN: 2.200 GM2: 0.406  GM3: 0.0800  RAES: 1.40
     1s    -10.707211    1.230000
  6     Wed Apr 25 08:07:45 CEST 2018   EN: 2.550 GM2: 0.538  GM3: 0.1500  RAES: 3.00
     2s    -13.970922    2.096432
     2p    -10.063292    1.800000
  7     Wed Apr 25 08:07:45 CEST 2018   EN: 3.040 GM2: 0.461  GM3:-0.0640  RAES: 1.90
     2s    -16.686243    2.339881
     2p    -12.523956    2.014332
  8     Wed Apr 25 08:07:45 CEST 2018   EN: 3.440 GM2: 0.452  GM3:-0.0517  RAES: 1.80
     2s    -20.229985    2.439742
     2p    -15.503117    2.137023
 16     Tue Apr 24 11:44:34 CEST 2018   EN: 2.580 GM2: 0.340  GM3:-0.0502  RAES: 3.10
     3s    -20.029654    1.981333
     3p    -11.377694    2.025643
     3d     -0.420282    1.702555
 no old-style atom pair restraining (fixing) potential

molecular fragmentation (1/2 indicates fragments):
111111111111111111111111111111111111111111111111111111111111111111111111
111111111111111111111111111111111111111111111111111111111111111111111111
111111111111111111111111111111111111111111111111111111111111111111111111
111111111111111111111111111111111111111111111111111111111111111111111111
111111111111111111111111111122222222222222222222222222222222222222222222
222222222222222222222222222222222222222222222222222222222222222222222222
222222222222222222222222222222222222222222222222222222222222222222222222
222222222222222222222222222222222222222222222222222222222222222222222221
12222222222222222
# atoms in fragment 1/2:   318   275
 fragment masses (1/2) :     2130.69     1759.31
CMA distance (Bohr)    :   6.750
constraining FC (au)   :  0.0500
           ------------------------------------------------- 
          |        Self-Consistent Charge Iterations        |
           ------------------------------------------------- 

 Ncao       : 1427
 Nao        : 1425
 Nshell     : 869
 Nel        : 1536
 T(el)      :   500.0
 intcut     :    35.0
 scfconv/Eh :  0.100E-06
   qconv/e  :  0.100E-04
 intneglect :  0.100E-08
 broydamp   :      0.400
 iter      E             dE          RMSdq      gap      omega  full diag
   1   -868.3500612 -0.868350E+03  0.429E+00    2.75       0.0  T
   2   -870.0404778 -0.169042E+01  0.210E+00    1.58       1.0  T
   3   -870.1311938 -0.907160E-01  0.115E+00    1.85       1.0  T
   4   -870.2706505 -0.139457E+00  0.239E-01    1.25       1.0  T
   5   -870.2779391 -0.728863E-02  0.117E-01    1.48       1.0  T
   6   -870.2796424 -0.170330E-02  0.547E-02    1.49       1.0  T
   7   -870.2801538 -0.511400E-03  0.239E-02    1.49       1.0  T
   8   -870.2802083 -0.544551E-04  0.119E-02    1.49       1.0  T
   9   -870.2802309 -0.225949E-04  0.556E-03    1.49       1.0  T
  10   -870.2802353 -0.437444E-05  0.279E-03    1.50       1.5  T
  11   -870.2802365 -0.121088E-05  0.130E-03    1.50       3.2  T
  12   -870.2802367 -0.263006E-06  0.630E-04    1.50       6.5  T
  13   -870.2802368 -0.596771E-07  0.291E-04    1.50      14.1  T
  14   -870.2802368 -0.873047E-08  0.156E-04    1.50      26.3  T
  15   -870.2802368 -0.421585E-08  0.642E-05    1.50      64.0  T
  16   -870.2802368 -0.608111E-09  0.305E-05    1.50     134.7  T
speedup  1.95
cpu  time for SCC   31.56 s
wall time for SCC   16.17 s

   *** convergence criteria satisfied after 16 iterations ***

          eigenvalues
 #    :         756        757        758        759        760        761        762        763
 occ. :        2.000      2.000      2.000      2.000      2.000      2.000      2.000      2.000
 eps  :       -10.313    -10.310    -10.278    -10.193    -10.148    -10.114     -9.956     -9.926
 #    :         764        765        766        767        768        769        770        771
 occ. :        2.000      2.000      2.000      2.000      2.000      0.000      0.000      0.000
 eps  :        -9.902     -9.883     -9.782     -9.758     -9.553     -8.055     -7.978     -7.836
 #    :         772        773        774        775        776        777        778        779
 occ. :        0.000      0.000      0.000      0.000      0.000      0.000      0.000      0.000
 eps  :        -7.726     -7.722     -7.568     -7.543     -7.480     -7.382     -6.772     -6.695


   #   Z            q   n(s)   n(p)   n(d)      C6AA      α(0)
   1   7 N     -0.395  1.311  4.084  0.000    30.247     8.168
   2   6 C      0.031  1.058  2.911  0.000    20.061     6.379
   3   6 C      0.267  1.047  2.686  0.000    22.490     7.766
   4   8 O     -0.489  1.742  4.747  0.000    23.543     6.505
   5   6 C     -0.077  1.059  3.019  0.000    21.964     6.671
   6   6 C      0.006  1.081  2.913  0.000    27.879     8.661
   7   6 C     -0.040  1.079  2.961  0.000    28.998     8.831
   8   6 C     -0.044  1.081  2.963  0.000    29.089     8.845
   9   6 C     -0.031  1.080  2.951  0.000    28.770     8.796
  10   6 C     -0.033  1.081  2.952  0.000    28.814     8.803
  11   6 C     -0.033  1.079  2.954  0.000    28.829     8.805
  12   1 H      0.169  0.831  0.000  0.000     1.277     1.770
  13   1 H      0.044  0.956  0.000  0.000     2.398     2.421
  14   1 H      0.059  0.941  0.000  0.000     2.212     2.326
  15   1 H      0.050  0.950  0.000  0.000     2.315     2.379
  16   1 H      0.037  0.963  0.000  0.000     2.492     2.468
  17   1 H      0.038  0.962  0.000  0.000     2.470     2.458
  18   1 H      0.029  0.971  0.000  0.000     2.594     2.519
  19   1 H      0.041  0.959  0.000  0.000     2.435     2.440
  20   1 H      0.031  0.969  0.000  0.000     2.567     2.505
  21   7 N     -0.172  1.243  3.928  0.000    24.715     7.384
  22   6 C      0.028  1.056  2.916  0.000    20.111     6.385
  23   6 C      0.280  1.040  2.681  0.000    22.267     7.728
  24   8 O     -0.474  1.741  4.733  0.000    23.221     6.461
  25   6 C     -0.117  1.066  3.050  0.000    22.721     6.785
  26   6 C      0.291  1.031  2.678  0.000    22.061     7.691
  27   8 O     -0.484  1.752  4.732  0.000    23.434     6.490
  28   7 N     -0.287  1.267  4.021  0.000    27.418     7.777
  29   1 H      0.225  0.775  0.000  0.000     0.987     1.556
  30   1 H      0.081  0.919  0.000  0.000     1.973     2.196
  31   1 H      0.097  0.903  0.000  0.000     1.815     2.107
  32   1 H      0.081  0.919  0.000  0.000     1.971     2.196
  33   1 H      0.229  0.771  0.000  0.000     0.972     1.544
  34   1 H      0.238  0.762  0.000  0.000     0.933     1.513
  35   7 N     -0.181  1.241  3.940  0.000    24.911     7.413
  36   6 C      0.014  1.061  2.925  0.000    20.339     6.421
  37   6 C      0.272  1.043  2.685  0.000    22.402     7.752
  38   8 O     -0.495  1.731  4.765  0.000    23.680     6.524
  39   6 C     -0.088  1.059  3.029  0.000    22.169     6.703
  40   6 C     -0.075  1.052  3.024  0.000    21.942     6.669
  41   6 C     -0.095  1.052  3.043  0.000    22.313     6.725
  42   6 C     -0.047  1.060  2.988  0.000    21.520     6.622
  43   7 N     -0.133  1.223  3.910  0.000    23.879     7.258
  44   1 H      0.218  0.782  0.000  0.000     1.017     1.579
  45   1 H      0.085  0.915  0.000  0.000     1.924     2.169
  46   1 H      0.085  0.915  0.000  0.000     1.926     2.170
  47   1 H      0.070  0.930  0.000  0.000     2.090     2.261
  48   1 H      0.079  0.921  0.000  0.000     1.987     2.204
  49   1 H      0.048  0.952  0.000  0.000     2.343     2.394
  50   1 H      0.068  0.932  0.000  0.000     2.113     2.273
  51   1 H      0.082  0.918  0.000  0.000     1.954     2.186
  52   1 H      0.129  0.871  0.000  0.000     1.544     1.943
  53   1 H      0.106  0.894  0.000  0.000     1.728     2.056
  54   1 H      0.287  0.713  0.000  0.000     0.753     1.359
  55   1 H      0.273  0.727  0.000  0.000     0.800     1.401
  56   1 H      0.290  0.710  0.000  0.000     0.743     1.351
  57   7 N     -0.154  1.237  3.917  0.000    24.338     7.327
  58   6 C      0.010  1.069  2.922  0.000    20.404     6.429
  59   6 C      0.277  1.042  2.681  0.000    22.310     7.735
  60   8 O     -0.496  1.738  4.759  0.000    23.707     6.528
  61   6 C     -0.021  1.064  2.958  0.000    20.915     6.505
  62   6 C     -0.068  1.048  3.020  0.000    21.796     6.647
  63   6 C     -0.117  1.038  3.079  0.000    22.803     6.809
  64   6 C     -0.108  1.036  3.072  0.000    22.619     6.782
  65   1 H      0.207  0.793  0.000  0.000     1.071     1.621
  66   1 H      0.095  0.905  0.000  0.000     1.831     2.116
  67   1 H      0.051  0.949  0.000  0.000     2.310     2.377
  68   1 H      0.053  0.947  0.000  0.000     2.279     2.361
  69   1 H      0.026  0.974  0.000  0.000     2.638     2.540
  70   1 H      0.056  0.944  0.000  0.000     2.247     2.344
  71   1 H      0.050  0.950  0.000  0.000     2.322     2.383
  72   1 H      0.042  0.958  0.000  0.000     2.422     2.434
  73   1 H      0.041  0.959  0.000  0.000     2.430     2.438
  74   1 H      0.037  0.963  0.000  0.000     2.493     2.469
  75   1 H      0.040  0.960  0.000  0.000     2.448     2.447
  76   7 N     -0.185  1.248  3.937  0.000    25.008     7.427
  77   6 C      0.025  1.061  2.914  0.000    20.157     6.392
  78   6 C      0.281  1.044  2.674  0.000    22.238     7.723
  79   8 O     -0.489  1.733  4.756  0.000    23.551     6.507
  80   6 C     -0.026  1.065  2.961  0.000    21.004     6.518
  81   6 C     -0.064  1.050  3.014  0.000    21.728     6.636
  82   6 C     -0.115  1.038  3.077  0.000    22.752     6.801
  83   6 C     -0.113  1.035  3.078  0.000    22.720     6.798
  84   1 H      0.226  0.774  0.000  0.000     0.984     1.554
  85   1 H      0.071  0.929  0.000  0.000     2.074     2.252
  86   1 H      0.052  0.948  0.000  0.000     2.298     2.371
  87   1 H      0.042  0.958  0.000  0.000     2.419     2.432
  88   1 H      0.049  0.951  0.000  0.000     2.338     2.391
  89   1 H      0.058  0.942  0.000  0.000     2.221     2.330
  90   1 H      0.032  0.968  0.000  0.000     2.563     2.504
  91   1 H      0.052  0.948  0.000  0.000     2.291     2.367
  92   1 H      0.045  0.955  0.000  0.000     2.389     2.417
  93   1 H      0.048  0.952  0.000  0.000     2.350     2.397
  94   1 H      0.031  0.969  0.000  0.000     2.573     2.509
  95   7 N     -0.190  1.251  3.939  0.000    25.125     7.445
  96   6 C      0.044  1.052  2.904  0.000    19.811     6.333
  97   6 C      0.283  1.039  2.678  0.000    22.207     7.717
  98   8 O     -0.494  1.732  4.762  0.000    23.648     6.520
  99   6 C     -0.018  1.066  2.952  0.000    20.899     6.509
 100  16 S     -0.283  1.935  4.319  0.030   153.295    20.839
 101   1 H      0.233  0.767  0.000  0.000     0.953     1.529
 102   1 H      0.057  0.943  0.000  0.000     2.239     2.340
 103   1 H      0.067  0.933  0.000  0.000     2.115     2.274
 104   1 H      0.073  0.927  0.000  0.000     2.049     2.238
 105   1 H      0.188  0.812  0.000  0.000     1.161     1.685
 106   7 N     -0.201  1.255  3.946  0.000    25.361     7.479
 107   6 C      0.017  1.061  2.922  0.000    20.290     6.413
 108   6 C      0.280  1.040  2.680  0.000    22.254     7.725
 109   8 O     -0.500  1.732  4.768  0.000    23.794     6.540
 110   6 C      0.066  1.041  2.893  0.000    19.680     6.355
 111   8 O     -0.454  1.709  4.746  0.000    21.930     6.322
 112   1 H      0.249  0.751  0.000  0.000     0.885     1.474
 113   1 H      0.090  0.910  0.000  0.000     1.882     2.145
 114   1 H      0.058  0.942  0.000  0.000     2.218     2.329
 115   1 H      0.052  0.948  0.000  0.000     2.293     2.368
 116   1 H      0.325  0.675  0.000  0.000     0.649     1.266
 117   7 N     -0.171  1.247  3.924  0.000    24.702     7.382
 118   6 C      0.025  1.061  2.914  0.000    20.151     6.392
 119   6 C      0.275  1.045  2.680  0.000    22.344     7.741
 120   8 O     -0.501  1.728  4.773  0.000    23.806     6.542
 121   6 C     -0.087  1.061  3.026  0.000    22.154     6.700
 122   6 C     -0.012  1.055  2.956  0.000    20.752     6.479
 123   6 C     -0.118  1.040  3.079  0.000    22.817     6.811
 124   6 C     -0.112  1.041  3.071  0.000    22.688     6.791
 125   1 H      0.227  0.773  0.000  0.000     0.978     1.549
 126   1 H      0.077  0.923  0.000  0.000     2.013     2.219
 127   1 H      0.066  0.934  0.000  0.000     2.130     2.282
 128   1 H      0.068  0.932  0.000  0.000     2.105     2.269
 129   1 H      0.031  0.969  0.000  0.000     2.571     2.507
 130   1 H      0.051  0.949  0.000  0.000     2.307     2.375
 131   1 H      0.044  0.956  0.000  0.000     2.398     2.422
 132   1 H      0.042  0.958  0.000  0.000     2.418     2.432
 133   1 H      0.045  0.955  0.000  0.000     2.382     2.413
 134   1 H      0.040  0.960  0.000  0.000     2.445     2.445
 135   1 H      0.033  0.967  0.000  0.000     2.541     2.493
 136   7 N     -0.172  1.244  3.928  0.000    24.713     7.383
 137   6 C      0.017  1.063  2.920  0.000    20.284     6.411
 138   6 C      0.276  1.041  2.683  0.000    22.334     7.739
 139   8 O     -0.499  1.732  4.767  0.000    23.760     6.535
 140   6 C     -0.018  1.062  2.956  0.000    20.866     6.497
 141   6 C     -0.129  1.041  3.088  0.000    23.032     6.842
 142   6 C     -0.115  1.037  3.078  0.000    22.755     6.802
 143   1 H      0.227  0.773  0.000  0.000     0.979     1.550
 144   1 H      0.073  0.927  0.000  0.000     2.055     2.242
 145   1 H      0.051  0.949  0.000  0.000     2.309     2.377
 146   1 H      0.054  0.946  0.000  0.000     2.268     2.355
 147   1 H      0.059  0.941  0.000  0.000     2.210     2.325
 148   1 H      0.055  0.945  0.000  0.000     2.254     2.348
 149   1 H      0.055  0.945  0.000  0.000     2.262     2.352
 150   1 H      0.043  0.957  0.000  0.000     2.412     2.429
 151   1 H      0.027  0.973  0.000  0.000     2.624     2.533
 152   7 N     -0.190  1.253  3.937  0.000    25.119     7.444
 153   6 C      0.030  1.059  2.912  0.000    20.079     6.380
 154   6 C      0.277  1.042  2.681  0.000    22.318     7.736
 155   8 O     -0.482  1.743  4.739  0.000    23.384     6.483
 156   6 C     -0.058  1.050  3.008  0.000    21.615     6.618
 157   6 C     -0.093  1.062  3.031  0.000    22.280     6.721
 158   6 C      0.364  1.030  2.605  0.000    20.818     7.467
 159   8 O     -0.618  1.746  4.872  0.000    26.558     6.909
 160   8 O     -0.639  1.772  4.867  0.000    27.089     6.978
 161   1 H      0.241  0.759  0.000  0.000     0.918     1.501
 162   1 H      0.057  0.943  0.000  0.000     2.231     2.336
 163   1 H      0.060  0.940  0.000  0.000     2.202     2.320
 164   1 H      0.034  0.966  0.000  0.000     2.536     2.490
 165   1 H      0.019  0.981  0.000  0.000     2.751     2.594
 166   1 H      0.034  0.966  0.000  0.000     2.534     2.489
 167   7 N     -0.200  1.251  3.949  0.000    25.345     7.477
 168   6 C      0.030  1.056  2.914  0.000    20.073     6.380
 169   6 C      0.266  1.042  2.692  0.000    22.511     7.770
 170   8 O     -0.471  1.728  4.743  0.000    23.147     6.450
 171   6 C     -0.105  1.063  3.042  0.000    22.491     6.750
 172   6 C      0.288  1.034  2.678  0.000    22.114     7.700
 173   8 O     -0.492  1.751  4.741  0.000    23.612     6.515
 174   7 N     -0.281  1.268  4.013  0.000    27.248     7.753
 175   1 H      0.216  0.784  0.000  0.000     1.026     1.587
 176   1 H      0.082  0.918  0.000  0.000     1.962     2.190
 177   1 H      0.079  0.921  0.000  0.000     1.994     2.208
 178   1 H      0.084  0.916  0.000  0.000     1.939     2.178
 179   1 H      0.212  0.788  0.000  0.000     1.048     1.603
 180   1 H      0.228  0.772  0.000  0.000     0.975     1.546
 181   7 N     -0.174  1.244  3.930  0.000    24.767     7.391
 182   6 C      0.007  1.070  2.923  0.000    20.466     6.441
 183   6 C      0.267  1.045  2.688  0.000    22.492     7.766
 184   8 O     -0.463  1.726  4.737  0.000    22.981     6.427
 185   6 C     -0.031  1.069  2.962  0.000    21.088     6.532
 186   6 C     -0.063  1.050  3.013  0.000    21.705     6.633
 187   6 C     -0.123  1.039  3.084  0.000    22.915     6.826
 188   6 C     -0.117  1.037  3.080  0.000    22.794     6.808
 189   1 H      0.204  0.796  0.000  0.000     1.086     1.633
 190   1 H      0.097  0.903  0.000  0.000     1.815     2.107
 191   1 H      0.050  0.950  0.000  0.000     2.321     2.382
 192   1 H      0.049  0.951  0.000  0.000     2.334     2.389
 193   1 H      0.025  0.975  0.000  0.000     2.655     2.548
 194   1 H      0.062  0.938  0.000  0.000     2.172     2.305
 195   1 H      0.040  0.960  0.000  0.000     2.452     2.449
 196   1 H      0.063  0.937  0.000  0.000     2.167     2.302
 197   1 H      0.047  0.953  0.000  0.000     2.353     2.399
 198   1 H      0.038  0.962  0.000  0.000     2.479     2.462
 199   1 H      0.052  0.948  0.000  0.000     2.295     2.369
 200   7 N     -0.188  1.249  3.940  0.000    25.087     7.439
 201   6 C      0.023  1.063  2.914  0.000    20.195     6.398
 202   6 C      0.278  1.042  2.680  0.000    22.296     7.733
 203   8 O     -0.484  1.731  4.754  0.000    23.442     6.491
 204   6 C     -0.027  1.066  2.961  0.000    21.014     6.520
 205   6 C     -0.065  1.050  3.014  0.000    21.745     6.639
 206   6 C     -0.115  1.038  3.077  0.000    22.755     6.802
 207   6 C     -0.112  1.034  3.078  0.000    22.709     6.796
 208   1 H      0.217  0.783  0.000  0.000     1.021     1.583
 209   1 H      0.075  0.925  0.000  0.000     2.035     2.231
 210   1 H      0.033  0.967  0.000  0.000     2.548     2.496
 211   1 H      0.041  0.959  0.000  0.000     2.429     2.437
 212   1 H      0.044  0.956  0.000  0.000     2.392     2.419
 213   1 H      0.058  0.942  0.000  0.000     2.219     2.330
 214   1 H      0.037  0.963  0.000  0.000     2.484     2.465
 215   1 H      0.055  0.945  0.000  0.000     2.262     2.352
 216   1 H      0.045  0.955  0.000  0.000     2.381     2.413
 217   1 H      0.046  0.954  0.000  0.000     2.376     2.410
 218   1 H      0.044  0.956  0.000  0.000     2.396     2.421
 219   7 N     -0.195  1.255  3.939  0.000    25.227     7.460
 220   6 C      0.031  1.061  2.908  0.000    20.060     6.377
 221   6 C      0.260  1.046  2.694  0.000    22.627     7.790
 222   8 O     -0.513  1.743  4.769  0.000    24.068     6.578
 223   6 C     -0.065  1.050  3.015  0.000    21.725     6.632
 224   6 C     -0.012  1.067  2.944  0.000    20.790     6.493
 225  16 S     -0.237  1.922  4.265  0.050   151.212    20.697
 226   6 C     -0.058  1.052  3.006  0.000    21.689     6.643
 227   1 H      0.228  0.772  0.000  0.000     0.972     1.545
 228   1 H      0.062  0.938  0.000  0.000     2.175     2.306
 229   1 H      0.063  0.937  0.000  0.000     2.169     2.303
 230   1 H      0.053  0.947  0.000  0.000     2.285     2.364
 231   1 H      0.057  0.943  0.000  0.000     2.231     2.336
 232   1 H      0.061  0.939  0.000  0.000     2.186     2.312
 233   1 H      0.062  0.938  0.000  0.000     2.173     2.305
 234   1 H      0.060  0.940  0.000  0.000     2.204     2.321
 235   1 H      0.058  0.942  0.000  0.000     2.217     2.328
 236   7 N     -0.081  1.236  3.845  0.000    22.813     7.094
 237   6 C      0.009  1.071  2.920  0.000    20.398     6.425
 238   6 C      0.267  1.042  2.690  0.000    22.486     7.765
 239   8 O     -0.459  1.729  4.730  0.000    22.894     6.415
 240   6 C     -0.084  1.059  3.026  0.000    22.082     6.685
 241   6 C     -0.066  1.048  3.018  0.000    21.735     6.633
 242   6 C     -0.002  1.047  2.954  0.000    20.643     6.474
 243   1 H      0.080  0.920  0.000  0.000     1.976     2.198
 244   1 H      0.082  0.918  0.000  0.000     1.955     2.186
 245   1 H      0.105  0.895  0.000  0.000     1.742     2.064
 246   1 H      0.059  0.941  0.000  0.000     2.206     2.322
 247   1 H      0.058  0.942  0.000  0.000     2.217     2.329
 248   1 H      0.045  0.955  0.000  0.000     2.385     2.415
 249   1 H      0.054  0.946  0.000  0.000     2.273     2.358
 250   7 N     -0.180  1.247  3.934  0.000    24.906     7.412
 251   6 C      0.014  1.065  2.921  0.000    20.337     6.421
 252   6 C      0.274  1.042  2.684  0.000    22.365     7.745
 253   8 O     -0.485  1.741  4.744  0.000    23.464     6.494
 254   6 C     -0.085  1.060  3.025  0.000    22.101     6.691
 255   6 C     -0.022  1.059  2.963  0.000    20.926     6.507
 256   6 C     -0.111  1.041  3.070  0.000    22.676     6.789
 257   6 C     -0.134  1.044  3.089  0.000    23.123     6.856
 258   1 H      0.220  0.780  0.000  0.000     1.009     1.573
 259   1 H      0.083  0.917  0.000  0.000     1.947     2.182
 260   1 H      0.062  0.938  0.000  0.000     2.179     2.309
 261   1 H      0.050  0.950  0.000  0.000     2.318     2.381
 262   1 H      0.065  0.935  0.000  0.000     2.141     2.288
 263   1 H      0.053  0.947  0.000  0.000     2.281     2.362
 264   1 H      0.021  0.979  0.000  0.000     2.723     2.581
 265   1 H      0.034  0.966  0.000  0.000     2.527     2.486
 266   1 H      0.064  0.936  0.000  0.000     2.150     2.293
 267   1 H      0.043  0.957  0.000  0.000     2.415     2.430
 268   1 H      0.053  0.947  0.000  0.000     2.279     2.361
 269   7 N     -0.191  1.252  3.939  0.000    25.135     7.446
 270   6 C      0.018  1.066  2.916  0.000    20.264     6.408
 271   6 C      0.286  1.038  2.676  0.000    22.154     7.707
 272   8 O     -0.505  1.755  4.750  0.000    23.899     6.554
 273   6 C     -0.021  1.066  2.955  0.000    20.921     6.505
 274   6 C     -0.068  1.052  3.016  0.000    21.803     6.647
 275   6 C     -0.112  1.037  3.075  0.000    22.692     6.792
 276   6 C     -0.109  1.036  3.073  0.000    22.651     6.787
 277   1 H      0.232  0.768  0.000  0.000     0.956     1.532
 278   1 H      0.061  0.939  0.000  0.000     2.191     2.315
 279   1 H      0.040  0.960  0.000  0.000     2.443     2.444
 280   1 H      0.042  0.958  0.000  0.000     2.422     2.434
 281   1 H      0.056  0.944  0.000  0.000     2.249     2.345
 282   1 H      0.054  0.946  0.000  0.000     2.273     2.358
 283   1 H      0.027  0.973  0.000  0.000     2.623     2.533
 284   1 H      0.045  0.955  0.000  0.000     2.379     2.412
 285   1 H      0.049  0.951  0.000  0.000     2.335     2.390
 286   1 H      0.032  0.968  0.000  0.000     2.565     2.504
 287   1 H      0.041  0.959  0.000  0.000     2.431     2.438
 288   7 N     -0.182  1.239  3.943  0.000    24.953     7.419
 289   6 C     -0.027  1.049  2.978  0.000    21.129     6.558
 290   6 C      0.278  1.037  2.685  0.000    22.290     7.731
 291   8 O     -0.510  1.747  4.764  0.000    24.011     6.570
 292   1 H      0.224  0.776  0.000  0.000     0.991     1.560
 293   1 H      0.068  0.932  0.000  0.000     2.103     2.268
 294   1 H      0.093  0.907  0.000  0.000     1.855     2.130
 295   7 N     -0.165  1.238  3.927  0.000    24.568     7.361
 296   6 C      0.021  1.059  2.920  0.000    20.221     6.404
 297   6 C      0.203  1.086  2.710  0.000    23.675     7.968
 298   8 O     -0.369  1.752  4.617  0.000    21.081     6.156
 299   6 C     -0.081  1.058  3.023  0.000    22.041     6.683
 300   6 C     -0.090  1.054  3.036  0.000    22.224     6.712
 301   6 C     -0.104  1.056  3.048  0.000    22.480     6.750
 302   6 C     -0.056  1.060  2.996  0.000    21.679     6.646
 303   7 N     -0.146  1.227  3.919  0.000    24.143     7.298
 304   1 H      0.224  0.776  0.000  0.000     0.992     1.560
 305   1 H      0.103  0.897  0.000  0.000     1.761     2.075
 306   1 H      0.074  0.926  0.000  0.000     2.047     2.237
 307   1 H      0.081  0.919  0.000  0.000     1.964     2.192
 308   1 H      0.053  0.947  0.000  0.000     2.280     2.361
 309   1 H      0.080  0.920  0.000  0.000     1.976     2.198
 310   1 H      0.095  0.905  0.000  0.000     1.827     2.114
 311   1 H      0.091  0.909  0.000  0.000     1.869     2.138
 312   1 H      0.122  0.878  0.000  0.000     1.594     1.974
 313   1 H      0.125  0.875  0.000  0.000     1.571     1.960
 314   1 H      0.298  0.702  0.000  0.000     0.719     1.329
 315   1 H      0.299  0.701  0.000  0.000     0.718     1.327
 316   1 H      0.285  0.715  0.000  0.000     0.761     1.367
 317   7 N     -0.388  1.308  4.080  0.000    30.047     8.141
 318   6 C      0.030  1.064  2.907  0.000    20.091     6.385
 319   6 C      0.198  1.096  2.705  0.000    23.773     7.985
 320   8 O     -0.369  1.744  4.625  0.000    21.064     6.153
 321   6 C     -0.021  1.070  2.950  0.000    20.907     6.503
 322   6 C     -0.061  1.052  3.009  0.000    21.670     6.627
 323   6 C     -0.116  1.036  3.079  0.000    22.766     6.803
 324   6 C     -0.108  1.036  3.072  0.000    22.617     6.782
 325   1 H      0.160  0.840  0.000  0.000     1.335     1.810
 326   1 H      0.054  0.946  0.000  0.000     2.266     2.354
 327   1 H      0.045  0.955  0.000  0.000     2.383     2.414
 328   1 H      0.040  0.960  0.000  0.000     2.445     2.445
 329   1 H      0.036  0.964  0.000  0.000     2.503     2.474
 330   1 H      0.048  0.952  0.000  0.000     2.351     2.398
 331   1 H      0.046  0.954  0.000  0.000     2.366     2.406
 332   1 H      0.036  0.964  0.000  0.000     2.498     2.471
 333   1 H      0.039  0.961  0.000  0.000     2.467     2.456
 334   1 H      0.035  0.965  0.000  0.000     2.521     2.483
 335   1 H      0.039  0.961  0.000  0.000     2.459     2.452
 336   7 N     -0.392  1.310  4.082  0.000    30.143     8.154
 337   6 C      0.037  1.057  2.906  0.000    19.970     6.365
 338   6 C      0.273  1.046  2.680  0.000    22.384     7.748
 339   8 O     -0.506  1.752  4.754  0.000    23.917     6.557
 340   6 C     -0.079  1.058  3.021  0.000    22.001     6.676
 341   6 C      0.006  1.084  2.910  0.000    27.894     8.663
 342   6 C     -0.035  1.078  2.957  0.000    28.875     8.812
 343   6 C     -0.047  1.082  2.965  0.000    29.161     8.856
 344   6 C     -0.030  1.079  2.951  0.000    28.748     8.793
 345   6 C     -0.035  1.080  2.955  0.000    28.869     8.811
 346   6 C     -0.034  1.079  2.955  0.000    28.843     8.807
 347   1 H      0.169  0.831  0.000  0.000     1.278     1.771
 348   1 H      0.026  0.974  0.000  0.000     2.643     2.542
 349   1 H      0.056  0.944  0.000  0.000     2.246     2.344
 350   1 H      0.061  0.939  0.000  0.000     2.191     2.315
 351   1 H      0.022  0.978  0.000  0.000     2.696     2.568
 352   1 H      0.042  0.958  0.000  0.000     2.419     2.432
 353   1 H      0.024  0.976  0.000  0.000     2.670     2.555
 354   1 H      0.048  0.952  0.000  0.000     2.351     2.398
 355   1 H      0.038  0.962  0.000  0.000     2.479     2.462
 356   7 N     -0.167  1.241  3.926  0.000    24.620     7.369
 357   6 C      0.020  1.057  2.923  0.000    20.235     6.404
 358   6 C      0.279  1.039  2.681  0.000    22.274     7.729
 359   8 O     -0.479  1.738  4.741  0.000    23.329     6.476
 360   6 C     -0.138  1.046  3.092  0.000    23.203     6.867
 361   1 H      0.213  0.787  0.000  0.000     1.043     1.600
 362   1 H      0.076  0.924  0.000  0.000     2.022     2.224
 363   1 H      0.069  0.931  0.000  0.000     2.093     2.262
 364   1 H      0.073  0.927  0.000  0.000     2.057     2.243
 365   1 H      0.079  0.921  0.000  0.000     1.986     2.204
 366   7 N     -0.172  1.241  3.931  0.000    24.724     7.385
 367   6 C      0.029  1.058  2.913  0.000    20.087     6.381
 368   6 C      0.210  1.085  2.705  0.000    23.549     7.947
 369   8 O     -0.361  1.757  4.605  0.000    20.926     6.133
 370   6 C     -0.079  1.060  3.019  0.000    21.997     6.676
 371   6 C     -0.010  1.054  2.956  0.000    20.720     6.474
 372   6 C     -0.115  1.040  3.074  0.000    22.751     6.801
 373   6 C     -0.118  1.042  3.076  0.000    22.816     6.810
 374   1 H      0.225  0.775  0.000  0.000     0.986     1.555
 375   1 H      0.085  0.915  0.000  0.000     1.927     2.171
 376   1 H      0.075  0.925  0.000  0.000     2.029     2.227
 377   1 H      0.057  0.943  0.000  0.000     2.235     2.338
 378   1 H      0.024  0.976  0.000  0.000     2.675     2.558
 379   1 H      0.043  0.957  0.000  0.000     2.410     2.428
 380   1 H      0.040  0.960  0.000  0.000     2.453     2.449
 381   1 H      0.051  0.949  0.000  0.000     2.306     2.375
 382   1 H      0.046  0.954  0.000  0.000     2.375     2.410
 383   1 H      0.050  0.950  0.000  0.000     2.317     2.380
 384   1 H      0.037  0.963  0.000  0.000     2.493     2.469
 385   7 N     -0.403  1.312  4.091  0.000    30.471     8.198
 386   6 C      0.035  1.063  2.902  0.000    19.995     6.369
 387   6 C      0.275  1.049  2.676  0.000    22.342     7.740
 388   8 O     -0.527  1.761  4.766  0.000    24.388     6.621
 389   6 C     -0.019  1.067  2.953  0.000    20.883     6.500
 390   6 C     -0.055  1.049  3.007  0.000    21.564     6.611
 391   6 C     -0.116  1.037  3.079  0.000    22.770     6.804
 392   6 C     -0.111  1.038  3.073  0.000    22.688     6.793
 393   1 H      0.180  0.820  0.000  0.000     1.213     1.725
 394   1 H      0.020  0.980  0.000  0.000     2.732     2.585
 395   1 H      0.027  0.973  0.000  0.000     2.632     2.537
 396   1 H      0.025  0.975  0.000  0.000     2.656     2.549
 397   1 H      0.020  0.980  0.000  0.000     2.730     2.584
 398   1 H      0.052  0.948  0.000  0.000     2.298     2.370
 399   1 H      0.043  0.957  0.000  0.000     2.408     2.426
 400   1 H      0.050  0.950  0.000  0.000     2.319     2.382
 401   1 H      0.043  0.957  0.000  0.000     2.415     2.430
 402   1 H      0.039  0.961  0.000  0.000     2.456     2.451
 403   1 H      0.052  0.948  0.000  0.000     2.293     2.368
 404   7 N     -0.173  1.249  3.923  0.000    24.736     7.387
 405   6 C      0.040  1.058  2.902  0.000    19.908     6.354
 406   6 C      0.219  1.082  2.700  0.000    23.382     7.919
 407   8 O     -0.386  1.758  4.628  0.000    21.402     6.203
 408   6 C     -0.080  1.056  3.024  0.000    22.019     6.679
 409   6 C      0.012  1.081  2.907  0.000    27.751     8.641
 410   6 C     -0.039  1.080  2.959  0.000    28.981     8.828
 411   6 C     -0.039  1.081  2.958  0.000    28.974     8.827
 412   6 C     -0.032  1.079  2.952  0.000    28.788     8.799
 413   6 C     -0.031  1.079  2.952  0.000    28.767     8.795
 414   6 C     -0.035  1.079  2.956  0.000    28.871     8.811
 415   1 H      0.242  0.758  0.000  0.000     0.916     1.499
 416   1 H      0.069  0.931  0.000  0.000     2.099     2.266
 417   1 H      0.079  0.921  0.000  0.000     1.990     2.206
 418   1 H      0.074  0.926  0.000  0.000     2.037     2.232
 419   1 H      0.042  0.958  0.000  0.000     2.425     2.435
 420   1 H      0.028  0.972  0.000  0.000     2.612     2.527
 421   1 H      0.040  0.960  0.000  0.000     2.454     2.450
 422   1 H      0.033  0.967  0.000  0.000     2.545     2.495
 423   1 H      0.037  0.963  0.000  0.000     2.489     2.467
 424   7 N     -0.394  1.316  4.078  0.000    30.206     8.163
 425   6 C      0.033  1.059  2.908  0.000    20.029     6.374
 426   6 C      0.206  1.090  2.704  0.000    23.629     7.961
 427   8 O     -0.388  1.761  4.627  0.000    21.449     6.209
 428   6 C     -0.017  1.064  2.954  0.000    20.849     6.494
 429   6 C     -0.110  1.038  3.072  0.000    22.652     6.786
 430   6 C     -0.107  1.038  3.069  0.000    22.602     6.778
 431   1 H      0.167  0.833  0.000  0.000     1.292     1.780
 432   1 H      0.064  0.936  0.000  0.000     2.155     2.296
 433   1 H      0.041  0.959  0.000  0.000     2.440     2.443
 434   1 H      0.048  0.952  0.000  0.000     2.345     2.395
 435   1 H      0.026  0.974  0.000  0.000     2.640     2.541
 436   1 H      0.049  0.951  0.000  0.000     2.331     2.387
 437   1 H      0.051  0.949  0.000  0.000     2.310     2.377
 438   1 H      0.042  0.958  0.000  0.000     2.426     2.436
 439   1 H      0.043  0.957  0.000  0.000     2.408     2.427
 440   7 N     -0.382  1.307  4.076  0.000    29.883     8.119
 441   6 C      0.038  1.055  2.906  0.000    19.947     6.362
 442   6 C      0.198  1.087  2.715  0.000    23.779     7.986
 443   8 O     -0.371  1.751  4.619  0.000    21.108     6.160
 444   6 C     -0.062  1.051  3.011  0.000    21.684     6.628
 445   6 C     -0.035  1.066  2.969  0.000    28.819     8.804
 446   6 C     -0.011  1.062  2.949  0.000    28.253     8.718
 447   6 C     -0.024  1.074  2.950  0.000    28.412     8.729
 448   7 N     -0.118  1.227  3.891  0.000    23.567     7.210
 449   6 C      0.044  1.060  2.895  0.000    26.911     8.504
 450   6 C     -0.044  1.077  2.968  0.000    29.103     8.846
 451   6 C     -0.056  1.072  2.985  0.000    29.402     8.891
 452   6 C     -0.048  1.077  2.971  0.000    29.180     8.858
 453   6 C     -0.041  1.078  2.963  0.000    29.024     8.835
 454   1 H      0.154  0.846  0.000  0.000     1.374     1.836
 455   1 H      0.058  0.942  0.000  0.000     2.228     2.334
 456   1 H      0.054  0.946  0.000  0.000     2.272     2.357
 457   1 H      0.060  0.940  0.000  0.000     2.202     2.320
 458   1 H      0.032  0.968  0.000  0.000     2.556     2.500
 459   1 H      0.188  0.812  0.000  0.000     1.171     1.695
 460   1 H      0.031  0.969  0.000  0.000     2.573     2.509
 461   1 H      0.024  0.976  0.000  0.000     2.679     2.560
 462   1 H      0.040  0.960  0.000  0.000     2.448     2.447
 463   1 H      0.030  0.970  0.000  0.000     2.582     2.513
 464   7 N     -0.382  1.318  4.064  0.000    29.864     8.116
 465   6 C      0.015  1.067  2.918  0.000    20.341     6.423
 466   6 C      0.268  1.045  2.687  0.000    22.476     7.763
 467   8 O     -0.462  1.729  4.733  0.000    22.968     6.425
 468   6 C     -0.027  1.072  2.955  0.000    21.018     6.521
 469   6 C     -0.054  1.047  3.007  0.000    21.548     6.609
 470   6 C     -0.115  1.037  3.078  0.000    22.766     6.804
 471   6 C     -0.104  1.037  3.067  0.000    22.544     6.771
 472   1 H      0.172  0.828  0.000  0.000     1.258     1.757
 473   1 H      0.031  0.969  0.000  0.000     2.571     2.508
 474   1 H      0.038  0.962  0.000  0.000     2.472     2.459
 475   1 H      0.018  0.982  0.000  0.000     2.765     2.600
 476   1 H      0.024  0.976  0.000  0.000     2.671     2.556
 477   1 H      0.036  0.964  0.000  0.000     2.498     2.471
 478   1 H      0.061  0.939  0.000  0.000     2.182     2.310
 479   1 H      0.041  0.959  0.000  0.000     2.436     2.441
 480   1 H      0.026  0.974  0.000  0.000     2.650     2.545
 481   1 H      0.035  0.965  0.000  0.000     2.519     2.482
 482   1 H      0.039  0.961  0.000  0.000     2.459     2.452
 483   7 N     -0.168  1.245  3.922  0.000    24.630     7.371
 484   6 C      0.008  1.063  2.929  0.000    20.456     6.442
 485   6 C      0.268  1.047  2.685  0.000    22.475     7.765
 486   8 O     -0.473  1.747  4.726  0.000    23.196     6.457
 487   6 C     -0.074  1.056  3.017  0.000    21.909     6.664
 488   6 C     -0.076  1.050  3.026  0.000    21.951     6.670
 489   6 C     -0.106  1.055  3.051  0.000    22.522     6.756
 490   6 C     -0.060  1.065  2.996  0.000    21.755     6.657
 491   7 N     -0.122  1.221  3.901  0.000    23.649     7.223
 492   1 H      0.201  0.799  0.000  0.000     1.101     1.643
 493   1 H      0.086  0.914  0.000  0.000     1.922     2.168
 494   1 H      0.048  0.952  0.000  0.000     2.342     2.393
 495   1 H      0.061  0.939  0.000  0.000     2.188     2.313
 496   1 H      0.065  0.935  0.000  0.000     2.145     2.290
 497   1 H      0.066  0.934  0.000  0.000     2.124     2.279
 498   1 H      0.073  0.927  0.000  0.000     2.048     2.238
 499   1 H      0.092  0.908  0.000  0.000     1.856     2.130
 500   1 H      0.127  0.873  0.000  0.000     1.556     1.950
 501   1 H      0.122  0.878  0.000  0.000     1.597     1.976
 502   1 H      0.301  0.699  0.000  0.000     0.710     1.320
 503   1 H      0.262  0.738  0.000  0.000     0.839     1.435
 504   1 H      0.284  0.716  0.000  0.000     0.763     1.369
 505   7 N     -0.165  1.244  3.922  0.000    24.573     7.362
 506   6 C      0.022  1.055  2.923  0.000    20.199     6.399
 507   6 C      0.195  1.088  2.717  0.000    23.833     7.995
 508   8 O     -0.341  1.736  4.605  0.000    20.539     6.076
 509   6 C     -0.068  1.056  3.012  0.000    21.791     6.644
 510   6 C     -0.003  1.073  2.929  0.000    28.090     8.694
 511   6 C     -0.039  1.082  2.956  0.000    28.957     8.825
 512   6 C     -0.039  1.079  2.960  0.000    28.965     8.826
 513   6 C     -0.058  1.073  2.985  0.000    29.446     8.899
 514   6 C     -0.070  1.077  2.993  0.000    29.743     8.943
 515   6 C      0.148  1.044  2.808  0.000    24.776     8.158
 516   8 O     -0.423  1.714  4.709  0.000    21.305     6.231
 517   1 H      0.211  0.789  0.000  0.000     1.053     1.608
 518   1 H      0.090  0.910  0.000  0.000     1.877     2.142
 519   1 H      0.058  0.942  0.000  0.000     2.224     2.332
 520   1 H      0.056  0.944  0.000  0.000     2.245     2.343
 521   1 H      0.044  0.956  0.000  0.000     2.393     2.419
 522   1 H      0.034  0.966  0.000  0.000     2.524     2.484
 523   1 H      0.050  0.950  0.000  0.000     2.324     2.384
 524   1 H      0.040  0.960  0.000  0.000     2.448     2.447
 525   1 H      0.339  0.661  0.000  0.000     0.615     1.231
 526   7 N     -0.395  1.314  4.081  0.000    30.229     8.166
 527   6 C      0.030  1.061  2.909  0.000    20.080     6.383
 528   6 C      0.268  1.050  2.682  0.000    22.480     7.764
 529   8 O     -0.502  1.742  4.761  0.000    23.838     6.546
 530   6 C     -0.071  1.063  3.008  0.000    21.849     6.654
 531   6 C     -0.012  1.059  2.953  0.000    20.762     6.481
 532   6 C     -0.117  1.042  3.075  0.000    22.800     6.808
 533   6 C     -0.130  1.042  3.088  0.000    23.054     6.846
 534   1 H      0.150  0.850  0.000  0.000     1.399     1.853
 535   1 H      0.034  0.966  0.000  0.000     2.533     2.489
 536   1 H      0.045  0.955  0.000  0.000     2.386     2.415
 537   1 H      0.043  0.957  0.000  0.000     2.406     2.426
 538   1 H      0.029  0.971  0.000  0.000     2.605     2.524
 539   1 H      0.042  0.958  0.000  0.000     2.424     2.435
 540   1 H      0.030  0.970  0.000  0.000     2.586     2.515
 541   1 H      0.044  0.956  0.000  0.000     2.393     2.419
 542   1 H      0.047  0.953  0.000  0.000     2.363     2.404
 543   1 H      0.049  0.951  0.000  0.000     2.337     2.391
 544   1 H      0.051  0.949  0.000  0.000     2.310     2.377
 545   7 N     -0.164  1.247  3.917  0.000    24.555     7.360
 546   6 C      0.027  1.059  2.914  0.000    20.132     6.389
 547   6 C      0.208  1.087  2.705  0.000    23.597     7.955
 548   8 O     -0.351  1.750  4.602  0.000    20.731     6.105
 549   6 C     -0.085  1.057  3.028  0.000    22.112     6.693
 550   6 C      0.007  1.079  2.914  0.000    27.856     8.657
 551   6 C     -0.041  1.078  2.963  0.000    29.024     8.835
 552   6 C     -0.043  1.082  2.960  0.000    29.059     8.840
 553   6 C     -0.030  1.078  2.952  0.000    28.756     8.794
 554   6 C     -0.033  1.081  2.952  0.000    28.820     8.803
 555   6 C     -0.034  1.079  2.955  0.000    28.848     8.808
 556   1 H      0.234  0.766  0.000  0.000     0.948     1.525
 557   1 H      0.087  0.913  0.000  0.000     1.913     2.163
 558   1 H      0.082  0.918  0.000  0.000     1.963     2.191
 559   1 H      0.083  0.917  0.000  0.000     1.947     2.182
 560   1 H      0.036  0.964  0.000  0.000     2.500     2.473
 561   1 H      0.050  0.950  0.000  0.000     2.315     2.379
 562   1 H      0.033  0.967  0.000  0.000     2.546     2.495
 563   1 H      0.039  0.961  0.000  0.000     2.465     2.455
 564   1 H      0.030  0.970  0.000  0.000     2.579     2.512
 565   7 N     -0.399  1.307  4.092  0.000    30.340     8.181
 566   6 C      0.028  1.059  2.913  0.000    20.125     6.391
 567   6 C      0.203  1.092  2.706  0.000    23.692     7.971
 568   8 O     -0.377  1.756  4.621  0.000    21.227     6.177
 569   6 C      0.080  1.037  2.883  0.000    19.460     6.319
 570   8 O     -0.477  1.707  4.770  0.000    22.401     6.389
 571   1 H      0.178  0.822  0.000  0.000     1.226     1.734
 572   1 H      0.057  0.943  0.000  0.000     2.235     2.338
 573   1 H      0.052  0.948  0.000  0.000     2.297     2.370
 574   1 H      0.040  0.960  0.000  0.000     2.448     2.447
 575   1 H      0.333  0.667  0.000  0.000     0.631     1.248
 576   1 H      0.184  0.816  0.000  0.000     1.192     1.710
 577   1 H      0.062  0.938  0.000  0.000     2.173     2.305
 578   1 H      0.184  0.816  0.000  0.000     1.189     1.708
 579   1 H      0.079  0.921  0.000  0.000     1.986     2.204
 580   1 H      0.178  0.822  0.000  0.000     1.223     1.732
 581   1 H      0.067  0.933  0.000  0.000     2.117     2.275
 582   1 H      0.169  0.831  0.000  0.000     1.278     1.771
 583   1 H      0.063  0.937  0.000  0.000     2.168     2.303
 584   1 H      0.184  0.816  0.000  0.000     1.190     1.708
 585   1 H      0.064  0.936  0.000  0.000     2.152     2.294
 586   1 H      0.180  0.820  0.000  0.000     1.216     1.727
 587   1 H      0.065  0.935  0.000  0.000     2.146     2.291
 588   1 H      0.182  0.818  0.000  0.000     1.203     1.718
 589   1 H      0.081  0.919  0.000  0.000     1.969     2.194
 590   1 H      0.183  0.817  0.000  0.000     1.199     1.715
 591   1 H      0.080  0.920  0.000  0.000     1.977     2.198
 592   1 H      0.178  0.822  0.000  0.000     1.225     1.733
 593   1 H      0.077  0.923  0.000  0.000     2.005     2.214

 Mol. C6AA /au·bohr⁶  :    3199962.510811
 Mol. C8AA /au·bohr⁸  :   72241362.748858
 Mol. α(0) /au        :       2700.007574

 
molecular dipole:
                 x           y           z       tot (Debye)
 q only:      229.801      70.971      18.394
   full:      227.969      67.488      17.082     605.867
molecular quadrupole (traceless):
                xx          xy          yy          xz          yz          zz
 q only:    24927.926   12925.592  -10589.497    3569.424    1400.198  -14338.430
  q+dip:    24666.356   12252.792  -10654.096    3264.383    1220.356  -14012.261
   full:    24662.641   12251.954  -10651.986    3265.091    1224.073  -14010.655
speedup  1.96
cpu  time for grad   36.00 s
wall time for grad   18.39 s

SCC energy    :    -870.3081384
rep           :      11.2639089
ES            :       2.0586129
AES           :      -0.0998611
AXC           :       0.3357654
disp          :      -0.8230920
XB            :       0.0000000
fix           :       0.0000000
Gborn         :       0.0000000
Gsasa         :       0.0000000
Ghb           :       0.0000000
Gshift        :       0.0000000
Gsolv         :      -0.4935059     -309.68
Etot ala COSMO:    -870.3081384
grad norm     :       0.6654581
total E       :    -858.9479197
atomizationE  :     164.5938034   103284.17
(atE without considering molecular charge,
 total energy contains solvation terms)
H-L gap (eV)  :          1.4983

------------------------------------------------------------------------
 * finished run on 2019/05/11 at 08:42:52.416     
------------------------------------------------------------------------
 total:
 * wall-time:     0 d,  0 h,  0 min, 19.574 sec
 *  cpu-time:     0 d,  0 h,  0 min, 38.054 sec
 * ratio c/w:     1.944 speedup
 SCF:
 * wall-time:     0 d,  0 h,  0 min, 19.132 sec
 *  cpu-time:     0 d,  0 h,  0 min, 37.434 sec
 * ratio c/w:     1.957 speedup

