      -----------------------------------------------------------      
     |                   =====================                   |     
     |                           x T B                           |     
     |                   =====================                   |     
     |                         S. Grimme                         |     
     |          Mulliken Center for Theoretical Chemistry        |     
     |                    University of Bonn                     |     
     |                 Version 6.0.1 (SAW181210)                 |     
      -----------------------------------------------------------      

   This program is distributed in the hope that it will be useful,
   but WITHOUT ANY WARRANTY; without even the implied warranty of
   MERCHANTABILITY or FITNESS FOR A PARTICULAR PURPOSE.
   
   FOR NON-COMMERCIAL, ACADEMIA USE ONLY.
   
   Cite this work as:
   S. Grimme, C. Bannwarth, P. Shushkov, J. Comput. Theory Chem., 2017,
   13, 1989-2009.
   C. Bannwarth, S. Ehlert and S. Grimme., ChemRxiv, 2018, preprint.
   http://doi.org/10.26434/chemrxiv.7246238.v1
   
   for sTDA-xTB:
   S. Grimme and C. Bannwarth, J. Chem. Phys., 2016, 145, 054103.
   
   in the mass-spec context:
   V. Asgeirsson, C. Bauer and S. Grimme, Chem. Sci., 2017, 8, 4879.
   
   if GBSA is used:
   P. Shushkov, F. März and S. Grimme, unpublished.
   
   for ANC optimizer:
   S. Grimme, unpublished.
   Rational Function algorithm used in ANCopt:
   F. Eckert, P. Pulay, H.-J. Werner, J. Comput. Chem., 1997, 18, 1473.
   
   with help from (in alphabetical order)
   C. Bannwarth, F. Bohle, G. Brandenburg, E. Caldeweyher, M. Checinski,
   S. Dohm, S. Ehlert, S. Ehrlich, F. März, H. Neugebauer, J. Pisarek,
   P. Pracht, P. Shushkov, and S. Spicher.
   
 * started run on 2019/05/04 at 17:34:22.794     
========================================================================
 # omp threads = 2
========================================================================
number of atoms            : 319
number of electrons        : 858
charge                     : -1
spin                       : .0
first test random number   : .1998

########################################################################
# WARNING! Please study the warnings concerning your input carefully
#  - Process number higher than OMP_NUM_THREADS, I hope you know what you are doing.
########################################################################

           ------------------------------------------------- 
          |                 G F N 2 - x T B                 |
          | Geometry, Frequencies, Noncovalent interactions |
          |            JCTC 2018 parametrisation            |
           ------------------------------------------------- 
 
      method parameters     
 k(s)        :  1.8500
 k(p)        :  2.2300
 k(d)        :  2.2300
 k(f)        :  2.0000
 kEN (H0ij)  : -2.0000
 D4 a1       :  0.5200
 D4 a2       :  5.0000
 D4 s6       :  1.0000
 D4 s8       :  2.7000
 D4 s9       :  5.0000
 alphaj      :  2.0000

 Solvent             : h2o
 Using internal parameter file: .param_gbsa2_h2o
 Gsolv ref. state (COSMO-RS): gsolv [1 M gas/solution]
 temperature (mdtemp)       :    298.150000000000     
 dielectric constant        :    80.2000000000000     
 rho                        :    1.00000000000000     
 mass                       :    18.0000000000000     
 surface tension            :    15.5689454083859     
 probe radius               :   0.975313790000000     
 vdW radii scaling          :    1.00000000000000     
 Gshift (Eh)                :   1.857443126794793E-003
 c1                         :    1.55243817000000     
 soset                      :   0.130326360000000     
 HB correction              :  T

            Z     q(EN)     CN     RAES       Cart. coordinates
     1  N   5.0   -0.21    3.22    1.96    79.17196   117.90756   -32.15558
     2  C   4.0    0.03    4.39    4.36    81.37160   118.90345   -33.44815
     3  C   4.0    0.15    3.44    3.09    83.76966   118.20236   -32.05920
     4  O   6.0   -0.30    1.27    1.80    85.51388   117.12521   -33.15713
     5  C   4.0   -0.05    4.39    4.37    81.22420   121.76638   -33.73161
     6  C   4.0   -0.03    4.21    4.02    79.92407   122.73581   -36.12211
     7  C   4.0   -0.08    4.12    3.84    81.28845   125.05639   -37.13689
     8  C   4.0   -0.08    4.32    4.24    79.88627   120.71191   -38.09876
     9  H   1.0    0.07    1.03    1.43    78.08348   119.23415   -31.27874
    10  H   1.0    0.04    1.10    1.44    81.40561   118.08708   -35.33976
    11  H   1.0    0.04    1.03    1.43    80.18107   122.51849   -32.12156
    12  H   1.0    0.05    1.05    1.44    83.14416   122.51093   -33.73728
    13  H   1.0    0.03    1.06    1.44    77.98521   123.26115   -35.66669
    14  H   1.0    0.04    1.00    1.43    80.32658   125.70835   -38.83765
    15  H   1.0    0.04    1.00    1.43    81.25822   126.53416   -35.70259
    16  H   1.0    0.04    1.01    1.43    83.23487   124.54995   -37.58098
    17  H   1.0    0.04    1.03    1.43    78.95275   121.43946   -39.78440
    18  H   1.0    0.04    1.01    1.43    81.82324   120.17334   -38.54474
    19  H   1.0    0.05    1.04    1.43    78.85448   119.08486   -37.37122
    20  N   5.0   -0.15    3.45    2.05    83.85470   118.81085   -29.62901
    21  C   4.0    0.04    4.39    4.37    86.12048   118.31007   -28.16826
    22  C   4.0    0.08    3.22    3.04    86.44173   115.45281   -27.73929
    23  O   6.0   -0.30    1.15    1.80    88.56390   114.52873   -27.45961
    24  C   4.0   -0.03    4.29    4.19    86.19796   119.92390   -25.70594
    25  C   4.0   -0.04    4.17    3.93    88.94184   120.40956   -24.89336
    26  C   4.0   -0.08    4.08    3.77    84.51799   118.80518   -23.61968
    27  C   4.0   -0.08    4.00    3.62    89.36514   122.94935   -23.59701
    28  H   1.0    0.07    1.06    1.44    82.41851   119.63288   -28.64069
    29  H   1.0    0.07    1.07    1.44    87.76076   118.92423   -29.25296
    30  H   1.0    0.04    1.07    1.44    85.37782   121.77016   -26.10467
    31  H   1.0    0.05    1.03    1.43    89.50687   118.93368   -23.57244
    32  H   1.0    0.06    1.03    1.43    90.14182   120.35665   -26.56577
    33  H   1.0    0.03    1.00    1.43    84.64083   120.00138   -21.94728
    34  H   1.0    0.04    1.00    1.43    82.57158   118.73337   -24.29243
    35  H   1.0    0.04    1.00    1.43    85.17751   116.90601   -23.17371
    36  H   1.0    0.04    1.00    1.43    91.35502   123.12131   -23.09245
    37  H   1.0    0.04    1.00    1.43    88.83602   124.46113   -24.89336
    38  H   1.0    0.04    1.00    1.43    88.19918   123.03817   -21.90003
    39  N   5.0   -0.20    3.28    1.98    84.91673   111.01384   -31.96471
    40  C   4.0    0.04    4.35    4.29    86.25087   110.27118   -34.23994
    41  C   4.0    0.15    3.48    3.10    88.58657   111.94359   -34.47616
    42  O   6.0   -0.33    1.42    1.80    89.34624   112.65979   -36.54919
    43  C   4.0   -0.03    4.30    4.19    84.53689   110.51117   -36.56053
    44  C   4.0    0.24    3.12    3.03    82.38260   108.59499   -36.56809
    45  O   6.0   -0.29    1.20    1.80    82.28434   106.96416   -34.86166
    46  O   6.0   -0.29    1.17    1.80    80.77823   108.71593   -38.30097
    47  H   1.0    0.10    1.03    1.43    83.55234   112.34421   -32.25006
    48  H   1.0    0.05    1.06    1.44    86.79133   108.28508   -34.17947
    49  H   1.0    0.05    1.03    1.43    83.70919   112.39712   -36.59076
    50  H   1.0    0.05    1.03    1.43    85.66317   110.20882   -38.25939
    51  N   5.0   -0.13    3.42    2.03    89.67506   112.58231   -32.29920
    52  C   4.0    0.02    4.25    4.10    92.00698   114.03740   -32.13479
    53  C   4.0    0.16    3.33    3.06    91.86903   116.68302   -33.23650
    54  O   6.0   -0.28    1.25    1.80    93.14648   118.44613   -32.30675
    55  H   1.0    0.10    1.08    1.44    88.96641   112.10610   -30.57199
    56  H   1.0    0.06    1.03    1.43    92.53610   114.21315   -30.15247
    57  H   1.0    0.05    1.03    1.43    93.49041   113.01884   -33.13634
    58  N   5.0   -0.11    3.55    2.11    90.29866   116.94947   -35.20559
    59  C   4.0    0.04    4.49    4.53    90.20418   119.24549   -36.72682
    60  C   4.0    0.17    3.52    3.12    90.73708   121.63788   -35.21315
    61  O   6.0   -0.28    1.23    1.80    89.57301   122.09330   -33.24406
    62  C   4.0   -0.02    4.35    4.30    87.64927   119.45714   -38.14034
    63  C   4.0   -0.05    4.23    4.06    87.64738   117.76583   -40.47604
    64  C   4.0   -0.07    4.19    3.97    87.07479   122.14811   -38.90946
    65  C   4.0   -0.07    4.03    3.67    85.81812   115.61343   -40.33620
    66  H   1.0    0.12    1.21    1.47    89.06278   115.58887   -35.78952
    67  H   1.0    0.04    1.07    1.44    91.74997   119.10187   -38.07987
    68  H   1.0    0.06    1.08    1.44    86.18473   118.83542   -36.83076
    69  H   1.0    0.03    1.06    1.44    87.14849   118.90723   -42.11632
    70  H   1.0    0.04    1.04    1.43    89.53144   116.97215   -40.71793
    71  H   1.0    0.03    1.00    1.43    85.26632   122.19346   -39.89211
    72  H   1.0    0.06    1.01    1.43    86.98598   123.32352   -37.22004
    73  H   1.0    0.04    1.02    1.43    88.56957   122.82274   -40.15668
    74  H   1.0    0.04    1.00    1.43    85.94285   114.51361   -42.07286
    75  H   1.0    0.06    1.02    1.43    86.29623   114.43047   -38.71859
    76  H   1.0    0.04    1.00    1.43    83.91328   116.36554   -40.11699
    77  N   5.0   -0.14    3.45    2.05    92.55689   123.11187   -36.13912
    78  C   4.0    0.04    4.42    4.41    93.05955   125.64977   -35.18292
    79  C   4.0    0.15    3.50    3.12    90.94873   127.43745   -36.03896
    80  O   6.0   -0.30    1.27    1.80    89.87159   127.08218   -38.07987
    81  C   4.0   -0.03    4.27    4.14    95.61824   126.60975   -36.13912
    82  C   4.0    0.24    3.16    3.03    96.19650   129.29316   -35.25473
    83  O   6.0   -0.30    1.18    1.80    97.23585   129.58796   -33.14579
    84  O   6.0   -0.29    1.17    1.80    95.58612   131.11108   -36.65312
    85  H   1.0    0.07    1.06    1.44    93.73419   122.59597   -37.57531
    86  H   1.0    0.06    1.06    1.44    93.12569   125.63276   -33.12501
    87  H   1.0    0.05    1.03    1.43    97.10735   125.37198   -35.43614
    88  H   1.0    0.05    1.03    1.43    95.61068   126.60408   -38.19892
    89  N   5.0   -0.09    3.65    2.21    90.34213   129.35930   -34.47994
    90  C   4.0    0.03    4.56    4.62    88.38059   131.16777   -35.18103
    91  C   4.0    0.15    3.40    3.08    88.94940   132.59073   -37.63200
    92  O   6.0   -0.29    1.26    1.80    88.37870   131.65910   -39.69747
    93  C   4.0   -0.05    4.43    4.44    88.33902   133.01025   -32.92470
    94  C   4.0   -0.04    4.30    4.20    90.78243   132.57183   -31.54708
    95  C   4.0   -0.01    4.38    4.35    91.27187   129.82606   -31.89290
    96  H   1.0    0.04    1.05    1.44    86.57590   130.18889   -35.35488
    97  H   1.0    0.05    1.05    1.44    88.21997   134.94911   -33.60878
    98  H   1.0    0.04    1.02    1.43    86.72708   132.59073   -31.71149
    99  H   1.0    0.06    1.03    1.43    92.28477   133.70756   -32.38423
   100  H   1.0    0.04    1.03    1.43    90.56890   133.04427   -29.55342
   101  H   1.0    0.06    1.04    1.43    93.28443   129.41032   -31.74551
   102  H   1.0    0.04    1.02    1.43    90.21930   128.70923   -30.51718
   103  N   5.0   -0.14    3.50    2.08    90.12670   134.79604   -37.34665
   104  C   4.0    0.04    4.38    4.35    90.40071   136.72545   -39.31575
   105  C   4.0    0.16    3.42    3.08    90.71629   135.75224   -42.02562
   106  O   6.0   -0.30    1.26    1.80    88.95318   135.88074   -43.54684
   107  C   4.0   -0.04    4.31    4.22    92.54933   138.55282   -38.60521
   108  C   4.0    0.15    3.26    3.05    92.52098   139.27847   -35.81031
   109  O   6.0   -0.30    1.21    1.80    90.58401   140.05893   -34.78419
   110  N   5.0   -0.18    3.17    1.95    94.68850   139.02336   -34.57632
   111  H   1.0    0.09    1.11    1.45    90.95440   135.33650   -35.69314
   112  H   1.0    0.05    1.07    1.44    88.60169   137.72701   -39.38000
   113  H   1.0    0.04    1.04    1.43    94.35780   137.65331   -39.01150
   114  H   1.0    0.05    1.03    1.43    92.35658   140.27814   -39.71259
   115  H   1.0    0.09    1.02    1.43    94.79243   139.47689   -32.70549
   116  H   1.0    0.08    1.03    1.43    96.25130   138.37329   -35.49850
   117  N   5.0   -0.14    3.44    2.04    92.96318   134.76959   -42.59631
   118  C   4.0    0.03    4.38    4.34    93.61513   133.82094   -45.11343
   119  C   4.0    0.16    3.46    3.10    91.41360   132.46223   -46.41545
   120  O   6.0   -0.31    1.23    1.80    90.56134   133.24647   -48.44312
   121  C   4.0   -0.04    4.26    4.12    95.91115   132.05405   -44.93390
   122  C   4.0   -0.03    4.12    3.84    96.96373   131.10163   -47.49259
   123  C   4.0    0.24    3.08    3.02    98.32244   128.50136   -47.15055
   124  O   6.0   -0.30    1.15    1.80    97.05632   126.59841   -46.37576
   125  O   6.0   -0.28    1.15    1.80   100.64869   128.34641   -47.67590
   126  H   1.0    0.08    1.06    1.44    94.40693   134.59762   -41.33209
   127  H   1.0    0.05    1.06    1.44    94.10835   135.44611   -46.27750
   128  H   1.0    0.05    1.03    1.43    97.43238   133.06316   -43.98148
   129  H   1.0    0.06    1.03    1.43    95.37069   130.39676   -43.83786
   130  H   1.0    0.05    1.02    1.43    95.41415   130.86163   -48.82863
   131  H   1.0    0.05    1.02    1.43    98.32433   132.46223   -48.22770
   132  N   5.0   -0.13    3.47    2.06    90.48575   130.46101   -45.20224
   133  C   4.0    0.03    4.43    4.43    88.64138   128.75459   -46.34364
   134  C   4.0    0.14    3.48    3.10    86.13182   130.00559   -46.95213
   135  O   6.0   -0.31    1.69    1.81    84.89027   129.36308   -48.80973
   136  C   4.0   -0.05    4.38    4.34    88.22753   126.44912   -44.65989
   137  C   4.0   -0.02    4.22    4.05    90.29866   124.46869   -44.97548
   138  C   4.0   -0.06    4.13    3.86    92.14304   124.52160   -42.77395
   139  C   4.0   -0.08    4.13    3.87    89.13081   121.87976   -45.26461
   140  H   1.0    0.09    1.06    1.44    90.97708   129.96212   -43.40701
   141  H   1.0    0.05    1.07    1.44    89.43506   128.12531   -48.13699
   142  H   1.0    0.06    1.04    1.43    88.21052   127.05006   -42.69080
   143  H   1.0    0.04    1.04    1.43    86.42662   125.57607   -45.14744
   144  H   1.0    0.05    1.07    1.44    91.37959   124.89577   -46.67623
   145  H   1.0    0.04    1.03    1.43    93.58679   123.08352   -43.07441
   146  H   1.0    0.06    1.00    1.43    93.01798   126.38487   -42.67568
   147  H   1.0    0.05    1.02    1.43    91.11692   124.13421   -41.02973
   148  H   1.0    0.04    1.01    1.43    90.63315   120.48704   -45.48759
   149  H   1.0    0.03    1.02    1.43    88.02154   121.45269   -43.58275
   150  H   1.0    0.04    1.00    1.43    87.91572   121.87410   -46.92756
   151  N   5.0   -0.13    3.56    2.12    85.38916   131.79894   -45.38177
   152  C   4.0    0.04    4.44    4.45    83.04968   133.13686   -45.81452
   153  C   4.0    0.16    3.46    3.10    83.13471   134.35574   -48.42801
   154  O   6.0   -0.29    1.22    1.80    81.28467   134.26881   -49.84152
   155  C   4.0   -0.05    4.35    4.29    82.62449   135.09651   -43.73771
   156  C   4.0   -0.02    4.22    4.03    83.39739   134.35385   -41.03162
   157  C   4.0   -0.08    4.10    3.80    82.81346   136.50813   -39.21748
   158  C   4.0   -0.07    4.10    3.80    82.13316   131.92744   -40.10376
   159  H   1.0    0.10    1.09    1.44    86.35670   132.36018   -43.81141
   160  H   1.0    0.05    1.06    1.44    81.44908   131.84429   -45.73326
   161  H   1.0    0.05    1.03    1.43    83.70352   136.78214   -44.22715
   162  H   1.0    0.04    1.03    1.43    80.61382   135.53681   -43.68668
   163  H   1.0    0.07    1.08    1.44    85.42317   133.98157   -41.05997
   164  H   1.0    0.04    1.00    1.43    83.37093   135.95255   -37.31453
   165  H   1.0    0.04    1.00    1.43    83.86793   138.17865   -39.79952
   166  H   1.0    0.04    1.00    1.43    80.79145   136.89931   -39.27039
   167  H   1.0    0.04    1.00    1.43    82.77189   131.52871   -38.18569
   168  H   1.0    0.04    1.00    1.43    80.09037   132.18633   -40.12455
   169  H   1.0    0.05    1.00    1.43    82.65850   130.37786   -41.35476
   170  N   5.0   -0.14    3.50    2.08    85.31924   135.41776   -49.07618
   171  C   4.0    0.05    4.43    4.43    85.71797   136.54026   -51.55928
   172  C   4.0    0.17    3.45    3.10    85.68395   134.56172   -53.64932
   173  O   6.0   -0.26    1.25    1.80    84.75988   135.06627   -55.72424
   174  C   4.0   -0.03    4.31    4.21    88.19918   138.02747   -51.63487
   175  C   4.0    0.15    3.21    3.04    88.29178   139.95121   -53.78727
   176  O   6.0   -0.26    1.22    1.80    87.49053   139.44288   -55.91510
   177  N   5.0   -0.19    3.17    1.95    89.30089   142.17731   -53.22980
   178  H   1.0    0.11    1.07    1.44    86.85747   135.53303   -47.91967
   179  H   1.0    0.07    1.06    1.44    84.17595   137.86118   -51.89943
   180  H   1.0    0.05    1.03    1.43    88.42217   139.04793   -49.86042
   181  H   1.0    0.06    1.03    1.43    89.76198   136.71033   -51.89187
   182  H   1.0    0.09    1.02    1.43    89.41994   143.54736   -54.58095
   183  H   1.0    0.08    1.03    1.43    89.95662   142.51935   -51.44968
   184  N   5.0   -0.13    3.50    2.08    86.67606   132.31861   -53.09185
   185  C   4.0    0.04    4.41    4.39    86.77811   130.25881   -54.93244
   186  C   4.0    0.17    3.47    3.10    84.17784   129.75236   -56.06250
   187  O   6.0   -0.29    1.21    1.80    83.93596   129.11742   -58.29805
   188  C   4.0    0.03    4.17    3.94    87.75509   127.85508   -53.68522
   189  O   6.0   -0.26    2.14    1.85    85.87860   126.81951   -52.08463
   190  H   1.0    0.10    1.08    1.44    87.42817   131.85941   -51.37787
   191  H   1.0    0.06    1.06    1.44    88.07635   130.79549   -56.43856
   192  H   1.0    0.04    1.01    1.43    88.23319   126.48125   -55.14409
   193  H   1.0    0.04    1.02    1.43    89.42561   128.30483   -52.56651
   194  H   1.0    0.17    1.38    1.53    85.13026   128.15365   -51.04150
   195  N   5.0   -0.13    3.50    2.08    82.24654   130.03960   -54.48269
   196  C   4.0    0.04    4.34    4.27    79.64817   129.76748   -55.30472
   197  C   4.0    0.10    3.20    3.04    78.38772   132.29593   -55.89809
   198  O   6.0   -0.29    1.12    1.80    76.21643   132.35641   -56.74280
   199  C   4.0   -0.04    4.42    4.42    78.14395   128.30861   -53.33751
   200  C   4.0   -0.04    4.07    3.75    78.01923   125.50426   -53.87420
   201  S   6.0   -0.03    2.53    3.10    75.36983   124.04917   -52.33029
   202  C   4.0   -0.06    3.95    3.54    73.08704   126.56440   -52.50037
   203  H   1.0    0.10    1.07    1.44    82.43363   130.46479   -52.61186
   204  H   1.0    0.06    1.07    1.44    79.61415   128.64309   -57.03004
   205  H   1.0    0.05    1.04    1.43    79.03023   128.56373   -51.49503
   206  H   1.0    0.05    1.10    1.44    76.21643   129.03427   -53.29783
   207  H   1.0    0.05    1.07    1.44    77.82836   125.20757   -55.90376
   208  H   1.0    0.04    1.08    1.44    79.74077   124.60286   -53.19012
   209  H   1.0    0.05    1.04    1.43    71.33526   125.94079   -51.61408
   210  H   1.0    0.04    1.05    1.44    73.82781   128.21035   -51.51015
   211  H   1.0    0.05    1.04    1.43    72.74689   127.02927   -54.47891
   212  N   5.0   -0.22    3.20    1.96    91.17030   108.39993   -52.61595
   213  C   4.0    0.03    4.24    4.08    90.66359   110.86116   -51.51235
   214  C   4.0    0.07    3.22    3.04    88.64142   112.13757   -53.09594
   215  O   6.0   -0.32    1.14    1.80    86.59782   112.69898   -52.14730
   216  C   4.0   -0.06    4.28    4.16    93.04653   112.47479   -51.31582
   217  C   4.0   -0.05    4.21    4.01    93.24908   113.78314   -48.78926
   218  C   4.0   -0.02    4.21    4.02    95.79770   115.03420   -48.41131
   219  N   5.0   -0.14    3.37    2.01    96.03337   116.11510   -45.86774
   220  C   4.0    0.09    3.33    3.06    95.55854   118.52490   -45.24602
   221  N   5.0   -0.18    3.27    1.97    94.82338   120.17996   -46.98457
   222  N   5.0   -0.19    3.24    1.96    95.82321   119.30614   -42.86308
   223  H   1.0    0.07    1.03    1.43    92.98546   108.13213   -53.20744
   224  H   1.0    0.04    1.07    1.44    90.01837   110.63702   -49.56972
   225  H   1.0    0.03    1.04    1.43    94.70039   111.26940   -51.55204
   226  H   1.0    0.04    1.04    1.43    93.01081   113.91615   -52.78603
   227  H   1.0    0.04    1.03    1.43    91.79779   115.23859   -48.66454
   228  H   1.0    0.04    1.03    1.43    92.98850   112.39765   -47.28882
   229  H   1.0    0.04    1.03    1.43    97.28881   113.63447   -48.66076
   230  H   1.0    0.04    1.03    1.43    96.02228   116.55384   -49.78326
   231  H   1.0    0.07    1.06    1.44    96.60539   114.93536   -44.45612
   232  H   1.0    0.08    1.03    1.43    94.61467   119.62305   -48.81761
   233  H   1.0    0.09    1.03    1.43    94.46810   122.00853   -46.48568
   234  H   1.0    0.08    1.02    1.43    96.39034   118.06685   -41.50059
   235  H   1.0    0.08    1.04    1.44    95.45899   121.14264   -42.40388
   236  N   5.0   -0.21    3.30    1.98    81.38223   110.34893   -52.77091
   237  C   4.0    0.03    4.37    4.33    79.74311   111.13951   -50.73379
   238  C   4.0    0.15    3.44    3.09    78.74373   113.75488   -51.30637
   239  O   6.0   -0.33    1.29    1.80    76.63336   114.41304   -50.61096
   240  C   4.0   -0.05    4.28    4.15    81.15047   111.02249   -48.22612
   241  C   4.0   -0.05    4.20    4.00    82.47323   108.47817   -47.80660
   242  C   4.0   -0.05    4.19    3.98    80.62058   106.26732   -47.98991
   243  C   4.0   -0.04    4.13    3.85    81.89922   103.89391   -48.99335
   244  N   5.0   -0.12    3.99    2.84    80.06718   101.79098   -49.41476
   245  H   1.0    0.10    1.05    1.44    83.26751   110.54930   -52.42131
   246  H   1.0    0.04    1.07    1.44    78.13991   109.86477   -50.51080
   247  H   1.0    0.05    1.03    1.43    82.58400   112.50039   -48.19211
   248  H   1.0    0.04    1.03    1.43    79.80847   111.30599   -46.68977
   249  H   1.0    0.04    1.03    1.43    83.92784   108.22259   -49.24279
   250  H   1.0    0.04    1.03    1.43    83.32302   108.45383   -45.93010
   251  H   1.0    0.04    1.03    1.43    79.86650   105.85377   -46.11908
   252  H   1.0    0.04    1.04    1.43    79.08776   106.76796   -49.27303
   253  H   1.0    0.03    1.02    1.43    82.80722   104.32432   -50.79237
   254  H   1.0    0.04    1.02    1.43    83.30397   103.25605   -47.63086
   255  H   1.0    0.05    1.01    1.43    81.00806   100.20668   -50.09884
   256  H   1.0    0.05    1.01    1.43    79.17739   101.32526   -47.72534
   257  H   1.0    0.05    1.01    1.43    78.70596   102.33832   -50.72245
   258  N   5.0   -0.15    3.52    2.09    80.25471   115.21204   -52.66887
   259  C   4.0    0.04    4.37    4.33    79.41234   117.62349   -53.63641
   260  C   4.0    0.08    3.26    3.04    77.25364   117.23908   -55.47133
   261  O   6.0   -0.29    1.13    1.80    76.04740   119.04112   -56.27635
   262  C   4.0   -0.05    4.38    4.35    81.58873   118.98258   -54.91764
   263  C   4.0   -0.02    4.18    3.97    83.21712   120.65591   -53.20933
   264  C   4.0   -0.07    4.09    3.79    83.55419   119.65256   -50.48812
   265  C   4.0   -0.07    4.11    3.82    85.74725   121.05837   -54.49812
   266  H   1.0    0.09    1.07    1.44    82.07277   114.76916   -53.13185
   267  H   1.0    0.05    1.06    1.44    78.78554   118.84142   -52.09817
   268  H   1.0    0.04    1.04    1.43    82.83194   117.56628   -55.74723
   269  H   1.0    0.05    1.04    1.43    80.81267   120.19071   -56.39352
   270  H   1.0    0.04    1.07    1.44    82.23991   122.45053   -52.95044
   271  H   1.0    0.04    1.00    1.43    84.73413   120.96878   -49.42988
   272  H   1.0    0.04    1.00    1.43    81.70271   119.49571   -49.59806
   273  H   1.0    0.05    1.00    1.43    84.45688   117.80182   -50.56182
   274  H   1.0    0.05    1.00    1.43    86.92798   122.24849   -53.30193
   275  H   1.0    0.04    1.00    1.43    86.65358   119.23156   -54.78347
   276  H   1.0    0.05    1.00    1.43    85.43633   121.97863   -56.31415
   277  N   5.0   -0.20    3.24    1.96    71.65152   115.84199   -50.09317
   278  C   4.0    0.03    4.26    4.12    71.18857   118.11027   -48.64942
   279  C   4.0    0.08    3.21    3.04    69.71195   120.04424   -50.15742
   280  O   6.0   -0.29    1.12    1.80    67.79137   120.98217   -49.26169
   281  C   4.0   -0.03    4.33    4.26    73.67020   119.19391   -47.68755
   282  C   4.0   -0.02    3.51    3.12    74.57167   117.98399   -45.25358
   283  C   4.0   -0.05    3.44    3.09    75.24483   119.46367   -43.18811
   284  C   4.0   -0.04    3.45    3.10    74.74325   115.35111   -44.99469
   285  C   4.0   -0.04    3.49    3.11    76.07922   118.36996   -40.92611
   286  C   4.0   -0.05    3.40    3.08    75.58432   114.23070   -42.72513
   287  C   4.0    0.06    3.41    3.08    76.24928   115.76238   -40.69745
   288  O   6.0   -0.25    2.09    1.84    77.08900   114.73502   -38.44490
   289  H   1.0    0.11    1.06    1.44    73.35587   115.82661   -50.99268
   290  H   1.0    0.05    1.07    1.44    70.05948   117.63950   -46.99213
   291  H   1.0    0.05    1.04    1.43    75.12382   118.89848   -49.11618
   292  H   1.0    0.04    1.04    1.43    73.42566   121.20861   -47.33795
   293  H   1.0    0.05    1.03    1.43    75.12116   121.49579   -43.33173
   294  H   1.0    0.06    1.03    1.43    74.22142   114.15736   -46.56505
   295  H   1.0    0.05    1.11    1.44    76.59356   119.56156   -39.35197
   296  H   1.0    0.05    1.02    1.43    75.70963   112.19953   -42.56450
   297  H   1.0    0.13    1.02    1.43    77.10848   112.88714   -38.56017
   298  N   5.0   -0.22    3.17    1.95    79.71078   138.56253   -29.56697
   299  C   4.0    0.03    4.14    3.88    82.19728   139.76244   -29.37988
   300  C   4.0    0.07    3.18    3.03    82.55462   141.31291   -26.94970
   301  O   6.0   -0.29    1.11    1.80    84.63039   141.37231   -25.89145
   302  C   4.0   -0.07    4.09    3.79    82.71300   141.38253   -31.70425
   303  H   1.0    0.07    1.03    1.43    78.68333   139.16292   -31.08442
   304  H   1.0    0.05    1.06    1.44    83.59117   138.24767   -29.31752
   305  H   1.0    0.05    1.00    1.43    84.56998   142.25172   -31.51716
   306  H   1.0    0.04    1.00    1.43    82.66371   140.18666   -33.38043
   307  H   1.0    0.04    1.00    1.43    81.26404   142.84151   -31.84031
   308  H   1.0    0.09    1.07    1.44    90.84732   107.18618   -51.46920
   309  H   1.0    0.05    1.04    1.44    88.97056   112.52374   -54.91628
   310  H   1.0    0.09    1.07    1.44    81.12035   108.70173   -53.10364
   311  H   1.0    0.06    1.05    1.44    76.79687   115.49615   -56.04109
   312  H   1.0    0.10    1.08    1.44    71.61549   114.49295   -49.05811
   313  H   1.0    0.06    1.05    1.44    70.30397   120.55290   -51.87842
   314  H   1.0    0.09    1.07    1.44    79.90245   136.87903   -29.71422
   315  H   1.0    0.05    1.04    1.43    81.10160   142.27743   -26.22204
   316  H   1.0    0.10    1.07    1.44    78.16868   117.11061   -33.27400
   317  H   1.0    0.05    1.04    1.43    84.92354   114.32886   -27.68539
   318  H   1.0    0.10    1.07    1.44    84.15409   109.65436   -31.28444
   319  H   1.0    0.08    1.04    1.44    79.32350   133.91074   -55.60184

  Z AO/shell   Hii/eV     exponent
  1     Wed Apr 25 08:07:45 CEST 2018   EN: 2.200 GM2: 0.406  GM3: 0.0800  RAES: 1.40
     1s    -10.707211    1.230000
  6     Wed Apr 25 08:07:45 CEST 2018   EN: 2.550 GM2: 0.538  GM3: 0.1500  RAES: 3.00
     2s    -13.970922    2.096432
     2p    -10.063292    1.800000
  7     Wed Apr 25 08:07:45 CEST 2018   EN: 3.040 GM2: 0.461  GM3:-0.0640  RAES: 1.90
     2s    -16.686243    2.339881
     2p    -12.523956    2.014332
  8     Wed Apr 25 08:07:45 CEST 2018   EN: 3.440 GM2: 0.452  GM3:-0.0517  RAES: 1.80
     2s    -20.229985    2.439742
     2p    -15.503117    2.137023
 16     Tue Apr 24 11:44:34 CEST 2018   EN: 2.580 GM2: 0.340  GM3:-0.0502  RAES: 3.10
     3s    -20.029654    1.981333
     3p    -11.377694    2.025643
     3d     -0.420282    1.702555
 no old-style atom pair restraining (fixing) potential

molecular fragmentation (1/2 indicates fragments):
111111111111111111111111111111111111112222222222222222222222222222222222
222222222222222222222222222222222222222222222222222222222222222222222222
222222222222222222222222222222222222222222222222222222222222222222222222
222222222222222222222222222222222222222222222222222222222222222222222222
2222222222222222222222222221122
# atoms in fragment 1/2:    40   279
 fragment masses (1/2) :      228.33     1940.26
CMA distance (Bohr)    :  14.904
constraining FC (au)   :  0.0500
           ------------------------------------------------- 
          |        Self-Consistent Charge Iterations        |
           ------------------------------------------------- 

 Ncao       : 778
 Nao        : 777
 Nshell     : 471
 Nel        : 858
 T(el)      :   500.0
 intcut     :    35.0
 scfconv/Eh :  0.100E-06
   qconv/e  :  0.100E-04
 intneglect :  0.100E-08
 broydamp   :      0.400
 iter      E             dE          RMSdq      gap      omega  full diag
   1   -490.2703139 -0.490270E+03  0.469E+00    2.95       0.0  T
   2   -491.5319579 -0.126164E+01  0.217E+00    1.55       1.0  T
   3   -491.6109274 -0.789695E-01  0.125E+00    1.85       1.0  T
   4   -491.6911564 -0.802290E-01  0.264E-01    1.41       1.0  T
   5   -491.6959881 -0.483170E-02  0.129E-01    1.53       1.0  T
   6   -491.6966475 -0.659393E-03  0.539E-02    1.49       1.0  T
   7   -491.6968659 -0.218470E-03  0.221E-02    1.49       1.0  T
   8   -491.6968887 -0.227304E-04  0.111E-02    1.48       1.0  T
   9   -491.6968992 -0.105232E-04  0.460E-03    1.47       1.2  T
  10   -491.6969004 -0.125327E-05  0.202E-03    1.47       2.8  T
  11   -491.6969007 -0.230310E-06  0.851E-04    1.47       6.6  T
  12   -491.6969007 -0.399619E-07  0.400E-04    1.47      14.0  T
  13   -491.6969007 -0.147329E-07  0.190E-04    1.47      29.5  T
  14   -491.6969007 -0.182735E-08  0.894E-05    1.47      62.6  T
  15   -491.6969007 -0.545072E-09  0.376E-05    1.47     149.0  T
speedup  1.23
cpu  time for SCC    7.91 s
wall time for SCC    6.46 s

   *** convergence criteria satisfied after 15 iterations ***

          eigenvalues
 #    :         417        418        419        420        421        422        423        424
 occ. :        2.000      2.000      2.000      2.000      2.000      2.000      2.000      2.000
 eps  :       -10.298    -10.238    -10.174    -10.153    -10.083    -10.072    -10.063    -10.010
 #    :         425        426        427        428        429        430        431        432
 occ. :        2.000      2.000      2.000      2.000      2.000      0.000      0.000      0.000
 eps  :       -10.003     -9.706     -9.682     -9.465     -9.432     -7.965     -7.910     -7.767
 #    :         433        434        435        436        437        438        439        440
 occ. :        0.000      0.000      0.000      0.000      0.000      0.000      0.000      0.000
 eps  :        -7.755     -7.444     -7.429     -6.948     -6.734     -6.695     -6.633     -6.407


   #   Z            q   n(s)   n(p)   n(d)      C6AA      α(0)
   1   7 N     -0.403  1.328  4.075  0.000    30.453     8.196
   2   6 C      0.027  1.053  2.920  0.000    20.127     6.389
   3   6 C      0.274  1.044  2.683  0.000    22.376     7.747
   4   8 O     -0.506  1.756  4.750  0.000    23.918     6.557
   5   6 C     -0.073  1.060  3.014  0.000    21.892     6.659
   6   6 C     -0.011  1.051  2.960  0.000    20.738     6.477
   7   6 C     -0.120  1.046  3.074  0.000    22.854     6.815
   8   6 C     -0.121  1.049  3.072  0.000    22.861     6.816
   9   1 H      0.166  0.834  0.000  0.000     1.295     1.782
  10   1 H      0.056  0.944  0.000  0.000     2.246     2.344
  11   1 H      0.041  0.959  0.000  0.000     2.441     2.443
  12   1 H      0.031  0.969  0.000  0.000     2.575     2.509
  13   1 H      0.034  0.966  0.000  0.000     2.533     2.489
  14   1 H      0.048  0.952  0.000  0.000     2.348     2.396
  15   1 H      0.032  0.968  0.000  0.000     2.562     2.503
  16   1 H      0.042  0.958  0.000  0.000     2.419     2.432
  17   1 H      0.063  0.937  0.000  0.000     2.161     2.299
  18   1 H      0.039  0.961  0.000  0.000     2.463     2.454
  19   1 H      0.056  0.944  0.000  0.000     2.249     2.345
  20   7 N     -0.171  1.243  3.928  0.000    24.707     7.382
  21   6 C      0.024  1.064  2.912  0.000    20.172     6.395
  22   6 C      0.206  1.090  2.704  0.000    23.625     7.960
  23   8 O     -0.372  1.754  4.618  0.000    21.132     6.163
  24   6 C     -0.025  1.072  2.953  0.000    20.979     6.515
  25   6 C     -0.062  1.050  3.012  0.000    21.685     6.630
  26   6 C     -0.123  1.045  3.078  0.000    22.928     6.829
  27   6 C     -0.112  1.043  3.069  0.000    22.707     6.796
  28   1 H      0.214  0.786  0.000  0.000     1.038     1.596
  29   1 H      0.085  0.915  0.000  0.000     1.933     2.174
  30   1 H      0.060  0.940  0.000  0.000     2.196     2.317
  31   1 H      0.047  0.953  0.000  0.000     2.354     2.399
  32   1 H      0.030  0.970  0.000  0.000     2.584     2.514
  33   1 H      0.069  0.931  0.000  0.000     2.101     2.267
  34   1 H      0.055  0.945  0.000  0.000     2.262     2.352
  35   1 H      0.043  0.957  0.000  0.000     2.411     2.428
  36   1 H      0.044  0.956  0.000  0.000     2.394     2.420
  37   1 H      0.036  0.964  0.000  0.000     2.503     2.474
  38   1 H      0.053  0.947  0.000  0.000     2.280     2.361
  39   7 N     -0.383  1.311  4.072  0.000    29.902     8.121
  40   6 C      0.043  1.050  2.907  0.000    19.859     6.347
  41   6 C      0.267  1.050  2.683  0.000    22.494     7.767
  42   8 O     -0.481  1.734  4.748  0.000    23.374     6.482
  43   6 C     -0.087  1.063  3.023  0.000    22.152     6.700
  44   6 C      0.369  1.024  2.607  0.000    20.748     7.454
  45   8 O     -0.655  1.774  4.882  0.000    27.513     7.032
  46   8 O     -0.652  1.766  4.886  0.000    27.421     7.021
  47   1 H      0.140  0.860  0.000  0.000     1.469     1.899
  48   1 H      0.046  0.954  0.000  0.000     2.373     2.409
  49   1 H      0.023  0.977  0.000  0.000     2.688     2.564
  50   1 H      0.041  0.959  0.000  0.000     2.433     2.439
  51   7 N     -0.165  1.244  3.921  0.000    24.566     7.361
  52   6 C     -0.032  1.052  2.979  0.000    21.208     6.569
  53   6 C      0.278  1.041  2.680  0.000    22.292     7.731
  54   8 O     -0.539  1.772  4.767  0.000    24.658     6.658
  55   1 H      0.222  0.778  0.000  0.000     1.000     1.566
  56   1 H      0.095  0.905  0.000  0.000     1.827     2.114
  57   1 H      0.092  0.908  0.000  0.000     1.858     2.132
  58   7 N     -0.188  1.265  3.923  0.000    25.081     7.438
  59   6 C      0.027  1.066  2.907  0.000    20.131     6.389
  60   6 C      0.301  1.037  2.662  0.000    21.893     7.662
  61   8 O     -0.509  1.752  4.756  0.000    23.975     6.565
  62   6 C     -0.022  1.062  2.960  0.000    20.927     6.506
  63   6 C     -0.084  1.056  3.027  0.000    22.090     6.690
  64   6 C     -0.113  1.044  3.069  0.000    22.721     6.796
  65   6 C     -0.111  1.039  3.072  0.000    22.684     6.792
  66   1 H      0.265  0.735  0.000  0.000     0.827     1.425
  67   1 H      0.038  0.962  0.000  0.000     2.482     2.463
  68   1 H      0.056  0.944  0.000  0.000     2.247     2.344
  69   1 H      0.069  0.931  0.000  0.000     2.101     2.267
  70   1 H      0.049  0.951  0.000  0.000     2.329     2.387
  71   1 H      0.058  0.942  0.000  0.000     2.220     2.330
  72   1 H      0.018  0.982  0.000  0.000     2.769     2.602
  73   1 H      0.063  0.937  0.000  0.000     2.169     2.303
  74   1 H      0.052  0.948  0.000  0.000     2.293     2.368
  75   1 H      0.044  0.956  0.000  0.000     2.393     2.419
  76   1 H      0.023  0.977  0.000  0.000     2.695     2.567
  77   7 N     -0.184  1.249  3.935  0.000    24.996     7.425
  78   6 C      0.047  1.051  2.902  0.000    19.790     6.335
  79   6 C      0.262  1.050  2.688  0.000    22.590     7.783
  80   8 O     -0.481  1.741  4.740  0.000    23.369     6.481
  81   6 C     -0.092  1.065  3.026  0.000    22.244     6.714
  82   6 C      0.368  1.023  2.609  0.000    20.767     7.458
  83   8 O     -0.637  1.773  4.864  0.000    27.040     6.972
  84   8 O     -0.642  1.767  4.875  0.000    27.173     6.989
  85   1 H      0.197  0.803  0.000  0.000     1.122     1.660
  86   1 H      0.044  0.956  0.000  0.000     2.401     2.423
  87   1 H      0.037  0.963  0.000  0.000     2.486     2.466
  88   1 H      0.027  0.973  0.000  0.000     2.633     2.538
  89   7 N     -0.101  1.245  3.856  0.000    23.220     7.157
  90   6 C      0.027  1.062  2.910  0.000    20.101     6.381
  91   6 C      0.280  1.040  2.679  0.000    22.254     7.725
  92   8 O     -0.472  1.747  4.725  0.000    23.171     6.454
  93   6 C     -0.088  1.059  3.029  0.000    22.141     6.693
  94   6 C     -0.061  1.042  3.020  0.000    21.652     6.620
  95   6 C      0.002  1.048  2.950  0.000    20.575     6.463
  96   1 H      0.069  0.931  0.000  0.000     2.091     2.261
  97   1 H      0.068  0.932  0.000  0.000     2.108     2.271
  98   1 H      0.076  0.924  0.000  0.000     2.016     2.220
  99   1 H      0.041  0.959  0.000  0.000     2.434     2.440
 100   1 H      0.079  0.921  0.000  0.000     1.986     2.204
 101   1 H      0.058  0.942  0.000  0.000     2.227     2.334
 102   1 H      0.059  0.941  0.000  0.000     2.215     2.327
 103   7 N     -0.175  1.243  3.932  0.000    24.788     7.394
 104   6 C      0.024  1.060  2.915  0.000    20.179     6.398
 105   6 C      0.279  1.040  2.681  0.000    22.281     7.729
 106   8 O     -0.476  1.741  4.734  0.000    23.249     6.465
 107   6 C     -0.114  1.065  3.048  0.000    22.668     6.778
 108   6 C      0.284  1.034  2.683  0.000    22.193     7.713
 109   8 O     -0.489  1.750  4.739  0.000    23.541     6.505
 110   7 N     -0.275  1.269  4.005  0.000    27.101     7.732
 111   1 H      0.211  0.789  0.000  0.000     1.052     1.607
 112   1 H      0.094  0.906  0.000  0.000     1.840     2.122
 113   1 H      0.062  0.938  0.000  0.000     2.179     2.308
 114   1 H      0.107  0.893  0.000  0.000     1.725     2.054
 115   1 H      0.247  0.753  0.000  0.000     0.896     1.483
 116   1 H      0.225  0.775  0.000  0.000     0.988     1.557
 117   7 N     -0.174  1.248  3.926  0.000    24.762     7.391
 118   6 C      0.019  1.065  2.916  0.000    20.268     6.411
 119   6 C      0.284  1.040  2.676  0.000    22.187     7.713
 120   8 O     -0.496  1.742  4.754  0.000    23.702     6.527
 121   6 C     -0.054  1.053  3.001  0.000    21.540     6.607
 122   6 C     -0.090  1.067  3.023  0.000    22.230     6.714
 123   6 C      0.354  1.039  2.607  0.000    20.992     7.498
 124   8 O     -0.636  1.769  4.868  0.000    27.026     6.970
 125   8 O     -0.642  1.784  4.858  0.000    27.182     6.990
 126   1 H      0.203  0.797  0.000  0.000     1.090     1.636
 127   1 H      0.078  0.922  0.000  0.000     2.005     2.214
 128   1 H      0.043  0.957  0.000  0.000     2.411     2.428
 129   1 H      0.036  0.964  0.000  0.000     2.503     2.474
 130   1 H      0.025  0.975  0.000  0.000     2.656     2.548
 131   1 H      0.031  0.969  0.000  0.000     2.568     2.506
 132   7 N     -0.169  1.245  3.924  0.000    24.652     7.374
 133   6 C      0.026  1.059  2.915  0.000    20.145     6.391
 134   6 C      0.277  1.037  2.686  0.000    22.313     7.736
 135   8 O     -0.477  1.726  4.751  0.000    23.175     6.460
 136   6 C     -0.085  1.059  3.026  0.000    22.102     6.691
 137   6 C     -0.017  1.054  2.964  0.000    20.846     6.494
 138   6 C     -0.117  1.047  3.070  0.000    22.792     6.807
 139   6 C     -0.146  1.051  3.095  0.000    23.359     6.890
 140   1 H      0.205  0.795  0.000  0.000     1.082     1.629
 141   1 H      0.075  0.925  0.000  0.000     2.030     2.228
 142   1 H      0.075  0.925  0.000  0.000     2.027     2.227
 143   1 H      0.077  0.923  0.000  0.000     2.006     2.215
 144   1 H      0.035  0.965  0.000  0.000     2.511     2.478
 145   1 H      0.049  0.951  0.000  0.000     2.333     2.389
 146   1 H      0.016  0.984  0.000  0.000     2.798     2.616
 147   1 H      0.062  0.938  0.000  0.000     2.177     2.307
 148   1 H      0.062  0.938  0.000  0.000     2.181     2.309
 149   1 H      0.066  0.934  0.000  0.000     2.133     2.284
 150   1 H      0.060  0.940  0.000  0.000     2.202     2.320
 151   7 N     -0.160  1.245  3.916  0.000    24.466     7.346
 152   6 C      0.018  1.060  2.923  0.000    20.275     6.410
 153   6 C      0.279  1.039  2.682  0.000    22.283     7.730
 154   8 O     -0.495  1.751  4.745  0.000    23.679     6.524
 155   6 C     -0.084  1.059  3.025  0.000    22.088     6.690
 156   6 C     -0.022  1.058  2.963  0.000    20.925     6.506
 157   6 C     -0.116  1.044  3.072  0.000    22.780     6.805
 158   6 C     -0.117  1.044  3.073  0.000    22.792     6.808
 159   1 H      0.231  0.769  0.000  0.000     0.960     1.535
 160   1 H      0.086  0.914  0.000  0.000     1.921     2.168
 161   1 H      0.055  0.945  0.000  0.000     2.264     2.353
 162   1 H      0.070  0.930  0.000  0.000     2.089     2.260
 163   1 H      0.043  0.957  0.000  0.000     2.416     2.431
 164   1 H      0.041  0.959  0.000  0.000     2.437     2.441
 165   1 H      0.040  0.960  0.000  0.000     2.445     2.445
 166   1 H      0.059  0.941  0.000  0.000     2.215     2.327
 167   1 H      0.037  0.963  0.000  0.000     2.483     2.464
 168   1 H      0.054  0.946  0.000  0.000     2.272     2.357
 169   1 H      0.036  0.964  0.000  0.000     2.500     2.473
 170   7 N     -0.180  1.245  3.935  0.000    24.901     7.411
 171   6 C      0.033  1.056  2.911  0.000    20.015     6.370
 172   6 C      0.287  1.035  2.678  0.000    22.139     7.705
 173   8 O     -0.484  1.757  4.726  0.000    23.428     6.490
 174   6 C     -0.107  1.063  3.044  0.000    22.535     6.757
 175   6 C      0.288  1.033  2.679  0.000    22.114     7.700
 176   8 O     -0.505  1.766  4.739  0.000    23.896     6.554
 177   7 N     -0.280  1.270  4.010  0.000    27.246     7.752
 178   1 H      0.216  0.784  0.000  0.000     1.026     1.587
 179   1 H      0.079  0.921  0.000  0.000     1.986     2.204
 180   1 H      0.081  0.919  0.000  0.000     1.971     2.196
 181   1 H      0.085  0.915  0.000  0.000     1.930     2.173
 182   1 H      0.249  0.751  0.000  0.000     0.887     1.475
 183   1 H      0.238  0.762  0.000  0.000     0.933     1.513
 184   7 N     -0.189  1.246  3.943  0.000    25.098     7.440
 185   6 C      0.014  1.063  2.923  0.000    20.344     6.423
 186   6 C      0.292  1.035  2.673  0.000    22.050     7.690
 187   8 O     -0.498  1.750  4.748  0.000    23.737     6.532
 188   6 C      0.077  1.038  2.885  0.000    19.499     6.324
 189   8 O     -0.529  1.715  4.814  0.000    23.527     6.548
 190   1 H      0.206  0.794  0.000  0.000     1.078     1.627
 191   1 H      0.066  0.934  0.000  0.000     2.128     2.281
 192   1 H      0.066  0.934  0.000  0.000     2.135     2.285
 193   1 H      0.023  0.977  0.000  0.000     2.682     2.561
 194   1 H      0.357  0.643  0.000  0.000     0.561     1.170
 195   7 N     -0.160  1.237  3.924  0.000    24.466     7.346
 196   6 C      0.026  1.056  2.918  0.000    20.136     6.390
 197   6 C      0.206  1.088  2.707  0.000    23.633     7.961
 198   8 O     -0.362  1.750  4.612  0.000    20.939     6.135
 199   6 C     -0.072  1.049  3.023  0.000    21.847     6.648
 200   6 C     -0.009  1.061  2.948  0.000    20.741     6.485
 201  16 S     -0.205  1.905  4.249  0.051   149.800    20.600
 202   6 C     -0.060  1.053  3.007  0.000    21.734     6.650
 203   1 H      0.205  0.795  0.000  0.000     1.080     1.628
 204   1 H      0.112  0.888  0.000  0.000     1.682     2.028
 205   1 H      0.061  0.939  0.000  0.000     2.189     2.314
 206   1 H      0.081  0.919  0.000  0.000     1.964     2.192
 207   1 H      0.047  0.953  0.000  0.000     2.358     2.401
 208   1 H      0.068  0.932  0.000  0.000     2.111     2.272
 209   1 H      0.066  0.934  0.000  0.000     2.131     2.283
 210   1 H      0.058  0.942  0.000  0.000     2.221     2.331
 211   1 H      0.056  0.944  0.000  0.000     2.248     2.345
 212   7 N     -0.388  1.322  4.067  0.000    30.045     8.141
 213   6 C      0.031  1.053  2.916  0.000    20.064     6.380
 214   6 C      0.198  1.093  2.710  0.000    23.788     7.988
 215   8 O     -0.371  1.752  4.619  0.000    21.116     6.161
 216   6 C     -0.082  1.058  3.024  0.000    22.050     6.684
 217   6 C     -0.086  1.053  3.034  0.000    22.144     6.699
 218   6 C     -0.028  1.058  2.971  0.000    21.160     6.564
 219   7 N     -0.144  1.215  3.929  0.000    24.121     7.294
 220   6 C      0.231  1.021  2.748  0.000    23.160     7.879
 221   7 N     -0.235  1.228  4.007  0.000    26.152     7.595
 222   7 N     -0.261  1.238  4.024  0.000    26.781     7.686
 223   1 H      0.169  0.831  0.000  0.000     1.276     1.770
 224   1 H      0.061  0.939  0.000  0.000     2.187     2.313
 225   1 H      0.069  0.931  0.000  0.000     2.095     2.264
 226   1 H      0.055  0.945  0.000  0.000     2.258     2.350
 227   1 H      0.062  0.938  0.000  0.000     2.172     2.305
 228   1 H      0.072  0.928  0.000  0.000     2.069     2.249
 229   1 H      0.100  0.900  0.000  0.000     1.781     2.087
 230   1 H      0.081  0.919  0.000  0.000     1.971     2.196
 231   1 H      0.238  0.762  0.000  0.000     0.933     1.513
 232   1 H      0.255  0.745  0.000  0.000     0.866     1.458
 233   1 H      0.227  0.773  0.000  0.000     0.978     1.549
 234   1 H      0.240  0.760  0.000  0.000     0.921     1.504
 235   1 H      0.215  0.785  0.000  0.000     1.032     1.592
 236   7 N     -0.397  1.325  4.072  0.000    30.284     8.173
 237   6 C      0.024  1.054  2.921  0.000    20.172     6.396
 238   6 C      0.267  1.044  2.689  0.000    22.489     7.766
 239   8 O     -0.508  1.748  4.760  0.000    23.953     6.562
 240   6 C     -0.069  1.052  3.017  0.000    21.821     6.650
 241   6 C     -0.069  1.051  3.018  0.000    21.811     6.649
 242   6 C     -0.090  1.052  3.039  0.000    22.222     6.711
 243   6 C     -0.050  1.061  2.989  0.000    21.560     6.628
 244   7 N     -0.150  1.237  3.913  0.000    24.233     7.311
 245   1 H      0.170  0.830  0.000  0.000     1.273     1.768
 246   1 H      0.057  0.943  0.000  0.000     2.239     2.340
 247   1 H      0.043  0.957  0.000  0.000     2.413     2.429
 248   1 H      0.032  0.968  0.000  0.000     2.564     2.504
 249   1 H      0.063  0.937  0.000  0.000     2.168     2.302
 250   1 H      0.044  0.956  0.000  0.000     2.396     2.421
 251   1 H      0.061  0.939  0.000  0.000     2.186     2.312
 252   1 H      0.071  0.929  0.000  0.000     2.072     2.251
 253   1 H      0.119  0.881  0.000  0.000     1.623     1.992
 254   1 H      0.113  0.887  0.000  0.000     1.669     2.020
 255   1 H      0.309  0.691  0.000  0.000     0.686     1.298
 256   1 H      0.294  0.706  0.000  0.000     0.731     1.340
 257   1 H      0.300  0.700  0.000  0.000     0.715     1.324
 258   7 N     -0.165  1.240  3.924  0.000    24.562     7.361
 259   6 C      0.029  1.050  2.920  0.000    20.085     6.381
 260   6 C      0.205  1.082  2.713  0.000    23.652     7.965
 261   8 O     -0.372  1.760  4.613  0.000    21.137     6.164
 262   6 C     -0.077  1.060  3.017  0.000    21.960     6.670
 263   6 C     -0.015  1.058  2.957  0.000    20.802     6.487
 264   6 C     -0.120  1.047  3.074  0.000    22.873     6.821
 265   6 C     -0.118  1.044  3.074  0.000    22.815     6.810
 266   1 H      0.228  0.772  0.000  0.000     0.976     1.547
 267   1 H      0.090  0.910  0.000  0.000     1.883     2.146
 268   1 H      0.072  0.928  0.000  0.000     2.061     2.245
 269   1 H      0.056  0.944  0.000  0.000     2.243     2.342
 270   1 H      0.030  0.970  0.000  0.000     2.589     2.516
 271   1 H      0.044  0.956  0.000  0.000     2.392     2.418
 272   1 H      0.036  0.964  0.000  0.000     2.501     2.473
 273   1 H      0.055  0.945  0.000  0.000     2.258     2.350
 274   1 H      0.052  0.948  0.000  0.000     2.290     2.366
 275   1 H      0.053  0.947  0.000  0.000     2.286     2.364
 276   1 H      0.032  0.968  0.000  0.000     2.558     2.501
 277   7 N     -0.399  1.323  4.076  0.000    30.332     8.180
 278   6 C      0.044  1.049  2.907  0.000    19.848     6.345
 279   6 C      0.206  1.089  2.705  0.000    23.627     7.961
 280   8 O     -0.387  1.756  4.630  0.000    21.416     6.205
 281   6 C     -0.071  1.057  3.014  0.000    21.847     6.653
 282   6 C      0.006  1.085  2.909  0.000    27.893     8.662
 283   6 C     -0.046  1.088  2.958  0.000    29.144     8.853
 284   6 C     -0.045  1.090  2.954  0.000    29.109     8.847
 285   6 C     -0.090  1.089  3.001  0.000    30.253     9.019
 286   6 C     -0.073  1.083  2.990  0.000    29.824     8.955
 287   6 C      0.140  1.049  2.811  0.000    24.942     8.184
 288   8 O     -0.449  1.724  4.725  0.000    21.818     6.306
 289   1 H      0.184  0.816  0.000  0.000     1.190     1.709
 290   1 H      0.051  0.949  0.000  0.000     2.313     2.378
 291   1 H      0.066  0.934  0.000  0.000     2.129     2.282
 292   1 H      0.040  0.960  0.000  0.000     2.451     2.448
 293   1 H      0.036  0.964  0.000  0.000     2.504     2.475
 294   1 H      0.061  0.939  0.000  0.000     2.186     2.312
 295   1 H      0.084  0.916  0.000  0.000     1.941     2.179
 296   1 H      0.034  0.966  0.000  0.000     2.536     2.490
 297   1 H      0.315  0.685  0.000  0.000     0.677     1.293
 298   7 N     -0.398  1.328  4.070  0.000    30.328     8.179
 299   6 C      0.040  1.054  2.907  0.000    19.925     6.359
 300   6 C      0.199  1.095  2.706  0.000    23.759     7.983
 301   8 O     -0.387  1.766  4.621  0.000    21.418     6.205
 302   6 C     -0.119  1.046  3.074  0.000    22.843     6.815
 303   1 H      0.172  0.828  0.000  0.000     1.259     1.758
 304   1 H      0.049  0.951  0.000  0.000     2.329     2.386
 305   1 H      0.053  0.947  0.000  0.000     2.283     2.363
 306   1 H      0.064  0.936  0.000  0.000     2.154     2.295
 307   1 H      0.062  0.938  0.000  0.000     2.179     2.309
 308   1 H      0.194  0.806  0.000  0.000     1.139     1.672
 309   1 H      0.078  0.922  0.000  0.000     2.000     2.211
 310   1 H      0.192  0.808  0.000  0.000     1.146     1.677
 311   1 H      0.078  0.922  0.000  0.000     2.000     2.212
 312   1 H      0.185  0.815  0.000  0.000     1.183     1.704
 313   1 H      0.070  0.930  0.000  0.000     2.090     2.261
 314   1 H      0.184  0.816  0.000  0.000     1.191     1.710
 315   1 H      0.081  0.919  0.000  0.000     1.965     2.192
 316   1 H      0.176  0.824  0.000  0.000     1.235     1.741
 317   1 H      0.080  0.920  0.000  0.000     1.977     2.199
 318   1 H      0.183  0.817  0.000  0.000     1.199     1.715
 319   1 H      0.070  0.930  0.000  0.000     2.080     2.255

 Mol. C6AA /au·bohr⁶  :     928050.025659
 Mol. C8AA /au·bohr⁸  :   20684523.303625
 Mol. α(0) /au        :       1439.494787

 
molecular dipole:
                 x           y           z       tot (Debye)
 q only:      -90.573    -144.730      34.625
   full:      -88.121    -144.267      36.343     439.512
molecular quadrupole (traceless):
                xx          xy          yy          xz          yz          zz
 q only:     2381.142  -19586.918  -15358.386    4620.886    8280.674   12977.244
  q+dip:     2826.119  -19054.365  -15348.292    4663.247    8549.984   12522.173
   full:     2827.237  -19051.673  -15346.289    4659.687    8550.391   12519.052
speedup  1.27
cpu  time for grad    9.93 s
wall time for grad    7.83 s

SCC energy    :    -491.7105385
rep           :       5.8304832
ES            :       1.7278133
AES           :      -0.0391235
AXC           :       0.1691519
disp          :      -0.4000329
XB            :       0.0000000
fix           :       0.0000000
Gborn         :       0.0000000
Gsasa         :       0.0000000
Ghb           :       0.0000000
Gshift        :       0.0000000
Gsolv         :      -0.4728329     -296.71
Etot ala COSMO:    -491.7105385
grad norm     :       0.5969497
total E       :    -485.8478816
atomizationE  :      88.3268042    55425.91
(atE without considering molecular charge,
 total energy contains solvation terms)
H-L gap (eV)  :          1.4672

------------------------------------------------------------------------
 * finished run on 2019/05/04 at 17:34:31.285     
------------------------------------------------------------------------
 total:
 * wall-time:     0 d,  0 h,  0 min,  8.489 sec
 *  cpu-time:     0 d,  0 h,  0 min, 10.575 sec
 * ratio c/w:     1.246 speedup
 SCF:
 * wall-time:     0 d,  0 h,  0 min,  8.220 sec
 *  cpu-time:     0 d,  0 h,  0 min, 10.362 sec
 * ratio c/w:     1.261 speedup

