      -----------------------------------------------------------      
     |                   =====================                   |     
     |                           x T B                           |     
     |                   =====================                   |     
     |                         S. Grimme                         |     
     |          Mulliken Center for Theoretical Chemistry        |     
     |                    University of Bonn                     |     
     |                 Version 6.0.1 (SAW181210)                 |     
      -----------------------------------------------------------      

   This program is distributed in the hope that it will be useful,
   but WITHOUT ANY WARRANTY; without even the implied warranty of
   MERCHANTABILITY or FITNESS FOR A PARTICULAR PURPOSE.
   
   FOR NON-COMMERCIAL, ACADEMIA USE ONLY.
   
   Cite this work as:
   S. Grimme, C. Bannwarth, P. Shushkov, J. Comput. Theory Chem., 2017,
   13, 1989-2009.
   C. Bannwarth, S. Ehlert and S. Grimme., ChemRxiv, 2018, preprint.
   http://doi.org/10.26434/chemrxiv.7246238.v1
   
   for sTDA-xTB:
   S. Grimme and C. Bannwarth, J. Chem. Phys., 2016, 145, 054103.
   
   in the mass-spec context:
   V. Asgeirsson, C. Bauer and S. Grimme, Chem. Sci., 2017, 8, 4879.
   
   if GBSA is used:
   P. Shushkov, F. März and S. Grimme, unpublished.
   
   for ANC optimizer:
   S. Grimme, unpublished.
   Rational Function algorithm used in ANCopt:
   F. Eckert, P. Pulay, H.-J. Werner, J. Comput. Chem., 1997, 18, 1473.
   
   with help from (in alphabetical order)
   C. Bannwarth, F. Bohle, G. Brandenburg, E. Caldeweyher, M. Checinski,
   S. Dohm, S. Ehlert, S. Ehrlich, F. März, H. Neugebauer, J. Pisarek,
   P. Pracht, P. Shushkov, and S. Spicher.
   
 * started run on 2019/05/10 at 10:20:20.822     
========================================================================
 # omp threads = 2
========================================================================
number of atoms            : 441
number of electrons        : 1186
charge                     : -1
spin                       : .0
first test random number   : .2884

########################################################################
# WARNING! Please study the warnings concerning your input carefully
#  - Process number higher than OMP_NUM_THREADS, I hope you know what you are doing.
########################################################################

           ------------------------------------------------- 
          |                 G F N 2 - x T B                 |
          | Geometry, Frequencies, Noncovalent interactions |
          |            JCTC 2018 parametrisation            |
           ------------------------------------------------- 
 
      method parameters     
 k(s)        :  1.8500
 k(p)        :  2.2300
 k(d)        :  2.2300
 k(f)        :  2.0000
 kEN (H0ij)  : -2.0000
 D4 a1       :  0.5200
 D4 a2       :  5.0000
 D4 s6       :  1.0000
 D4 s8       :  2.7000
 D4 s9       :  5.0000
 alphaj      :  2.0000

 Solvent             : h2o
 Using internal parameter file: .param_gbsa2_h2o
 Gsolv ref. state (COSMO-RS): gsolv [1 M gas/solution]
 temperature (mdtemp)       :    298.150000000000     
 dielectric constant        :    80.2000000000000     
 rho                        :    1.00000000000000     
 mass                       :    18.0000000000000     
 surface tension            :    15.5689454083859     
 probe radius               :   0.975313790000000     
 vdW radii scaling          :    1.00000000000000     
 Gshift (Eh)                :   1.857443126794793E-003
 c1                         :    1.55243817000000     
 soset                      :   0.130326360000000     
 HB correction              :  T

            Z     q(EN)     CN     RAES       Cart. coordinates
     1  N   5.0   -0.20    3.22    1.96   116.86278    23.67188    35.51940
     2  C   4.0    0.03    4.33    4.25   116.09449    21.10397    36.05711
     3  C   4.0    0.14    3.42    3.08   117.60524    20.07445    38.28201
     4  O   6.0   -0.30    1.23    1.80   119.67242    20.90107    38.86817
     5  C   4.0   -0.03    4.26    4.13   116.53585    19.34676    33.78174
     6  C   4.0    0.25    3.09    3.02   114.17743    19.41727    31.98425
     7  O   6.0   -0.29    1.17    1.80   112.22034    18.46754    32.88499
     8  O   6.0   -0.28    1.15    1.80   114.49337    20.36165    29.85573
     9  H   1.0    0.10    1.03    1.43   118.74212    23.99071    35.65178
    10  H   1.0    0.05    1.05    1.44   114.06379    21.10222    36.47643
    11  H   1.0    0.05    1.02    1.43   118.23039    19.89221    32.74429
    12  H   1.0    0.06    1.03    1.43   116.71602    17.38884    34.40402
    13  N   5.0   -0.14    3.51    2.08   116.48871    18.09317    39.42033
    14  C   4.0    0.04    4.40    4.38   117.48744    16.88885    41.67005
    15  C   4.0    0.15    3.43    3.09   116.37159    14.22327    41.70999
    16  O   6.0   -0.29    1.24    1.80   114.24998    13.76070    42.43052
    17  C   4.0   -0.02    4.30    4.20   116.87653    18.35598    44.12528
    18  C   4.0   -0.00    3.58    3.15   114.27562    19.49401    44.09102
    19  C   4.0   -0.02    3.47    3.10   112.25596    18.28157    45.24687
    20  C   4.0   -0.04    3.48    3.11   113.85442    21.77988    42.86434
    21  C   4.0   -0.04    3.37    3.07   109.85450    19.31117    45.13474
    22  C   4.0   -0.04    3.37    3.07   111.45357    22.80928    42.74985
    23  C   4.0   -0.04    3.37    3.07   109.44476    21.57164    43.87993
    24  H   1.0    0.09    1.07    1.44   114.66179    17.74354    39.00487
    25  H   1.0    0.05    1.06    1.44   119.54204    16.80928    41.44190
    26  H   1.0    0.06    1.04    1.43   117.04592    17.04017    45.70603
    27  H   1.0    0.05    1.03    1.43   118.27599    19.85684    44.31494
    28  H   1.0    0.07    1.03    1.43   112.58935    16.52127    46.22632
    29  H   1.0    0.06    1.03    1.43   115.41738    22.76664    41.99387
    30  H   1.0    0.05    1.03    1.43   108.29728    18.34303    46.03034
    31  H   1.0    0.05    1.03    1.43   111.15841    24.57696    41.77299
    32  H   1.0    0.04    1.03    1.43   107.57131    22.37716    43.79902
    33  N   5.0   -0.15    3.47    2.06   118.01466    12.42304    40.83883
    34  C   4.0    0.04    4.35    4.30   117.17321     9.80878    40.76262
    35  C   4.0    0.14    3.39    3.08   119.35544     7.93155    40.86383
    36  O   6.0   -0.31    1.23    1.80   118.97980     5.64615    40.81468
    37  C   4.0   -0.06    4.11    3.82   115.48341     9.30201    38.48013
    38  H   1.0    0.08    1.07    1.44   119.12135    12.98259    39.38081
    39  H   1.0    0.08    1.07    1.44   116.05846     9.53137    42.49619
    40  H   1.0    0.06    1.01    1.43   114.95448     7.32289    38.42181
    41  H   1.0    0.06    1.00    1.43   113.78371    10.44194    38.68066
    42  H   1.0    0.06    1.00    1.43   116.43671     9.81515    36.72783
    43  N   5.0   -0.15    3.52    2.09   121.66704     8.94401    41.01737
    44  C   4.0    0.03    4.37    4.33   124.04073     7.56359    41.16232
    45  C   4.0    0.15    3.40    3.08   124.68981     7.01245    43.95249
    46  O   6.0   -0.31    1.24    1.80   126.70336     7.55441    44.91354
    47  C   4.0   -0.04    4.26    4.11   126.10237     9.09383    39.81301
    48  C   4.0   -0.04    4.21    4.02   126.70944    11.60633    41.11895
    49  C   4.0   -0.06    4.16    3.92   128.34596    13.32444    39.46996
    50  C   4.0   -0.04    4.13    3.86   129.00137    15.72009    40.93565
    51  N   5.0   -0.12    4.01    2.88   130.45042    17.53385    39.34303
    52  H   1.0    0.07    1.10    1.44   121.79097    10.83079    41.27337
    53  H   1.0    0.05    1.05    1.44   123.73797     5.75626    40.19577
    54  H   1.0    0.04    1.03    1.43   127.80242     7.93434    39.74496
    55  H   1.0    0.04    1.03    1.43   125.46358     9.43650    37.88133
    56  H   1.0    0.04    1.03    1.43   124.96995    12.61946    41.58142
    57  H   1.0    0.06    1.04    1.43   127.67374    11.19886    42.89033
    58  H   1.0    0.03    1.03    1.43   130.06164    12.31366    38.94560
    59  H   1.0    0.04    1.03    1.43   127.29626    13.78741    37.75684
    60  H   1.0    0.04    1.02    1.43   127.27066    16.63725    41.58050
    61  H   1.0    0.03    1.02    1.43   130.13195    15.22225    42.58490
    62  H   1.0    0.05    1.02    1.43   130.84719    19.15356    40.34975
    63  H   1.0    0.05    1.02    1.43   132.12530    16.73061    38.74817
    64  H   1.0    0.05    1.02    1.43   129.40529    18.02496    37.77269
    65  N   5.0   -0.14    3.50    2.08   122.81271     5.84398    45.23841
    66  C   4.0    0.03    4.41    4.39   122.62033     6.11070    47.95685
    67  C   4.0    0.14    3.42    3.08   122.46492     3.63906    49.44088
    68  O   6.0   -0.30    1.23    1.80   122.55085     3.64333    51.74823
    69  C   4.0   -0.04    4.31    4.22   120.19040     7.56675    48.62082
    70  C   4.0   -0.03    4.16    3.92   120.04332    10.24970    47.60727
    71  C   4.0    0.25    3.10    3.02   117.20416    11.12064    47.47909
    72  O   6.0   -0.30    1.19    1.80   115.65070     9.51269    46.73605
    73  O   6.0   -0.30    1.16    1.80   116.76587    13.34499    48.10936
    74  H   1.0    0.09    1.10    1.44   121.15433     5.56310    44.32263
    75  H   1.0    0.06    1.06    1.44   124.28645     7.13459    48.62948
    76  H   1.0    0.06    1.04    1.43   118.58060     6.54566    47.80957
    77  H   1.0    0.06    1.03    1.43   119.98449     7.57617    50.67232
    78  H   1.0    0.05    1.02    1.43   121.08709    11.60388    48.75340
    79  H   1.0    0.05    1.03    1.43   120.76293    10.32728    45.67406
    80  N   5.0   -0.13    3.47    2.06   122.04244     1.56559    48.05579
    81  C   4.0    0.04    4.32    4.23   121.24728    -0.80095    49.14380
    82  C   4.0    0.08    3.22    3.04   123.21311    -2.91291    48.90216
    83  O   6.0   -0.28    1.12    1.80   124.62303    -3.14354    47.10147
    84  C   4.0   -0.04    4.30    4.20   118.87438    -1.84520    47.83746
    85  C   4.0   -0.02    3.66    3.21   116.47574    -0.48922    48.47215
    86  C   4.0   -0.01    3.62    3.18   116.14436     1.80599    49.60320
    87  C   4.0    0.00    3.91    3.47   113.99850    -1.45992    47.98886
    88  N   5.0   -0.12    3.49    2.07   113.62434     2.32634    49.84815
    89  C   4.0    0.03    3.89    3.45   112.25951     0.37325    48.86885
    90  C   4.0   -0.04    3.41    3.08   113.09808    -3.70243    46.93607
    91  C   4.0   -0.05    3.40    3.08   109.66234     0.00394    48.70203
    92  C   4.0   -0.04    3.38    3.07   110.52896    -4.06008    46.78552
    93  C   4.0   -0.05    3.38    3.07   108.83219    -2.22883    47.64954
    94  H   1.0    0.09    1.08    1.44   122.25101     1.70248    46.16503
    95  H   1.0    0.05    1.06    1.44   120.87021    -0.43005    51.14164
    96  H   1.0    0.05    1.03    1.43   119.20180    -1.83715    45.79381
    97  H   1.0    0.04    1.04    1.43   118.69859    -3.83172    48.37396
    98  H   1.0    0.06    1.02    1.43   117.51193     3.12843    50.30499
    99  H   1.0    0.08    1.05    1.44   112.91757     3.95243    50.53069
   100  H   1.0    0.05    1.03    1.43   114.40042    -5.12284    46.27862
   101  H   1.0    0.05    1.02    1.43   108.34704     1.41402    49.37497
   102  H   1.0    0.05    1.03    1.43   109.79157    -5.78610    45.99614
   103  H   1.0    0.04    1.03    1.43   106.82755    -2.57317    47.50056
   104  N   5.0   -0.20    3.19    1.95   115.83016    -6.73011    41.11585
   105  C   4.0    0.03    4.31    4.23   116.31992    -4.06565    40.77035
   106  C   4.0    0.14    3.40    3.08   114.04615    -2.27206    40.90823
   107  O   6.0   -0.31    1.23    1.80   112.05464    -2.62479    39.81060
   108  C   4.0   -0.03    4.34    4.28   117.57579    -3.56685    38.17763
   109  C   4.0   -0.02    3.55    3.14   120.21876    -4.58824    38.02405
   110  C   4.0   -0.04    3.46    3.10   120.72531    -6.94148    36.97947
   111  C   4.0   -0.04    3.47    3.10   122.22292    -3.11580    38.86363
   112  C   4.0   -0.03    3.44    3.09   123.18478    -7.76225    36.68734
   113  C   4.0   -0.04    3.43    3.09   124.68918    -3.91546    38.57497
   114  C   4.0    0.07    3.45    3.10   125.18805    -6.22857    37.43286
   115  O   6.0   -0.25    2.11    1.84   127.57874    -7.05835    37.01622
   116  H   1.0    0.11    1.04    1.43   114.83614    -7.69841    39.79149
   117  H   1.0    0.04    1.06    1.44   117.66055    -3.56388    42.26561
   118  H   1.0    0.05    1.03    1.43   116.39744    -4.38009    36.69706
   119  H   1.0    0.04    1.04    1.43   117.65179    -1.52778    37.87516
   120  H   1.0    0.06    1.03    1.43   119.18351    -8.11327    36.34099
   121  H   1.0    0.05    1.03    1.43   121.86371    -1.29268    39.71369
   122  H   1.0    0.06    1.03    1.43   123.59290    -9.55344    35.81145
   123  H   1.0    0.05    1.03    1.43   126.21746    -2.71640    39.20818
   124  H   1.0    0.12    1.04    1.43   128.77552    -5.76095    37.48045
   125  N   5.0   -0.15    3.41    2.02   114.63692    -0.06920    42.07366
   126  C   4.0    0.02    4.23    4.07   112.98751     2.09965    42.16233
   127  C   4.0    0.15    3.39    3.07   112.41118     3.18835    39.56434
   128  O   6.0   -0.33    1.37    1.80   110.60397     4.61228    39.24865
   129  H   1.0    0.08    1.07    1.44   116.23867     0.04394    43.09187
   130  H   1.0    0.05    1.02    1.43   111.16376     1.61608    43.01965
   131  H   1.0    0.05    1.03    1.43   113.85131     3.57450    43.31810
   132  N   5.0   -0.14    3.53    2.10   113.84546     2.39822    37.65341
   133  C   4.0    0.03    4.38    4.35   113.27605     2.92135    35.01485
   134  C   4.0    0.16    3.51    3.12   110.43015     2.62233    34.58146
   135  O   6.0   -0.32    1.31    1.80   109.25517     4.04648    33.17232
   136  C   4.0   -0.05    4.34    4.28   114.84832     1.13950    33.34693
   137  C   4.0   -0.02    4.17    3.93   115.44877     2.15260    30.69664
   138  C   4.0   -0.07    4.10    3.81   117.61795     0.59708    29.58452
   139  C   4.0   -0.07    4.10    3.80   113.14813     2.08056    28.96045
   140  H   1.0    0.08    1.09    1.44   115.45935     1.46042    38.05420
   141  H   1.0    0.05    1.05    1.44   113.75255     4.89266    34.56263
   142  H   1.0    0.04    1.04    1.43   116.65623     0.85872    34.30108
   143  H   1.0    0.05    1.03    1.43   113.91118    -0.69327    33.20598
   144  H   1.0    0.04    1.05    1.44   116.08401     4.11618    30.88759
   145  H   1.0    0.04    1.00    1.43   118.04748     1.23233    27.68149
   146  H   1.0    0.04    1.00    1.43   119.31435     0.81221    30.72391
   147  H   1.0    0.06    1.00    1.43   117.13713    -1.39959    29.53512
   148  H   1.0    0.04    1.00    1.43   113.68949     2.66245    27.06851
   149  H   1.0    0.05    1.00    1.43   112.36833     0.18141    28.91650
   150  H   1.0    0.06    1.01    1.43   111.69987     3.37224    29.62980
   151  N   5.0   -0.14    3.51    2.08   109.29968     0.69718    35.75295
   152  C   4.0    0.04    4.45    4.47   106.57837     0.39037    35.53455
   153  C   4.0    0.17    3.54    3.13   105.20599     2.85996    36.16912
   154  O   6.0   -0.32    1.31    1.80   103.70554     3.84477    34.69890
   155  C   4.0   -0.04    4.33    4.26   105.67521    -1.75506    37.25120
   156  C   4.0   -0.02    3.58    3.15   102.83217    -1.85048    37.39680
   157  C   4.0   -0.03    3.48    3.11   101.36916    -1.99155    35.22027
   158  C   4.0   -0.05    3.46    3.10   101.62714    -1.78084    39.72710
   159  C   4.0   -0.04    3.38    3.07    98.75909    -2.03568    35.37267
   160  C   4.0   -0.05    3.37    3.07    99.01708    -1.86043    39.88446
   161  C   4.0   -0.05    3.37    3.07    97.57454    -1.98099    37.70541
   162  H   1.0    0.10    1.08    1.44   110.24840    -0.47222    36.94514
   163  H   1.0    0.06    1.06    1.44   106.12470    -0.05113    33.56274
   164  H   1.0    0.05    1.03    1.43   106.42586    -3.52231    36.49143
   165  H   1.0    0.05    1.03    1.43   106.45854    -1.49731    39.14032
   166  H   1.0    0.06    1.03    1.43   102.25953    -2.06016    33.38823
   167  H   1.0    0.04    1.03    1.43   102.74101    -1.67675    41.43328
   168  H   1.0    0.05    1.03    1.43    97.65766    -2.10743    33.65713
   169  H   1.0    0.04    1.03    1.43    98.11521    -1.81824    41.71380
   170  H   1.0    0.04    1.03    1.43    95.53970    -2.03894    37.83027
   171  N   5.0   -0.14    3.50    2.08   105.61207     3.77669    38.49226
   172  C   4.0    0.04    4.52    4.56   104.37926     6.11108    39.21861
   173  C   4.0    0.16    3.54    3.13   105.11342     8.26802    37.45469
   174  O   6.0   -0.33    1.34    1.80   103.53340     9.84143    36.80880
   175  C   4.0   -0.03    4.31    4.21   104.77144     6.81059    42.02004
   176  C   4.0   -0.05    4.18    3.97   102.45463     8.24179    43.02566
   177  C   4.0   -0.07    4.13    3.87   107.16220     8.37350    42.44399
   178  C   4.0   -0.08    4.01    3.63   100.21342     6.51884    43.58095
   179  H   1.0    0.10    1.09    1.44   107.18133     3.26384    39.45503
   180  H   1.0    0.05    1.07    1.44   102.35314     5.80699    38.89749
   181  H   1.0    0.04    1.06    1.44   104.94382     5.03759    43.07044
   182  H   1.0    0.04    1.03    1.43   103.00013     9.20224    44.76677
   183  H   1.0    0.04    1.03    1.43   101.92308     9.70138    41.66556
   184  H   1.0    0.04    1.00    1.43   107.46947     8.68251    44.45173
   185  H   1.0    0.07    1.01    1.43   108.82165     7.43304    41.69137
   186  H   1.0    0.05    1.00    1.43   107.00445    10.22018    41.54732
   187  H   1.0    0.03    1.00    1.43    98.64091     7.63556    44.28298
   188  H   1.0    0.04    1.00    1.43    99.60009     5.52298    41.89306
   189  H   1.0    0.04    1.00    1.43   100.72237     5.13618    45.01202
   190  N   5.0   -0.13    3.51    2.09   107.47952     8.29266    36.56525
   191  C   4.0    0.04    4.46    4.48   108.20851    10.28352    34.83132
   192  C   4.0    0.17    3.60    3.16   106.25046    10.41374    32.71624
   193  O   6.0   -0.31    1.31    1.80   105.25385    12.40004    32.07099
   194  C   4.0   -0.04    4.30    4.19   110.77893     9.82861    33.61903
   195  C   4.0   -0.02    4.26    4.12   111.36682    11.89543    31.68641
   196  C   4.0    0.16    3.22    3.04   114.02957    11.66882    30.66552
   197  O   6.0   -0.30    1.20    1.80   115.86854    11.33486    32.02734
   198  N   5.0   -0.18    3.18    1.95   114.20077    11.73146    28.13365
   199  H   1.0    0.11    1.09    1.44   108.81406     7.12476    37.29232
   200  H   1.0    0.05    1.05    1.44   108.19510    12.12951    35.79051
   201  H   1.0    0.05    1.04    1.43   112.24401     9.83613    35.06178
   202  H   1.0    0.06    1.04    1.43   110.76086     7.98430    32.69658
   203  H   1.0    0.07    1.04    1.43   110.01352    11.89990    30.13001
   204  H   1.0    0.07    1.03    1.43   111.23596    13.76266    32.57835
   205  H   1.0    0.10    1.03    1.43   112.68342    12.27764    27.12118
   206  H   1.0    0.10    1.03    1.43   115.92181    11.88216    27.32569
   207  N   5.0   -0.13    3.55    2.12   105.74804     8.18285    31.64088
   208  C   4.0    0.04    4.40    4.38   104.22752     8.08330    29.36805
   209  C   4.0    0.16    3.44    3.09   101.53307     8.98978    29.87794
   210  O   6.0   -0.33    1.27    1.80   100.23263     9.88347    28.17554
   211  C   4.0    0.03    4.14    3.88   104.27447     5.41981    28.22675
   212  O   6.0   -0.26    2.05    1.83   102.85249     3.60111    29.50658
   213  H   1.0    0.11    1.09    1.44   106.76884     6.64496    32.16333
   214  H   1.0    0.07    1.06    1.44   105.04377     9.40968    27.98570
   215  H   1.0    0.04    1.02    1.43   103.49180     5.54132    26.31843
   216  H   1.0    0.04    1.01    1.43   106.27845     4.87289    28.10872
   217  H   1.0    0.15    1.06    1.44   103.16490     3.68454    31.32610
   218  N   5.0   -0.13    3.54    2.11   100.68671     8.62430    32.21896
   219  C   4.0    0.03    4.50    4.54    98.24982     9.54089    33.06200
   220  C   4.0    0.15    3.49    3.11    98.28423    12.43106    33.19867
   221  O   6.0   -0.30    1.27    1.80    96.55207    13.71353    32.34212
   222  C   4.0   -0.02    4.26    4.12    97.52711     8.34871    35.61049
   223  C   4.0   -0.08    4.12    3.84    94.96556     9.35221    36.48382
   224  C   4.0   -0.07    4.12    3.84    97.45372     5.47148    35.37051
   225  H   1.0    0.11    1.10    1.44   101.86641     7.90283    33.53615
   226  H   1.0    0.05    1.06    1.44    96.85103     9.02607    31.62013
   227  H   1.0    0.05    1.05    1.44    98.97595     8.90064    36.97964
   228  H   1.0    0.03    1.00    1.43    94.48489     8.54396    38.30729
   229  H   1.0    0.05    1.00    1.43    95.00118    11.39843    36.65817
   230  H   1.0    0.04    1.00    1.43    93.50670     8.84508    35.12892
   231  H   1.0    0.04    1.00    1.43    96.83674     4.63329    37.14025
   232  H   1.0    0.04    1.00    1.43    96.13780     4.91791    33.89287
   233  H   1.0    0.06    1.00    1.43    99.29683     4.70194    34.89297
   234  N   5.0   -0.14    3.53    2.10   100.27203    13.45978    34.35911
   235  C   4.0    0.04    4.52    4.57   100.63109    16.17430    34.31362
   236  C   4.0    0.16    3.52    3.13   100.50064    17.10731    31.57832
   237  O   6.0   -0.28    1.24    1.80    99.24281    18.96794    30.98751
   238  C   4.0   -0.02    4.33    4.25   103.11789    16.93500    35.60602
   239  C   4.0   -0.05    4.19    3.98   103.07427    16.12879    38.39203
   240  C   4.0   -0.07    4.13    3.86   103.54186    19.77478    35.32329
   241  C   4.0   -0.07    4.01    3.64   105.63669    16.39849    39.68136
   242  H   1.0    0.11    1.10    1.44   101.74078    12.36556    34.91166
   243  H   1.0    0.05    1.05    1.44    99.03743    17.07225    35.30130
   244  H   1.0    0.07    1.06    1.44   104.65567    15.94681    34.63283
   245  H   1.0    0.04    1.03    1.43   101.67439    17.25990    39.39762
   246  H   1.0    0.05    1.03    1.43   102.50235    14.15116    38.49016
   247  H   1.0    0.05    1.00    1.43   105.33812    20.31470    36.15605
   248  H   1.0    0.06    1.00    1.43   103.61406    20.29831    33.33410
   249  H   1.0    0.04    1.00    1.43   102.03028    20.83599    36.22520
   250  H   1.0    0.04    1.00    1.43   105.56612    15.58627    41.56495
   251  H   1.0    0.05    1.00    1.43   107.09222    15.42619    38.59867
   252  H   1.0    0.04    1.00    1.43   106.20407    18.36423    39.84627
   253  N   5.0   -0.13    3.54    2.11   101.72537    15.69102    29.88965
   254  C   4.0    0.05    4.44    4.45   101.75022    16.39301    27.24571
   255  C   4.0    0.16    3.48    3.11    99.03086    16.50371    26.28084
   256  O   6.0   -0.27    1.24    1.80    98.22220    18.30190    25.05504
   257  C   4.0   -0.03    4.27    4.13   103.29465    14.53675    25.69082
   258  C   4.0    0.26    3.10    3.02   106.18336    14.71795    26.34674
   259  O   6.0   -0.27    1.17    1.80   107.09844    16.87308    26.50426
   260  O   6.0   -0.30    1.17    1.80   107.32261    12.66568    26.59045
   261  H   1.0    0.12    1.12    1.45   103.01331    14.40589    30.48377
   262  H   1.0    0.07    1.05    1.44   102.60356    18.27915    27.02014
   263  H   1.0    0.07    1.03    1.43   102.65133    12.60445    25.98943
   264  H   1.0    0.05    1.03    1.43   103.09484    15.01475    23.69105
   265  N   5.0   -0.13    3.50    2.08    97.61401    14.50726    26.85677
   266  C   4.0    0.05    4.32    4.23    94.97537    14.31903    26.13057
   267  C   4.0    0.11    3.27    3.05    93.55226    16.71445    26.90710
   268  O   6.0   -0.28    1.11    1.80    92.09498    17.80262    25.46659
   269  C   4.0   -0.04    4.33    4.26    93.86525    11.96353    27.40620
   270  C   4.0   -0.01    3.56    3.14    91.12076    11.54189    26.81705
   271  C   4.0   -0.04    3.46    3.10    90.40303     9.87891    24.91929
   272  C   4.0   -0.03    3.47    3.10    89.25634    12.76750    28.20213
   273  C   4.0   -0.04    3.37    3.07    87.87264     9.46198    24.40037
   274  C   4.0   -0.04    3.37    3.07    86.72695    12.34075    27.69750
   275  C   4.0   -0.04    3.37    3.07    86.02713    10.68516    25.79487
   276  H   1.0    0.11    1.10    1.44    98.43238    12.96480    27.65047
   277  H   1.0    0.06    1.05    1.44    94.82664    14.16913    24.06197
   278  H   1.0    0.04    1.03    1.43    94.99727    10.35594    26.77551
   279  H   1.0    0.06    1.05    1.44    94.12699    12.19492    29.43837
   280  H   1.0    0.04    1.03    1.43    91.84770     8.89112    23.86622
   281  H   1.0    0.05    1.03    1.43    89.80713    14.03818    29.70127
   282  H   1.0    0.04    1.03    1.43    87.35911     8.18064    22.90040
   283  H   1.0    0.05    1.03    1.43    85.30819    13.29386    28.80911
   284  H   1.0    0.04    1.03    1.43    84.05455    10.33659    25.41429
   285  N   5.0   -0.22    3.20    1.96    97.02336     0.35662    18.19371
   286  C   4.0    0.03    4.31    4.22    99.55547     0.40419    19.23259
   287  C   4.0    0.14    3.50    3.11    99.54943    -0.01634    22.08562
   288  O   6.0   -0.33    1.40    1.80   101.23761    -1.31527    23.03088
   289  C   4.0   -0.05    4.23    4.06   101.02904     2.81152    18.58994
   290  C   4.0   -0.05    4.19    3.97   103.62419     2.92777    19.89492
   291  C   4.0   -0.05    4.17    3.93   105.37629     0.69729    19.28740
   292  C   4.0   -0.04    4.10    3.81   107.92235     0.93214    20.62962
   293  N   5.0   -0.12    3.96    2.76   109.58419    -1.27034    20.08417
   294  H   1.0    0.07    1.02    1.43    96.29046     1.92344    17.37209
   295  H   1.0    0.04    1.06    1.44   100.55252    -1.23225    18.43357
   296  H   1.0    0.03    1.02    1.43   101.25405     2.89828    16.54313
   297  H   1.0    0.04    1.03    1.43    99.90714     4.43391    19.19378
   298  H   1.0    0.04    1.03    1.43   104.54027     4.68377    19.32502
   299  H   1.0    0.05    1.03    1.43   103.33168     2.99980    21.93470
   300  H   1.0    0.05    1.03    1.43   104.49133    -1.04807    19.91637
   301  H   1.0    0.03    1.02    1.43   105.67065     0.60363    17.24940
   302  H   1.0    0.04    1.02    1.43   108.86462     2.65618    20.00159
   303  H   1.0    0.04    1.02    1.43   107.63706     1.03593    22.66721
   304  H   1.0    0.05    1.02    1.43   111.44391    -0.74124    20.12536
   305  H   1.0    0.05    0.95    1.42   109.47820    -2.89934    21.40710
   306  H   1.0    0.05    1.03    1.43   109.18439    -2.02065    18.34267
   307  N   5.0   -0.15    3.45    2.05    97.80923     1.10381    23.50036
   308  C   4.0    0.04    4.43    4.43    97.98547     0.71651    26.21535
   309  C   4.0    0.09    3.29    3.05    97.83122    -2.11677    26.79358
   310  O   6.0   -0.32    1.15    1.80    99.10179    -3.07351    28.48320
   311  C   4.0   -0.03    4.30    4.20    96.12377     2.27622    27.82168
   312  C   4.0   -0.05    4.18    3.97    93.45680     1.15488    27.89886
   313  C   4.0   -0.07    4.13    3.86    96.13781     5.02455    26.95011
   314  C   4.0   -0.08    4.02    3.65    91.63391     2.66636    29.54357
   315  H   1.0    0.07    1.06    1.44    96.45549     2.20927    22.72483
   316  H   1.0    0.06    1.06    1.44    99.89823     1.29199    26.79442
   317  H   1.0    0.04    1.06    1.44    96.89534     2.21648    29.74375
   318  H   1.0    0.04    1.03    1.43    92.71030     1.01255    25.98710
   319  H   1.0    0.04    1.03    1.43    93.57351    -0.75965    28.66074
   320  H   1.0    0.04    1.00    1.43    95.05056     6.16571    28.26187
   321  H   1.0    0.06    1.00    1.43    98.05975     5.74634    26.90414
   322  H   1.0    0.04    1.00    1.43    95.32108     5.23310    25.07611
   323  H   1.0    0.04    1.00    1.43    89.88464     1.61163    29.74542
   324  H   1.0    0.04    1.00    1.43    92.43009     2.97172    31.41379
   325  H   1.0    0.04    1.00    1.43    91.19496     4.49017    28.70724
   326  N   5.0   -0.21    3.26    1.97   103.83743    -5.18665    25.03005
   327  C   4.0    0.04    4.31    4.22   105.68892    -4.47570    26.90926
   328  C   4.0    0.16    3.45    3.09   105.52315    -6.22234    29.19736
   329  O   6.0   -0.32    1.30    1.80   107.40969    -7.21154    30.13304
   330  C   4.0    0.04    4.17    3.93   105.27714    -1.72907    27.71925
   331  O   6.0   -0.26    2.07    1.83   107.26904    -1.06779    29.35830
   332  H   1.0    0.13    1.11    1.44   102.67479    -3.80268    24.38758
   333  H   1.0    0.04    1.05    1.44   107.59485    -4.65357    26.09952
   334  H   1.0    0.05    1.01    1.43   105.27421    -0.53769    26.02659
   335  H   1.0    0.06    1.01    1.43   103.43583    -1.53082    28.65292
   336  H   1.0    0.13    1.02    1.43   107.19928     0.72842    29.67500
   337  N   5.0   -0.15    3.49    2.07   103.21012    -6.54612    30.10558
   338  C   4.0    0.03    4.32    4.24   102.69797    -8.21952    32.21268
   339  C   4.0    0.09    3.27    3.05   103.91287   -10.79528    31.76131
   340  O   6.0   -0.31    1.14    1.80   105.11736   -11.87365    33.43416
   341  C   4.0   -0.05    4.36    4.31    99.82554    -8.41669    32.51614
   342  C   4.0   -0.02    4.18    3.95    98.90996   -10.21571    34.59038
   343  C   4.0   -0.08    4.10    3.81    99.92781    -9.47363    37.18480
   344  C   4.0   -0.08    4.11    3.81    96.02242   -10.22404    34.61161
   345  H   1.0    0.10    1.10    1.44   101.71199    -5.63330    29.32624
   346  H   1.0    0.05    1.05    1.44   103.56443    -7.44093    33.92989
   347  H   1.0    0.05    1.03    1.43    99.12489    -6.51535    32.90224
   348  H   1.0    0.04    1.03    1.43    99.04909    -9.03319    30.70765
   349  H   1.0    0.04    1.05    1.44    99.56495   -12.12132    34.12887
   350  H   1.0    0.04    1.00    1.43    99.07311   -10.63481    38.64762
   351  H   1.0    0.04    1.00    1.43   101.96111    -9.73755    37.26682
   352  H   1.0    0.04    1.00    1.43    99.49853    -7.50326    37.58320
   353  H   1.0    0.03    1.00    1.43    95.30046   -11.57643    35.97936
   354  H   1.0    0.04    1.00    1.43    95.32413    -8.35764    35.11267
   355  H   1.0    0.04    1.00    1.43    95.27328   -10.72122    32.76315
   356  N   5.0   -0.20    3.27    1.97   111.51013   -10.79776    30.91530
   357  C   4.0    0.04    4.34    4.28   113.07088    -9.84637    32.93911
   358  C   4.0    0.15    3.39    3.08   112.41314   -10.88161    35.55763
   359  O   6.0   -0.32    1.25    1.80   113.85766   -10.52188    37.33251
   360  C   4.0   -0.03    4.33    4.25   112.91597    -6.95114    32.98647
   361  C   4.0    0.15    3.25    3.04   114.02022    -5.92661    30.53217
   362  O   6.0   -0.31    1.20    1.80   116.25860    -6.15312    30.01610
   363  N   5.0   -0.19    3.19    1.95   112.34942    -4.75409    29.03729
   364  H   1.0    0.12    1.06    1.44   109.93114    -9.77985    30.52793
   365  H   1.0    0.06    1.05    1.44   115.02752   -10.41063    32.52394
   366  H   1.0    0.06    1.03    1.43   110.95471    -6.37064    33.21596
   367  H   1.0    0.05    1.03    1.43   114.05002    -6.26128    34.55945
   368  H   1.0    0.09    1.03    1.43   112.85827    -4.22740    27.27677
   369  H   1.0    0.11    1.05    1.44   110.48382    -4.81006    29.44109
   370  N   5.0   -0.14    3.47    2.06   110.25405   -12.16890    35.74910
   371  C   4.0    0.04    4.41    4.39   109.40950   -13.23795    38.12525
   372  C   4.0    0.08    3.23    3.04   108.59308   -15.98999    37.78050
   373  O   6.0   -0.29    1.12    1.80   109.65810   -17.69878    38.91559
   374  C   4.0   -0.02    4.31    4.22   107.30239   -11.64009    39.36469
   375  C   4.0   -0.04    4.19    3.99   108.34380    -9.00943    39.99398
   376  C   4.0   -0.08    4.14    3.88   106.31890   -12.98381    41.71994
   377  C   4.0   -0.08    4.02    3.65   106.41723    -7.25213    41.21488
   378  H   1.0    0.11    1.09    1.44   109.01513   -12.17039    34.29181
   379  H   1.0    0.07    1.07    1.44   111.06396   -13.25935    39.37225
   380  H   1.0    0.05    1.05    1.44   105.76980   -11.43259    37.99326
   381  H   1.0    0.05    1.03    1.43   109.96059    -9.20246    41.25929
   382  H   1.0    0.06    1.03    1.43   109.02385    -8.13353    38.25360
   383  H   1.0    0.03    1.00    1.43   104.68636   -11.99718    42.47186
   384  H   1.0    0.05    1.01    1.43   105.74693   -14.90554    41.28195
   385  H   1.0    0.04    1.00    1.43   107.77978   -13.05460    43.16156
   386  H   1.0    0.05    1.00    1.43   107.28168    -5.41155    41.49838
   387  H   1.0    0.04    1.00    1.43   104.75799    -7.02458    40.02479
   388  H   1.0    0.03    1.00    1.43   105.81347    -7.96462    43.04130
   389  N   5.0   -0.20    3.25    1.97   138.21994    16.15873    46.17114
   390  C   4.0    0.03    4.29    4.18   138.78813    13.61147    45.33717
   391  C   4.0    0.07    3.23    3.04   141.29313    13.71085    43.90654
   392  O   6.0   -0.30    1.15    1.80   141.87296    15.60121    42.70878
   393  C   4.0   -0.03    4.32    4.24   136.57223    12.54797    43.74483
   394  C   4.0   -0.06    4.17    3.94   136.78693     9.68360    43.38368
   395  C   4.0   -0.07    4.12    3.84   136.32019    13.91157    41.21231
   396  C   4.0   -0.08    4.01    3.65   134.20943     8.46354    42.95463
   397  H   1.0    0.10    1.04    1.43   138.78273    17.55227    44.98529
   398  H   1.0    0.03    1.05    1.44   138.98772    12.43995    47.02911
   399  H   1.0    0.04    1.06    1.44   134.87717    12.87901    44.88540
   400  H   1.0    0.04    1.02    1.43   138.02733     9.23430    41.79570
   401  H   1.0    0.04    1.03    1.43   137.61787     8.80062    45.05619
   402  H   1.0    0.03    1.00    1.43   134.75723    13.07565    40.18069
   403  H   1.0    0.04    1.00    1.43   136.01825    15.91501    41.52042
   404  H   1.0    0.05    1.00    1.43   138.02166    13.65785    40.08899
   405  H   1.0    0.04    1.00    1.43   134.42541     6.41942    42.95104
   406  H   1.0    0.05    1.00    1.43   132.90111     8.93935    44.46778
   407  H   1.0    0.04    1.00    1.43   133.39445     9.03383    41.16063
   408  N   5.0   -0.22    3.20    1.96    87.76752   -13.16007    37.64470
   409  C   4.0    0.03    4.22    4.05    87.64623   -10.42221    37.65302
   410  C   4.0    0.08    3.23    3.04    84.99927    -9.54121    38.43686
   411  O   6.0   -0.29    1.11    1.80    84.67570    -7.99896    40.13694
   412  C   4.0   -0.04    4.32    4.24    88.30343    -9.41226    35.01498
   413  C   4.0   -0.01    3.57    3.15    87.96145    -6.59573    34.86713
   414  C   4.0   -0.04    3.46    3.10    89.88360    -4.97037    35.61060
   415  C   4.0   -0.04    3.47    3.10    85.69941    -5.56279    34.02585
   416  C   4.0   -0.04    3.37    3.07    89.55639    -2.37835    35.51223
   417  C   4.0   -0.04    3.37    3.07    85.35831    -2.97135    33.94756
   418  C   4.0   -0.04    3.37    3.07    87.28910    -1.36875    34.68656
   419  H   1.0    0.07    1.03    1.43    88.48212   -14.00298    36.07650
   420  H   1.0    0.05    1.05    1.44    88.96733    -9.65288    39.06099
   421  H   1.0    0.03    1.03    1.43    90.25523    -9.93326    34.59846
   422  H   1.0    0.04    1.03    1.43    87.07130   -10.34976    33.65559
   423  H   1.0    0.04    1.03    1.43    91.65660    -5.74128    36.26751
   424  H   1.0    0.04    1.03    1.43    84.18948    -6.79921    33.42831
   425  H   1.0    0.04    1.03    1.43    91.07489    -1.13875    36.08261
   426  H   1.0    0.04    1.03    1.43    83.57699    -2.20180    33.31445
   427  H   1.0    0.04    1.03    1.43    87.03471     0.65545    34.62483
   428  H   1.0    0.10    1.08    1.44   116.40764    24.08013    33.93235
   429  H   1.0    0.05    1.05    1.44   123.38924    -4.20122    50.27340
   430  H   1.0    0.10    1.08    1.44   117.30556    -7.56976    41.21961
   431  H   1.0    0.07    1.05    1.44    93.79600    17.44008    28.63486
   432  H   1.0    0.09    1.07    1.44    96.93263    -0.82413    16.97300
   433  H   1.0    0.05    1.05    1.44    96.67904    -3.22533    25.78628
   434  H   1.0    0.09    1.07    1.44   104.63018    -5.79349    23.65315
   435  H   1.0    0.05    1.05    1.44   103.73864   -11.64060    30.08020
   436  H   1.0    0.10    1.07    1.44   112.41241   -10.83979    29.47422
   437  H   1.0    0.06    1.04    1.44   107.16888   -16.41388    36.61300
   438  H   1.0    0.08    1.08    1.44   136.53842    16.33348    46.35691
   439  H   1.0    0.04    1.04    1.43   142.46407    12.22818    43.94746
   440  H   1.0    0.09    1.07    1.44    88.74836   -13.68881    38.92959
   441  H   1.0    0.05    1.05    1.44    83.47537   -10.22672    37.55432

  Z AO/shell   Hii/eV     exponent
  1     Wed Apr 25 08:07:45 CEST 2018   EN: 2.200 GM2: 0.406  GM3: 0.0800  RAES: 1.40
     1s    -10.707211    1.230000
  6     Wed Apr 25 08:07:45 CEST 2018   EN: 2.550 GM2: 0.538  GM3: 0.1500  RAES: 3.00
     2s    -13.970922    2.096432
     2p    -10.063292    1.800000
  7     Wed Apr 25 08:07:45 CEST 2018   EN: 3.040 GM2: 0.461  GM3:-0.0640  RAES: 1.90
     2s    -16.686243    2.339881
     2p    -12.523956    2.014332
  8     Wed Apr 25 08:07:45 CEST 2018   EN: 3.440 GM2: 0.452  GM3:-0.0517  RAES: 1.80
     2s    -20.229985    2.439742
     2p    -15.503117    2.137023
 no old-style atom pair restraining (fixing) potential

molecular fragmentation (1/2 indicates fragments):
111111111111111111111111111111111111111111111111111111111111111111111111
111111111111111111111111111111122222222222222222222222222222222222222222
222222222222222222222222222222222222222222222222222222222222222222222222
222222222222222222222222222222222222222222222222222222222222222222222222
222222222222222222222222222222222222222222222222222222222222222222222222
222222222222222222222222222222222222222222222222222222222222222222211222
222222222
# atoms in fragment 1/2:   105   336
 fragment masses (1/2) :      777.85     2224.75
CMA distance (Bohr)    :  17.802
constraining FC (au)   :  0.0500
           ------------------------------------------------- 
          |        Self-Consistent Charge Iterations        |
           ------------------------------------------------- 

 Ncao       : 1083
 Nao        : 1083
 Nshell     : 655
 Nel        : 1186
 T(el)      :   500.0
 intcut     :    35.0
 scfconv/Eh :  0.100E-06
   qconv/e  :  0.100E-04
 intneglect :  0.100E-08
 broydamp   :      0.400
 iter      E             dE          RMSdq      gap      omega  full diag
   1   -674.4216923 -0.674422E+03  0.453E+00    2.76       0.0  T
   2   -675.9113339 -0.148964E+01  0.219E+00    1.78       1.0  T
   3   -675.9968027 -0.854688E-01  0.123E+00    2.28       1.0  T
   4   -676.1042848 -0.107482E+00  0.248E-01    1.74       1.0  T
   5   -676.1109759 -0.669119E-02  0.126E-01    1.84       1.0  T
   6   -676.1122668 -0.129083E-02  0.595E-02    1.89       1.0  T
   7   -676.1127375 -0.470756E-03  0.256E-02    1.85       1.0  T
   8   -676.1127940 -0.564701E-04  0.132E-02    1.83       1.0  T
   9   -676.1128132 -0.192271E-04  0.622E-03    1.82       1.0  T
  10   -676.1128174 -0.414329E-05  0.311E-03    1.81       1.5  T
  11   -676.1128184 -0.103009E-05  0.137E-03    1.81       3.5  T
  12   -676.1128186 -0.241352E-06  0.634E-04    1.81       7.5  T
  13   -676.1128187 -0.380861E-07  0.276E-04    1.81      17.2  T
  14   -676.1128187 -0.568446E-08  0.137E-04    1.81      34.8  T
  15   -676.1128187 -0.216698E-08  0.529E-05    1.81      90.0  T
  16   -676.1128187 -0.276145E-09  0.247E-05    1.81     192.6  T
speedup  1.97
cpu  time for SCC   25.11 s
wall time for SCC   12.73 s

   *** convergence criteria satisfied after 16 iterations ***

          eigenvalues
 #    :         581        582        583        584        585        586        587        588
 occ. :        2.000      2.000      2.000      2.000      2.000      2.000      2.000      2.000
 eps  :       -10.448    -10.442    -10.419    -10.044    -10.042     -9.999     -9.943     -9.941
 #    :         589        590        591        592        593        594        595        596
 occ. :        2.000      2.000      2.000      2.000      2.000      0.000      0.000      0.000
 eps  :        -9.938     -9.926     -9.901     -9.853     -9.769     -7.961     -7.808     -7.753
 #    :         597        598        599        600        601        602        603        604
 occ. :        0.000      0.000      0.000      0.000      0.000      0.000      0.000      0.000
 eps  :        -7.727     -7.707     -7.691     -7.593     -7.042     -6.894     -6.863     -6.764


   #   Z            q   n(s)   n(p)   n(d)      C6AA      α(0)
   1   7 N     -0.393  1.321  4.073  0.000    30.186     8.160
   2   6 C      0.052  1.051  2.896  0.000    19.715     6.324
   3   6 C      0.277  1.046  2.678  0.000    22.321     7.737
   4   8 O     -0.449  1.720  4.728  0.000    22.675     6.384
   5   6 C     -0.094  1.077  3.017  0.000    22.286     6.721
   6   6 C      0.375  1.023  2.603  0.000    20.652     7.437
   7   8 O     -0.660  1.782  4.878  0.000    27.638     7.048
   8   8 O     -0.641  1.772  4.869  0.000    27.148     6.986
   9   1 H      0.187  0.813  0.000  0.000     1.174     1.697
  10   1 H      0.010  0.990  0.000  0.000     2.891     2.659
  11   1 H      0.031  0.969  0.000  0.000     2.575     2.509
  12   1 H      0.007  0.993  0.000  0.000     2.946     2.684
  13   7 N     -0.185  1.245  3.940  0.000    25.017     7.429
  14   6 C      0.028  1.066  2.907  0.000    20.118     6.387
  15   6 C      0.288  1.043  2.669  0.000    22.120     7.702
  16   8 O     -0.443  1.755  4.688  0.000    22.557     6.368
  17   6 C     -0.073  1.054  3.019  0.000    21.885     6.659
  18   6 C      0.016  1.080  2.905  0.000    27.658     8.626
  19   6 C     -0.029  1.082  2.947  0.000    28.731     8.790
  20   6 C     -0.044  1.081  2.963  0.000    29.086     8.844
  21   6 C     -0.033  1.080  2.953  0.000    28.833     8.806
  22   6 C     -0.037  1.080  2.957  0.000    28.924     8.819
  23   6 C     -0.038  1.080  2.958  0.000    28.938     8.822
  24   1 H      0.165  0.835  0.000  0.000     1.302     1.787
  25   1 H      0.079  0.921  0.000  0.000     1.989     2.206
  26   1 H      0.069  0.931  0.000  0.000     2.099     2.266
  27   1 H      0.070  0.930  0.000  0.000     2.089     2.260
  28   1 H      0.033  0.967  0.000  0.000     2.549     2.497
  29   1 H      0.029  0.971  0.000  0.000     2.596     2.520
  30   1 H      0.036  0.964  0.000  0.000     2.508     2.476
  31   1 H      0.034  0.966  0.000  0.000     2.534     2.489
  32   1 H      0.039  0.961  0.000  0.000     2.464     2.455
  33   7 N     -0.232  1.286  3.945  0.000    26.068     7.583
  34   6 C      0.031  1.054  2.915  0.000    20.052     6.376
  35   6 C      0.266  1.045  2.688  0.000    22.505     7.768
  36   8 O     -0.486  1.734  4.752  0.000    23.478     6.496
  37   6 C     -0.106  1.034  3.071  0.000    22.576     6.775
  38   1 H      0.209  0.791  0.000  0.000     1.062     1.615
  39   1 H      0.086  0.914  0.000  0.000     1.923     2.169
  40   1 H      0.059  0.941  0.000  0.000     2.205     2.322
  41   1 H      0.033  0.967  0.000  0.000     2.547     2.496
  42   1 H      0.059  0.941  0.000  0.000     2.212     2.326
  43   7 N     -0.178  1.242  3.937  0.000    24.861     7.405
  44   6 C      0.009  1.069  2.922  0.000    20.439     6.439
  45   6 C      0.273  1.045  2.682  0.000    22.383     7.747
  46   8 O     -0.431  1.734  4.697  0.000    22.313     6.333
  47   6 C     -0.083  1.055  3.027  0.000    22.072     6.688
  48   6 C     -0.075  1.049  3.027  0.000    21.936     6.668
  49   6 C     -0.093  1.055  3.038  0.000    22.269     6.718
  50   6 C     -0.050  1.059  2.991  0.000    21.572     6.629
  51   7 N     -0.141  1.227  3.914  0.000    24.036     7.281
  52   1 H      0.196  0.804  0.000  0.000     1.125     1.661
  53   1 H      0.091  0.909  0.000  0.000     1.867     2.137
  54   1 H      0.089  0.911  0.000  0.000     1.890     2.150
  55   1 H      0.070  0.930  0.000  0.000     2.082     2.256
  56   1 H      0.026  0.974  0.000  0.000     2.639     2.541
  57   1 H      0.080  0.920  0.000  0.000     1.984     2.203
  58   1 H      0.088  0.912  0.000  0.000     1.903     2.157
  59   1 H      0.074  0.926  0.000  0.000     2.043     2.235
  60   1 H      0.107  0.893  0.000  0.000     1.719     2.051
  61   1 H      0.123  0.877  0.000  0.000     1.591     1.973
  62   1 H      0.304  0.696  0.000  0.000     0.703     1.313
  63   1 H      0.295  0.705  0.000  0.000     0.729     1.337
  64   1 H      0.295  0.705  0.000  0.000     0.727     1.336
  65   7 N     -0.198  1.261  3.938  0.000    25.305     7.471
  66   6 C      0.018  1.063  2.919  0.000    20.281     6.413
  67   6 C      0.271  1.041  2.688  0.000    22.423     7.755
  68   8 O     -0.489  1.748  4.741  0.000    23.531     6.504
  69   6 C     -0.046  1.050  2.997  0.000    21.395     6.584
  70   6 C     -0.094  1.066  3.028  0.000    22.305     6.725
  71   6 C      0.369  1.026  2.605  0.000    20.748     7.454
  72   8 O     -0.638  1.770  4.868  0.000    27.067     6.975
  73   8 O     -0.640  1.775  4.864  0.000    27.113     6.981
  74   1 H      0.191  0.809  0.000  0.000     1.152     1.681
  75   1 H      0.087  0.913  0.000  0.000     1.907     2.159
  76   1 H      0.040  0.960  0.000  0.000     2.445     2.446
  77   1 H      0.041  0.959  0.000  0.000     2.438     2.442
  78   1 H      0.025  0.975  0.000  0.000     2.652     2.547
  79   1 H      0.013  0.987  0.000  0.000     2.846     2.638
  80   7 N     -0.161  1.229  3.932  0.000    24.485     7.349
  81   6 C      0.022  1.057  2.921  0.000    20.211     6.402
  82   6 C      0.197  1.086  2.717  0.000    23.792     7.989
  83   8 O     -0.355  1.748  4.606  0.000    20.795     6.114
  84   6 C     -0.064  1.051  3.013  0.000    21.714     6.632
  85   6 C     -0.041  1.061  2.980  0.000    28.966     8.827
  86   6 C     -0.005  1.063  2.942  0.000    28.112     8.697
  87   6 C     -0.025  1.072  2.953  0.000    28.445     8.734
  88   7 N     -0.113  1.225  3.888  0.000    23.454     7.193
  89   6 C      0.043  1.061  2.896  0.000    26.936     8.508
  90   6 C     -0.044  1.079  2.965  0.000    29.100     8.846
  91   6 C     -0.059  1.071  2.987  0.000    29.459     8.900
  92   6 C     -0.044  1.078  2.966  0.000    29.085     8.844
  93   6 C     -0.042  1.078  2.964  0.000    29.038     8.837
  94   1 H      0.206  0.794  0.000  0.000     1.077     1.626
  95   1 H      0.097  0.903  0.000  0.000     1.811     2.104
  96   1 H      0.054  0.946  0.000  0.000     2.272     2.357
  97   1 H      0.080  0.920  0.000  0.000     1.983     2.202
  98   1 H      0.022  0.978  0.000  0.000     2.700     2.570
  99   1 H      0.178  0.822  0.000  0.000     1.225     1.734
 100   1 H      0.044  0.956  0.000  0.000     2.395     2.420
 101   1 H      0.029  0.971  0.000  0.000     2.603     2.523
 102   1 H      0.045  0.955  0.000  0.000     2.383     2.414
 103   1 H      0.041  0.959  0.000  0.000     2.441     2.443
 104   7 N     -0.374  1.301  4.073  0.000    29.670     8.090
 105   6 C      0.034  1.061  2.904  0.000    20.009     6.371
 106   6 C      0.268  1.052  2.680  0.000    22.469     7.762
 107   8 O     -0.454  1.731  4.723  0.000    22.793     6.401
 108   6 C     -0.064  1.057  3.006  0.000    21.711     6.632
 109   6 C     -0.003  1.075  2.928  0.000    28.093     8.694
 110   6 C     -0.036  1.082  2.954  0.000    28.903     8.816
 111   6 C     -0.045  1.081  2.963  0.000    29.109     8.848
 112   6 C     -0.059  1.075  2.984  0.000    29.467     8.902
 113   6 C     -0.076  1.078  2.997  0.000    29.886     8.965
 114   6 C      0.146  1.045  2.810  0.000    24.828     8.166
 115   8 O     -0.434  1.719  4.715  0.000    21.523     6.263
 116   1 H      0.173  0.827  0.000  0.000     1.257     1.756
 117   1 H      0.038  0.962  0.000  0.000     2.473     2.459
 118   1 H      0.046  0.954  0.000  0.000     2.366     2.405
 119   1 H      0.021  0.979  0.000  0.000     2.716     2.577
 120   1 H      0.043  0.957  0.000  0.000     2.413     2.429
 121   1 H      0.032  0.968  0.000  0.000     2.552     2.498
 122   1 H      0.050  0.950  0.000  0.000     2.319     2.381
 123   1 H      0.047  0.953  0.000  0.000     2.363     2.404
 124   1 H      0.352  0.648  0.000  0.000     0.583     1.199
 125   7 N     -0.184  1.239  3.945  0.000    24.984     7.424
 126   6 C     -0.021  1.044  2.976  0.000    21.016     6.541
 127   6 C      0.276  1.041  2.683  0.000    22.340     7.739
 128   8 O     -0.502  1.740  4.762  0.000    23.832     6.545
 129   1 H      0.199  0.801  0.000  0.000     1.112     1.652
 130   1 H      0.095  0.905  0.000  0.000     1.831     2.116
 131   1 H      0.087  0.913  0.000  0.000     1.905     2.159
 132   7 N     -0.175  1.245  3.930  0.000    24.778     7.393
 133   6 C      0.022  1.064  2.914  0.000    20.213     6.403
 134   6 C      0.281  1.041  2.678  0.000    22.238     7.723
 135   8 O     -0.502  1.740  4.761  0.000    23.818     6.543
 136   6 C     -0.076  1.062  3.014  0.000    21.950     6.669
 137   6 C     -0.012  1.057  2.955  0.000    20.762     6.481
 138   6 C     -0.124  1.044  3.080  0.000    22.931     6.827
 139   6 C     -0.133  1.043  3.090  0.000    23.112     6.855
 140   1 H      0.205  0.795  0.000  0.000     1.080     1.628
 141   1 H      0.060  0.940  0.000  0.000     2.204     2.322
 142   1 H      0.058  0.942  0.000  0.000     2.220     2.330
 143   1 H      0.060  0.940  0.000  0.000     2.196     2.317
 144   1 H      0.025  0.975  0.000  0.000     2.656     2.548
 145   1 H      0.058  0.942  0.000  0.000     2.225     2.333
 146   1 H      0.035  0.965  0.000  0.000     2.510     2.478
 147   1 H      0.058  0.942  0.000  0.000     2.219     2.330
 148   1 H      0.060  0.940  0.000  0.000     2.196     2.318
 149   1 H      0.066  0.934  0.000  0.000     2.128     2.281
 150   1 H      0.031  0.969  0.000  0.000     2.578     2.511
 151   7 N     -0.172  1.245  3.926  0.000    24.715     7.383
 152   6 C      0.018  1.064  2.919  0.000    20.279     6.411
 153   6 C      0.280  1.045  2.675  0.000    22.268     7.728
 154   8 O     -0.486  1.738  4.748  0.000    23.479     6.497
 155   6 C     -0.080  1.056  3.024  0.000    22.024     6.680
 156   6 C      0.006  1.079  2.915  0.000    27.890     8.663
 157   6 C     -0.041  1.080  2.962  0.000    29.023     8.835
 158   6 C     -0.042  1.082  2.960  0.000    29.038     8.837
 159   6 C     -0.031  1.079  2.952  0.000    28.782     8.798
 160   6 C     -0.034  1.081  2.953  0.000    28.841     8.807
 161   6 C     -0.034  1.080  2.955  0.000    28.855     8.809
 162   1 H      0.221  0.779  0.000  0.000     1.007     1.572
 163   1 H      0.099  0.901  0.000  0.000     1.796     2.096
 164   1 H      0.079  0.921  0.000  0.000     1.986     2.204
 165   1 H      0.061  0.939  0.000  0.000     2.192     2.316
 166   1 H      0.045  0.955  0.000  0.000     2.384     2.414
 167   1 H      0.037  0.963  0.000  0.000     2.486     2.465
 168   1 H      0.050  0.950  0.000  0.000     2.323     2.383
 169   1 H      0.042  0.958  0.000  0.000     2.419     2.432
 170   1 H      0.043  0.957  0.000  0.000     2.407     2.426
 171   7 N     -0.177  1.253  3.925  0.000    24.840     7.402
 172   6 C      0.019  1.063  2.918  0.000    20.253     6.407
 173   6 C      0.286  1.043  2.670  0.000    22.148     7.707
 174   8 O     -0.503  1.744  4.759  0.000    23.858     6.549
 175   6 C     -0.026  1.069  2.957  0.000    20.996     6.517
 176   6 C     -0.064  1.051  3.014  0.000    21.727     6.636
 177   6 C     -0.115  1.037  3.078  0.000    22.759     6.803
 178   6 C     -0.119  1.040  3.080  0.000    22.850     6.817
 179   1 H      0.217  0.783  0.000  0.000     1.025     1.586
 180   1 H      0.094  0.906  0.000  0.000     1.837     2.120
 181   1 H      0.070  0.930  0.000  0.000     2.082     2.257
 182   1 H      0.048  0.952  0.000  0.000     2.350     2.397
 183   1 H      0.030  0.970  0.000  0.000     2.593     2.518
 184   1 H      0.050  0.950  0.000  0.000     2.324     2.384
 185   1 H      0.052  0.948  0.000  0.000     2.301     2.372
 186   1 H      0.015  0.985  0.000  0.000     2.816     2.624
 187   1 H      0.054  0.946  0.000  0.000     2.276     2.359
 188   1 H      0.045  0.955  0.000  0.000     2.380     2.413
 189   1 H      0.057  0.943  0.000  0.000     2.237     2.339
 190   7 N     -0.193  1.253  3.940  0.000    25.179     7.453
 191   6 C      0.048  1.051  2.901  0.000    19.769     6.329
 192   6 C      0.302  1.035  2.663  0.000    21.879     7.660
 193   8 O     -0.514  1.754  4.760  0.000    24.102     6.582
 194   6 C     -0.066  1.050  3.016  0.000    21.755     6.639
 195   6 C     -0.076  1.048  3.028  0.000    21.936     6.667
 196   6 C      0.292  1.041  2.667  0.000    22.046     7.688
 197   8 O     -0.493  1.733  4.760  0.000    23.625     6.517
 198   7 N     -0.288  1.275  4.013  0.000    27.435     7.779
 199   1 H      0.228  0.772  0.000  0.000     0.974     1.546
 200   1 H      0.025  0.975  0.000  0.000     2.656     2.548
 201   1 H      0.060  0.940  0.000  0.000     2.193     2.316
 202   1 H      0.076  0.924  0.000  0.000     2.017     2.221
 203   1 H      0.046  0.954  0.000  0.000     2.371     2.408
 204   1 H      0.036  0.964  0.000  0.000     2.500     2.473
 205   1 H      0.211  0.789  0.000  0.000     1.051     1.606
 206   1 H      0.247  0.753  0.000  0.000     0.895     1.482
 207   7 N     -0.198  1.252  3.945  0.000    25.292     7.469
 208   6 C      0.014  1.061  2.925  0.000    20.337     6.421
 209   6 C      0.281  1.039  2.680  0.000    22.247     7.724
 210   8 O     -0.499  1.738  4.761  0.000    23.766     6.536
 211   6 C      0.072  1.036  2.892  0.000    19.589     6.340
 212   8 O     -0.450  1.691  4.759  0.000    21.835     6.308
 213   1 H      0.235  0.765  0.000  0.000     0.942     1.520
 214   1 H      0.071  0.929  0.000  0.000     2.078     2.254
 215   1 H      0.072  0.928  0.000  0.000     2.064     2.247
 216   1 H      0.045  0.955  0.000  0.000     2.383     2.414
 217   1 H      0.330  0.670  0.000  0.000     0.637     1.253
 218   7 N     -0.168  1.240  3.927  0.000    24.629     7.371
 219   6 C      0.021  1.066  2.913  0.000    20.228     6.404
 220   6 C      0.276  1.043  2.681  0.000    22.335     7.739
 221   8 O     -0.496  1.749  4.747  0.000    23.697     6.527
 222   6 C     -0.019  1.061  2.958  0.000    20.875     6.498
 223   6 C     -0.120  1.040  3.080  0.000    22.860     6.817
 224   6 C     -0.124  1.041  3.083  0.000    22.942     6.829
 225   1 H      0.212  0.788  0.000  0.000     1.047     1.603
 226   1 H      0.084  0.916  0.000  0.000     1.935     2.175
 227   1 H      0.042  0.958  0.000  0.000     2.426     2.436
 228   1 H      0.070  0.930  0.000  0.000     2.088     2.260
 229   1 H      0.027  0.973  0.000  0.000     2.630     2.536
 230   1 H      0.060  0.940  0.000  0.000     2.203     2.321
 231   1 H      0.063  0.937  0.000  0.000     2.159     2.298
 232   1 H      0.059  0.941  0.000  0.000     2.205     2.322
 233   1 H      0.055  0.945  0.000  0.000     2.257     2.350
 234   7 N     -0.194  1.254  3.941  0.000    25.214     7.458
 235   6 C      0.032  1.064  2.905  0.000    20.040     6.373
 236   6 C      0.291  1.041  2.668  0.000    22.072     7.694
 237   8 O     -0.515  1.752  4.763  0.000    24.129     6.586
 238   6 C     -0.011  1.061  2.950  0.000    20.745     6.478
 239   6 C     -0.064  1.052  3.012  0.000    21.725     6.636
 240   6 C     -0.103  1.036  3.067  0.000    22.516     6.766
 241   6 C     -0.092  1.033  3.059  0.000    22.314     6.737
 242   1 H      0.222  0.778  0.000  0.000     1.000     1.567
 243   1 H      0.065  0.935  0.000  0.000     2.147     2.291
 244   1 H      0.025  0.975  0.000  0.000     2.660     2.551
 245   1 H      0.055  0.945  0.000  0.000     2.254     2.348
 246   1 H      0.052  0.948  0.000  0.000     2.293     2.368
 247   1 H      0.045  0.955  0.000  0.000     2.390     2.417
 248   1 H      0.009  0.991  0.000  0.000     2.906     2.666
 249   1 H      0.057  0.943  0.000  0.000     2.233     2.337
 250   1 H      0.053  0.947  0.000  0.000     2.288     2.366
 251   1 H      0.007  0.993  0.000  0.000     2.939     2.681
 252   1 H      0.036  0.964  0.000  0.000     2.508     2.477
 253   7 N     -0.209  1.260  3.949  0.000    25.557     7.508
 254   6 C      0.058  1.049  2.893  0.000    19.606     6.304
 255   6 C      0.282  1.043  2.675  0.000    22.230     7.721
 256   8 O     -0.516  1.750  4.765  0.000    24.135     6.587
 257   6 C     -0.103  1.073  3.030  0.000    22.459     6.747
 258   6 C      0.376  1.022  2.602  0.000    20.624     7.432
 259   8 O     -0.649  1.786  4.863  0.000    27.349     7.012
 260   8 O     -0.623  1.752  4.871  0.000    26.692     6.927
 261   1 H      0.216  0.784  0.000  0.000     1.029     1.589
 262   1 H      0.025  0.975  0.000  0.000     2.665     2.553
 263   1 H      0.053  0.947  0.000  0.000     2.282     2.362
 264   1 H      0.032  0.968  0.000  0.000     2.554     2.499
 265   7 N     -0.180  1.251  3.929  0.000    24.891     7.410
 266   6 C      0.043  1.059  2.898  0.000    19.867     6.348
 267   6 C      0.222  1.081  2.697  0.000    23.314     7.908
 268   8 O     -0.369  1.748  4.621  0.000    21.064     6.153
 269   6 C     -0.081  1.056  3.025  0.000    22.026     6.680
 270   6 C      0.010  1.079  2.910  0.000    27.783     8.646
 271   6 C     -0.041  1.081  2.960  0.000    29.021     8.834
 272   6 C     -0.036  1.081  2.956  0.000    28.903     8.816
 273   6 C     -0.034  1.081  2.953  0.000    28.844     8.807
 274   6 C     -0.031  1.080  2.951  0.000    28.761     8.795
 275   6 C     -0.035  1.081  2.954  0.000    28.869     8.811
 276   1 H      0.225  0.775  0.000  0.000     0.989     1.558
 277   1 H      0.076  0.924  0.000  0.000     2.024     2.225
 278   1 H      0.076  0.924  0.000  0.000     2.021     2.223
 279   1 H      0.074  0.926  0.000  0.000     2.038     2.233
 280   1 H      0.048  0.952  0.000  0.000     2.342     2.393
 281   1 H      0.016  0.984  0.000  0.000     2.801     2.617
 282   1 H      0.058  0.942  0.000  0.000     2.225     2.332
 283   1 H      0.039  0.961  0.000  0.000     2.464     2.454
 284   1 H      0.051  0.949  0.000  0.000     2.312     2.378
 285   7 N     -0.398  1.310  4.087  0.000    30.309     8.176
 286   6 C      0.026  1.059  2.915  0.000    20.157     6.395
 287   6 C      0.261  1.052  2.686  0.000    22.603     7.786
 288   8 O     -0.488  1.732  4.756  0.000    23.520     6.502
 289   6 C     -0.074  1.057  3.017  0.000    21.918     6.665
 290   6 C     -0.068  1.049  3.019  0.000    21.811     6.649
 291   6 C     -0.095  1.054  3.041  0.000    22.314     6.726
 292   6 C     -0.044  1.058  2.986  0.000    21.464     6.613
 293   7 N     -0.139  1.237  3.903  0.000    24.008     7.277
 294   1 H      0.157  0.843  0.000  0.000     1.352     1.821
 295   1 H      0.064  0.936  0.000  0.000     2.149     2.293
 296   1 H      0.059  0.941  0.000  0.000     2.215     2.327
 297   1 H      0.037  0.963  0.000  0.000     2.483     2.464
 298   1 H      0.045  0.955  0.000  0.000     2.383     2.414
 299   1 H      0.035  0.965  0.000  0.000     2.516     2.481
 300   1 H      0.089  0.911  0.000  0.000     1.884     2.146
 301   1 H      0.080  0.920  0.000  0.000     1.979     2.200
 302   1 H      0.111  0.889  0.000  0.000     1.684     2.029
 303   1 H      0.102  0.898  0.000  0.000     1.770     2.081
 304   1 H      0.301  0.699  0.000  0.000     0.710     1.320
 305   1 H      0.289  0.711  0.000  0.000     0.749     1.357
 306   1 H      0.301  0.699  0.000  0.000     0.710     1.320
 307   7 N     -0.153  1.237  3.916  0.000    24.307     7.322
 308   6 C      0.015  1.065  2.920  0.000    20.324     6.417
 309   6 C      0.204  1.087  2.708  0.000    23.656     7.965
 310   8 O     -0.358  1.740  4.618  0.000    20.859     6.123
 311   6 C     -0.021  1.066  2.955  0.000    20.918     6.505
 312   6 C     -0.067  1.050  3.016  0.000    21.774     6.643
 313   6 C     -0.114  1.036  3.077  0.000    22.731     6.798
 314   6 C     -0.111  1.036  3.075  0.000    22.684     6.792
 315   1 H      0.211  0.789  0.000  0.000     1.051     1.606
 316   1 H      0.099  0.901  0.000  0.000     1.796     2.096
 317   1 H      0.058  0.942  0.000  0.000     2.218     2.329
 318   1 H      0.053  0.947  0.000  0.000     2.283     2.363
 319   1 H      0.043  0.957  0.000  0.000     2.406     2.426
 320   1 H      0.047  0.953  0.000  0.000     2.357     2.401
 321   1 H      0.038  0.962  0.000  0.000     2.474     2.460
 322   1 H      0.046  0.954  0.000  0.000     2.365     2.405
 323   1 H      0.049  0.951  0.000  0.000     2.337     2.391
 324   1 H      0.036  0.964  0.000  0.000     2.497     2.471
 325   1 H      0.040  0.960  0.000  0.000     2.445     2.445
 326   7 N     -0.425  1.325  4.101  0.000    31.087     8.281
 327   6 C      0.024  1.060  2.916  0.000    20.177     6.398
 328   6 C      0.268  1.047  2.685  0.000    22.483     7.765
 329   8 O     -0.507  1.744  4.764  0.000    23.949     6.561
 330   6 C      0.067  1.045  2.888  0.000    19.658     6.351
 331   8 O     -0.468  1.711  4.757  0.000    22.207     6.362
 332   1 H      0.204  0.796  0.000  0.000     1.087     1.633
 333   1 H      0.046  0.954  0.000  0.000     2.376     2.411
 334   1 H      0.046  0.954  0.000  0.000     2.370     2.408
 335   1 H      0.046  0.954  0.000  0.000     2.365     2.405
 336   1 H      0.302  0.698  0.000  0.000     0.714     1.327
 337   7 N     -0.161  1.245  3.917  0.000    24.491     7.350
 338   6 C      0.028  1.058  2.914  0.000    20.107     6.386
 339   6 C      0.208  1.085  2.707  0.000    23.590     7.954
 340   8 O     -0.371  1.752  4.620  0.000    21.116     6.161
 341   6 C     -0.085  1.064  3.021  0.000    22.110     6.693
 342   6 C     -0.010  1.055  2.955  0.000    20.720     6.475
 343   6 C     -0.117  1.039  3.079  0.000    22.802     6.809
 344   6 C     -0.116  1.042  3.075  0.000    22.781     6.805
 345   1 H      0.239  0.761  0.000  0.000     0.927     1.508
 346   1 H      0.079  0.921  0.000  0.000     1.993     2.208
 347   1 H      0.077  0.923  0.000  0.000     2.006     2.215
 348   1 H      0.068  0.932  0.000  0.000     2.107     2.270
 349   1 H      0.032  0.968  0.000  0.000     2.564     2.504
 350   1 H      0.046  0.954  0.000  0.000     2.373     2.409
 351   1 H      0.038  0.962  0.000  0.000     2.477     2.461
 352   1 H      0.042  0.958  0.000  0.000     2.417     2.431
 353   1 H      0.043  0.957  0.000  0.000     2.409     2.427
 354   1 H      0.045  0.955  0.000  0.000     2.385     2.415
 355   1 H      0.044  0.956  0.000  0.000     2.398     2.422
 356   7 N     -0.409  1.316  4.093  0.000    30.627     8.219
 357   6 C      0.044  1.054  2.902  0.000    19.848     6.345
 358   6 C      0.268  1.046  2.686  0.000    22.481     7.764
 359   8 O     -0.502  1.744  4.758  0.000    23.833     6.545
 360   6 C     -0.091  1.061  3.031  0.000    22.234     6.712
 361   6 C      0.290  1.036  2.674  0.000    22.089     7.696
 362   8 O     -0.504  1.753  4.751  0.000    23.871     6.551
 363   7 N     -0.284  1.270  4.013  0.000    27.327     7.764
 364   1 H      0.187  0.813  0.000  0.000     1.174     1.697
 365   1 H      0.046  0.954  0.000  0.000     2.365     2.405
 366   1 H      0.056  0.944  0.000  0.000     2.241     2.341
 367   1 H      0.049  0.951  0.000  0.000     2.329     2.387
 368   1 H      0.225  0.775  0.000  0.000     0.988     1.557
 369   1 H      0.229  0.771  0.000  0.000     0.969     1.542
 370   7 N     -0.163  1.242  3.921  0.000    24.534     7.356
 371   6 C      0.019  1.064  2.917  0.000    20.266     6.410
 372   6 C      0.206  1.086  2.708  0.000    23.634     7.962
 373   8 O     -0.366  1.758  4.609  0.000    21.016     6.146
 374   6 C     -0.024  1.068  2.955  0.000    20.961     6.512
 375   6 C     -0.054  1.047  3.006  0.000    21.535     6.607
 376   6 C     -0.117  1.038  3.079  0.000    22.799     6.808
 377   6 C     -0.111  1.037  3.075  0.000    22.691     6.793
 378   1 H      0.225  0.775  0.000  0.000     0.988     1.557
 379   1 H      0.087  0.913  0.000  0.000     1.912     2.162
 380   1 H      0.063  0.937  0.000  0.000     2.167     2.302
 381   1 H      0.039  0.961  0.000  0.000     2.458     2.452
 382   1 H      0.026  0.974  0.000  0.000     2.638     2.540
 383   1 H      0.064  0.936  0.000  0.000     2.155     2.295
 384   1 H      0.036  0.964  0.000  0.000     2.503     2.474
 385   1 H      0.047  0.953  0.000  0.000     2.362     2.403
 386   1 H      0.040  0.960  0.000  0.000     2.446     2.446
 387   1 H      0.044  0.956  0.000  0.000     2.395     2.420
 388   1 H      0.046  0.954  0.000  0.000     2.375     2.410
 389   7 N     -0.396  1.330  4.066  0.000    30.264     8.170
 390   6 C      0.032  1.061  2.907  0.000    20.052     6.379
 391   6 C      0.205  1.083  2.713  0.000    23.647     7.964
 392   8 O     -0.375  1.755  4.620  0.000    21.184     6.171
 393   6 C     -0.028  1.074  2.953  0.000    21.029     6.522
 394   6 C     -0.065  1.051  3.014  0.000    21.743     6.639
 395   6 C     -0.122  1.039  3.083  0.000    22.893     6.822
 396   6 C     -0.112  1.039  3.074  0.000    22.708     6.796
 397   1 H      0.168  0.832  0.000  0.000     1.283     1.774
 398   1 H      0.051  0.949  0.000  0.000     2.309     2.376
 399   1 H      0.055  0.945  0.000  0.000     2.254     2.348
 400   1 H      0.037  0.963  0.000  0.000     2.493     2.469
 401   1 H      0.029  0.971  0.000  0.000     2.607     2.525
 402   1 H      0.063  0.937  0.000  0.000     2.169     2.303
 403   1 H      0.056  0.944  0.000  0.000     2.242     2.341
 404   1 H      0.037  0.963  0.000  0.000     2.492     2.468
 405   1 H      0.033  0.967  0.000  0.000     2.546     2.495
 406   1 H      0.043  0.957  0.000  0.000     2.408     2.427
 407   1 H      0.049  0.951  0.000  0.000     2.331     2.388
 408   7 N     -0.392  1.317  4.075  0.000    30.148     8.155
 409   6 C      0.045  1.056  2.899  0.000    19.830     6.343
 410   6 C      0.205  1.092  2.703  0.000    23.650     7.964
 411   8 O     -0.388  1.765  4.623  0.000    21.440     6.208
 412   6 C     -0.077  1.058  3.019  0.000    21.964     6.671
 413   6 C      0.008  1.083  2.910  0.000    27.842     8.655
 414   6 C     -0.040  1.080  2.960  0.000    28.988     8.829
 415   6 C     -0.043  1.081  2.961  0.000    29.057     8.840
 416   6 C     -0.032  1.080  2.952  0.000    28.797     8.800
 417   6 C     -0.033  1.080  2.953  0.000    28.813     8.802
 418   6 C     -0.035  1.080  2.955  0.000    28.878     8.812
 419   1 H      0.176  0.824  0.000  0.000     1.234     1.740
 420   1 H      0.043  0.957  0.000  0.000     2.405     2.425
 421   1 H      0.069  0.931  0.000  0.000     2.092     2.262
 422   1 H      0.062  0.938  0.000  0.000     2.174     2.306
 423   1 H      0.042  0.958  0.000  0.000     2.420     2.433
 424   1 H      0.030  0.970  0.000  0.000     2.587     2.515
 425   1 H      0.037  0.963  0.000  0.000     2.489     2.467
 426   1 H      0.030  0.970  0.000  0.000     2.583     2.513
 427   1 H      0.032  0.968  0.000  0.000     2.561     2.502
 428   1 H      0.170  0.830  0.000  0.000     1.271     1.766
 429   1 H      0.086  0.914  0.000  0.000     1.917     2.165
 430   1 H      0.182  0.818  0.000  0.000     1.204     1.719
 431   1 H      0.056  0.944  0.000  0.000     2.244     2.342
 432   1 H      0.188  0.812  0.000  0.000     1.170     1.695
 433   1 H      0.083  0.917  0.000  0.000     1.946     2.182
 434   1 H      0.190  0.810  0.000  0.000     1.157     1.685
 435   1 H      0.077  0.923  0.000  0.000     2.006     2.215
 436   1 H      0.179  0.821  0.000  0.000     1.221     1.730
 437   1 H      0.084  0.916  0.000  0.000     1.939     2.178
 438   1 H      0.188  0.812  0.000  0.000     1.172     1.695
 439   1 H      0.056  0.944  0.000  0.000     2.251     2.346
 440   1 H      0.184  0.816  0.000  0.000     1.189     1.708
 441   1 H      0.074  0.926  0.000  0.000     2.044     2.235

 Mol. C6AA /au·bohr⁶  :    1851123.047209
 Mol. C8AA /au·bohr⁸  :   41619797.144987
 Mol. α(0) /au        :       2056.436867

 
molecular dipole:
                 x           y           z       tot (Debye)
 q only:      -98.558     -37.989     -45.536
   full:      -96.497     -35.435     -46.553     286.835
molecular quadrupole (traceless):
                xx          xy          yy          xz          yz          zz
 q only:    -8007.457   -5620.402    4880.849   -6920.417   -1655.064    3126.608
  q+dip:    -7570.004   -5195.663    4702.990   -6992.239   -1516.868    2867.014
   full:    -7578.135   -5192.617    4705.477   -6996.457   -1519.339    2872.657
speedup  1.98
cpu  time for grad   33.05 s
wall time for grad   16.70 s

SCC energy    :    -676.1337259
rep           :       8.6519562
ES            :       2.1301423
AES           :      -0.1025028
AXC           :       0.2389365
disp          :      -0.5882610
XB            :       0.0000000
fix           :       0.0000000
Gborn         :       0.0000000
Gsasa         :       0.0000000
Ghb           :       0.0000000
Gshift        :       0.0000000
Gsolv         :      -0.6540170     -410.40
Etot ala COSMO:    -676.1337259
grad norm     :       0.5953482
total E       :    -667.4244653
atomizationE  :     126.4288836    79335.32
(atE without considering molecular charge,
 total energy contains solvation terms)
H-L gap (eV)  :          1.8079

------------------------------------------------------------------------
 * finished run on 2019/05/10 at 10:20:38.630     
------------------------------------------------------------------------
 total:
 * wall-time:     0 d,  0 h,  0 min, 17.806 sec
 *  cpu-time:     0 d,  0 h,  0 min, 35.124 sec
 * ratio c/w:     1.973 speedup
 SCF:
 * wall-time:     0 d,  0 h,  0 min, 17.550 sec
 *  cpu-time:     0 d,  0 h,  0 min, 34.738 sec
 * ratio c/w:     1.979 speedup

