      -----------------------------------------------------------      
     |                   =====================                   |     
     |                           x T B                           |     
     |                   =====================                   |     
     |                         S. Grimme                         |     
     |          Mulliken Center for Theoretical Chemistry        |     
     |                    University of Bonn                     |     
     |                 Version 6.0.1 (SAW181210)                 |     
      -----------------------------------------------------------      

   This program is distributed in the hope that it will be useful,
   but WITHOUT ANY WARRANTY; without even the implied warranty of
   MERCHANTABILITY or FITNESS FOR A PARTICULAR PURPOSE.
   
   FOR NON-COMMERCIAL, ACADEMIA USE ONLY.
   
   Cite this work as:
   S. Grimme, C. Bannwarth, P. Shushkov, J. Comput. Theory Chem., 2017,
   13, 1989-2009.
   C. Bannwarth, S. Ehlert and S. Grimme., ChemRxiv, 2018, preprint.
   http://doi.org/10.26434/chemrxiv.7246238.v1
   
   for sTDA-xTB:
   S. Grimme and C. Bannwarth, J. Chem. Phys., 2016, 145, 054103.
   
   in the mass-spec context:
   V. Asgeirsson, C. Bauer and S. Grimme, Chem. Sci., 2017, 8, 4879.
   
   if GBSA is used:
   P. Shushkov, F. März and S. Grimme, unpublished.
   
   for ANC optimizer:
   S. Grimme, unpublished.
   Rational Function algorithm used in ANCopt:
   F. Eckert, P. Pulay, H.-J. Werner, J. Comput. Chem., 1997, 18, 1473.
   
   with help from (in alphabetical order)
   C. Bannwarth, F. Bohle, G. Brandenburg, E. Caldeweyher, M. Checinski,
   S. Dohm, S. Ehlert, S. Ehrlich, F. März, H. Neugebauer, J. Pisarek,
   P. Pracht, P. Shushkov, and S. Spicher.
   
 * started run on 2019/05/05 at 17:07:28.347     
========================================================================
 # omp threads = 2
========================================================================
number of atoms            : 283
number of electrons        : 758
charge                     : 1
spin                       : .0
first test random number   : .5523

########################################################################
# WARNING! Please study the warnings concerning your input carefully
#  - Process number higher than OMP_NUM_THREADS, I hope you know what you are doing.
########################################################################

           ------------------------------------------------- 
          |                 G F N 2 - x T B                 |
          | Geometry, Frequencies, Noncovalent interactions |
          |            JCTC 2018 parametrisation            |
           ------------------------------------------------- 
 
      method parameters     
 k(s)        :  1.8500
 k(p)        :  2.2300
 k(d)        :  2.2300
 k(f)        :  2.0000
 kEN (H0ij)  : -2.0000
 D4 a1       :  0.5200
 D4 a2       :  5.0000
 D4 s6       :  1.0000
 D4 s8       :  2.7000
 D4 s9       :  5.0000
 alphaj      :  2.0000

 Solvent             : h2o
 Using internal parameter file: .param_gbsa2_h2o
 Gsolv ref. state (COSMO-RS): gsolv [1 M gas/solution]
 temperature (mdtemp)       :    298.150000000000     
 dielectric constant        :    80.2000000000000     
 rho                        :    1.00000000000000     
 mass                       :    18.0000000000000     
 surface tension            :    15.5689454083859     
 probe radius               :   0.975313790000000     
 vdW radii scaling          :    1.00000000000000     
 Gshift (Eh)                :   1.857443126794793E-003
 c1                         :    1.55243817000000     
 soset                      :   0.130326360000000     
 HB correction              :  T

            Z     q(EN)     CN     RAES       Cart. coordinates
     1  N   5.0   -0.20    3.18    1.95    39.26726    28.84451    28.19963
     2  C   4.0    0.03    4.21    4.02    39.52552    27.96883    30.84422
     3  C   4.0    0.08    3.19    3.04    41.07250    29.76782    32.41115
     4  O   6.0   -0.31    1.17    1.80    40.57553    30.18849    34.65951
     5  C   4.0   -0.03    4.26    4.12    40.59902    25.22083    30.94670
     6  C   4.0   -0.03    4.23    4.06    38.64119    23.51968    29.72163
     7  C   4.0    0.26    3.13    3.03    39.64485    20.82622    29.50130
     8  O   6.0   -0.26    1.20    1.80    41.97115    20.58399    29.22471
     9  O   6.0   -0.30    1.25    1.80    38.07455    19.06484    29.42549
    10  H   1.0    0.09    1.02    1.43    40.00125    27.81346    26.76543
    11  H   1.0    0.04    1.05    1.44    37.62714    27.94799    31.68385
    12  H   1.0    0.07    1.03    1.43    42.38165    25.13828    29.92515
    13  H   1.0    0.06    1.02    1.43    40.92545    24.68053    32.90460
    14  H   1.0    0.04    1.02    1.43    36.88357    23.52356    30.80046
    15  H   1.0    0.05    1.03    1.43    38.24076    24.15286    27.80005
    16  N   5.0   -0.20    3.23    1.96    37.29516    35.97789    34.09671
    17  C   4.0    0.03    4.29    4.18    35.48071    35.53649    36.15030
    18  C   4.0    0.15    3.41    3.08    36.68927    33.94559    38.27195
    19  O   6.0   -0.32    1.34    1.80    35.38169    32.74981    39.78917
    20  C   4.0   -0.03    4.32    4.24    33.08692    34.20845    35.15626
    21  C   4.0   -0.02    3.54    3.13    31.50332    35.80943    33.43887
    22  C   4.0   -0.05    3.49    3.11    30.31768    37.95439    34.38497
    23  C   4.0   -0.04    3.44    3.09    31.34274    35.31393    30.86184
    24  C   4.0   -0.03    3.43    3.09    28.90065    39.55124    32.88076
    25  C   4.0   -0.04    3.43    3.09    29.67328    36.72568    29.40294
    26  C   4.0    0.07    3.44    3.09    28.45075    38.83980    30.38455
    27  O   6.0   -0.23    2.12    1.84    26.94422    40.37021    29.00018
    28  H   1.0    0.09    1.02    1.43    37.48625    34.58866    32.79517
    29  H   1.0    0.04    1.05    1.44    35.01583    37.38653    36.95484
    30  H   1.0    0.04    1.03    1.43    33.67614    32.49276    34.16901
    31  H   1.0    0.05    1.03    1.43    31.99266    33.65132    36.81512
    32  H   1.0    0.05    1.03    1.43    30.57229    38.42781    36.35387
    33  H   1.0    0.05    1.03    1.43    32.37083    33.75434    30.04660
    34  H   1.0    0.06    1.03    1.43    28.08846    41.24865    33.65083
    35  H   1.0    0.06    1.03    1.43    29.46867    36.25482    27.42836
    36  H   1.0    0.13    1.03    1.43    26.61887    39.65603    27.34371
    37  N   5.0   -0.13    3.45    2.05    39.18145    34.20784    38.55036
    38  C   4.0    0.04    4.26    4.12    40.53105    32.75673    40.43479
    39  C   4.0    0.09    3.28    3.05    39.35677    33.16172    43.08902
    40  O   6.0   -0.28    1.14    1.80    39.29830    31.37958    44.57431
    41  C   4.0   -0.06    4.12    3.84    43.27684    33.51720    40.60382
    42  H   1.0    0.09    1.07    1.44    40.26195    35.14410    37.27664
    43  H   1.0    0.06    1.05    1.44    40.34088    30.73206    40.02888
    44  H   1.0    0.06    1.00    1.43    44.26817    32.22153    41.84924
    45  H   1.0    0.06    1.00    1.43    44.14420    33.45673    38.74433
    46  H   1.0    0.05    1.00    1.43    43.44137    35.42228    41.35620
    47  N   5.0   -0.20    3.28    1.98    33.91733    33.58646    44.70290
    48  C   4.0    0.03    4.32    4.23    31.54622    32.16497    44.92772
    49  C   4.0    0.15    3.43    3.09    31.87224    29.33218    44.48770
    50  O   6.0   -0.32    1.29    1.80    30.02656    27.92393    44.22693
    51  C   4.0   -0.04    4.38    4.35    29.61601    33.14456    43.03947
    52  C   4.0   -0.03    4.19    3.98    29.13894    35.99946    43.24127
    53  C   4.0   -0.08    4.10    3.80    27.23192    36.76344    41.20624
    54  C   4.0   -0.08    4.10    3.81    28.20625    36.73254    45.87384
    55  H   1.0    0.12    1.09    1.44    34.69076    33.61160    42.95012
    56  H   1.0    0.04    1.05    1.44    30.91331    32.42074    46.88265
    57  H   1.0    0.05    1.03    1.43    30.32993    32.71475    41.15071
    58  H   1.0    0.05    1.03    1.43    27.86147    32.09883    43.31716
    59  H   1.0    0.04    1.06    1.44    30.92199    36.97659    42.87194
    60  H   1.0    0.04    1.00    1.43    27.06113    38.80808    41.12459
    61  H   1.0    0.04    1.00    1.43    27.84166    36.09932    39.36161
    62  H   1.0    0.04    1.00    1.43    25.39041    35.95828    41.62163
    63  H   1.0    0.05    1.00    1.43    27.70214    38.72193    45.88651
    64  H   1.0    0.04    1.00    1.43    26.56154    35.61098    46.37394
    65  H   1.0    0.04    1.00    1.43    29.68043    36.42958    47.27192
    66  N   5.0   -0.13    3.45    2.04    34.22767    28.40042    44.44497
    67  C   4.0    0.05    4.35    4.30    34.58672    25.80800    43.71171
    68  C   4.0    0.11    3.26    3.05    33.50734    23.86878    45.54879
    69  O   6.0   -0.30    1.20    1.80    33.02660    21.73050    44.80663
    70  C   4.0    0.04    4.16    3.92    37.39585    25.16068    43.36295
    71  O   6.0   -0.23    2.09    1.84    38.53180    25.40453    45.72229
    72  H   1.0    0.11    1.08    1.44    35.78448    29.48254    44.68635
    73  H   1.0    0.06    1.06    1.44    33.61113    25.45599    41.91039
    74  H   1.0    0.06    1.01    1.43    37.52727    23.21457    42.63666
    75  H   1.0    0.05    1.01    1.43    38.22405    26.44857    41.95796
    76  H   1.0    0.13    1.01    1.43    40.28292    25.97254    45.60351
    77  N   5.0   -0.19    3.21    1.96    27.75561    24.65322    48.16280
    78  C   4.0    0.03    4.32    4.23    25.02857    24.71087    48.16961
    79  C   4.0    0.14    3.49    3.11    23.75481    22.56385    46.66036
    80  O   6.0   -0.31    1.30    1.80    24.67318    21.70616    44.69784
    81  C   4.0   -0.04    4.30    4.20    24.06229    27.15139    46.91426
    82  C   4.0   -0.05    4.20    4.01    24.95425    29.52899    48.26890
    83  C   4.0   -0.05    4.18    3.97    23.80364    29.80616    50.88673
    84  C   4.0   -0.04    4.13    3.87    24.52102    32.34779    52.01765
    85  N   5.0   -0.12    4.00    2.87    23.72634    32.52057    54.69896
    86  H   1.0    0.11    1.05    1.44    28.68618    25.61069    46.78351
    87  H   1.0    0.04    1.06    1.44    24.45428    24.56457    50.14601
    88  H   1.0    0.06    1.03    1.43    24.77006    27.17124    44.97635
    89  H   1.0    0.04    1.03    1.43    22.00453    27.12008    46.85422
    90  H   1.0    0.05    1.03    1.43    27.01024    29.50277    48.39572
    91  H   1.0    0.04    1.03    1.43    24.41119    31.14023    47.10397
    92  H   1.0    0.04    1.03    1.43    21.75438    29.63813    50.75073
    93  H   1.0    0.04    1.03    1.43    24.51363    28.29641    52.09668
    94  H   1.0    0.04    1.02    1.43    26.56846    32.58521    51.94678
    95  H   1.0    0.04    1.02    1.43    23.63328    33.87844    50.96508
    96  H   1.0    0.06    1.00    1.43    24.43488    34.24163    55.47793
    97  H   1.0    0.06    1.02    1.43    21.79997    32.47202    54.93148
    98  H   1.0    0.06    1.02    1.43    24.49519    31.06809    55.72487
    99  N   5.0   -0.11    3.69    2.25    21.39290    21.93866    47.31936
   100  C   4.0    0.04    4.61    4.67    20.15758    19.85500    45.99197
   101  C   4.0    0.16    3.44    3.09    19.67554    20.41649    43.20036
   102  O   6.0   -0.31    1.27    1.80    19.58839    18.71437    41.62724
   103  C   4.0   -0.04    4.33    4.26    17.62982    19.47193    47.35315
   104  C   4.0   -0.04    4.27    4.14    18.16290    20.54091    49.98365
   105  C   4.0   -0.02    4.35    4.28    19.91177    22.77063    49.48147
   106  H   1.0    0.06    1.05    1.44    21.34376    18.16202    46.09375
   107  H   1.0    0.05    1.03    1.43    16.14958    20.55873    46.41729
   108  H   1.0    0.05    1.02    1.43    17.07079    17.49834    47.38392
   109  H   1.0    0.05    1.02    1.43    16.44033    21.10042    50.95378
   110  H   1.0    0.05    1.03    1.43    19.13330    19.12632    51.12271
   111  H   1.0    0.04    1.02    1.43    18.83323    24.46245    48.97881
   112  H   1.0    0.04    1.02    1.43    21.10174    23.17256    51.10787
   113  N   5.0   -0.14    3.52    2.09    19.23514    22.83292    42.63738
   114  C   4.0    0.04    4.41    4.39    18.66686    23.64118    40.10299
   115  C   4.0    0.16    3.43    3.09    21.03120    23.97813    38.42583
   116  O   6.0   -0.31    1.30    1.80    20.75276    24.85315    36.29206
   117  C   4.0   -0.03    4.35    4.29    17.16389    26.10874    40.18343
   118  C   4.0   -0.01    3.57    3.15    18.46786    28.30059    41.39497
   119  C   4.0   -0.04    3.48    3.11    20.25594    29.69425    40.06176
   120  C   4.0   -0.04    3.46    3.10    17.86485    29.04309    43.84010
   121  C   4.0   -0.04    3.38    3.07    21.36282    31.80211    41.11902
   122  C   4.0   -0.04    3.38    3.07    19.02087    31.14488    44.90869
   123  C   4.0   -0.04    3.37    3.07    20.76699    32.52592    43.56625
   124  H   1.0    0.08    1.08    1.44    19.48044    24.19896    43.94767
   125  H   1.0    0.06    1.06    1.44    17.51904    22.18361    39.18496
   126  H   1.0    0.06    1.04    1.43    16.71550    26.59879    38.22808
   127  H   1.0    0.05    1.03    1.43    15.38432    25.73431    41.16084
   128  H   1.0    0.06    1.03    1.43    20.72601    29.15245    38.15247
   129  H   1.0    0.05    1.03    1.43    16.44435    28.01979    44.89026
   130  H   1.0    0.04    1.03    1.43    22.72041    32.87055    40.03245
   131  H   1.0    0.05    1.03    1.43    18.49939    31.71106    46.79718
   132  H   1.0    0.05    1.03    1.43    21.62318    34.19162    44.37328
   133  N   5.0   -0.14    3.46    2.05    23.30299    23.49458    39.37324
   134  C   4.0    0.04    4.44    4.44    25.55420    24.19318    37.96171
   135  C   4.0    0.16    3.50    3.11    25.73827    22.77793    35.46732
   136  O   6.0   -0.32    1.29    1.80    26.28387    23.93914    33.52231
   137  C   4.0   -0.03    4.35    4.28    27.91203    23.66616    39.53203
   138  C   4.0   -0.01    3.57    3.15    30.35950    24.20950    38.18427
   139  C   4.0   -0.03    3.47    3.10    31.14800    26.69452    37.80091
   140  C   4.0   -0.03    3.48    3.11    31.98839    22.28363    37.51138
   141  C   4.0   -0.04    3.40    3.08    33.60107    27.15675    37.04086
   142  C   4.0   -0.03    3.38    3.07    34.32049    22.75691    36.44986
   143  C   4.0   -0.04    3.38    3.07    35.17984    25.23487    36.29748
   144  H   1.0    0.11    1.09    1.44    23.58177    22.72804    41.11139
   145  H   1.0    0.05    1.05    1.44    25.43559    26.20752    37.47483
   146  H   1.0    0.06    1.03    1.43    27.84880    24.82817    41.23965
   147  H   1.0    0.06    1.04    1.43    27.88474    21.68534    40.09949
   148  H   1.0    0.05    1.03    1.43    29.92937    28.24705    38.32064
   149  H   1.0    0.06    1.03    1.43    31.40766    20.34945    37.80199
   150  H   1.0    0.06    1.03    1.43    34.26611    29.08637    36.96556
   151  H   1.0    0.07    1.03    1.43    35.53831    21.22466    35.88085
   152  H   1.0    0.06    1.03    1.43    37.07427    25.62403    35.65105
   153  N   5.0   -0.14    3.48    2.06    25.38763    20.24221    35.52384
   154  C   4.0    0.04    4.46    4.47    25.64430    18.81957    33.18447
   155  C   4.0    0.16    3.50    3.11    23.86521    19.78131    31.18847
   156  O   6.0   -0.31    1.27    1.80    24.48802    19.88639    28.91824
   157  C   4.0   -0.04    4.29    4.17    25.11510    16.01170    33.64034
   158  C   4.0   -0.04    4.18    3.96    27.41470    14.72289    34.80367
   159  C   4.0   -0.04    4.17    3.94    29.36323    13.96712    32.79204
   160  C   4.0   -0.03    4.14    3.87    32.06610    14.08799    33.81803
   161  N   5.0   -0.11    4.04    2.97    33.88864    13.78119    31.69990
   162  H   1.0    0.10    1.09    1.44    25.08431    19.34080    37.19125
   163  H   1.0    0.06    1.06    1.44    27.57199    19.07710    32.45691
   164  H   1.0    0.06    1.03    1.43    23.49773    15.87200    34.90578
   165  H   1.0    0.05    1.03    1.43    24.62247    15.09872    31.86135
   166  H   1.0    0.05    1.03    1.43    28.27136    16.01215    36.15920
   167  H   1.0    0.05    1.03    1.43    26.80634    13.05078    35.83899
   168  H   1.0    0.05    1.02    1.43    28.95020    12.06460    32.12157
   169  H   1.0    0.05    1.03    1.43    29.22566    15.25510    31.19105
   170  H   1.0    0.05    1.03    1.43    32.39835    15.95276    34.62676
   171  H   1.0    0.05    1.02    1.43    32.38187    12.63472    35.24003
   172  H   1.0    0.08    1.02    1.43    35.71149    13.62174    32.31907
   173  H   1.0    0.07    1.02    1.43    33.44236    12.25598    30.59665
   174  H   1.0    0.09    1.11    1.45    33.70680    15.53727    30.70166
   175  N   5.0   -0.13    3.43    2.03    21.50752    20.23854    31.97268
   176  C   4.0    0.02    4.27    4.13    19.63460    21.10309    30.17353
   177  C   4.0    0.16    3.36    3.07    20.11848    23.75943    29.20253
   178  O   6.0   -0.32    1.34    1.80    19.53266    24.43365    27.03528
   179  H   1.0    0.11    1.10    1.44    20.96903    19.92657    33.79506
   180  H   1.0    0.06    1.03    1.43    19.57531    19.84005    28.53273
   181  H   1.0    0.05    1.03    1.43    17.78912    21.07420    31.09395
   182  N   5.0   -0.13    3.54    2.11    21.23861    25.33135    30.81343
   183  C   4.0    0.04    4.40    4.39    21.78925    27.90293    30.05696
   184  C   4.0    0.16    3.50    3.11    23.85958    27.78168    28.02523
   185  O   6.0   -0.29    1.24    1.80    23.78777    29.04557    26.07874
   186  C   4.0   -0.04    4.33    4.25    22.65851    29.39733    32.41902
   187  C   4.0   -0.02    4.18    3.96    24.15835    31.84410    31.93314
   188  C   4.0   -0.07    4.11    3.83    22.61859    33.84860    30.56384
   189  C   4.0   -0.08    4.13    3.86    25.02994    32.93947    34.42761
   190  H   1.0    0.11    1.10    1.44    21.42747    24.83922    32.65750
   191  H   1.0    0.06    1.05    1.44    20.11991    28.76452    29.18463
   192  H   1.0    0.05    1.03    1.43    20.98557    29.82733    33.54274
   193  H   1.0    0.06    1.04    1.43    23.86052    28.12801    33.51336
   194  H   1.0    0.05    1.06    1.44    25.81373    31.37930    30.77977
   195  H   1.0    0.05    1.00    1.43    23.68953    35.59557    30.42847
   196  H   1.0    0.05    1.00    1.43    22.14747    33.23912    28.65893
   197  H   1.0    0.04    1.00    1.43    20.87163    34.23910    31.57470
   198  H   1.0    0.04    1.00    1.43    26.15934    34.62649    34.11297
   199  H   1.0    0.04    1.00    1.43    23.40570    33.45570    35.57658
   200  H   1.0    0.04    1.00    1.43    26.17272    31.58849    35.47771
   201  N   5.0   -0.14    3.55    2.11    25.76515    26.22747    28.52705
   202  C   4.0    0.04    4.51    4.56    27.84648    26.01726    26.76890
   203  C   4.0    0.16    3.50    3.12    26.84997    24.99090    24.25524
   204  O   6.0   -0.27    1.25    1.80    27.53754    25.79616    22.20000
   205  C   4.0   -0.02    4.26    4.12    29.94295    24.35493    27.85757
   206  C   4.0   -0.06    4.10    3.81    31.87058    23.54590    25.81859
   207  C   4.0   -0.07    4.11    3.83    31.22646    25.75927    30.01964
   208  H   1.0    0.11    1.10    1.44    25.83286    25.29273    30.20080
   209  H   1.0    0.06    1.06    1.44    28.60221    27.90640    26.35633
   210  H   1.0    0.06    1.06    1.44    29.06050    22.65086    28.62601
   211  H   1.0    0.05    1.00    1.43    33.41652    22.52448    26.70018
   212  H   1.0    0.06    1.00    1.43    30.99672    22.34625    24.40252
   213  H   1.0    0.05    1.00    1.43    32.64711    25.19851    24.87334
   214  H   1.0    0.05    1.00    1.43    32.64884    24.56612    30.89795
   215  H   1.0    0.04    1.00    1.43    32.15668    27.46523    29.34489
   216  H   1.0    0.06    1.00    1.43    29.87029    26.26947    31.47304
   217  N   5.0   -0.13    3.47    2.06    25.15340    23.08667    24.40899
   218  C   4.0    0.05    4.40    4.38    24.23667    21.99240    22.03289
   219  C   4.0    0.16    3.48    3.11    22.76834    23.89591    20.49076
   220  O   6.0   -0.25    1.22    1.80    22.88360    23.94771    18.15862
   221  C   4.0    0.05    4.16    3.93    22.39915    19.74090    22.43925
   222  O   6.0   -0.23    2.05    1.83    23.63167    17.75876    23.64044
   223  H   1.0    0.11    1.08    1.44    24.74327    22.20430    26.06349
   224  H   1.0    0.07    1.05    1.44    25.84561    21.34820    20.89853
   225  H   1.0    0.06    1.01    1.43    20.72395    20.38160    23.47219
   226  H   1.0    0.07    1.02    1.43    21.80291    19.06961    20.58190
   227  H   1.0    0.14    1.04    1.43    23.85549    18.18484    25.41562
   228  N   5.0   -0.13    3.45    2.04    21.18689    25.40233    21.79554
   229  C   4.0    0.05    4.28    4.16    19.80307    27.41602    20.51222
   230  C   4.0    0.11    3.27    3.05    21.63098    29.32696    19.34768
   231  O   6.0   -0.25    1.12    1.80    21.24686    30.18251    17.22667
   232  C   4.0   -0.03    4.27    4.13    17.94131    28.83544    22.28252
   233  C   4.0   -0.00    3.51    3.12    17.60466    31.66853    22.03041
   234  C   4.0   -0.02    3.42    3.09    16.30539    32.81180    19.96895
   235  C   4.0   -0.03    3.46    3.10    18.32671    33.25163    23.98888
   236  C   4.0   -0.03    3.39    3.07    15.84773    35.36857    19.91524
   237  C   4.0   -0.02    3.43    3.09    17.83417    35.80409    23.97434
   238  C   4.0    0.08    3.39    3.08    16.54940    36.95062    21.96695
   239  O   6.0   -0.22    2.07    1.83    16.02270    39.49037    22.24515
   240  H   1.0    0.11    1.09    1.44    21.04368    25.21863    23.69591
   241  H   1.0    0.07    1.05    1.44    18.76588    26.55433    18.93922
   242  H   1.0    0.05    1.03    1.43    16.09154    27.95174    22.04562
   243  H   1.0    0.06    1.04    1.43    18.57460    28.46425    24.21103
   244  H   1.0    0.07    1.03    1.43    15.71574    31.65860    18.39308
   245  H   1.0    0.06    1.03    1.43    19.30153    32.45118    25.59246
   246  H   1.0    0.07    1.03    1.43    14.88253    36.20812    18.31903
   247  H   1.0    0.07    1.03    1.43    18.37575    36.96653    25.55241
   248  H   1.0    0.13    1.01    1.43    15.48394    40.23486    20.62318
   249  O   6.0   -0.29    1.96    1.82    29.36247    18.39610    44.06319
   250  H   1.0    0.17    1.03    1.43    30.94645    19.29654    44.07622
   251  H   1.0    0.15    0.98    1.43    28.11876    19.63072    44.57294
   252  O   6.0   -0.29    1.93    1.82    15.87343    22.34515    24.14956
   253  H   1.0    0.16    1.03    1.43    17.15850    23.23002    25.11802
   254  H   1.0    0.14    0.97    1.43    14.29781    22.57114    25.02252
   255  O   6.0   -0.31    1.98    1.82    19.03175    18.53449    36.36152
   256  H   1.0    0.16    1.01    1.43    19.34877    18.43717    38.16976
   257  H   1.0    0.14    0.97    1.43    18.10620    17.03270    35.93316
   258  O   6.0   -0.30    1.99    1.83    42.53859    26.58919    37.78006
   259  H   1.0    0.13    0.96    1.43    42.90939    26.77685    39.57629
   260  H   1.0    0.16    1.01    1.43    41.63883    28.06247    37.17733
   261  O   6.0   -0.31    1.96    1.82    25.32079    17.64946    40.36571
   262  H   1.0    0.15    0.99    1.43    26.70272    17.58818    41.56800
   263  H   1.0    0.15    0.98    1.43    23.78338    17.47033    41.31212
   264  O   6.0   -0.32    2.07    1.83    33.18518    18.54073    30.62209
   265  H   1.0    0.16    1.03    1.43    34.89592    19.07135    30.15225
   266  H   1.0    0.13    0.97    1.43    32.07706    18.84247    29.20114
   267  O   6.0   -0.27    1.92    1.82    41.38932    21.57335    37.51095
   268  H   1.0    0.15    1.02    1.43    41.75277    23.37370    37.66477
   269  H   1.0    0.14    0.97    1.43    40.65262    21.06747    39.08786
   270  O   6.0   -0.28    1.92    1.82    13.66492    34.81600    37.82620
   271  H   1.0    0.13    0.97    1.43    14.90503    35.96863    37.14998
   272  H   1.0    0.13    0.97    1.43    13.68220    35.05612    39.62403
   273  O   6.0   -0.28    1.92    1.82    36.02849    18.25885    41.18736
   274  H   1.0    0.14    0.97    1.43    37.28958    18.21852    42.51374
   275  H   1.0    0.14    0.97    1.43    35.07497    16.72232    41.36621
   276  H   1.0    0.09    1.07    1.44    37.61850    28.97470    27.80315
   277  H   1.0    0.07    1.05    1.44    42.54846    30.66238    31.64149
   278  H   1.0    0.10    1.07    1.44    36.83761    37.36341    33.22290
   279  H   1.0    0.06    1.04    1.43    38.66289    34.85317    43.56717
   280  H   1.0    0.09    1.07    1.44    33.64978    35.20909    45.13655
   281  H   1.0    0.07    1.04    1.44    33.19515    24.34561    47.35052
   282  H   1.0    0.09    1.07    1.44    28.34097    25.30954    49.61852
   283  H   1.0    0.08    1.04    1.44    23.15363    29.88898    20.31553

  Z AO/shell   Hii/eV     exponent
  1     Wed Apr 25 08:07:45 CEST 2018   EN: 2.200 GM2: 0.406  GM3: 0.0800  RAES: 1.40
     1s    -10.707211    1.230000
  6     Wed Apr 25 08:07:45 CEST 2018   EN: 2.550 GM2: 0.538  GM3: 0.1500  RAES: 3.00
     2s    -13.970922    2.096432
     2p    -10.063292    1.800000
  7     Wed Apr 25 08:07:45 CEST 2018   EN: 3.040 GM2: 0.461  GM3:-0.0640  RAES: 1.90
     2s    -16.686243    2.339881
     2p    -12.523956    2.014332
  8     Wed Apr 25 08:07:45 CEST 2018   EN: 3.440 GM2: 0.452  GM3:-0.0517  RAES: 1.80
     2s    -20.229985    2.439742
     2p    -15.503117    2.137023
 no old-style atom pair restraining (fixing) potential

molecular fragmentation (1/2 indicates fragments):
111111111111111222222222222222222222222222222222222222222222222222222222
222222222222222222222222222222222222222222222222222222222222222222222222
222222222222222222222222222222222222222222222222222222222222222222222222
2222222222222222222222222222222222222222222222222222222222211222222
# atoms in fragment 1/2:    17   266
 fragment masses (1/2) :      130.12     1772.10
CMA distance (Bohr)    :  14.498
constraining FC (au)   :  0.0500
           ------------------------------------------------- 
          |        Self-Consistent Charge Iterations        |
           ------------------------------------------------- 

 Ncao       : 682
 Nao        : 682
 Nshell     : 416
 Nel        : 758
 T(el)      :   500.0
 intcut     :    35.0
 scfconv/Eh :  0.100E-06
   qconv/e  :  0.100E-04
 intneglect :  0.100E-08
 broydamp   :      0.400
 iter      E             dE          RMSdq      gap      omega  full diag
   1   -436.4582863 -0.436458E+03  0.469E+00    2.83       0.0  T
   2   -437.3059437 -0.847657E+00  0.231E+00    2.04       1.0  T
   3   -437.3526977 -0.467540E-01  0.117E+00    2.16       1.0  T
   4   -437.4343645 -0.816668E-01  0.287E-01    1.60       1.0  T
   5   -437.4380055 -0.364100E-02  0.128E-01    1.72       1.0  T
   6   -437.4391962 -0.119074E-02  0.536E-02    1.70       1.0  T
   7   -437.4394277 -0.231496E-03  0.264E-02    1.69       1.0  T
   8   -437.4394551 -0.273493E-04  0.116E-02    1.67       1.0  T
   9   -437.4394645 -0.949079E-05  0.497E-03    1.66       1.2  T
  10   -437.4394663 -0.171683E-05  0.244E-03    1.66       2.4  T
  11   -437.4394666 -0.330526E-06  0.117E-03    1.66       5.1  T
  12   -437.4394667 -0.106639E-06  0.547E-04    1.65      10.9  T
  13   -437.4394667 -0.253177E-07  0.246E-04    1.65      24.2  T
  14   -437.4394667 -0.304641E-08  0.110E-04    1.65      54.2  T
  15   -437.4394667 -0.711964E-09  0.492E-05    1.65     120.9  T
  16   -437.4394667 -0.173657E-09  0.215E-05    1.65     276.6  T
speedup  2.00
cpu  time for SCC    4.38 s
wall time for SCC    2.19 s

   *** convergence criteria satisfied after 16 iterations ***

          eigenvalues
 #    :         367        368        369        370        371        372        373        374
 occ. :        2.000      2.000      2.000      2.000      2.000      2.000      2.000      2.000
 eps  :       -10.784    -10.777    -10.771    -10.711    -10.628    -10.614    -10.379    -10.279
 #    :         375        376        377        378        379        380        381        382
 occ. :        2.000      2.000      2.000      2.000      2.000      0.000      0.000      0.000
 eps  :       -10.253    -10.204     -9.824     -9.770     -9.731     -8.077     -7.914     -7.721
 #    :         383        384        385        386        387        388        389        390
 occ. :        0.000      0.000      0.000      0.000      0.000      0.000      0.000      0.000
 eps  :        -7.712     -6.572     -6.524     -6.395     -6.363     -6.319     -6.278     -6.258


   #   Z            q   n(s)   n(p)   n(d)      C6AA      α(0)
   1   7 N     -0.390  1.310  4.080  0.000    30.086     8.146
   2   6 C      0.038  1.063  2.899  0.000    19.958     6.364
   3   6 C      0.195  1.093  2.712  0.000    23.837     7.996
   4   8 O     -0.383  1.743  4.641  0.000    21.348     6.195
   5   6 C     -0.043  1.055  2.988  0.000    21.333     6.576
   6   6 C     -0.085  1.060  3.024  0.000    22.109     6.694
   7   6 C      0.371  1.021  2.608  0.000    20.716     7.449
   8   8 O     -0.644  1.782  4.863  0.000    27.236     6.997
   9   8 O     -0.622  1.749  4.873  0.000    26.670     6.924
  10   1 H      0.157  0.843  0.000  0.000     1.355     1.823
  11   1 H      0.058  0.942  0.000  0.000     2.220     2.330
  12   1 H      0.043  0.957  0.000  0.000     2.410     2.428
  13   1 H      0.049  0.951  0.000  0.000     2.333     2.389
  14   1 H      0.036  0.964  0.000  0.000     2.497     2.471
  15   1 H      0.027  0.973  0.000  0.000     2.634     2.538
  16   7 N     -0.387  1.313  4.074  0.000    30.005     8.135
  17   6 C      0.028  1.066  2.906  0.000    20.126     6.390
  18   6 C      0.264  1.051  2.685  0.000    22.545     7.775
  19   8 O     -0.484  1.745  4.739  0.000    23.435     6.490
  20   6 C     -0.061  1.049  3.012  0.000    21.672     6.627
  21   6 C     -0.001  1.078  2.923  0.000    28.048     8.687
  22   6 C     -0.045  1.081  2.963  0.000    29.116     8.849
  23   6 C     -0.040  1.082  2.958  0.000    29.006     8.832
  24   6 C     -0.062  1.076  2.986  0.000    29.533     8.911
  25   6 C     -0.074  1.078  2.996  0.000    29.838     8.958
  26   6 C      0.146  1.043  2.811  0.000    24.824     8.166
  27   8 O     -0.430  1.715  4.715  0.000    21.438     6.250
  28   1 H      0.145  0.855  0.000  0.000     1.434     1.876
  29   1 H      0.063  0.937  0.000  0.000     2.160     2.298
  30   1 H      0.033  0.967  0.000  0.000     2.545     2.495
  31   1 H      0.058  0.942  0.000  0.000     2.217     2.329
  32   1 H      0.049  0.951  0.000  0.000     2.329     2.386
  33   1 H      0.027  0.973  0.000  0.000     2.636     2.539
  34   1 H      0.056  0.944  0.000  0.000     2.248     2.344
  35   1 H      0.025  0.975  0.000  0.000     2.653     2.547
  36   1 H      0.339  0.661  0.000  0.000     0.614     1.231
  37   7 N     -0.162  1.244  3.918  0.000    24.506     7.352
  38   6 C      0.033  1.055  2.912  0.000    20.028     6.373
  39   6 C      0.203  1.091  2.707  0.000    23.689     7.971
  40   8 O     -0.357  1.747  4.610  0.000    20.840     6.121
  41   6 C     -0.135  1.041  3.094  0.000    23.138     6.857
  42   1 H      0.225  0.775  0.000  0.000     0.985     1.555
  43   1 H      0.077  0.923  0.000  0.000     2.012     2.218
  44   1 H      0.077  0.923  0.000  0.000     2.011     2.218
  45   1 H      0.080  0.920  0.000  0.000     1.976     2.198
  46   1 H      0.072  0.928  0.000  0.000     2.061     2.245
  47   7 N     -0.413  1.326  4.087  0.000    30.726     8.232
  48   6 C      0.031  1.059  2.909  0.000    20.063     6.380
  49   6 C      0.264  1.054  2.683  0.000    22.551     7.777
  50   8 O     -0.499  1.742  4.757  0.000    23.772     6.537
  51   6 C     -0.062  1.053  3.008  0.000    21.673     6.626
  52   6 C     -0.009  1.056  2.953  0.000    20.708     6.473
  53   6 C     -0.112  1.040  3.072  0.000    22.697     6.793
  54   6 C     -0.123  1.042  3.081  0.000    22.913     6.825
  55   1 H      0.166  0.834  0.000  0.000     1.299     1.785
  56   1 H      0.065  0.935  0.000  0.000     2.140     2.288
  57   1 H      0.023  0.977  0.000  0.000     2.694     2.567
  58   1 H      0.050  0.950  0.000  0.000     2.316     2.380
  59   1 H      0.019  0.981  0.000  0.000     2.756     2.596
  60   1 H      0.035  0.965  0.000  0.000     2.515     2.480
  61   1 H      0.026  0.974  0.000  0.000     2.642     2.542
  62   1 H      0.047  0.953  0.000  0.000     2.364     2.404
  63   1 H      0.045  0.955  0.000  0.000     2.384     2.414
  64   1 H      0.055  0.945  0.000  0.000     2.259     2.351
  65   1 H      0.043  0.957  0.000  0.000     2.403     2.424
  66   7 N     -0.163  1.239  3.924  0.000    24.527     7.355
  67   6 C      0.030  1.050  2.920  0.000    20.072     6.379
  68   6 C      0.212  1.083  2.705  0.000    23.516     7.942
  69   8 O     -0.355  1.740  4.614  0.000    20.793     6.114
  70   6 C      0.083  1.037  2.880  0.000    19.396     6.307
  71   8 O     -0.465  1.708  4.758  0.000    22.162     6.355
  72   1 H      0.224  0.776  0.000  0.000     0.991     1.559
  73   1 H      0.084  0.916  0.000  0.000     1.940     2.178
  74   1 H      0.049  0.951  0.000  0.000     2.327     2.386
  75   1 H      0.040  0.960  0.000  0.000     2.448     2.447
  76   1 H      0.347  0.653  0.000  0.000     0.596     1.212
  77   7 N     -0.391  1.310  4.081  0.000    30.114     8.150
  78   6 C      0.031  1.058  2.911  0.000    20.075     6.382
  79   6 C      0.249  1.061  2.689  0.000    22.816     7.823
  80   8 O     -0.510  1.751  4.759  0.000    24.010     6.570
  81   6 C     -0.070  1.055  3.015  0.000    21.828     6.650
  82   6 C     -0.069  1.047  3.022  0.000    21.813     6.649
  83   6 C     -0.094  1.053  3.041  0.000    22.294     6.722
  84   6 C     -0.048  1.058  2.991  0.000    21.528     6.622
  85   7 N     -0.148  1.234  3.915  0.000    24.195     7.306
  86   1 H      0.165  0.835  0.000  0.000     1.306     1.790
  87   1 H      0.052  0.948  0.000  0.000     2.293     2.368
  88   1 H      0.041  0.959  0.000  0.000     2.442     2.444
  89   1 H      0.037  0.963  0.000  0.000     2.495     2.470
  90   1 H      0.052  0.948  0.000  0.000     2.293     2.368
  91   1 H      0.054  0.946  0.000  0.000     2.266     2.354
  92   1 H      0.080  0.920  0.000  0.000     1.975     2.197
  93   1 H      0.072  0.928  0.000  0.000     2.069     2.249
  94   1 H      0.112  0.888  0.000  0.000     1.681     2.028
  95   1 H      0.117  0.883  0.000  0.000     1.638     2.002
  96   1 H      0.304  0.696  0.000  0.000     0.701     1.312
  97   1 H      0.301  0.699  0.000  0.000     0.712     1.322
  98   1 H      0.295  0.705  0.000  0.000     0.728     1.337
  99   7 N     -0.103  1.240  3.863  0.000    23.267     7.164
 100   6 C      0.018  1.065  2.917  0.000    20.246     6.402
 101   6 C      0.274  1.042  2.684  0.000    22.362     7.744
 102   8 O     -0.496  1.744  4.752  0.000    23.691     6.526
 103   6 C     -0.072  1.054  3.017  0.000    21.848     6.651
 104   6 C     -0.076  1.052  3.024  0.000    21.927     6.662
 105   6 C     -0.018  1.056  2.962  0.000    20.940     6.522
 106   1 H      0.072  0.928  0.000  0.000     2.059     2.244
 107   1 H      0.059  0.941  0.000  0.000     2.206     2.323
 108   1 H      0.066  0.934  0.000  0.000     2.126     2.280
 109   1 H      0.078  0.922  0.000  0.000     2.003     2.213
 110   1 H      0.066  0.934  0.000  0.000     2.132     2.284
 111   1 H      0.076  0.924  0.000  0.000     2.024     2.225
 112   1 H      0.085  0.915  0.000  0.000     1.930     2.173
 113   7 N     -0.167  1.234  3.933  0.000    24.623     7.370
 114   6 C      0.018  1.061  2.921  0.000    20.284     6.413
 115   6 C      0.272  1.044  2.684  0.000    22.396     7.750
 116   8 O     -0.499  1.743  4.756  0.000    23.761     6.535
 117   6 C     -0.079  1.051  3.029  0.000    22.001     6.676
 118   6 C      0.005  1.080  2.915  0.000    27.904     8.665
 119   6 C     -0.039  1.081  2.958  0.000    28.970     8.827
 120   6 C     -0.051  1.083  2.968  0.000    29.263     8.871
 121   6 C     -0.032  1.080  2.952  0.000    28.806     8.802
 122   6 C     -0.037  1.081  2.957  0.000    28.930     8.820
 123   6 C     -0.036  1.079  2.957  0.000    28.885     8.813
 124   1 H      0.208  0.792  0.000  0.000     1.066     1.618
 125   1 H      0.095  0.905  0.000  0.000     1.833     2.117
 126   1 H      0.071  0.929  0.000  0.000     2.074     2.252
 127   1 H      0.067  0.933  0.000  0.000     2.119     2.276
 128   1 H      0.026  0.974  0.000  0.000     2.650     2.546
 129   1 H      0.046  0.954  0.000  0.000     2.374     2.410
 130   1 H      0.031  0.969  0.000  0.000     2.568     2.506
 131   1 H      0.062  0.938  0.000  0.000     2.176     2.307
 132   1 H      0.049  0.951  0.000  0.000     2.338     2.391
 133   7 N     -0.174  1.245  3.929  0.000    24.776     7.393
 134   6 C      0.035  1.057  2.908  0.000    19.983     6.364
 135   6 C      0.271  1.047  2.682  0.000    22.421     7.754
 136   8 O     -0.506  1.746  4.759  0.000    23.911     6.556
 137   6 C     -0.086  1.055  3.031  0.000    22.133     6.696
 138   6 C      0.012  1.080  2.908  0.000    27.738     8.639
 139   6 C     -0.039  1.078  2.961  0.000    28.960     8.825
 140   6 C     -0.039  1.080  2.959  0.000    28.981     8.829
 141   6 C     -0.035  1.076  2.959  0.000    28.872     8.812
 142   6 C     -0.030  1.082  2.947  0.000    28.741     8.792
 143   6 C     -0.041  1.078  2.963  0.000    29.007     8.832
 144   1 H      0.223  0.777  0.000  0.000     0.994     1.562
 145   1 H      0.063  0.937  0.000  0.000     2.167     2.302
 146   1 H      0.081  0.919  0.000  0.000     1.972     2.196
 147   1 H      0.084  0.916  0.000  0.000     1.934     2.175
 148   1 H      0.026  0.974  0.000  0.000     2.640     2.541
 149   1 H      0.054  0.946  0.000  0.000     2.272     2.357
 150   1 H      0.027  0.973  0.000  0.000     2.633     2.538
 151   1 H      0.045  0.955  0.000  0.000     2.389     2.417
 152   1 H      0.027  0.973  0.000  0.000     2.632     2.537
 153   7 N     -0.187  1.255  3.932  0.000    25.054     7.434
 154   6 C      0.017  1.059  2.924  0.000    20.294     6.413
 155   6 C      0.272  1.046  2.682  0.000    22.406     7.752
 156   8 O     -0.524  1.750  4.774  0.000    24.322     6.612
 157   6 C     -0.084  1.058  3.026  0.000    22.086     6.690
 158   6 C     -0.082  1.052  3.029  0.000    22.054     6.686
 159   6 C     -0.096  1.057  3.039  0.000    22.330     6.728
 160   6 C     -0.043  1.059  2.984  0.000    21.447     6.611
 161   7 N     -0.181  1.244  3.937  0.000    24.914     7.413
 162   1 H      0.245  0.755  0.000  0.000     0.903     1.489
 163   1 H      0.088  0.912  0.000  0.000     1.895     2.153
 164   1 H      0.076  0.924  0.000  0.000     2.016     2.220
 165   1 H      0.068  0.932  0.000  0.000     2.110     2.272
 166   1 H      0.072  0.928  0.000  0.000     2.069     2.249
 167   1 H      0.074  0.926  0.000  0.000     2.041     2.234
 168   1 H      0.075  0.925  0.000  0.000     2.035     2.231
 169   1 H      0.070  0.930  0.000  0.000     2.082     2.256
 170   1 H      0.108  0.892  0.000  0.000     1.710     2.045
 171   1 H      0.109  0.891  0.000  0.000     1.708     2.044
 172   1 H      0.273  0.727  0.000  0.000     0.800     1.401
 173   1 H      0.278  0.722  0.000  0.000     0.783     1.386
 174   1 H      0.300  0.700  0.000  0.000     0.712     1.322
 175   7 N     -0.175  1.246  3.929  0.000    24.793     7.395
 176   6 C     -0.035  1.048  2.986  0.000    21.255     6.575
 177   6 C      0.272  1.042  2.687  0.000    22.408     7.752
 178   8 O     -0.515  1.750  4.765  0.000    24.129     6.586
 179   1 H      0.243  0.757  0.000  0.000     0.912     1.496
 180   1 H      0.094  0.906  0.000  0.000     1.841     2.122
 181   1 H      0.108  0.892  0.000  0.000     1.712     2.046
 182   7 N     -0.173  1.253  3.920  0.000    24.748     7.388
 183   6 C      0.025  1.063  2.912  0.000    20.158     6.393
 184   6 C      0.280  1.040  2.680  0.000    22.269     7.728
 185   8 O     -0.511  1.758  4.753  0.000    24.030     6.572
 186   6 C     -0.077  1.063  3.014  0.000    21.974     6.673
 187   6 C     -0.004  1.051  2.952  0.000    20.612     6.458
 188   6 C     -0.112  1.038  3.074  0.000    22.697     6.792
 189   6 C     -0.110  1.039  3.071  0.000    22.655     6.785
 190   1 H      0.239  0.761  0.000  0.000     0.929     1.509
 191   1 H      0.066  0.934  0.000  0.000     2.125     2.280
 192   1 H      0.068  0.932  0.000  0.000     2.109     2.271
 193   1 H      0.063  0.937  0.000  0.000     2.159     2.298
 194   1 H      0.015  0.985  0.000  0.000     2.817     2.625
 195   1 H      0.040  0.960  0.000  0.000     2.453     2.449
 196   1 H      0.029  0.971  0.000  0.000     2.607     2.525
 197   1 H      0.049  0.951  0.000  0.000     2.327     2.385
 198   1 H      0.042  0.958  0.000  0.000     2.424     2.435
 199   1 H      0.054  0.946  0.000  0.000     2.268     2.355
 200   1 H      0.036  0.964  0.000  0.000     2.506     2.476
 201   7 N     -0.189  1.249  3.940  0.000    25.089     7.439
 202   6 C      0.031  1.059  2.910  0.000    20.050     6.374
 203   6 C      0.287  1.044  2.670  0.000    22.146     7.707
 204   8 O     -0.506  1.759  4.747  0.000    23.917     6.557
 205   6 C     -0.018  1.063  2.956  0.000    20.866     6.497
 206   6 C     -0.114  1.039  3.075  0.000    22.739     6.800
 207   6 C     -0.112  1.038  3.074  0.000    22.698     6.793
 208   1 H      0.235  0.765  0.000  0.000     0.944     1.522
 209   1 H      0.059  0.941  0.000  0.000     2.208     2.324
 210   1 H      0.059  0.941  0.000  0.000     2.212     2.326
 211   1 H      0.060  0.940  0.000  0.000     2.196     2.318
 212   1 H      0.035  0.965  0.000  0.000     2.522     2.484
 213   1 H      0.036  0.964  0.000  0.000     2.505     2.475
 214   1 H      0.055  0.945  0.000  0.000     2.261     2.352
 215   1 H      0.031  0.969  0.000  0.000     2.569     2.506
 216   1 H      0.060  0.940  0.000  0.000     2.197     2.318
 217   7 N     -0.202  1.257  3.945  0.000    25.384     7.483
 218   6 C      0.019  1.064  2.918  0.000    20.262     6.409
 219   6 C      0.276  1.044  2.680  0.000    22.337     7.740
 220   8 O     -0.516  1.759  4.757  0.000    24.141     6.587
 221   6 C      0.074  1.038  2.889  0.000    19.544     6.330
 222   8 O     -0.455  1.708  4.748  0.000    21.956     6.325
 223   1 H      0.226  0.774  0.000  0.000     0.982     1.552
 224   1 H      0.070  0.930  0.000  0.000     2.086     2.259
 225   1 H      0.048  0.952  0.000  0.000     2.348     2.396
 226   1 H      0.058  0.942  0.000  0.000     2.227     2.334
 227   1 H      0.345  0.655  0.000  0.000     0.601     1.218
 228   7 N     -0.178  1.250  3.929  0.000    24.862     7.405
 229   6 C      0.037  1.060  2.903  0.000    19.958     6.363
 230   6 C      0.218  1.083  2.699  0.000    23.394     7.921
 231   8 O     -0.370  1.753  4.617  0.000    21.096     6.158
 232   6 C     -0.075  1.057  3.018  0.000    21.932     6.667
 233   6 C     -0.005  1.085  2.919  0.000    28.136     8.700
 234   6 C     -0.039  1.087  2.952  0.000    28.975     8.827
 235   6 C     -0.039  1.082  2.956  0.000    28.959     8.825
 236   6 C     -0.069  1.081  2.988  0.000    29.723     8.940
 237   6 C     -0.060  1.075  2.985  0.000    29.487     8.905
 238   6 C      0.136  1.053  2.810  0.000    25.014     8.196
 239   8 O     -0.436  1.731  4.704  0.000    21.553     6.267
 240   1 H      0.221  0.779  0.000  0.000     1.004     1.570
 241   1 H      0.085  0.915  0.000  0.000     1.930     2.172
 242   1 H      0.082  0.918  0.000  0.000     1.957     2.188
 243   1 H      0.076  0.924  0.000  0.000     2.018     2.221
 244   1 H      0.043  0.957  0.000  0.000     2.405     2.425
 245   1 H      0.041  0.959  0.000  0.000     2.435     2.440
 246   1 H      0.045  0.955  0.000  0.000     2.383     2.414
 247   1 H      0.057  0.943  0.000  0.000     2.233     2.337
 248   1 H      0.348  0.652  0.000  0.000     0.594     1.211
 249   8 O     -0.643  1.753  4.890  0.000    26.245     6.914
 250   1 H      0.327  0.673  0.000  0.000     0.646     1.262
 251   1 H      0.308  0.692  0.000  0.000     0.696     1.311
 252   8 O     -0.669  1.774  4.895  0.000    26.911     7.001
 253   1 H      0.311  0.689  0.000  0.000     0.690     1.305
 254   1 H      0.324  0.676  0.000  0.000     0.653     1.269
 255   8 O     -0.646  1.756  4.889  0.000    26.302     6.922
 256   1 H      0.322  0.678  0.000  0.000     0.659     1.276
 257   1 H      0.330  0.670  0.000  0.000     0.638     1.255
 258   8 O     -0.630  1.767  4.864  0.000    25.920     6.871
 259   1 H      0.327  0.673  0.000  0.000     0.645     1.262
 260   1 H      0.320  0.680  0.000  0.000     0.664     1.280
 261   8 O     -0.620  1.740  4.881  0.000    25.678     6.839
 262   1 H      0.327  0.673  0.000  0.000     0.646     1.262
 263   1 H      0.300  0.700  0.000  0.000     0.722     1.335
 264   8 O     -0.586  1.733  4.854  0.000    24.866     6.730
 265   1 H      0.319  0.681  0.000  0.000     0.666     1.282
 266   1 H      0.308  0.692  0.000  0.000     0.697     1.311
 267   8 O     -0.660  1.780  4.880  0.000    26.675     6.971
 268   1 H      0.318  0.682  0.000  0.000     0.668     1.284
 269   1 H      0.309  0.691  0.000  0.000     0.694     1.309
 270   8 O     -0.668  1.783  4.885  0.000    26.868     6.996
 271   1 H      0.333  0.667  0.000  0.000     0.631     1.247
 272   1 H      0.335  0.665  0.000  0.000     0.624     1.241
 273   8 O     -0.633  1.769  4.864  0.000    25.978     6.879
 274   1 H      0.305  0.695  0.000  0.000     0.705     1.319
 275   1 H      0.328  0.672  0.000  0.000     0.643     1.259
 276   1 H      0.175  0.825  0.000  0.000     1.241     1.745
 277   1 H      0.077  0.923  0.000  0.000     2.007     2.215
 278   1 H      0.182  0.818  0.000  0.000     1.203     1.718
 279   1 H      0.082  0.918  0.000  0.000     1.956     2.187
 280   1 H      0.176  0.824  0.000  0.000     1.239     1.743
 281   1 H      0.088  0.912  0.000  0.000     1.899     2.155
 282   1 H      0.181  0.819  0.000  0.000     1.207     1.721
 283   1 H      0.062  0.938  0.000  0.000     2.172     2.304

 Mol. C6AA /au·bohr⁶  :     713995.487242
 Mol. C8AA /au·bohr⁸  :   15860045.045164
 Mol. α(0) /au        :       1271.823122

 
molecular dipole:
                 x           y           z       tot (Debye)
 q only:       18.968      29.952      73.148
   full:       19.362      31.053      73.682     209.113
molecular quadrupole (traceless):
                xx          xy          yy          xz          yz          zz
 q only:    -2328.486     946.765   -1165.495    2422.569    3248.589    3493.981
  q+dip:    -2352.488    1020.096   -1136.290    2441.969    3320.808    3488.778
   full:    -2348.483    1019.391   -1139.758    2444.009    3319.677    3488.241
speedup  2.00
cpu  time for grad    5.28 s
wall time for grad    2.64 s

SCC energy    :    -437.4483384
rep           :       5.2476839
ES            :       1.4397035
AES           :      -0.0788564
AXC           :       0.1330219
disp          :      -0.3651404
XB            :       0.0000000
fix           :       0.0000000
Gborn         :       0.0000000
Gsasa         :       0.0000000
Ghb           :       0.0000000
Gshift        :       0.0000000
Gsolv         :      -0.3701943     -232.30
Etot ala COSMO:    -437.4483384
grad norm     :       0.4718666
total E       :    -432.1645083
atomizationE  :      77.5791765    48681.67
(atE without considering molecular charge,
 total energy contains solvation terms)
H-L gap (eV)  :          1.6541

------------------------------------------------------------------------
 * finished run on 2019/05/05 at 17:07:31.389     
------------------------------------------------------------------------
 total:
 * wall-time:     0 d,  0 h,  0 min,  3.041 sec
 *  cpu-time:     0 d,  0 h,  0 min,  5.850 sec
 * ratio c/w:     1.924 speedup
 SCF:
 * wall-time:     0 d,  0 h,  0 min,  2.810 sec
 *  cpu-time:     0 d,  0 h,  0 min,  5.619 sec
 * ratio c/w:     1.999 speedup

