      -----------------------------------------------------------      
     |                   =====================                   |     
     |                           x T B                           |     
     |                   =====================                   |     
     |                         S. Grimme                         |     
     |          Mulliken Center for Theoretical Chemistry        |     
     |                    University of Bonn                     |     
     |                 Version 6.0.1 (SAW181210)                 |     
      -----------------------------------------------------------      

   This program is distributed in the hope that it will be useful,
   but WITHOUT ANY WARRANTY; without even the implied warranty of
   MERCHANTABILITY or FITNESS FOR A PARTICULAR PURPOSE.
   
   FOR NON-COMMERCIAL, ACADEMIA USE ONLY.
   
   Cite this work as:
   S. Grimme, C. Bannwarth, P. Shushkov, J. Comput. Theory Chem., 2017,
   13, 1989-2009.
   C. Bannwarth, S. Ehlert and S. Grimme., ChemRxiv, 2018, preprint.
   http://doi.org/10.26434/chemrxiv.7246238.v1
   
   for sTDA-xTB:
   S. Grimme and C. Bannwarth, J. Chem. Phys., 2016, 145, 054103.
   
   in the mass-spec context:
   V. Asgeirsson, C. Bauer and S. Grimme, Chem. Sci., 2017, 8, 4879.
   
   if GBSA is used:
   P. Shushkov, F. März and S. Grimme, unpublished.
   
   for ANC optimizer:
   S. Grimme, unpublished.
   Rational Function algorithm used in ANCopt:
   F. Eckert, P. Pulay, H.-J. Werner, J. Comput. Chem., 1997, 18, 1473.
   
   with help from (in alphabetical order)
   C. Bannwarth, F. Bohle, G. Brandenburg, E. Caldeweyher, M. Checinski,
   S. Dohm, S. Ehlert, S. Ehrlich, F. März, H. Neugebauer, J. Pisarek,
   P. Pracht, P. Shushkov, and S. Spicher.
   
 * started run on 2019/05/05 at 22:12:24.772     
========================================================================
 # omp threads = 2
========================================================================
number of atoms            : 200
number of electrons        : 536
charge                     : 3
spin                       : .0
first test random number   : .1218

########################################################################
# WARNING! Please study the warnings concerning your input carefully
#  - Process number higher than OMP_NUM_THREADS, I hope you know what you are doing.
########################################################################

           ------------------------------------------------- 
          |                 G F N 2 - x T B                 |
          | Geometry, Frequencies, Noncovalent interactions |
          |            JCTC 2018 parametrisation            |
           ------------------------------------------------- 
 
      method parameters     
 k(s)        :  1.8500
 k(p)        :  2.2300
 k(d)        :  2.2300
 k(f)        :  2.0000
 kEN (H0ij)  : -2.0000
 D4 a1       :  0.5200
 D4 a2       :  5.0000
 D4 s6       :  1.0000
 D4 s8       :  2.7000
 D4 s9       :  5.0000
 alphaj      :  2.0000

 Solvent             : h2o
 Using internal parameter file: .param_gbsa2_h2o
 Gsolv ref. state (COSMO-RS): gsolv [1 M gas/solution]
 temperature (mdtemp)       :    298.150000000000     
 dielectric constant        :    80.2000000000000     
 rho                        :    1.00000000000000     
 mass                       :    18.0000000000000     
 surface tension            :    15.5689454083859     
 probe radius               :   0.975313790000000     
 vdW radii scaling          :    1.00000000000000     
 Gshift (Eh)                :   1.857443126794793E-003
 c1                         :    1.55243817000000     
 soset                      :   0.130326360000000     
 HB correction              :  T

            Z     q(EN)     CN     RAES       Cart. coordinates
     1  N   5.0   -0.16    3.16    1.95    66.32560    48.41289   163.24776
     2  C   4.0    0.03    4.18    3.96    66.66764    46.82741   165.44551
     3  C   4.0    0.16    3.34    3.06    66.21978    48.28817   167.83412
     4  O   6.0   -0.25    1.23    1.80    65.10862    47.30551   169.61235
     5  H   1.0    0.13    1.02    1.43    64.49068    48.92312   162.95485
     6  H   1.0    0.09    1.03    1.43    65.34294    45.25138   165.37559
     7  H   1.0    0.07    1.03    1.43    68.58949    46.08664   165.47385
     8  N   5.0   -0.12    3.53    2.10    67.05504    50.64843   167.88136
     9  C   4.0    0.04    4.43    4.44    67.38763    52.01093   170.26620
    10  C   4.0    0.16    3.51    3.12    66.06482    54.55261   170.15470
    11  O   6.0   -0.24    1.29    1.80    65.60373    55.52015   168.14215
    12  C   4.0   -0.03    4.30    4.19    70.23544    52.32840   170.79532
    13  C   4.0   -0.01    3.53    3.13    71.81903    49.98892   170.23029
    14  C   4.0   -0.02    3.45    3.09    72.75445    49.53350   167.79066
    15  C   4.0   -0.04    3.49    3.11    72.35950    48.23148   172.12002
    16  C   4.0   -0.01    3.39    3.08    74.18686    47.39811   167.25775
    17  C   4.0   -0.03    3.41    3.08    73.78057    46.07530   171.61357
    18  C   4.0    0.09    3.42    3.08    74.69898    45.65578   169.18338
    19  O   6.0   -0.18    2.09    1.84    76.11438    43.51850   168.68450
    20  H   1.0    0.10    1.06    1.44    67.51613    51.66700   166.31100
    21  H   1.0    0.05    1.07    1.44    66.52213    50.98103   171.82522
    22  H   1.0    0.07    1.03    1.43    70.95354    53.86475   169.62558
    23  H   1.0    0.04    1.03    1.43    70.48678    52.78383   172.78898
    24  H   1.0    0.07    1.03    1.43    72.35383    50.86764   166.29966
    25  H   1.0    0.05    1.06    1.44    71.66219    48.54895   174.01163
    26  H   1.0    0.09    1.03    1.43    74.90118    47.08441   165.37181
    27  H   1.0    0.07    1.03    1.43    74.16985    44.73359   173.10079
    28  H   1.0    0.14    1.02    1.43    76.29769    42.50561   170.22462
    29  N   5.0   -0.09    3.70    2.27    65.45444    55.64865   172.32222
    30  C   4.0    0.05    4.55    4.60    64.35840    58.14498   172.27309
    31  C   4.0    0.09    3.22    3.04    66.24623    60.25580   171.59279
    32  O   6.0   -0.27    1.14    1.80    68.52902    59.80227   171.15248
    33  C   4.0   -0.03    4.42    4.42    63.49668    58.49269   175.00563
    34  C   4.0   -0.04    4.35    4.29    65.51491    57.24736   176.43993
    35  C   4.0   -0.01    4.39    4.36    66.10450    54.91166   174.92059
    36  H   1.0    0.08    1.05    1.44    62.78237    58.16765   170.94650
    37  H   1.0    0.06    1.03    1.43    63.36440    60.49391   175.47050
    38  H   1.0    0.06    1.03    1.43    61.67688    57.57617   175.30988
    39  H   1.0    0.04    1.03    1.43    67.15897    58.48324   176.57221
    40  H   1.0    0.06    1.03    1.43    64.84784    56.75792   178.32588
    41  H   1.0    0.04    1.02    1.43    68.10194    54.42978   175.06610
    42  H   1.0    0.05    1.02    1.43    64.94799    53.32429   175.54231
    43  N   5.0   -0.15    3.23    1.96    70.78346    64.37540   172.67938
    44  C   4.0    0.04    4.27    4.14    72.77713    64.11273   174.55588
    45  C   4.0    0.11    3.22    3.04    74.31536    66.54103   174.72406
    46  O   6.0   -0.20    1.14    1.80    74.76134    67.75612   172.80221
    47  C   4.0   -0.02    4.37    4.33    74.49300    61.93010   173.80376
    48  C   4.0   -0.02    3.77    3.30    75.73644    60.85107   175.95805
    49  C   4.0    0.02    3.64    3.20    77.80380    61.75246   177.18259
    50  C   4.0    0.01    3.92    3.49    74.98622    58.64576   177.23740
    51  N   5.0   -0.10    3.49    2.07    78.42174    60.21801   179.15925
    52  C   4.0    0.04    3.90    3.47    76.71531    58.27537   179.24240
    53  C   4.0   -0.05    3.40    3.08    73.02090    56.89776   176.87646
    54  C   4.0   -0.04    3.38    3.07    76.54713    56.22502   180.89213
    55  C   4.0   -0.05    3.36    3.07    72.83949    54.86441   178.51107
    56  C   4.0   -0.04    3.37    3.07    74.60827    54.54127   180.51229
    57  H   1.0    0.12    1.03    1.43    71.39763    64.03714   170.88414
    58  H   1.0    0.05    1.06    1.44    71.98722    63.73290   176.42104
    59  H   1.0    0.06    1.04    1.44    73.36672    60.45989   172.90048
    60  H   1.0    0.08    1.04    1.43    75.93297    62.61418   172.49985
    61  H   1.0    0.08    1.01    1.43    78.81669    63.44755   176.66481
    62  H   1.0    0.10    1.04    1.43    79.90139    60.47312   180.36867
    63  H   1.0    0.06    1.02    1.43    71.68108    57.13586   175.35523
    64  H   1.0    0.07    1.03    1.43    77.88883    55.97179   182.40958
    65  H   1.0    0.05    1.03    1.43    71.33715    53.50570   178.26541
    66  H   1.0    0.06    1.03    1.43    74.42119    52.93689   181.75951
    67  N   5.0   -0.17    3.26    1.97    86.14694    56.70501   182.89146
    68  C   4.0    0.05    4.30    4.19    87.11826    54.44867   181.70282
    69  C   4.0    0.12    3.19    3.03    89.69773    54.86630   180.38757
    70  O   6.0   -0.20    1.09    1.80    91.12636    53.02571   179.84333
    71  C   4.0    0.06    4.29    4.18    85.21341    53.63420   179.74506
    72  O   6.0   -0.22    2.15    1.85    84.78255    55.72235   178.09155
    73  C   4.0   -0.06    4.12    3.84    82.74354    52.94634   181.00173
    74  H   1.0    0.11    1.04    1.43    84.92239    57.71790   181.80108
    75  H   1.0    0.06    1.05    1.44    87.38282    52.96146   183.10311
    76  H   1.0    0.07    1.04    1.43    85.90127    51.99581   178.70382
    77  H   1.0    0.14    1.01    1.43    83.55045    55.25559   176.79142
    78  H   1.0    0.06    1.00    1.43    81.37160    52.35864   179.58255
    79  H   1.0    0.06    1.00    1.43    83.03645    51.40055   182.33021
    80  H   1.0    0.06    1.00    1.43    81.99521    54.57151   182.02218
    81  N   5.0   -0.18    3.17    1.95    63.08094    59.07472   190.54296
    82  C   4.0    0.03    4.32    4.24    62.73134    57.20956   188.51528
    83  C   4.0    0.15    3.47    3.10    63.23590    54.40332   188.83464
    84  O   6.0   -0.27    1.33    1.80    62.50080    52.95390   187.19058
    85  C   4.0   -0.03    4.37    4.32    64.23179    58.05238   186.19659
    86  C   4.0    0.17    3.26    3.05    63.18299    56.96957   183.77963
    87  O   6.0   -0.30    1.27    1.80    64.19210    55.13464   182.74217
    88  N   5.0   -0.17    3.18    1.95    61.09673    58.05049   182.90280
    89  H   1.0    0.10    1.02    1.43    64.30548    58.58717   191.94891
    90  H   1.0    0.07    1.07    1.44    60.67532    57.22846   188.39056
    91  H   1.0    0.05    1.04    1.43    64.16753    60.10651   186.06053
    92  H   1.0    0.05    1.04    1.43    66.18198    57.42121   186.38934
    93  H   1.0    0.11    1.02    1.43    60.28982    57.40798   181.27385
    94  H   1.0    0.10    1.03    1.43    60.30116    59.52448   183.85711
    95  N   5.0   -0.15    3.45    2.04    64.44721    53.56617   190.84531
    96  C   4.0    0.04    4.39    4.36    64.49257    50.83552   191.38955
    97  C   4.0    0.16    3.40    3.08    66.12718    49.36720   189.51306
    98  O   6.0   -0.27    1.24    1.80    65.97978    47.05229   189.42424
    99  C   4.0   -0.02    4.29    4.17    61.79971    49.62987   191.41601
   100  C   4.0   -0.03    4.16    3.91    59.84384    50.65977   193.30196
   101  C   4.0   -0.04    4.19    3.97    60.74524    50.41411   196.01749
   102  C   4.0   -0.02    4.14    3.89    60.80193    47.67212   196.87354
   103  N   5.0   -0.10    4.00    2.86    61.37830    47.47181   199.61742
   104  H   1.0    0.08    1.05    1.44    65.39019    54.67922   192.10576
   105  H   1.0    0.05    1.05    1.44    65.29570    50.61820   193.27361
   106  H   1.0    0.08    1.04    1.43    60.98902    49.87365   189.53762
   107  H   1.0    0.07    1.03    1.43    62.01892    47.62487   191.83364
   108  H   1.0    0.07    1.03    1.43    59.50936    52.65532   192.91267
   109  H   1.0    0.07    1.03    1.43    58.08829    49.59964   193.10732
   110  H   1.0    0.05    1.03    1.43    62.65197    51.17945   196.17434
   111  H   1.0    0.07    1.03    1.43    59.46590    51.45157   197.25526
   112  H   1.0    0.07    1.02    1.43    58.96323    46.81040   196.53150
   113  H   1.0    0.06    1.02    1.43    62.25891    46.65922   195.82852
   114  H   1.0    0.10    1.01    1.43    61.40664    45.58397   200.16166
   115  H   1.0    0.08    1.02    1.43    63.13385    48.27116   199.99537
   116  H   1.0    0.09    1.02    1.43    60.00825    48.41667   200.66244
   117  N   5.0   -0.12    3.50    2.08    67.65786    50.71269   188.04663
   118  C   4.0    0.03    4.43    4.43    69.35294    49.51460   186.23627
   119  C   4.0    0.15    3.43    3.09    72.05336    49.52216   187.24161
   120  O   6.0   -0.29    1.29    1.80    72.77524    51.20023   188.68347
   121  C   4.0   -0.05    4.30    4.19    69.23578    50.86764   183.68514
   122  C   4.0   -0.03    4.23    4.07    66.64874    50.79583   182.43603
   123  C   4.0    0.00    4.24    4.09    65.88530    48.10675   181.77463
   124  N   5.0   -0.13    3.41    2.03    67.64274    46.94079   179.99640
   125  C   4.0    0.10    3.35    3.06    67.57660    47.29228   177.51141
   126  N   5.0   -0.17    3.27    1.97    65.83427    48.78139   176.49851
   127  N   5.0   -0.17    3.29    1.98    69.25090    46.15278   176.03553
   128  H   1.0    0.09    1.07    1.44    67.76557    52.63643   188.07120
   129  H   1.0    0.06    1.07    1.44    68.78791    47.55495   185.94903
   130  H   1.0    0.05    1.03    1.43    69.74223    52.84430   183.96293
   131  H   1.0    0.04    1.03    1.43    70.57560    49.97191   182.40202
   132  H   1.0    0.09    1.05    1.44    65.24279    51.57062   183.72672
   133  H   1.0    0.05    1.03    1.43    66.69599    51.90321   180.69937
   134  H   1.0    0.06    1.03    1.43    65.85695    46.96914   183.49050
   135  H   1.0    0.07    1.03    1.43    64.01447    48.12565   180.91102
   136  H   1.0    0.09    1.06    1.44    69.00901    45.78239   180.70693
   137  H   1.0    0.09    1.04    1.43    64.54170    49.65822   177.62668
   138  H   1.0    0.10    1.03    1.43    65.78703    49.04973   174.58989
   139  H   1.0    0.10    1.02    1.43    70.59260    45.00382   176.80843
   140  H   1.0    0.10    1.06    1.44    69.19798    46.42490   174.12880
   141  N   5.0   -0.13    3.43    2.03    73.54058    47.64566   186.48383
   142  C   4.0    0.04    4.41    4.40    76.14651    47.44157   187.37956
   143  C   4.0    0.16    3.45    3.09    77.53924    49.91144   186.80886
   144  O   6.0   -0.30    1.25    1.80    77.90395    50.58040   184.64323
   145  C   4.0   -0.04    4.27    4.13    77.49199    45.15122   186.23438
   146  C   4.0   -0.04    4.19    3.97    79.80691    44.27250   187.71593
   147  C   4.0   -0.04    4.16    3.93    80.98232    41.92546   186.49705
   148  C   4.0   -0.02    4.11    3.83    83.71864    41.50783   187.30775
   149  N   5.0   -0.10    4.00    2.87    84.05123    41.45303   190.11210
   150  H   1.0    0.07    1.06    1.44    73.00767    46.25104   185.26495
   151  H   1.0    0.06    1.06    1.44    76.16729    47.13165   189.41668
   152  H   1.0    0.06    1.03    1.43    76.16540    43.57708   186.15879
   153  H   1.0    0.06    1.03    1.43    78.11560    45.63688   184.33332
   154  H   1.0    0.05    1.03    1.43    81.21853    45.77294   187.73860
   155  H   1.0    0.06    1.03    1.43    79.25133    43.79818   189.64156
   156  H   1.0    0.07    1.03    1.43    79.89383    40.26439   187.04696
   157  H   1.0    0.06    1.03    1.43    80.95019    42.14278   184.44859
   158  H   1.0    0.07    1.02    1.43    84.37059    39.70314   186.55753
   159  H   1.0    0.06    1.02    1.43    84.87704    43.03851   186.56319
   160  H   1.0    0.09    1.01    1.43    85.94285    41.16390   190.55996
   161  H   1.0    0.08    1.02    1.43    83.46542    43.15945   190.89256
   162  H   1.0    0.09    1.01    1.43    82.98354    39.99605   190.88689
   163  N   5.0   -0.13    3.37    2.01    78.12694    51.34574   188.78173
   164  C   4.0    0.03    4.26    4.12    79.72565    53.55672   188.53607
   165  C   4.0    0.16    3.32    3.06    78.44252    55.92077   187.53829
   166  O   6.0   -0.26    1.23    1.80    79.72754    57.60074   186.53674
   167  H   1.0    0.10    1.05    1.44    77.51845    51.01882   190.58075
   168  H   1.0    0.07    1.03    1.43    80.50233    54.00837   190.38989
   169  H   1.0    0.06    1.03    1.43    81.27144    53.10319   187.25294
   170  N   5.0   -0.13    3.46    2.05    75.94998    56.10974   187.79152
   171  C   4.0    0.04    4.36    4.32    74.65173    58.31127   186.78807
   172  C   4.0    0.10    3.24    3.04    74.67063    60.34273   188.81575
   173  O   6.0   -0.22    1.12    1.80    75.78179    62.33828   188.44536
   174  C   4.0   -0.04    4.34    4.27    71.99667    57.61208   185.93958
   175  C   4.0   -0.01    3.56    3.14    70.57748    59.70967   184.64512
   176  C   4.0   -0.03    3.49    3.11    69.39263    61.60318   186.02651
   177  C   4.0   -0.03    3.49    3.11    70.32993    59.72668   182.07321
   178  C   4.0   -0.02    3.38    3.07    68.04147    63.49101   184.82843
   179  C   4.0   -0.03    3.38    3.07    68.98823    61.61262   180.84299
   180  C   4.0   -0.02    3.37    3.07    67.82604    63.49479   182.22060
   181  H   1.0    0.10    1.07    1.44    74.81992    54.80772   188.65512
   182  H   1.0    0.07    1.07    1.44    75.57959    59.03315   185.09677
   183  H   1.0    0.05    1.04    1.43    72.12517    56.03982   184.61489
   184  H   1.0    0.05    1.04    1.43    70.90630    57.05272   187.59498
   185  H   1.0    0.07    1.03    1.43    69.52869    61.59940   188.06364
   186  H   1.0    0.05    1.06    1.44    71.19731    58.23946   180.97716
   187  H   1.0    0.08    1.03    1.43    67.15330    64.96311   185.92636
   188  H   1.0    0.05    1.03    1.43    68.85405    61.60696   178.80587
   189  H   1.0    0.07    1.03    1.43    66.76024    64.95555   181.27574
   190  O   6.0   -0.33    1.99    1.83    72.31792    42.92324   182.39068
   191  H   1.0    0.15    1.02    1.43    73.55191    43.92101   182.36989
   192  H   1.0    0.15    1.02    1.43    71.20676    43.58653   183.31098
   193  H   1.0    0.11    1.09    1.44    67.23096    49.84088   163.43143
   194  H   1.0    0.07    1.04    1.43    65.66154    62.04998   171.49214
   195  H   1.0    0.11    1.09    1.44    69.53604    63.26998   173.01782
   196  H   1.0    0.08    1.04    1.43    74.95745    67.13877   176.39783
   197  H   1.0    0.11    1.07    1.44    85.31184    56.28384   184.31195
   198  H   1.0    0.10    1.04    1.43    90.26375    56.61576   179.95157
   199  H   1.0    0.11    1.08    1.44    63.67890    60.52419   189.88413
   200  H   1.0    0.07    1.05    1.44    73.77533    60.05076   190.45412

  Z AO/shell   Hii/eV     exponent
  1     Wed Apr 25 08:07:45 CEST 2018   EN: 2.200 GM2: 0.406  GM3: 0.0800  RAES: 1.40
     1s    -10.707211    1.230000
  6     Wed Apr 25 08:07:45 CEST 2018   EN: 2.550 GM2: 0.538  GM3: 0.1500  RAES: 3.00
     2s    -13.970922    2.096432
     2p    -10.063292    1.800000
  7     Wed Apr 25 08:07:45 CEST 2018   EN: 3.040 GM2: 0.461  GM3:-0.0640  RAES: 1.90
     2s    -16.686243    2.339881
     2p    -12.523956    2.014332
  8     Wed Apr 25 08:07:45 CEST 2018   EN: 3.440 GM2: 0.452  GM3:-0.0517  RAES: 1.80
     2s    -20.229985    2.439742
     2p    -15.503117    2.137023
 no old-style atom pair restraining (fixing) potential

molecular fragmentation (1/2 indicates fragments):
111111111111111111111111111111111111111111222222222222222222222222222222
222222222222222222222222222222222222222222222222222222222222222222222222
22222222222222222222222222222222222222222222222211222222
# atoms in fragment 1/2:    44   156
 fragment masses (1/2) :      319.36     1045.27
CMA distance (Bohr)    :  14.860
constraining FC (au)   :  0.0500
           ------------------------------------------------- 
          |        Self-Consistent Charge Iterations        |
           ------------------------------------------------- 

 Ncao       : 491
 Nao        : 491
 Nshell     : 297
 Nel        : 536
 T(el)      :   500.0
 intcut     :    35.0
 scfconv/Eh :  0.100E-06
   qconv/e  :  0.100E-04
 intneglect :  0.100E-08
 broydamp   :      0.400
 iter      E             dE          RMSdq      gap      omega  full diag
   1   -305.4756299 -0.305476E+03  0.463E+00    2.18       0.0  T
   2   -306.0946741 -0.619044E+00  0.225E+00    1.21       1.0  T
   3   -306.1279515 -0.332775E-01  0.121E+00    1.81       1.0  T
   4   -306.1806971 -0.527456E-01  0.279E-01    1.29       1.0  T
   5   -306.1844137 -0.371658E-02  0.132E-01    1.47       1.0  T
   6   -306.1853721 -0.958449E-03  0.538E-02    1.44       1.0  T
   7   -306.1855156 -0.143486E-03  0.270E-02    1.43       1.0  T
   8   -306.1855438 -0.282160E-04  0.148E-02    1.43       1.0  T
   9   -306.1855559 -0.121037E-04  0.637E-03    1.43       1.1  T
  10   -306.1855583 -0.238009E-05  0.317E-03    1.43       2.2  T
  11   -306.1855588 -0.436424E-06  0.158E-03    1.43       4.5  T
  12   -306.1855589 -0.126759E-06  0.714E-04    1.43       9.9  T
  13   -306.1855589 -0.289700E-07  0.292E-04    1.43      24.2  T
  14   -306.1855589 -0.311951E-08  0.160E-04    1.43      44.2  T
  15   -306.1855589 -0.101079E-08  0.544E-05    1.43     130.1  T
  16   -306.1855589 -0.143359E-09  0.223E-05    1.43     317.2  T
speedup  1.88
cpu  time for SCC    3.18 s
wall time for SCC    1.69 s

   *** convergence criteria satisfied after 16 iterations ***

          eigenvalues
 #    :         256        257        258        259        260        261        262        263
 occ. :        2.000      2.000      2.000      2.000      2.000      2.000      2.000      2.000
 eps  :       -10.991    -10.986    -10.971    -10.914    -10.856    -10.818    -10.512    -10.356
 #    :         264        265        266        267        268        269        270        271
 occ. :        2.000      2.000      2.000      2.000      2.000      0.000      0.000      0.000
 eps  :       -10.226    -10.151    -10.101    -10.041     -9.678     -8.243     -8.078     -8.026
 #    :         272        273        274        275        276        277        278        279
 occ. :        0.000      0.000      0.000      0.000      0.000      0.000      0.000      0.000
 eps  :        -7.684     -6.412     -6.378     -6.293     -6.271     -6.267     -6.207     -6.179


   #   Z            q   n(s)   n(p)   n(d)      C6AA      α(0)
   1   7 N     -0.390  1.330  4.060  0.000    30.097     8.148
   2   6 C     -0.018  1.044  2.974  0.000    20.973     6.534
   3   6 C      0.268  1.043  2.689  0.000    22.475     7.763
   4   8 O     -0.498  1.739  4.758  0.000    23.730     6.531
   5   1 H      0.158  0.842  0.000  0.000     1.351     1.821
   6   1 H      0.065  0.935  0.000  0.000     2.138     2.287
   7   1 H      0.069  0.931  0.000  0.000     2.091     2.261
   8   7 N     -0.166  1.229  3.937  0.000    24.585     7.364
   9   6 C      0.016  1.062  2.922  0.000    20.307     6.417
  10   6 C      0.272  1.032  2.697  0.000    22.411     7.753
  11   8 O     -0.515  1.754  4.761  0.000    24.120     6.585
  12   6 C     -0.080  1.057  3.023  0.000    22.029     6.681
  13   6 C     -0.005  1.083  2.921  0.000    28.137     8.700
  14   6 C     -0.040  1.086  2.954  0.000    28.999     8.831
  15   6 C     -0.068  1.091  2.977  0.000    29.696     8.936
  16   6 C     -0.056  1.078  2.978  0.000    29.386     8.889
  17   6 C     -0.080  1.083  2.996  0.000    29.991     8.980
  18   6 C      0.145  1.052  2.803  0.000    24.847     8.169
  19   8 O     -0.458  1.744  4.714  0.000    22.011     6.333
  20   1 H      0.192  0.808  0.000  0.000     1.150     1.680
  21   1 H      0.080  0.920  0.000  0.000     1.975     2.198
  22   1 H      0.052  0.948  0.000  0.000     2.301     2.372
  23   1 H      0.082  0.918  0.000  0.000     1.954     2.186
  24   1 H      0.026  0.974  0.000  0.000     2.645     2.543
  25   1 H      0.094  0.906  0.000  0.000     1.845     2.124
  26   1 H      0.034  0.966  0.000  0.000     2.537     2.491
  27   1 H      0.074  0.926  0.000  0.000     2.038     2.233
  28   1 H      0.356  0.644  0.000  0.000     0.574     1.190
  29   7 N     -0.080  1.225  3.855  0.000    22.795     7.091
  30   6 C      0.028  1.058  2.914  0.000    20.068     6.371
  31   6 C      0.194  1.094  2.711  0.000    23.854     7.998
  32   8 O     -0.374  1.769  4.606  0.000    21.175     6.170
  33   6 C     -0.075  1.049  3.025  0.000    21.885     6.653
  34   6 C     -0.073  1.040  3.033  0.000    21.856     6.649
  35   6 C     -0.030  1.059  2.971  0.000    21.127     6.547
  36   1 H      0.087  0.913  0.000  0.000     1.908     2.160
  37   1 H      0.066  0.934  0.000  0.000     2.131     2.283
  38   1 H      0.082  0.918  0.000  0.000     1.956     2.187
  39   1 H      0.059  0.941  0.000  0.000     2.211     2.325
  40   1 H      0.097  0.903  0.000  0.000     1.813     2.106
  41   1 H      0.083  0.917  0.000  0.000     1.945     2.181
  42   1 H      0.089  0.911  0.000  0.000     1.894     2.152
  43   7 N     -0.384  1.325  4.059  0.000    29.929     8.125
  44   6 C      0.044  1.054  2.902  0.000    19.842     6.344
  45   6 C      0.200  1.086  2.714  0.000    23.735     7.979
  46   8 O     -0.384  1.764  4.620  0.000    21.370     6.198
  47   6 C     -0.057  1.041  3.016  0.000    21.583     6.612
  48   6 C     -0.040  1.053  2.987  0.000    28.912     8.816
  49   6 C     -0.009  1.063  2.946  0.000    28.181     8.705
  50   6 C     -0.022  1.070  2.952  0.000    28.331     8.713
  51   7 N     -0.104  1.226  3.878  0.000    23.280     7.166
  52   6 C      0.043  1.063  2.894  0.000    26.899     8.498
  53   6 C     -0.045  1.080  2.965  0.000    29.105     8.846
  54   6 C     -0.050  1.072  2.978  0.000    29.244     8.867
  55   6 C     -0.056  1.082  2.974  0.000    29.397     8.891
  56   6 C     -0.046  1.081  2.966  0.000    29.152     8.854
  57   1 H      0.159  0.841  0.000  0.000     1.342     1.815
  58   1 H      0.053  0.947  0.000  0.000     2.278     2.360
  59   1 H      0.070  0.930  0.000  0.000     2.085     2.258
  60   1 H      0.026  0.974  0.000  0.000     2.645     2.544
  61   1 H      0.011  0.989  0.000  0.000     2.879     2.653
  62   1 H      0.177  0.823  0.000  0.000     1.229     1.737
  63   1 H      0.031  0.969  0.000  0.000     2.579     2.511
  64   1 H      0.035  0.965  0.000  0.000     2.521     2.483
  65   1 H      0.056  0.944  0.000  0.000     2.247     2.344
  66   1 H      0.057  0.943  0.000  0.000     2.236     2.339
  67   7 N     -0.385  1.317  4.068  0.000    29.955     8.129
  68   6 C      0.040  1.053  2.907  0.000    19.916     6.356
  69   6 C      0.194  1.106  2.700  0.000    23.858     7.999
  70   8 O     -0.403  1.780  4.623  0.000    21.742     6.252
  71   6 C      0.124  1.040  2.836  0.000    18.632     6.159
  72   8 O     -0.500  1.738  4.761  0.000    22.888     6.458
  73   6 C     -0.127  1.045  3.082  0.000    22.992     6.837
  74   1 H      0.171  0.829  0.000  0.000     1.267     1.764
  75   1 H      0.076  0.924  0.000  0.000     2.023     2.224
  76   1 H      0.020  0.980  0.000  0.000     2.740     2.588
  77   1 H      0.335  0.665  0.000  0.000     0.625     1.242
  78   1 H      0.065  0.935  0.000  0.000     2.136     2.286
  79   1 H      0.061  0.939  0.000  0.000     2.183     2.311
  80   1 H      0.059  0.941  0.000  0.000     2.209     2.324
  81   7 N     -0.402  1.344  4.058  0.000    30.441     8.194
  82   6 C      0.023  1.055  2.922  0.000    20.203     6.402
  83   6 C      0.272  1.036  2.691  0.000    22.400     7.751
  84   8 O     -0.477  1.750  4.727  0.000    23.269     6.468
  85   6 C     -0.094  1.060  3.034  0.000    22.284     6.718
  86   6 C      0.280  1.037  2.683  0.000    22.263     7.726
  87   8 O     -0.473  1.740  4.733  0.000    23.189     6.456
  88   7 N     -0.276  1.264  4.012  0.000    27.147     7.738
  89   1 H      0.157  0.843  0.000  0.000     1.353     1.822
  90   1 H      0.069  0.931  0.000  0.000     2.097     2.264
  91   1 H      0.054  0.946  0.000  0.000     2.265     2.354
  92   1 H      0.063  0.937  0.000  0.000     2.162     2.299
  93   1 H      0.229  0.771  0.000  0.000     0.969     1.542
  94   1 H      0.217  0.783  0.000  0.000     1.025     1.586
  95   7 N     -0.180  1.240  3.940  0.000    24.910     7.413
  96   6 C      0.008  1.073  2.919  0.000    20.447     6.439
  97   6 C      0.278  1.038  2.685  0.000    22.301     7.733
  98   8 O     -0.489  1.747  4.742  0.000    23.532     6.504
  99   6 C     -0.081  1.054  3.027  0.000    22.044     6.685
 100   6 C     -0.073  1.051  3.022  0.000    21.900     6.663
 101   6 C     -0.094  1.053  3.041  0.000    22.293     6.722
 102   6 C     -0.052  1.058  2.993  0.000    21.596     6.633
 103   7 N     -0.149  1.236  3.913  0.000    24.207     7.307
 104   1 H      0.204  0.796  0.000  0.000     1.086     1.633
 105   1 H      0.088  0.912  0.000  0.000     1.895     2.152
 106   1 H      0.068  0.932  0.000  0.000     2.108     2.271
 107   1 H      0.078  0.922  0.000  0.000     2.000     2.212
 108   1 H      0.049  0.951  0.000  0.000     2.337     2.391
 109   1 H      0.060  0.940  0.000  0.000     2.194     2.316
 110   1 H      0.073  0.927  0.000  0.000     2.048     2.238
 111   1 H      0.075  0.925  0.000  0.000     2.034     2.230
 112   1 H      0.113  0.887  0.000  0.000     1.667     2.019
 113   1 H      0.118  0.882  0.000  0.000     1.632     1.998
 114   1 H      0.302  0.698  0.000  0.000     0.708     1.318
 115   1 H      0.299  0.701  0.000  0.000     0.717     1.326
 116   1 H      0.294  0.706  0.000  0.000     0.731     1.340
 117   7 N     -0.143  1.226  3.917  0.000    24.098     7.291
 118   6 C      0.004  1.060  2.936  0.000    20.514     6.449
 119   6 C      0.266  1.043  2.691  0.000    22.513     7.770
 120   8 O     -0.497  1.746  4.751  0.000    23.710     6.528
 121   6 C     -0.087  1.056  3.031  0.000    22.160     6.701
 122   6 C     -0.098  1.058  3.040  0.000    22.365     6.733
 123   6 C     -0.036  1.058  2.979  0.000    21.302     6.585
 124   7 N     -0.138  1.209  3.928  0.000    23.984     7.273
 125   6 C      0.227  1.017  2.756  0.000    23.232     7.892
 126   7 N     -0.237  1.224  4.013  0.000    26.198     7.602
 127   7 N     -0.251  1.236  4.015  0.000    26.534     7.650
 128   1 H      0.194  0.806  0.000  0.000     1.139     1.672
 129   1 H      0.088  0.912  0.000  0.000     1.895     2.153
 130   1 H      0.065  0.935  0.000  0.000     2.142     2.289
 131   1 H      0.073  0.927  0.000  0.000     2.053     2.241
 132   1 H      0.106  0.894  0.000  0.000     1.736     2.060
 133   1 H      0.082  0.918  0.000  0.000     1.959     2.189
 134   1 H      0.092  0.908  0.000  0.000     1.859     2.132
 135   1 H      0.083  0.917  0.000  0.000     1.946     2.182
 136   1 H      0.229  0.771  0.000  0.000     0.970     1.543
 137   1 H      0.245  0.755  0.000  0.000     0.904     1.490
 138   1 H      0.218  0.782  0.000  0.000     1.018     1.580
 139   1 H      0.253  0.747  0.000  0.000     0.870     1.461
 140   1 H      0.237  0.763  0.000  0.000     0.935     1.515
 141   7 N     -0.167  1.245  3.922  0.000    24.616     7.369
 142   6 C      0.005  1.063  2.932  0.000    20.494     6.446
 143   6 C      0.278  1.034  2.688  0.000    22.299     7.733
 144   8 O     -0.459  1.744  4.715  0.000    22.902     6.416
 145   6 C     -0.090  1.056  3.034  0.000    22.207     6.709
 146   6 C     -0.089  1.053  3.035  0.000    22.189     6.706
 147   6 C     -0.096  1.054  3.042  0.000    22.334     6.728
 148   6 C     -0.052  1.060  2.992  0.000    21.602     6.635
 149   7 N     -0.146  1.234  3.913  0.000    24.159     7.300
 150   1 H      0.215  0.785  0.000  0.000     1.031     1.591
 151   1 H      0.074  0.926  0.000  0.000     2.047     2.237
 152   1 H      0.082  0.918  0.000  0.000     1.962     2.190
 153   1 H      0.073  0.927  0.000  0.000     2.053     2.240
 154   1 H      0.056  0.944  0.000  0.000     2.243     2.342
 155   1 H      0.068  0.932  0.000  0.000     2.113     2.273
 156   1 H      0.083  0.917  0.000  0.000     1.944     2.181
 157   1 H      0.088  0.912  0.000  0.000     1.903     2.157
 158   1 H      0.114  0.886  0.000  0.000     1.660     2.015
 159   1 H      0.111  0.889  0.000  0.000     1.684     2.029
 160   1 H      0.297  0.703  0.000  0.000     0.724     1.333
 161   1 H      0.293  0.707  0.000  0.000     0.735     1.343
 162   1 H      0.299  0.701  0.000  0.000     0.716     1.326
 163   7 N     -0.170  1.238  3.933  0.000    24.687     7.379
 164   6 C     -0.034  1.049  2.985  0.000    21.249     6.575
 165   6 C      0.278  1.038  2.685  0.000    22.303     7.734
 166   8 O     -0.513  1.767  4.746  0.000    24.077     6.579
 167   1 H      0.221  0.779  0.000  0.000     1.004     1.569
 168   1 H      0.092  0.908  0.000  0.000     1.856     2.131
 169   1 H      0.094  0.906  0.000  0.000     1.838     2.120
 170   7 N     -0.163  1.241  3.922  0.000    24.522     7.355
 171   6 C      0.029  1.052  2.919  0.000    20.084     6.381
 172   6 C      0.203  1.082  2.715  0.000    23.675     7.969
 173   8 O     -0.374  1.772  4.602  0.000    21.170     6.169
 174   6 C     -0.084  1.055  3.029  0.000    22.097     6.691
 175   6 C      0.006  1.076  2.918  0.000    27.880     8.661
 176   6 C     -0.044  1.079  2.964  0.000    29.090     8.845
 177   6 C     -0.045  1.083  2.962  0.000    29.115     8.849
 178   6 C     -0.035  1.079  2.956  0.000    28.872     8.811
 179   6 C     -0.032  1.081  2.951  0.000    28.791     8.799
 180   6 C     -0.036  1.080  2.956  0.000    28.892     8.815
 181   1 H      0.237  0.763  0.000  0.000     0.935     1.515
 182   1 H      0.088  0.912  0.000  0.000     1.897     2.154
 183   1 H      0.086  0.914  0.000  0.000     1.915     2.164
 184   1 H      0.065  0.935  0.000  0.000     2.137     2.286
 185   1 H      0.031  0.969  0.000  0.000     2.573     2.509
 186   1 H      0.064  0.936  0.000  0.000     2.152     2.294
 187   1 H      0.029  0.971  0.000  0.000     2.602     2.522
 188   1 H      0.033  0.967  0.000  0.000     2.545     2.495
 189   1 H      0.031  0.969  0.000  0.000     2.576     2.510
 190   8 O     -0.647  1.690  4.957  0.000    26.329     6.926
 191   1 H      0.334  0.666  0.000  0.000     0.627     1.244
 192   1 H      0.326  0.674  0.000  0.000     0.648     1.264
 193   1 H      0.175  0.825  0.000  0.000     1.245     1.748
 194   1 H      0.076  0.924  0.000  0.000     2.025     2.225
 195   1 H      0.186  0.814  0.000  0.000     1.179     1.701
 196   1 H      0.060  0.940  0.000  0.000     2.200     2.319
 197   1 H      0.190  0.810  0.000  0.000     1.160     1.687
 198   1 H      0.080  0.920  0.000  0.000     1.982     2.201
 199   1 H      0.181  0.819  0.000  0.000     1.209     1.722
 200   1 H      0.084  0.916  0.000  0.000     1.939     2.178

 Mol. C6AA /au·bohr⁶  :     370411.237198
 Mol. C8AA /au·bohr⁸  :    8368827.539565
 Mol. α(0) /au        :        923.694192

 
molecular dipole:
                 x           y           z       tot (Debye)
 q only:      209.043     135.825     573.918
   full:      209.218     137.059     574.210    1591.977
molecular quadrupole (traceless):
                xx          xy          yy          xz          yz          zz
 q only:   -43221.634   13919.923  -56208.458   59978.728   39076.166   99430.092
  q+dip:   -43333.408   14056.318  -56156.184   60065.112   39425.793   99489.592
   full:   -43329.741   14056.167  -56158.682   60066.438   39427.152   99488.423
speedup  1.89
cpu  time for grad    3.87 s
wall time for grad    2.04 s

SCC energy    :    -306.1969146
rep           :       4.0710553
ES            :       1.1527343
AES           :      -0.0364358
AXC           :       0.1239247
disp          :      -0.2401937
XB            :       0.0000000
fix           :       0.0000000
Gborn         :       0.0000000
Gsasa         :       0.0000000
Ghb           :       0.0000000
Gshift        :       0.0000000
Gsolv         :      -0.5639440     -353.88
Etot ala COSMO:    -306.1969146
grad norm     :       0.6010104
total E       :    -302.1090051
atomizationE  :      55.6769271    34937.80
(atE without considering molecular charge,
 total energy contains solvation terms)
H-L gap (eV)  :          1.4347

------------------------------------------------------------------------
 * finished run on 2019/05/05 at 22:12:27.201     
------------------------------------------------------------------------
 total:
 * wall-time:     0 d,  0 h,  0 min,  2.427 sec
 *  cpu-time:     0 d,  0 h,  0 min,  4.285 sec
 * ratio c/w:     1.765 speedup
 SCF:
 * wall-time:     0 d,  0 h,  0 min,  2.165 sec
 *  cpu-time:     0 d,  0 h,  0 min,  4.113 sec
 * ratio c/w:     1.900 speedup

