      -----------------------------------------------------------      
     |                   =====================                   |     
     |                           x T B                           |     
     |                   =====================                   |     
     |                         S. Grimme                         |     
     |          Mulliken Center for Theoretical Chemistry        |     
     |                    University of Bonn                     |     
     |                 Version 6.0.1 (SAW181210)                 |     
      -----------------------------------------------------------      

   This program is distributed in the hope that it will be useful,
   but WITHOUT ANY WARRANTY; without even the implied warranty of
   MERCHANTABILITY or FITNESS FOR A PARTICULAR PURPOSE.
   
   FOR NON-COMMERCIAL, ACADEMIA USE ONLY.
   
   Cite this work as:
   S. Grimme, C. Bannwarth, P. Shushkov, J. Comput. Theory Chem., 2017,
   13, 1989-2009.
   C. Bannwarth, S. Ehlert and S. Grimme., ChemRxiv, 2018, preprint.
   http://doi.org/10.26434/chemrxiv.7246238.v1
   
   for sTDA-xTB:
   S. Grimme and C. Bannwarth, J. Chem. Phys., 2016, 145, 054103.
   
   in the mass-spec context:
   V. Asgeirsson, C. Bauer and S. Grimme, Chem. Sci., 2017, 8, 4879.
   
   if GBSA is used:
   P. Shushkov, F. März and S. Grimme, unpublished.
   
   for ANC optimizer:
   S. Grimme, unpublished.
   Rational Function algorithm used in ANCopt:
   F. Eckert, P. Pulay, H.-J. Werner, J. Comput. Chem., 1997, 18, 1473.
   
   with help from (in alphabetical order)
   C. Bannwarth, F. Bohle, G. Brandenburg, E. Caldeweyher, M. Checinski,
   S. Dohm, S. Ehlert, S. Ehrlich, F. März, H. Neugebauer, J. Pisarek,
   P. Pracht, P. Shushkov, and S. Spicher.
   
 * started run on 2019/05/10 at 12:44:33.180     
========================================================================
 # omp threads = 2
========================================================================
number of atoms            : 251
number of electrons        : 700
charge                     : 0
spin                       : .0
first test random number   : .4028

########################################################################
# WARNING! Please study the warnings concerning your input carefully
#  - Process number higher than OMP_NUM_THREADS, I hope you know what you are doing.
########################################################################

           ------------------------------------------------- 
          |                 G F N 2 - x T B                 |
          | Geometry, Frequencies, Noncovalent interactions |
          |            JCTC 2018 parametrisation            |
           ------------------------------------------------- 
 
      method parameters     
 k(s)        :  1.8500
 k(p)        :  2.2300
 k(d)        :  2.2300
 k(f)        :  2.0000
 kEN (H0ij)  : -2.0000
 D4 a1       :  0.5200
 D4 a2       :  5.0000
 D4 s6       :  1.0000
 D4 s8       :  2.7000
 D4 s9       :  5.0000
 alphaj      :  2.0000

 Solvent             : h2o
 Using internal parameter file: .param_gbsa2_h2o
 Gsolv ref. state (COSMO-RS): gsolv [1 M gas/solution]
 temperature (mdtemp)       :    298.150000000000     
 dielectric constant        :    80.2000000000000     
 rho                        :    1.00000000000000     
 mass                       :    18.0000000000000     
 surface tension            :    15.5689454083859     
 probe radius               :   0.975313790000000     
 vdW radii scaling          :    1.00000000000000     
 Gshift (Eh)                :   1.857443126794793E-003
 c1                         :    1.55243817000000     
 soset                      :   0.130326360000000     
 HB correction              :  T

            Z     q(EN)     CN     RAES       Cart. coordinates
     1  N   5.0   -0.22    3.22    1.96   -25.42587   141.39138    22.46472
     2  C   4.0    0.04    4.31    4.22   -26.14051   138.78138    22.87743
     3  C   4.0    0.15    3.43    3.09   -27.63655   138.49784    25.34484
     4  O   6.0   -0.30    1.26    1.80   -29.48258   137.11673    25.49437
     5  C   4.0    0.03    4.14    3.88   -23.92593   136.93661    22.86839
     6  O   6.0   -0.24    2.06    1.83   -24.96009   134.57796    22.20405
     7  H   1.0    0.08    1.02    1.43   -23.57317   141.82899    22.26491
     8  H   1.0    0.06    1.06    1.44   -27.43336   138.18515    21.36458
     9  H   1.0    0.04    1.01    1.43   -22.53009   137.55837    21.46744
    10  H   1.0    0.04    1.01    1.43   -23.03113   136.87850    24.73719
    11  H   1.0    0.12    1.02    1.43   -23.67480   133.27987    22.33687
    12  N   5.0   -0.15    3.45    2.05   -26.68634   139.80101    27.29752
    13  C   4.0    0.03    4.33    4.25   -27.97962   139.97636    29.72065
    14  C   4.0    0.16    3.50    3.12   -30.83889   140.25349    29.37197
    15  O   6.0   -0.30    1.29    1.80   -32.32487   138.56754    29.93952
    16  C   4.0   -0.07    4.13    3.86   -26.98656   142.20896    31.25850
    17  H   1.0    0.08    1.07    1.44   -25.21913   141.00731    27.03127
    18  H   1.0    0.06    1.05    1.44   -27.70709   138.19474    30.75401
    19  H   1.0    0.05    1.00    1.43   -28.22371   142.52610    32.86553
    20  H   1.0    0.05    1.00    1.43   -25.08813   141.79077    31.91862
    21  H   1.0    0.04    1.00    1.43   -26.91353   143.90762    30.10204
    22  N   5.0   -0.15    3.51    2.08   -31.58828   142.52130    28.55793
    23  C   4.0    0.04    4.36    4.31   -34.23931   143.18880    28.56874
    24  C   4.0    0.16    3.49    3.11   -35.79944   141.19538    27.18202
    25  O   6.0   -0.31    1.28    1.80   -37.78798   140.39327    28.05614
    26  C   4.0   -0.07    4.12    3.84   -34.61176   145.76571    27.36301
    27  H   1.0    0.07    1.07    1.44   -30.32788   143.84094    27.99692
    28  H   1.0    0.06    1.05    1.44   -34.91971   143.19776    30.53351
    29  H   1.0    0.05    1.00    1.43   -36.60461   146.25625    27.37760
    30  H   1.0    0.04    1.00    1.43   -33.56847   147.18535    28.41983
    31  H   1.0    0.04    1.00    1.43   -33.93458   145.73779    25.42246
    32  N   5.0   -0.14    3.48    2.07   -34.91142   140.51329    24.91591
    33  C   4.0    0.04    4.35    4.28   -36.25099   138.69749    23.34577
    34  C   4.0    0.17    3.49    3.11   -37.00864   136.37533    24.88699
    35  O   6.0   -0.31    1.30    1.80   -39.19924   135.60960    24.94512
    36  C   4.0   -0.07    4.12    3.84   -34.61745   137.87593    21.12327
    37  H   1.0    0.08    1.07    1.44   -33.18494   141.09797    24.32644
    38  H   1.0    0.05    1.05    1.44   -38.02115   139.55776    22.68518
    39  H   1.0    0.05    1.00    1.43   -35.60673   136.43363    20.04786
    40  H   1.0    0.04    1.00    1.43   -34.23667   139.48683    19.90831
    41  H   1.0    0.06    1.00    1.43   -32.83998   137.10967    21.81105
    42  N   5.0   -0.14    3.51    2.08   -35.10227   135.19506    26.03091
    43  C   4.0    0.04    4.35    4.30   -35.51971   132.96247    27.56023
    44  C   4.0    0.16    3.46    3.10   -37.43950   133.51541    29.65561
    45  O   6.0   -0.31    1.28    1.80   -39.30631   132.17439    29.95516
    46  C   4.0   -0.06    4.12    3.85   -33.02131   132.10719    28.70421
    47  H   1.0    0.11    1.08    1.44   -33.32771   135.92141    26.01943
    48  H   1.0    0.06    1.05    1.44   -36.34918   131.47258    26.37624
    49  H   1.0    0.05    1.00    1.43   -33.33246   130.52146    29.97038
    50  H   1.0    0.06    1.00    1.43   -31.73327   131.53627    27.21064
    51  H   1.0    0.06    1.00    1.43   -32.17820   133.65664    29.75661
    52  N   5.0   -0.14    3.51    2.09   -36.84160   135.48718    31.11572
    53  C   4.0    0.04    4.41    4.39   -38.28248   136.24022    33.31198
    54  C   4.0    0.15    3.45    3.10   -41.00910   136.94758    32.70758
    55  O   6.0   -0.31    1.25    1.80   -42.56973   137.11047    34.41010
    56  C   4.0   -0.03    4.29    4.17   -36.99757   138.45782    34.64339
    57  C   4.0   -0.02    4.17    3.94   -37.94422   138.84531    37.32732
    58  C   4.0    0.25    3.08    3.02   -36.76380   141.21382    38.65999
    59  O   6.0   -0.28    1.18    1.80   -35.24565   142.53907    37.43790
    60  O   6.0   -0.27    1.16    1.80   -37.42911   141.58859    40.89026
    61  H   1.0    0.11    1.10    1.44   -35.33993   136.58607    30.64622
    62  H   1.0    0.05    1.05    1.44   -38.39731   134.62418    34.61854
    63  H   1.0    0.06    1.03    1.43   -34.96119   138.11903    34.69025
    64  H   1.0    0.07    1.03    1.43   -37.31494   140.17894    33.54910
    65  H   1.0    0.07    1.03    1.43   -39.99271   139.07807    37.35535
    66  H   1.0    0.05    1.02    1.43   -37.50834   137.19801    38.49699
    67  N   5.0   -0.13    3.55    2.11   -41.57358   137.30481    30.27497
    68  C   4.0    0.04    4.55    4.61   -44.12658   137.83584    29.50858
    69  C   4.0    0.15    3.58    3.16   -45.33100   135.58432    28.21131
    70  O   6.0   -0.32    1.38    1.80   -47.56127   135.06353    28.66818
    71  C   4.0   -0.02    4.27    4.14   -44.28489   140.24988    27.93819
    72  C   4.0   -0.07    4.14    3.88   -46.82461   140.40001    26.58200
    73  C   4.0   -0.07    4.12    3.85   -43.86220   142.46808    29.72741
    74  H   1.0    0.12    1.10    1.44   -40.17703   137.55344    28.99726
    75  H   1.0    0.06    1.08    1.44   -45.20854   138.10617    31.26066
    76  H   1.0    0.06    1.05    1.44   -42.75810   140.19281    26.54263
    77  H   1.0    0.04    1.00    1.43   -46.99590   142.19770    25.60535
    78  H   1.0    0.05    1.00    1.43   -46.99474   138.88748    25.20238
    79  H   1.0    0.05    1.00    1.43   -48.36502   140.22152    27.92818
    80  H   1.0    0.04    1.00    1.43   -43.82679   144.23825    28.68538
    81  H   1.0    0.04    1.00    1.43   -45.36293   142.55536    31.12598
    82  H   1.0    0.06    1.00    1.43   -42.06610   142.25253    30.70219
    83  N   5.0   -0.14    3.52    2.09   -43.93771   134.14098    26.70561
    84  C   4.0    0.04    4.48    4.52   -45.07720   131.75881    25.99501
    85  C   4.0    0.16    3.51    3.12   -45.80820   130.36146    28.42554
    86  O   6.0   -0.31    1.29    1.80   -47.70429   129.03670    28.50821
    87  C   4.0   -0.04    4.20    4.00   -43.51487   130.14975    24.16287
    88  C   4.0   -0.03    4.18    3.95   -45.32104   128.67602    22.45039
    89  C   4.0    0.25    3.07    3.02   -44.02930   126.96299    20.40046
    90  O   6.0   -0.28    1.16    1.80   -42.83787   125.09576    21.18914
    91  O   6.0   -0.27    1.16    1.80   -44.39701   127.58239    18.16119
    92  H   1.0    0.12    1.10    1.44   -42.10826   134.51566    26.28652
    93  H   1.0    0.06    1.07    1.44   -46.88834   132.19667    25.07248
    94  H   1.0    0.06    1.03    1.43   -42.33756   131.40413    23.02314
    95  H   1.0    0.06    1.02    1.43   -42.26954   128.86355    25.18526
    96  H   1.0    0.06    1.03    1.43   -46.50206   127.45279    23.61847
    97  H   1.0    0.05    1.03    1.43   -46.53262   129.99504    21.42730
    98  N   5.0   -0.14    3.52    2.09   -44.36766   130.77981    30.45066
    99  C   4.0    0.05    4.43    4.44   -45.07124   129.78232    32.89620
   100  C   4.0    0.16    3.51    3.12   -47.58555   130.77048    33.88680
   101  O   6.0   -0.30    1.27    1.80   -48.94856   129.35253    35.10455
   102  C   4.0   -0.03    4.29    4.17   -43.10291   130.41263    34.93500
   103  C   4.0   -0.03    4.16    3.92   -41.28413   128.21675    35.37025
   104  C   4.0    0.25    3.11    3.03   -42.73738   125.96395    36.62489
   105  O   6.0   -0.28    1.16    1.80   -42.67499   125.87107    38.96963
   106  O   6.0   -0.30    1.18    1.80   -43.86696   124.45006    35.20478
   107  H   1.0    0.12    1.12    1.45   -42.65503   131.62018    30.29065
   108  H   1.0    0.07    1.07    1.44   -45.25925   127.71628    32.78633
   109  H   1.0    0.06    1.03    1.43   -42.08889   132.12031    34.37848
   110  H   1.0    0.06    1.04    1.43   -44.06070   130.82666    36.71904
   111  H   1.0    0.06    1.02    1.43   -40.44966   127.62536    33.58027
   112  H   1.0    0.06    1.02    1.43   -39.79294   128.80556    36.66786
   113  N   5.0   -0.14    3.48    2.06   -48.09800   133.27173    33.63880
   114  C   4.0    0.04    4.48    4.51   -50.48026   134.05470    34.76201
   115  C   4.0    0.15    3.49    3.11   -52.64223   132.78828    33.36499
   116  O   6.0   -0.31    1.25    1.80   -54.32005   131.55432    34.42880
   117  C   4.0   -0.05    4.24    4.08   -50.73438   136.93042    34.87227
   118  C   4.0   -0.05    4.18    3.95   -51.58953   137.76654    37.49261
   119  C   4.0   -0.01    4.22    4.04   -51.21409   140.60800    37.91352
   120  N   5.0   -0.13    3.30    1.98   -51.80181   141.51230    40.43035
   121  C   4.0    0.06    3.28    3.05   -54.50505   141.34467    41.04968
   122  N   5.0   -0.18    3.15    1.95   -55.91614   142.93289    39.32545
   123  N   5.0   -0.17    3.11    1.94   -54.76188   141.98551    43.75830
   124  H   1.0    0.11    1.11    1.45   -47.65572   134.13291    31.96629
   125  H   1.0    0.06    1.07    1.44   -50.52446   133.28961    36.69094
   126  H   1.0    0.05    1.03    1.43   -48.88578   137.76538    34.49668
   127  H   1.0    0.05    1.03    1.43   -52.07227   137.61152    33.45970
   128  H   1.0    0.05    1.02    1.43   -53.58190   137.30354    37.81469
   129  H   1.0    0.05    1.03    1.43   -50.51779   136.74805    38.94339
   130  H   1.0    0.05    1.03    1.43   -49.23174   141.08485    37.56427
   131  H   1.0    0.05    1.04    1.43   -52.43591   141.66773    36.63565
   132  H   1.0    0.08    1.08    1.44   -50.89728   140.47601    41.77167
   133  H   1.0    0.08    1.03    1.43   -57.69183   142.23540    39.09121
   134  H   1.0    0.08    1.02    1.43   -56.16918   144.72560    40.00912
   135  H   1.0    0.08    1.02    1.43   -55.04256   140.41464    44.83932
   136  H   1.0    0.08    1.03    1.43   -56.29949   143.10524    44.03515
   137  N   5.0   -0.13    3.56    2.12   -52.51210   132.92889    30.83105
   138  C   4.0    0.04    4.50    4.54   -54.61175   131.99641    29.36131
   139  C   4.0    0.15    3.41    3.08   -54.66385   129.09839    29.26579
   140  O   6.0   -0.31    1.24    1.80   -56.52356   127.98711    28.44179
   141  C   4.0    0.05    4.23    4.06   -54.59084   133.23531    26.73622
   142  O   6.0   -0.25    2.15    1.85   -53.89845   135.78734    27.12424
   143  C   4.0   -0.07    4.07    3.75   -57.15458   132.98451    25.44821
   144  H   1.0    0.11    1.09    1.44   -51.32418   134.16248    29.97407
   145  H   1.0    0.05    1.06    1.44   -56.37407   132.54091    30.33350
   146  H   1.0    0.05    1.03    1.43   -53.10895   132.30542    25.60166
   147  H   1.0    0.12    1.03    1.43   -54.36416   136.74486    25.63763
   148  H   1.0    0.05    1.00    1.43   -57.04728   133.64513    23.50709
   149  H   1.0    0.06    1.01    1.43   -57.75691   131.02446    25.48191
   150  H   1.0    0.04    1.00    1.43   -58.54655   134.10441    26.46921
   151  N   5.0   -0.13    3.53    2.10   -52.63265   127.87987    30.14793
   152  C   4.0    0.04    4.41    4.40   -52.55068   125.14171    30.23188
   153  C   4.0    0.15    3.47    3.10   -53.99354   124.14368    32.51513
   154  O   6.0   -0.33    1.27    1.80   -54.77290   121.95705    32.54390
   155  C   4.0   -0.04    4.27    4.13   -49.81074   124.18530    30.29115
   156  C   4.0   -0.04    4.16    3.91   -49.56133   121.32133    29.99053
   157  C   4.0   -0.01    4.19    3.99   -50.11175   120.42007    27.27410
   158  N   5.0   -0.14    3.38    2.01   -48.48522   118.34165    26.50528
   159  C   4.0    0.10    3.33    3.06   -46.25138   118.57072    25.36030
   160  N   5.0   -0.17    3.25    1.97   -45.15842   120.81731    25.08997
   161  N   5.0   -0.18    3.24    1.96   -45.05330   116.50184    24.56512
   162  H   1.0    0.11    1.10    1.44   -50.98992   128.80805    30.44728
   163  H   1.0    0.06    1.06    1.44   -53.53334   124.41139    28.55594
   164  H   1.0    0.06    1.04    1.44   -48.79419   125.15076    28.78434
   165  H   1.0    0.06    1.03    1.43   -48.95336   124.80146    32.06269
   166  H   1.0    0.05    1.03    1.43   -47.62021   120.82383    30.46634
   167  H   1.0    0.06    1.03    1.43   -50.86061   120.37972    31.27856
   168  H   1.0    0.04    1.02    1.43   -52.05775   119.76439    27.12339
   169  H   1.0    0.05    1.03    1.43   -49.88343   121.98389    25.94564
   170  H   1.0    0.08    1.07    1.44   -49.12841   116.58218    26.87396
   171  H   1.0    0.09    1.04    1.43   -46.01397   122.39728    25.71206
   172  H   1.0    0.11    1.03    1.43   -43.69475   121.11610    23.90501
   173  H   1.0    0.09    1.03    1.43   -45.89204   114.79377    24.60329
   174  H   1.0    0.09    1.03    1.43   -43.40084   116.66741    23.63695
   175  N   5.0   -0.14    3.53    2.10   -54.28917   125.69811    34.49898
   176  C   4.0    0.04    4.45    4.46   -56.04562   124.92080    36.43127
   177  C   4.0    0.14    3.45    3.10   -58.74520   125.52982    35.63066
   178  O   6.0   -0.29    1.28    1.80   -60.48091   124.01340    36.11663
   179  C   4.0   -0.05    4.19    3.99   -55.23915   125.76705    39.07620
   180  C   4.0   -0.04    4.18    3.96   -52.44844   125.16450    39.63274
   181  C   4.0   -0.05    4.13    3.86   -51.49662   122.47988    38.97843
   182  C   4.0   -0.02    4.15    3.90   -48.93212   122.73331    37.66835
   183  N   5.0   -0.11    3.99    2.83   -47.83224   120.32642    36.70373
   184  H   1.0    0.11    1.08    1.44   -53.79698   127.54134    34.41974
   185  H   1.0    0.06    1.09    1.44   -56.01069   122.84138    36.43170
   186  H   1.0    0.05    1.02    1.43   -55.51826   127.81075    39.29005
   187  H   1.0    0.04    1.02    1.43   -56.48688   124.88402    40.46669
   188  H   1.0    0.06    1.04    1.43   -51.33248   126.54783    38.58044
   189  H   1.0    0.04    1.02    1.43   -52.13993   125.57200    41.63625
   190  H   1.0    0.05    1.02    1.43   -51.36214   121.37994    40.71340
   191  H   1.0    0.05    1.03    1.43   -52.82373   121.53759    37.72065
   192  H   1.0    0.06    1.03    1.43   -49.14036   124.02879    36.07971
   193  H   1.0    0.06    1.02    1.43   -47.57979   123.59440    38.96373
   194  H   1.0    0.08    1.03    1.43   -46.11304   120.86352    35.90866
   195  H   1.0    0.07    1.02    1.43   -47.54438   119.07602    38.17055
   196  H   1.0    0.06    1.02    1.43   -49.00477   119.50579    35.37987
   197  N   5.0   -0.14    3.51    2.09   -59.11245   127.36406    33.83322
   198  C   4.0    0.04    4.49    4.52   -61.68502   127.64694    32.92089
   199  C   4.0    0.17    3.47    3.10   -62.51634   125.28586    31.48143
   200  O   6.0   -0.27    1.23    1.80   -64.76063   124.91045    31.06605
   201  C   4.0   -0.04    4.34    4.28   -61.97825   129.95867    31.24336
   202  C   4.0   -0.02    4.17    3.95   -62.52779   132.36752    32.75575
   203  C   4.0   -0.07    4.12    3.85   -60.96883   132.61044    35.18564
   204  C   4.0   -0.08    4.10    3.81   -62.10321   134.69154    31.10318
   205  H   1.0    0.09    1.07    1.44   -58.05207   128.94592    33.95723
   206  H   1.0    0.06    1.05    1.44   -63.03222   127.79237    34.51115
   207  H   1.0    0.06    1.03    1.43   -60.25115   130.17217    30.13584
   208  H   1.0    0.06    1.03    1.43   -63.55737   129.64462    29.95684
   209  H   1.0    0.04    1.05    1.44   -64.51674   132.36233    33.35167
   210  H   1.0    0.04    1.00    1.43   -61.48965   134.35204    36.16597
   211  H   1.0    0.05    1.00    1.43   -61.33521   131.08314    36.52019
   212  H   1.0    0.05    1.00    1.43   -58.94289   132.69650    34.82212
   213  H   1.0    0.04    1.00    1.43   -62.78791   136.35794    32.09429
   214  H   1.0    0.04    1.00    1.43   -60.09319   134.93768    30.74262
   215  H   1.0    0.04    1.00    1.43   -63.13603   134.52477    29.33900
   216  N   5.0   -0.13    3.50    2.08   -60.68994   123.75035    30.67308
   217  C   4.0    0.05    4.42    4.42   -61.19164   121.22043    29.77001
   218  C   4.0    0.16    3.44    3.09   -61.64147   119.32530    31.92124
   219  O   6.0   -0.27    1.24    1.80   -63.47871   117.92196    31.85258
   220  C   4.0   -0.04    4.27    4.14   -59.03509   120.30396    28.08502
   221  C   4.0   -0.03    4.23    4.06   -59.67101   117.73360    26.90204
   222  C   4.0    0.16    3.22    3.04   -61.78418   117.92242    24.95411
   223  O   6.0   -0.27    1.21    1.80   -63.92676   118.62525    25.44760
   224  N   5.0   -0.18    3.18    1.95   -61.09875   117.30679    22.58792
   225  H   1.0    0.10    1.10    1.44   -58.89193   124.24030    31.07950
   226  H   1.0    0.09    1.07    1.44   -62.96770   121.28168    28.70483
   227  H   1.0    0.05    1.03    1.43   -58.72618   121.72349    26.62119
   228  H   1.0    0.06    1.03    1.43   -57.33581   120.15925    29.24617
   229  H   1.0    0.04    1.03    1.43   -57.97777   116.95065    26.03814
   230  H   1.0    0.06    1.04    1.43   -60.31602   116.45130    28.38203
   231  H   1.0    0.08    1.03    1.43   -59.39896   116.53996    22.22447
   232  H   1.0    0.10    1.03    1.43   -62.44873   117.23947    21.24691
   233  N   5.0   -0.14    3.41    2.03   -59.85543   119.12362    33.73145
   234  C   4.0    0.04    4.28    4.16   -60.26535   117.40156    35.84077
   235  C   4.0    0.10    3.19    3.03   -62.63179   118.05010    37.42912
   236  O   6.0   -0.27    1.11    1.80   -63.39228   116.59804    39.06132
   237  C   4.0   -0.03    4.21    4.01   -57.82004   116.84735    37.34749
   238  C   4.0   -0.03    4.19    3.97   -57.45038   118.23335    39.87090
   239  C   4.0    0.15    3.20    3.04   -55.37782   117.05791    41.50016
   240  O   6.0   -0.28    1.22    1.80   -54.49945   114.96682    41.13099
   241  N   5.0   -0.19    3.18    1.95   -54.49680   118.52403    43.39195
   242  H   1.0    0.10    1.07    1.44   -58.48673   120.44978    33.87183
   243  H   1.0    0.07    1.07    1.44   -60.85407   115.61279    34.95113
   244  H   1.0    0.07    1.03    1.43   -57.79467   114.83614    37.79602
   245  H   1.0    0.05    1.03    1.43   -56.23419   117.25423    36.09929
   246  H   1.0    0.04    1.02    1.43   -57.06046   120.24149    39.62537
   247  H   1.0    0.06    1.03    1.43   -59.18755   118.10310    40.98635
   248  H   1.0    0.08    1.02    1.43   -55.28442   120.17512    43.91512
   249  H   1.0    0.10    1.03    1.43   -53.32074   117.74474    44.67266
   250  H   1.0    0.09    1.07    1.44   -26.15253   141.95985    21.03597
   251  H   1.0    0.08    1.04    1.43   -63.55738   119.66979    37.12753

  Z AO/shell   Hii/eV     exponent
  1     Wed Apr 25 08:07:45 CEST 2018   EN: 2.200 GM2: 0.406  GM3: 0.0800  RAES: 1.40
     1s    -10.707211    1.230000
  6     Wed Apr 25 08:07:45 CEST 2018   EN: 2.550 GM2: 0.538  GM3: 0.1500  RAES: 3.00
     2s    -13.970922    2.096432
     2p    -10.063292    1.800000
  7     Wed Apr 25 08:07:45 CEST 2018   EN: 3.040 GM2: 0.461  GM3:-0.0640  RAES: 1.90
     2s    -16.686243    2.339881
     2p    -12.523956    2.014332
  8     Wed Apr 25 08:07:45 CEST 2018   EN: 3.440 GM2: 0.452  GM3:-0.0517  RAES: 1.80
     2s    -20.229985    2.439742
     2p    -15.503117    2.137023
 no old-style atom pair restraining (fixing) potential
           ------------------------------------------------- 
          |        Self-Consistent Charge Iterations        |
           ------------------------------------------------- 

 Ncao       : 623
 Nao        : 623
 Nshell     : 375
 Nel        : 700
 T(el)      :   500.0
 intcut     :    35.0
 scfconv/Eh :  0.100E-06
   qconv/e  :  0.100E-04
 intneglect :  0.100E-08
 broydamp   :      0.400
 iter      E             dE          RMSdq      gap      omega  full diag
   1   -403.5528785 -0.403553E+03  0.475E+00    2.63       0.0  T
   2   -404.5842191 -0.103134E+01  0.221E+00    0.45       1.0  T
   3   -404.6052619 -0.210428E-01  0.144E+00    1.29       1.0  T
   4   -404.2894392  0.315823E+00  0.126E+00    0.02       1.0  T
   5   -404.7760305 -0.486591E+00  0.351E-01    0.92       1.0  T
   6   -404.7843242 -0.829372E-02  0.226E-01    0.55       1.0  T
   7   -404.7902255 -0.590129E-02  0.128E-01    0.33       1.0  T
   8   -404.7893524  0.873153E-03  0.118E-01    0.16       1.0  T
   9   -404.7930732 -0.372081E-02  0.554E-02    0.24       1.0  T
  10   -404.7930327  0.405098E-04  0.549E-02    0.28       1.0  T
  11   -404.7937460 -0.713324E-03  0.248E-02    0.25       1.0  T
  12   -404.7939293 -0.183330E-03  0.635E-03    0.24       1.0  T
  13   -404.7939384 -0.905556E-05  0.314E-03    0.23       2.0  T
  14   -404.7939398 -0.137824E-05  0.216E-03    0.23       2.9  T
  15   -404.7939410 -0.120123E-05  0.783E-04    0.24       8.1  T
  16   -404.7939412 -0.192242E-06  0.150E-04    0.24      42.2  T
  17   -404.7939412  0.420982E-09  0.104E-04    0.24      60.9  T
  18   -404.7939412  0.180819E-09  0.877E-05    0.24      72.0  T
  19   -404.7939412 -0.239390E-08  0.121E-05    0.24     523.1  T
speedup  1.93
cpu  time for SCC    6.33 s
wall time for SCC    3.28 s

   *** convergence criteria satisfied after 19 iterations ***

          eigenvalues
 #    :         338        339        340        341        342        343        344        345
 occ. :        2.000      2.000      2.000      2.000      2.000      2.000      2.000      2.000
 eps  :       -10.829    -10.824    -10.774    -10.728    -10.671    -10.502    -10.473    -10.437
 #    :         346        347        348        349        350        351        352        353
 occ. :        2.000      2.000      1.945      1.938      1.925      0.192      0.000      0.000
 eps  :       -10.426    -10.367     -9.884     -9.879     -9.870     -9.634     -7.637     -6.875
 #    :         354        355        356        357        358        359        360        361
 occ. :        0.000      0.000      0.000      0.000      0.000      0.000      0.000      0.000
 eps  :        -6.785     -6.764     -6.666     -6.622     -6.532     -6.470     -6.404     -6.394


   #   Z            q   n(s)   n(p)   n(d)      C6AA      α(0)
   1   7 N     -0.400  1.311  4.088  0.000    30.366     8.184
   2   6 C      0.023  1.059  2.918  0.000    20.195     6.401
   3   6 C      0.268  1.047  2.685  0.000    22.476     7.763
   4   8 O     -0.493  1.747  4.746  0.000    23.626     6.517
   5   6 C      0.079  1.040  2.881  0.000    19.479     6.322
   6   8 O     -0.491  1.732  4.759  0.000    22.705     6.432
   7   1 H      0.172  0.828  0.000  0.000     1.262     1.760
   8   1 H      0.059  0.941  0.000  0.000     2.210     2.325
   9   1 H      0.042  0.958  0.000  0.000     2.423     2.434
  10   1 H      0.030  0.970  0.000  0.000     2.587     2.515
  11   1 H      0.345  0.655  0.000  0.000     0.600     1.217
  12   7 N     -0.178  1.251  3.927  0.000    24.858     7.405
  13   6 C      0.019  1.061  2.920  0.000    20.264     6.410
  14   6 C      0.280  1.043  2.678  0.000    22.263     7.727
  15   8 O     -0.496  1.747  4.748  0.000    23.689     6.526
  16   6 C     -0.143  1.047  3.096  0.000    23.307     6.883
  17   1 H      0.232  0.768  0.000  0.000     0.958     1.533
  18   1 H      0.073  0.927  0.000  0.000     2.058     2.244
  19   1 H      0.064  0.936  0.000  0.000     2.152     2.294
  20   1 H      0.085  0.915  0.000  0.000     1.924     2.169
  21   1 H      0.078  0.922  0.000  0.000     2.000     2.212
  22   7 N     -0.184  1.246  3.938  0.000    24.995     7.425
  23   6 C      0.027  1.056  2.917  0.000    20.125     6.387
  24   6 C      0.281  1.041  2.678  0.000    22.246     7.724
  25   8 O     -0.497  1.749  4.748  0.000    23.715     6.529
  26   6 C     -0.139  1.044  3.095  0.000    23.238     6.873
  27   1 H      0.231  0.769  0.000  0.000     0.963     1.537
  28   1 H      0.062  0.938  0.000  0.000     2.180     2.309
  29   1 H      0.074  0.926  0.000  0.000     2.046     2.237
  30   1 H      0.085  0.915  0.000  0.000     1.932     2.173
  31   1 H      0.079  0.921  0.000  0.000     1.993     2.208
  32   7 N     -0.176  1.244  3.933  0.000    24.819     7.399
  33   6 C      0.023  1.060  2.917  0.000    20.190     6.398
  34   6 C      0.279  1.042  2.679  0.000    22.278     7.729
  35   8 O     -0.506  1.740  4.766  0.000    23.909     6.556
  36   6 C     -0.138  1.044  3.094  0.000    23.213     6.869
  37   1 H      0.215  0.785  0.000  0.000     1.035     1.593
  38   1 H      0.077  0.923  0.000  0.000     2.006     2.215
  39   1 H      0.069  0.931  0.000  0.000     2.094     2.263
  40   1 H      0.086  0.914  0.000  0.000     1.914     2.164
  41   1 H      0.073  0.927  0.000  0.000     2.053     2.241
  42   7 N     -0.176  1.249  3.927  0.000    24.802     7.396
  43   6 C      0.026  1.059  2.915  0.000    20.138     6.390
  44   6 C      0.277  1.043  2.680  0.000    22.314     7.735
  45   8 O     -0.496  1.737  4.759  0.000    23.691     6.526
  46   6 C     -0.135  1.044  3.091  0.000    23.142     6.859
  47   1 H      0.232  0.768  0.000  0.000     0.955     1.530
  48   1 H      0.072  0.928  0.000  0.000     2.063     2.246
  49   1 H      0.067  0.933  0.000  0.000     2.119     2.276
  50   1 H      0.085  0.915  0.000  0.000     1.929     2.172
  51   1 H      0.070  0.930  0.000  0.000     2.082     2.256
  52   7 N     -0.189  1.252  3.937  0.000    25.095     7.440
  53   6 C      0.034  1.058  2.909  0.000    20.016     6.371
  54   6 C      0.278  1.039  2.683  0.000    22.297     7.733
  55   8 O     -0.491  1.741  4.750  0.000    23.592     6.512
  56   6 C     -0.041  1.047  2.994  0.000    21.297     6.569
  57   6 C     -0.092  1.066  3.025  0.000    22.254     6.717
  58   6 C      0.373  1.025  2.602  0.000    20.683     7.442
  59   8 O     -0.626  1.768  4.858  0.000    26.756     6.935
  60   8 O     -0.630  1.772  4.858  0.000    26.860     6.949
  61   1 H      0.228  0.772  0.000  0.000     0.973     1.545
  62   1 H      0.054  0.946  0.000  0.000     2.277     2.360
  63   1 H      0.046  0.954  0.000  0.000     2.373     2.409
  64   1 H      0.037  0.963  0.000  0.000     2.488     2.467
  65   1 H      0.045  0.955  0.000  0.000     2.382     2.414
  66   1 H      0.024  0.976  0.000  0.000     2.680     2.560
  67   7 N     -0.184  1.244  3.940  0.000    24.982     7.423
  68   6 C      0.022  1.059  2.919  0.000    20.201     6.398
  69   6 C      0.269  1.047  2.684  0.000    22.455     7.762
  70   8 O     -0.500  1.733  4.767  0.000    23.780     6.538
  71   6 C     -0.014  1.059  2.955  0.000    20.787     6.484
  72   6 C     -0.121  1.040  3.081  0.000    22.880     6.820
  73   6 C     -0.116  1.041  3.076  0.000    22.771     6.803
  74   1 H      0.210  0.790  0.000  0.000     1.059     1.612
  75   1 H      0.083  0.917  0.000  0.000     1.945     2.181
  76   1 H      0.041  0.959  0.000  0.000     2.432     2.439
  77   1 H      0.066  0.934  0.000  0.000     2.128     2.281
  78   1 H      0.036  0.964  0.000  0.000     2.500     2.473
  79   1 H      0.062  0.938  0.000  0.000     2.175     2.306
  80   1 H      0.060  0.940  0.000  0.000     2.203     2.321
  81   1 H      0.055  0.945  0.000  0.000     2.261     2.352
  82   1 H      0.031  0.969  0.000  0.000     2.572     2.508
  83   7 N     -0.187  1.256  3.930  0.000    25.043     7.432
  84   6 C      0.030  1.063  2.907  0.000    20.059     6.374
  85   6 C      0.278  1.044  2.679  0.000    22.304     7.734
  86   8 O     -0.487  1.726  4.761  0.000    23.501     6.500
  87   6 C     -0.051  1.049  3.002  0.000    21.492     6.601
  88   6 C     -0.093  1.073  3.020  0.000    22.276     6.720
  89   6 C      0.372  1.023  2.605  0.000    20.693     7.444
  90   8 O     -0.609  1.757  4.853  0.000    26.345     6.882
  91   8 O     -0.624  1.778  4.847  0.000    26.723     6.931
  92   1 H      0.228  0.772  0.000  0.000     0.974     1.546
  93   1 H      0.075  0.925  0.000  0.000     2.034     2.230
  94   1 H      0.043  0.957  0.000  0.000     2.404     2.425
  95   1 H      0.043  0.957  0.000  0.000     2.414     2.429
  96   1 H      0.038  0.962  0.000  0.000     2.471     2.458
  97   1 H      0.026  0.974  0.000  0.000     2.649     2.545
  98   7 N     -0.200  1.255  3.945  0.000    25.351     7.478
  99   6 C      0.031  1.057  2.912  0.000    20.056     6.377
 100   6 C      0.273  1.050  2.677  0.000    22.390     7.750
 101   8 O     -0.470  1.732  4.738  0.000    23.129     6.448
 102   6 C     -0.043  1.050  2.993  0.000    21.329     6.574
 103   6 C     -0.092  1.066  3.026  0.000    22.266     6.719
 104   6 C      0.366  1.026  2.608  0.000    20.786     7.461
 105   8 O     -0.611  1.771  4.841  0.000    26.398     6.889
 106   8 O     -0.597  1.744  4.853  0.000    26.050     6.843
 107   1 H      0.217  0.783  0.000  0.000     1.022     1.584
 108   1 H      0.089  0.911  0.000  0.000     1.884     2.147
 109   1 H      0.031  0.969  0.000  0.000     2.572     2.508
 110   1 H      0.038  0.962  0.000  0.000     2.478     2.462
 111   1 H      0.027  0.973  0.000  0.000     2.629     2.536
 112   1 H      0.017  0.983  0.000  0.000     2.777     2.606
 113   7 N     -0.218  1.297  3.921  0.000    25.746     7.536
 114   6 C      0.022  1.060  2.918  0.000    20.192     6.395
 115   6 C      0.268  1.050  2.682  0.000    22.479     7.764
 116   8 O     -0.486  1.736  4.750  0.000    23.484     6.497
 117   6 C     -0.080  1.055  3.025  0.000    22.020     6.680
 118   6 C     -0.075  1.060  3.015  0.000    21.932     6.668
 119   6 C     -0.032  1.054  2.978  0.000    21.227     6.573
 120   7 N     -0.107  1.373  3.734  0.000    23.347     7.176
 121   6 C      0.167  1.161  2.672  0.000    24.384     8.084
 122   7 N     -0.339  1.370  3.970  0.000    28.738     7.962
 123   7 N     -0.295  1.391  3.904  0.000    27.609     7.804
 124   1 H      0.209  0.791  0.000  0.000     1.059     1.612
 125   1 H      0.090  0.910  0.000  0.000     1.878     2.143
 126   1 H      0.066  0.934  0.000  0.000     2.127     2.281
 127   1 H      0.072  0.928  0.000  0.000     2.062     2.246
 128   1 H      0.074  0.926  0.000  0.000     2.039     2.233
 129   1 H      0.059  0.941  0.000  0.000     2.212     2.326
 130   1 H      0.088  0.912  0.000  0.000     1.902     2.157
 131   1 H      0.114  0.886  0.000  0.000     1.662     2.016
 132   1 H      0.236  0.764  0.000  0.000     0.938     1.517
 133   1 H      0.223  0.777  0.000  0.000     0.994     1.562
 134   1 H      0.234  0.766  0.000  0.000     0.947     1.524
 135   1 H      0.245  0.755  0.000  0.000     0.903     1.489
 136   1 H      0.231  0.769  0.000  0.000     0.962     1.536
 137   7 N     -0.182  1.255  3.928  0.000    24.953     7.419
 138   6 C      0.022  1.063  2.915  0.000    20.204     6.399
 139   6 C      0.264  1.045  2.692  0.000    22.550     7.776
 140   8 O     -0.482  1.742  4.740  0.000    23.386     6.484
 141   6 C      0.121  1.044  2.836  0.000    18.709     6.176
 142   8 O     -0.484  1.724  4.760  0.000    22.548     6.410
 143   6 C     -0.142  1.045  3.097  0.000    23.301     6.884
 144   1 H      0.226  0.774  0.000  0.000     0.984     1.554
 145   1 H      0.078  0.922  0.000  0.000     1.996     2.209
 146   1 H      0.013  0.987  0.000  0.000     2.845     2.638
 147   1 H      0.346  0.654  0.000  0.000     0.597     1.213
 148   1 H      0.061  0.939  0.000  0.000     2.190     2.314
 149   1 H      0.069  0.931  0.000  0.000     2.092     2.262
 150   1 H      0.069  0.931  0.000  0.000     2.100     2.266
 151   7 N     -0.176  1.242  3.934  0.000    24.813     7.398
 152   6 C      0.013  1.062  2.925  0.000    20.365     6.426
 153   6 C      0.259  1.049  2.691  0.000    22.638     7.792
 154   8 O     -0.469  1.729  4.740  0.000    23.106     6.445
 155   6 C     -0.081  1.056  3.025  0.000    22.044     6.684
 156   6 C     -0.101  1.059  3.042  0.000    22.430     6.743
 157   6 C     -0.032  1.055  2.977  0.000    21.236     6.576
 158   7 N     -0.142  1.209  3.933  0.000    24.078     7.288
 159   6 C      0.234  1.019  2.747  0.000    23.092     7.868
 160   7 N     -0.228  1.220  4.008  0.000    25.985     7.571
 161   7 N     -0.257  1.234  4.022  0.000    26.668     7.670
 162   1 H      0.205  0.795  0.000  0.000     1.079     1.627
 163   1 H      0.092  0.908  0.000  0.000     1.863     2.135
 164   1 H      0.071  0.929  0.000  0.000     2.077     2.254
 165   1 H      0.061  0.939  0.000  0.000     2.190     2.314
 166   1 H      0.088  0.912  0.000  0.000     1.894     2.152
 167   1 H      0.095  0.905  0.000  0.000     1.835     2.119
 168   1 H      0.100  0.900  0.000  0.000     1.786     2.090
 169   1 H      0.070  0.930  0.000  0.000     2.086     2.259
 170   1 H      0.255  0.745  0.000  0.000     0.865     1.457
 171   1 H      0.219  0.781  0.000  0.000     1.014     1.577
 172   1 H      0.231  0.769  0.000  0.000     0.961     1.535
 173   1 H      0.264  0.736  0.000  0.000     0.832     1.429
 174   1 H      0.247  0.753  0.000  0.000     0.894     1.481
 175   7 N     -0.164  1.243  3.922  0.000    24.559     7.360
 176   6 C      0.012  1.061  2.926  0.000    20.366     6.424
 177   6 C      0.256  1.061  2.683  0.000    22.692     7.801
 178   8 O     -0.492  1.767  4.725  0.000    23.606     6.514
 179   6 C     -0.074  1.055  3.019  0.000    21.916     6.666
 180   6 C     -0.083  1.055  3.027  0.000    22.075     6.689
 181   6 C     -0.096  1.055  3.041  0.000    22.335     6.729
 182   6 C     -0.039  1.055  2.984  0.000    21.366     6.597
 183   7 N     -0.142  1.231  3.911  0.000    24.063     7.286
 184   1 H      0.206  0.794  0.000  0.000     1.074     1.624
 185   1 H      0.104  0.896  0.000  0.000     1.749     2.068
 186   1 H      0.059  0.941  0.000  0.000     2.213     2.326
 187   1 H      0.066  0.934  0.000  0.000     2.128     2.281
 188   1 H      0.062  0.938  0.000  0.000     2.171     2.304
 189   1 H      0.070  0.930  0.000  0.000     2.088     2.259
 190   1 H      0.086  0.914  0.000  0.000     1.920     2.167
 191   1 H      0.076  0.924  0.000  0.000     2.018     2.222
 192   1 H      0.097  0.903  0.000  0.000     1.817     2.108
 193   1 H      0.103  0.897  0.000  0.000     1.758     2.074
 194   1 H      0.295  0.705  0.000  0.000     0.728     1.337
 195   1 H      0.303  0.697  0.000  0.000     0.705     1.316
 196   1 H      0.292  0.708  0.000  0.000     0.737     1.345
 197   7 N     -0.200  1.285  3.915  0.000    25.347     7.477
 198   6 C      0.033  1.058  2.909  0.000    20.019     6.370
 199   6 C      0.285  1.039  2.677  0.000    22.177     7.712
 200   8 O     -0.511  1.755  4.757  0.000    24.035     6.573
 201   6 C     -0.076  1.055  3.021  0.000    21.936     6.667
 202   6 C     -0.015  1.059  2.956  0.000    20.806     6.488
 203   6 C     -0.119  1.043  3.076  0.000    22.830     6.814
 204   6 C     -0.118  1.043  3.075  0.000    22.809     6.809
 205   1 H      0.217  0.783  0.000  0.000     1.022     1.583
 206   1 H      0.064  0.936  0.000  0.000     2.158     2.298
 207   1 H      0.064  0.936  0.000  0.000     2.158     2.297
 208   1 H      0.052  0.948  0.000  0.000     2.295     2.369
 209   1 H      0.035  0.965  0.000  0.000     2.510     2.478
 210   1 H      0.053  0.947  0.000  0.000     2.277     2.360
 211   1 H      0.030  0.970  0.000  0.000     2.581     2.513
 212   1 H      0.045  0.955  0.000  0.000     2.387     2.416
 213   1 H      0.054  0.946  0.000  0.000     2.275     2.359
 214   1 H      0.042  0.958  0.000  0.000     2.428     2.437
 215   1 H      0.042  0.958  0.000  0.000     2.423     2.434
 216   7 N     -0.177  1.242  3.935  0.000    24.836     7.402
 217   6 C      0.022  1.059  2.919  0.000    20.215     6.402
 218   6 C      0.275  1.047  2.677  0.000    22.347     7.741
 219   8 O     -0.499  1.758  4.741  0.000    23.752     6.534
 220   6 C     -0.078  1.057  3.021  0.000    21.978     6.674
 221   6 C     -0.105  1.060  3.045  0.000    22.499     6.752
 222   6 C      0.292  1.038  2.671  0.000    22.053     7.689
 223   8 O     -0.511  1.765  4.745  0.000    24.018     6.571
 224   7 N     -0.294  1.274  4.020  0.000    27.589     7.801
 225   1 H      0.197  0.803  0.000  0.000     1.121     1.658
 226   1 H      0.088  0.912  0.000  0.000     1.896     2.154
 227   1 H      0.067  0.933  0.000  0.000     2.117     2.275
 228   1 H      0.086  0.914  0.000  0.000     1.918     2.166
 229   1 H      0.086  0.914  0.000  0.000     1.921     2.168
 230   1 H      0.071  0.929  0.000  0.000     2.073     2.252
 231   1 H      0.238  0.762  0.000  0.000     0.930     1.511
 232   1 H      0.226  0.774  0.000  0.000     0.984     1.554
 233   7 N     -0.173  1.247  3.926  0.000    24.742     7.388
 234   6 C      0.023  1.065  2.912  0.000    20.194     6.400
 235   6 C      0.215  1.085  2.701  0.000    23.463     7.932
 236   8 O     -0.372  1.753  4.619  0.000    21.129     6.163
 237   6 C     -0.073  1.053  3.020  0.000    21.895     6.662
 238   6 C     -0.102  1.056  3.046  0.000    22.454     6.746
 239   6 C      0.290  1.038  2.671  0.000    22.077     7.693
 240   8 O     -0.483  1.748  4.735  0.000    23.409     6.487
 241   7 N     -0.288  1.265  4.023  0.000    27.440     7.780
 242   1 H      0.216  0.784  0.000  0.000     1.028     1.588
 243   1 H      0.105  0.895  0.000  0.000     1.739     2.062
 244   1 H      0.090  0.910  0.000  0.000     1.883     2.146
 245   1 H      0.094  0.906  0.000  0.000     1.843     2.123
 246   1 H      0.072  0.928  0.000  0.000     2.063     2.246
 247   1 H      0.065  0.935  0.000  0.000     2.137     2.286
 248   1 H      0.217  0.783  0.000  0.000     1.025     1.586
 249   1 H      0.228  0.772  0.000  0.000     0.972     1.545
 250   1 H      0.194  0.806  0.000  0.000     1.135     1.668
 251   1 H      0.063  0.937  0.000  0.000     2.168     2.302

 Mol. C6AA /au·bohr⁶  :     578628.860900
 Mol. C8AA /au·bohr⁸  :   12768452.328270
 Mol. α(0) /au        :       1129.975058

 
molecular dipole:
                 x           y           z       tot (Debye)
 q only:       -1.440      -1.523       0.340
   full:        1.333       0.711      -0.664       4.196
molecular quadrupole (traceless):
                xx          xy          yy          xz          yz          zz
 q only:      174.619    -381.683    -226.709    -357.378     -18.541      52.091
  q+dip:     -292.103      -1.557     458.095    -188.031    -116.185    -165.992
   full:     -294.533      -4.148     461.250    -186.451    -114.027    -166.717
speedup  1.94
cpu  time for grad    7.41 s
wall time for grad    3.82 s

SCC energy    :    -404.8049965
rep           :       4.4416086
ES            :       1.5153780
AES           :      -0.0789670
AXC           :       0.1065379
disp          :      -0.3250147
XB            :       0.0000000
fix           :       0.0000000
Gborn         :       0.0000000
Gsasa         :       0.0000000
Ghb           :       0.0000000
Gshift        :       0.0000000
Gsolv         :      -0.4074086     -255.65
Etot ala COSMO:    -404.8049965
grad norm     :       0.3003634
total E       :    -400.3383660
atomizationE  :      70.7183307    44376.42
(atE without considering molecular charge,
 total energy contains solvation terms)
H-L gap (eV)  :          0.2362

------------------------------------------------------------------------
 * finished run on 2019/05/10 at 12:44:37.297     
------------------------------------------------------------------------
 total:
 * wall-time:     0 d,  0 h,  0 min,  4.115 sec
 *  cpu-time:     0 d,  0 h,  0 min,  7.895 sec
 * ratio c/w:     1.919 speedup
 SCF:
 * wall-time:     0 d,  0 h,  0 min,  3.998 sec
 *  cpu-time:     0 d,  0 h,  0 min,  7.767 sec
 * ratio c/w:     1.943 speedup

