      -----------------------------------------------------------      
     |                   =====================                   |     
     |                           x T B                           |     
     |                   =====================                   |     
     |                         S. Grimme                         |     
     |          Mulliken Center for Theoretical Chemistry        |     
     |                    University of Bonn                     |     
     |                 Version 6.0.1 (SAW181210)                 |     
      -----------------------------------------------------------      

   This program is distributed in the hope that it will be useful,
   but WITHOUT ANY WARRANTY; without even the implied warranty of
   MERCHANTABILITY or FITNESS FOR A PARTICULAR PURPOSE.
   
   FOR NON-COMMERCIAL, ACADEMIA USE ONLY.
   
   Cite this work as:
   S. Grimme, C. Bannwarth, P. Shushkov, J. Comput. Theory Chem., 2017,
   13, 1989-2009.
   C. Bannwarth, S. Ehlert and S. Grimme., ChemRxiv, 2018, preprint.
   http://doi.org/10.26434/chemrxiv.7246238.v1
   
   for sTDA-xTB:
   S. Grimme and C. Bannwarth, J. Chem. Phys., 2016, 145, 054103.
   
   in the mass-spec context:
   V. Asgeirsson, C. Bauer and S. Grimme, Chem. Sci., 2017, 8, 4879.
   
   if GBSA is used:
   P. Shushkov, F. März and S. Grimme, unpublished.
   
   for ANC optimizer:
   S. Grimme, unpublished.
   Rational Function algorithm used in ANCopt:
   F. Eckert, P. Pulay, H.-J. Werner, J. Comput. Chem., 1997, 18, 1473.
   
   with help from (in alphabetical order)
   C. Bannwarth, F. Bohle, G. Brandenburg, E. Caldeweyher, M. Checinski,
   S. Dohm, S. Ehlert, S. Ehrlich, F. März, H. Neugebauer, J. Pisarek,
   P. Pracht, P. Shushkov, and S. Spicher.
   
 * started run on 2019/05/07 at 23:36:16.009     
========================================================================
 # omp threads = 2
========================================================================
number of atoms            : 437
number of electrons        : 1112
charge                     : 4
spin                       : .0
first test random number   : .4837

########################################################################
# WARNING! Please study the warnings concerning your input carefully
#  - Process number higher than OMP_NUM_THREADS, I hope you know what you are doing.
########################################################################

           ------------------------------------------------- 
          |                 G F N 2 - x T B                 |
          | Geometry, Frequencies, Noncovalent interactions |
          |            JCTC 2018 parametrisation            |
           ------------------------------------------------- 
 
      method parameters     
 k(s)        :  1.8500
 k(p)        :  2.2300
 k(d)        :  2.2300
 k(f)        :  2.0000
 kEN (H0ij)  : -2.0000
 D4 a1       :  0.5200
 D4 a2       :  5.0000
 D4 s6       :  1.0000
 D4 s8       :  2.7000
 D4 s9       :  5.0000
 alphaj      :  2.0000

 Solvent             : h2o
 Using internal parameter file: .param_gbsa2_h2o
 Gsolv ref. state (COSMO-RS): gsolv [1 M gas/solution]
 temperature (mdtemp)       :    298.150000000000     
 dielectric constant        :    80.2000000000000     
 rho                        :    1.00000000000000     
 mass                       :    18.0000000000000     
 surface tension            :    15.5689454083859     
 probe radius               :   0.975313790000000     
 vdW radii scaling          :    1.00000000000000     
 Gshift (Eh)                :   1.857443126794793E-003
 c1                         :    1.55243817000000     
 soset                      :   0.130326360000000     
 HB correction              :  T

            Z     q(EN)     CN     RAES       Cart. coordinates
     1  N   5.0   -0.12    4.06    3.02    75.84914    38.85825   169.62765
     2  C   4.0   -0.00    4.31    4.21    74.53937    37.74193   167.36949
     3  C   4.0    0.15    3.37    3.07    72.68428    39.67565   166.09618
     4  O   6.0   -0.30    1.25    1.80    70.43477    39.60796   166.54124
     5  C   4.0   -0.03    4.33    4.25    72.92686    35.45675   168.17616
     6  C   4.0   -0.02    3.55    3.14    72.84918    33.51957   166.06564
     7  C   4.0   -0.04    3.47    3.10    72.06134    34.18041   163.65059
     8  C   4.0   -0.05    3.50    3.11    73.74390    31.07522   166.50007
     9  C   4.0   -0.05    3.40    3.08    72.25225    32.42095   161.73370
    10  C   4.0   -0.05    3.36    3.07    73.98158    29.32625   164.56997
    11  C   4.0   -0.05    3.39    3.08    73.23124    30.03038   162.18051
    12  H   1.0    0.06    1.02    1.43    76.93013    37.52327   170.54759
    13  H   1.0    0.06    1.02    1.43    76.97312    40.36949   169.11165
    14  H   1.0    0.07    1.02    1.43    74.49472    39.49342   170.89399
    15  H   1.0    0.05    1.05    1.44    75.95658    37.17222   165.97522
    16  H   1.0    0.04    1.03    1.43    73.65161    34.55233   169.87474
    17  H   1.0    0.06    1.05    1.44    71.00513    36.11045   168.56479
    18  H   1.0    0.06    1.04    1.43    71.32707    36.03755   163.26238
    19  H   1.0    0.05    1.03    1.43    74.22100    30.48207   168.39610
    20  H   1.0    0.05    1.03    1.43    71.73133    32.89027   159.81690
    21  H   1.0    0.05    1.03    1.43    74.70456    27.45420   164.94490
    22  H   1.0    0.04    1.04    1.43    73.38807    28.73298   160.62286
    23  N   5.0   -0.14    3.41    2.02    73.86207    41.37662   164.63963
    24  C   4.0    0.03    4.47    4.49    72.60566    43.54687   163.46852
    25  C   4.0    0.16    3.48    3.10    70.01395    43.03856   162.25963
    26  O   6.0   -0.32    1.30    1.80    69.78456    41.83692   160.28069
    27  C   4.0   -0.02    4.31    4.22    74.15556    44.73497   161.29708
    28  C   4.0   -0.07    4.16    3.91    73.40635    47.50838   161.18197
    29  C   4.0   -0.07    4.14    3.89    76.99996    44.53748   161.59899
    30  H   1.0    0.10    1.10    1.44    75.50551    40.86625   163.77996
    31  H   1.0    0.05    1.06    1.44    72.34637    44.93670   164.98081
    32  H   1.0    0.06    1.07    1.44    73.62481    43.81091   159.52957
    33  H   1.0    0.04    1.00    1.43    74.32819    48.39014   159.57349
    34  H   1.0    0.07    1.01    1.43    71.37650    47.74515   160.94437
    35  H   1.0    0.05    1.00    1.43    73.97972    48.46363   162.90452
    36  H   1.0    0.04    1.01    1.43    77.88011    45.77474   160.21861
    37  H   1.0    0.04    1.00    1.43    77.54309    45.11782   163.48651
    38  H   1.0    0.07    1.02    1.43    77.69550    42.65015   161.20953
    39  N   5.0   -0.13    3.47    2.06    68.08052    44.19558   163.39804
    40  C   4.0    0.04    4.50    4.54    65.64159    44.38054   162.15634
    41  C   4.0    0.16    3.44    3.09    65.91592    46.22590   159.94779
    42  O   6.0   -0.29    1.24    1.80    67.07428    48.20826   160.20595
    43  C   4.0   -0.04    4.36    4.32    63.60451    45.29862   163.96710
    44  C   4.0   -0.03    4.07    3.75    62.63544    43.09316   165.54822
    45  S   6.0   -0.05    2.58    3.10    60.93145    40.87744   163.59542
    46  C   4.0   -0.05    3.92    3.49    58.39189    42.94888   162.50166
    47  H   1.0    0.08    1.07    1.44    68.36396    45.28260   164.93694
    48  H   1.0    0.05    1.09    1.44    65.13510    42.50598   161.43736
    49  H   1.0    0.06    1.03    1.43    64.36914    46.76106   165.20788
    50  H   1.0    0.06    1.04    1.43    62.05696    46.16612   162.92014
    51  H   1.0    0.05    1.08    1.44    64.18162    42.01927   166.37840
    52  H   1.0    0.05    1.07    1.44    61.36364    43.72781   167.04052
    53  H   1.0    0.04    1.05    1.44    56.83669    41.72213   161.98390
    54  H   1.0    0.06    1.04    1.43    57.81535    44.15091   164.05733
    55  H   1.0    0.07    1.04    1.43    59.00298    44.10182   160.92609
    56  N   5.0   -0.13    3.53    2.10    64.88120    45.46480   157.79122
    57  C   4.0    0.03    4.58    4.65    65.19918    46.82229   155.44254
    58  C   4.0    0.16    3.53    3.13    63.16797    48.80593   154.98704
    59  O   6.0   -0.30    1.32    1.80    61.40866    49.05027   156.43617
    60  C   4.0   -0.02    4.47    4.49    64.89878    44.81245   153.41314
    61  C   4.0   -0.05    4.17    3.93    66.31636    45.46988   150.99863
    62  C   4.0   -0.06    4.24    4.08    62.06193    44.20169   153.28620
    63  C   4.0   -0.08    4.07    3.74    69.00347    46.28548   151.67323
    64  H   1.0    0.08    1.08    1.44    64.00065    43.77526   157.69474
    65  H   1.0    0.05    1.07    1.44    67.04382    47.73754   155.52544
    66  H   1.0    0.07    1.11    1.45    65.85048    43.13104   154.14022
    67  H   1.0    0.04    1.03    1.43    66.42212    43.76633   149.85144
    68  H   1.0    0.04    1.02    1.43    65.35995    46.87990   149.83867
    69  H   1.0    0.05    1.01    1.43    61.79914    42.17234   153.16371
    70  H   1.0    0.07    1.03    1.43    61.13178    44.82886   155.00635
    71  H   1.0    0.07    1.03    1.43    61.13796    45.17656   151.74628
    72  H   1.0    0.04    1.00    1.43    70.21380    46.15708   150.01450
    73  H   1.0    0.04    1.00    1.43    69.08199    48.22454   152.33988
    74  H   1.0    0.04    1.00    1.43    69.76167    45.04045   153.11850
    75  N   5.0   -0.14    3.37    2.01    63.36357    50.25557   152.89484
    76  C   4.0    0.02    4.27    4.14    61.22265    51.79736   152.16980
    77  C   4.0    0.15    3.28    3.05    59.26403    50.26552   150.64964
    78  O   6.0   -0.30    1.26    1.80    58.89206    48.02457   151.00245
    79  H   1.0    0.07    1.07    1.44    64.68454    49.87266   151.58215
    80  H   1.0    0.07    1.04    1.43    60.31825    52.40431   153.92728
    81  H   1.0    0.05    1.02    1.43    61.87928    53.42768   151.09852
    82  N   5.0   -0.13    3.47    2.06    58.02024    51.65763   148.92339
    83  C   4.0    0.05    4.24    4.08    56.55525    50.75342   146.77413
    84  C   4.0    0.10    3.23    3.04    55.72896    53.18741   145.42195
    85  O   6.0   -0.24    1.17    1.80    55.44819    55.14908   146.63377
    86  C   4.0    0.05    4.10    3.80    54.28599    49.03722   147.47372
    87  O   6.0   -0.23    2.04    1.83    54.06808    47.09287   145.65150
    88  H   1.0    0.11    1.10    1.44    58.22995    53.56168   148.94674
    89  H   1.0    0.06    1.05    1.44    57.79303    49.63099   145.54773
    90  H   1.0    0.07    1.02    1.43    54.66399    48.24961   149.34667
    91  H   1.0    0.07    1.01    1.43    52.53801    50.15117   147.54868
    92  H   1.0    0.13    1.02    1.43    53.07889    45.72466   146.32866
    93  N   5.0   -0.19    3.22    1.96    53.33089    51.94712   160.33410
    94  C   4.0    0.04    4.31    4.22    55.13031    50.14249   159.37271
    95  C   4.0    0.16    3.43    3.09    54.36633    47.37351   159.64813
    96  O   6.0   -0.31    1.31    1.80    55.68659    45.71822   158.72279
    97  C   4.0    0.06    4.22    4.04    57.86144    50.38533   160.53355
    98  O   6.0   -0.25    2.11    1.84    58.29302    48.77712   162.63742
    99  C   4.0   -0.06    4.08    3.76    58.56370    53.13589   161.03023
   100  H   1.0    0.10    1.02    1.43    52.76646    51.76114   162.14715
   101  H   1.0    0.06    1.06    1.44    55.30828    50.58915   157.36052
   102  H   1.0    0.09    1.09    1.44    59.14751    49.59939   159.13326
   103  H   1.0    0.13    1.02    1.43    57.66475    49.58561   164.15030
   104  H   1.0    0.07    1.00    1.43    60.55921    53.25571   161.51513
   105  H   1.0    0.06    1.00    1.43    58.22342    54.28050   159.36965
   106  H   1.0    0.06    1.00    1.43    57.47439    53.91418   162.59100
   107  N   5.0   -0.14    3.44    2.04    52.30818    46.77937   160.99181
   108  C   4.0    0.04    4.35    4.28    51.37354    44.20897   161.01621
   109  C   4.0    0.10    3.24    3.04    49.05055    43.92205   159.32857
   110  O   6.0   -0.25    1.12    1.80    48.63777    41.98849   158.12282
   111  C   4.0   -0.03    4.31    4.21    50.68329    43.32894   163.69838
   112  C   4.0    0.00    3.56    3.14    49.58147    40.69367   163.74841
   113  C   4.0   -0.03    3.47    3.10    50.97974    38.61128   162.95611
   114  C   4.0   -0.01    3.46    3.10    47.14269    40.28434   164.62628
   115  C   4.0   -0.03    3.37    3.07    49.95334    36.19999   162.99903
   116  C   4.0   -0.01    3.37    3.07    46.13821    37.86687   164.73794
   117  C   4.0   -0.01    3.36    3.07    47.52775    35.81342   163.91133
   118  H   1.0    0.09    1.06    1.44    51.14256    48.08299   161.77088
   119  H   1.0    0.06    1.07    1.44    52.87588    43.01551   160.25698
   120  H   1.0    0.05    1.03    1.43    52.39668    43.38358   164.85026
   121  H   1.0    0.06    1.03    1.43    49.33396    44.66296   164.51246
   122  H   1.0    0.05    1.03    1.43    52.89721    38.87579   162.31563
   123  H   1.0    0.07    1.03    1.43    46.02333    41.86946   165.27272
   124  H   1.0    0.05    1.03    1.43    51.03299    34.61641   162.29907
   125  H   1.0    0.08    1.03    1.43    44.25349    37.59554   165.47880
   126  H   1.0    0.08    1.03    1.43    46.72345    33.94177   163.99423
   127  N   5.0   -0.18    3.20    1.96    75.72667    16.34694   169.71896
   128  C   4.0    0.04    4.22    4.03    75.05879    19.01655   169.57545
   129  C   4.0    0.09    3.19    3.03    73.12488    19.48312   167.48544
   130  O   6.0   -0.29    1.13    1.80    71.33749    20.92439   167.75421
   131  C   4.0   -0.03    4.27    4.13    77.45876    20.58640   169.26101
   132  C   4.0   -0.02    4.17    3.93    77.07501    23.31818   170.06902
   133  C   4.0    0.26    3.08    3.02    79.62985    24.69196   170.66508
   134  O   6.0   -0.28    1.21    1.80    79.40254    26.78152   171.76792
   135  O   6.0   -0.25    1.18    1.80    81.63138    23.67788   170.00257
   136  H   1.0    0.11    1.03    1.43    77.56529    15.95436   170.05728
   137  H   1.0    0.07    1.05    1.44    74.11975    19.53902   171.35838
   138  H   1.0    0.08    1.03    1.43    78.92118    19.75685   170.46640
   139  H   1.0    0.06    1.02    1.43    78.11708    20.47130   167.31193
   140  H   1.0    0.05    1.02    1.43    76.08847    24.38427   168.60487
   141  H   1.0    0.07    1.03    1.43    75.92619    23.41385   171.78266
   142  N   5.0   -0.18    3.18    1.95    65.63181    21.89906   168.40492
   143  C   4.0    0.04    4.30    4.19    64.72785    24.25386   167.30453
   144  C   4.0    0.10    3.24    3.04    62.56432    23.79700   165.45828
   145  O   6.0   -0.28    1.15    1.80    60.74203    25.22407   165.39598
   146  C   4.0   -0.02    4.32    4.23    66.83520    25.84909   166.07279
   147  C   4.0   -0.05    4.20    4.00    66.05285    28.63517   165.96233
   148  C   4.0   -0.07    4.13    3.87    67.50587    24.95476   163.42785
   149  C   4.0   -0.07    4.01    3.64    66.25171    29.97594   168.49736
   150  H   1.0    0.12    1.03    1.43    67.14537    21.05855   167.59363
   151  H   1.0    0.06    1.06    1.44    63.91404    25.32189   168.88466
   152  H   1.0    0.05    1.06    1.44    68.51131    25.64493   167.27217
   153  H   1.0    0.04    1.04    1.43    67.32187    29.58070   164.64254
   154  H   1.0    0.05    1.03    1.43    64.12999    28.74674   165.22858
   155  H   1.0    0.04    1.00    1.43    69.16050    25.98586   162.77401
   156  H   1.0    0.06    1.00    1.43    67.96294    22.95321   163.40450
   157  H   1.0    0.05    1.00    1.43    65.95463    25.29775   162.12413
   158  H   1.0    0.04    1.00    1.43    65.69800    31.94079   168.30012
   159  H   1.0    0.05    1.00    1.43    65.05282    29.07407   169.90030
   160  H   1.0    0.05    1.00    1.43    68.19457    29.90061   169.16605
   161  N   5.0   -0.17    3.23    1.96    55.80949    27.53959   166.48947
   162  C   4.0    0.04    4.20    4.01    55.10805    29.15327   164.36949
   163  C   4.0    0.10    3.22    3.04    55.09031    27.46956   162.01853
   164  O   6.0   -0.27    1.14    1.80    56.94564    27.29729   160.64272
   165  C   4.0   -0.03    4.33    4.26    57.06563    31.26118   164.02062
   166  C   4.0   -0.02    3.51    3.12    57.41754    33.08870   166.19369
   167  C   4.0   -0.04    3.46    3.10    55.68077    35.00456   166.70426
   168  C   4.0   -0.04    3.46    3.10    59.67303    33.09283   167.54125
   169  C   4.0   -0.03    3.37    3.07    56.26248    36.95543   168.34686
   170  C   4.0   -0.03    3.37    3.07    60.25678    35.04359   169.19725
   171  C   4.0   -0.03    3.36    3.07    58.58014    37.01800   169.56462
   172  H   1.0    0.13    1.05    1.44    57.53292    26.70632   166.36971
   173  H   1.0    0.05    1.05    1.44    53.22743    29.90091   164.78011
   174  H   1.0    0.06    1.04    1.43    58.86453    30.34927   163.59028
   175  H   1.0    0.04    1.03    1.43    56.47604    32.32468   162.35281
   176  H   1.0    0.05    1.03    1.43    53.88105    35.01570   165.74547
   177  H   1.0    0.05    1.03    1.43    61.02386    31.60120   167.21343
   178  H   1.0    0.06    1.03    1.43    54.89924    38.44292   168.64883
   179  H   1.0    0.06    1.03    1.43    62.08942    35.06069   170.09553
   180  H   1.0    0.06    1.03    1.43    59.06219    38.58595   170.77476
   181  N   5.0   -0.16    3.24    1.96    56.33713    28.64880   153.84889
   182  C   4.0    0.04    4.20    4.00    58.50899    30.19457   153.21140
   183  C   4.0    0.10    3.20    3.04    60.79409    28.49149   152.61413
   184  O   6.0   -0.25    1.13    1.80    60.96892    26.32386   153.39191
   185  C   4.0   -0.05    4.24    4.07    59.21114    31.92730   155.44199
   186  C   4.0   -0.05    4.17    3.94    57.03750    33.61729   156.33061
   187  C   4.0   -0.05    4.13    3.87    56.83250    36.22949   155.07871
   188  C   4.0   -0.04    4.10    3.80    57.84233    38.35705   156.78202
   189  N   5.0   -0.12    4.01    2.90    56.58787    40.79969   156.14288
   190  H   1.0    0.12    1.03    1.43    56.55132    27.53359   155.38699
   191  H   1.0    0.06    1.05    1.44    57.99607    31.29470   151.53723
   192  H   1.0    0.05    1.03    1.43    59.75223    30.68399   156.99777
   193  H   1.0    0.04    1.03    1.43    60.85035    33.05194   154.90312
   194  H   1.0    0.05    1.04    1.43    55.27446    32.58891   156.04133
   195  H   1.0    0.04    1.03    1.43    57.23583    33.86557   158.36480
   196  H   1.0    0.05    1.02    1.43    57.83138    36.21101   153.27836
   197  H   1.0    0.05    1.03    1.43    54.83966    36.58248   154.69085
   198  H   1.0    0.04    1.02    1.43    57.45930    37.92698   158.75975
   199  H   1.0    0.05    1.02    1.43    59.87814    38.58398   156.54524
   200  H   1.0    0.08    1.03    1.43    57.04379    42.27958   157.35341
   201  H   1.0    0.06    1.02    1.43    57.06829    41.36585   154.34402
   202  H   1.0    0.07    1.02    1.43    54.65138    40.58349   156.20060
   203  N   5.0   -0.14    3.44    2.04    68.60739    27.74945   153.02036
   204  C   4.0    0.03    4.36    4.32    70.83418    28.73057   154.32009
   205  C   4.0    0.09    3.19    3.03    73.10392    28.70396   152.48616
   206  O   6.0   -0.28    1.12    1.80    73.93073    26.75307   151.53463
   207  C   4.0   -0.04    4.33    4.26    71.16145    26.88434   156.51377
   208  C   4.0   -0.03    4.25    4.10    70.29960    24.36140   155.41850
   209  C   4.0    0.02    4.23    4.05    68.22543    25.07269   153.49224
   210  H   1.0    0.05    1.05    1.44    70.49029    30.67355   154.91673
   211  H   1.0    0.04    1.03    1.43    73.10297    26.82676   157.16748
   212  H   1.0    0.03    1.02    1.43    69.92615    27.45023   158.06295
   213  H   1.0    0.06    1.03    1.43    71.84725    23.43885   154.42760
   214  H   1.0    0.05    1.02    1.43    69.59434    23.08738   156.86630
   215  H   1.0    0.07    1.02    1.43    68.43432    23.97461   151.75853
   216  H   1.0    0.06    1.02    1.43    66.34318    24.77424   154.29123
   217  N   5.0   -0.16    3.29    1.98    87.18127    47.10472   162.27191
   218  C   4.0    0.03    4.23    4.07    85.83487    44.80106   162.76049
   219  C   4.0    0.09    3.22    3.04    86.27558    42.99821   160.56813
   220  O   6.0   -0.25    1.16    1.80    87.33663    43.74452   158.68133
   221  C   4.0   -0.05    4.27    4.14    83.00551    45.39852   163.01438
   222  C   4.0   -0.05    4.18    3.96    82.35311    47.40214   164.99338
   223  C   4.0   -0.04    4.16    3.91    82.93099    46.56760   167.70761
   224  C   4.0   -0.03    4.11    3.82    81.39866    48.01175   169.69665
   225  N   5.0   -0.11    4.02    2.92    82.09310    50.73835   169.71434
   226  H   1.0    0.10    1.03    1.43    86.80460    48.04068   160.65399
   227  H   1.0    0.05    1.05    1.44    86.65310    44.01603   164.49210
   228  H   1.0    0.05    1.03    1.43    82.37064    46.05946   161.16672
   229  H   1.0    0.04    1.03    1.43    82.01209    43.64757   163.43801
   230  H   1.0    0.04    1.03    1.43    83.40003    49.10451   164.51886
   231  H   1.0    0.04    1.03    1.43    80.33440    47.77554   164.79748
   232  H   1.0    0.04    1.03    1.43    82.44932    44.57552   167.90376
   233  H   1.0    0.06    1.02    1.43    84.94953    46.73783   168.08699
   234  H   1.0    0.05    1.02    1.43    79.38758    47.84936   169.27784
   235  H   1.0    0.06    1.02    1.43    81.77465    47.22398   171.56059
   236  H   1.0    0.08    1.02    1.43    81.08900    51.70522   171.07569
   237  H   1.0    0.08    1.02    1.43    83.99392    50.93223   170.10005
   238  H   1.0    0.06    1.02    1.43    81.75672    51.54905   167.98145
   239  N   5.0   -0.19    3.27    1.97    82.04654    36.62932   160.36949
   240  C   4.0    0.03    4.28    4.15    79.77782    35.12501   160.04173
   241  C   4.0    0.15    3.37    3.07    77.62450    37.07088   159.72764
   242  O   6.0   -0.33    1.29    1.80    77.32303    38.74672   161.28772
   243  C   4.0   -0.05    4.19    3.99    79.47733    33.10569   162.17864
   244  C   4.0   -0.04    4.19    3.97    80.82126    33.77273   164.63858
   245  C   4.0   -0.04    4.13    3.87    79.94599    32.13010   166.86970
   246  C   4.0   -0.03    4.09    3.79    80.59437    33.41205   169.42147
   247  N   5.0   -0.11    3.99    2.83    79.27204    32.25751   171.63510
   248  H   1.0    0.09    1.03    1.43    82.06980    37.79045   161.88148
   249  H   1.0    0.04    1.06    1.44    79.97644    34.12696   158.24521
   250  H   1.0    0.05    1.03    1.43    77.46058    32.84105   162.50251
   251  H   1.0    0.05    1.02    1.43    80.21327    31.31806   161.46515
   252  H   1.0    0.05    1.03    1.43    82.85542    33.58699   164.38109
   253  H   1.0    0.05    1.03    1.43    80.38492    35.73922   165.08369
   254  H   1.0    0.04    1.05    1.44    77.91073    31.86906   166.72288
   255  H   1.0    0.06    1.02    1.43    80.80931    30.26473   166.77664
   256  H   1.0    0.06    1.02    1.43    82.62362    33.23441   169.73558
   257  H   1.0    0.04    1.02    1.43    80.12511    35.41454   169.32288
   258  H   1.0    0.08    1.02    1.43    79.93892    32.95875   173.31994
   259  H   1.0    0.06    1.02    1.43    77.33916    32.42129   171.52722
   260  H   1.0    0.10    1.05    1.44    79.60291    30.29116   171.66787
   261  N   5.0   -0.14    3.45    2.05    76.28005    36.89241   157.61331
   262  C   4.0    0.04    4.38    4.35    74.10420    38.42882   156.97124
   263  C   4.0    0.14    3.43    3.09    71.82161    36.73436   156.29784
   264  O   6.0   -0.32    1.23    1.80    72.05364    34.91998   154.85402
   265  C   4.0   -0.03    4.37    4.32    74.51473    39.93268   154.49586
   266  C   4.0   -0.01    3.57    3.15    76.69275    41.71294   154.61027
   267  C   4.0   -0.03    3.49    3.11    79.15091    40.79774   154.69938
   268  C   4.0   -0.05    3.47    3.10    76.25093    44.29205   154.59653
   269  C   4.0   -0.02    3.38    3.07    81.15894    42.46634   154.75669
   270  C   4.0   -0.04    3.38    3.07    78.26682    45.94508   154.63463
   271  C   4.0   -0.03    3.38    3.07    80.72128    45.04372   154.69634
   272  H   1.0    0.08    1.07    1.44    76.67367    35.48484   156.36956
   273  H   1.0    0.06    1.05    1.44    73.69321    39.66667   158.56679
   274  H   1.0    0.05    1.03    1.43    74.82540    38.55237   152.98898
   275  H   1.0    0.04    1.03    1.43    72.76479    40.94372   154.07349
   276  H   1.0    0.06    1.03    1.43    79.52094    38.79205   154.63871
   277  H   1.0    0.05    1.03    1.43    74.33772    44.99334   154.52469
   278  H   1.0    0.07    1.03    1.43    83.07033    41.75288   154.82169
   279  H   1.0    0.05    1.03    1.43    77.92639    47.95392   154.58401
   280  H   1.0    0.06    1.03    1.43    82.30522    46.32715   154.68443
   281  N   5.0   -0.15    3.45    2.05    69.60761    37.44886   157.26970
   282  C   4.0    0.03    4.44    4.45    67.25004    36.20623   156.59742
   283  C   4.0    0.14    3.45    3.09    65.96136    37.61414   154.43339
   284  O   6.0   -0.33    1.32    1.80    64.94557    39.64168   154.92451
   285  C   4.0   -0.04    4.45    4.46    65.39246    36.32126   158.79771
   286  C   4.0   -0.03    4.21    4.02    66.02788    34.36177   160.78749
   287  C   4.0   -0.07    4.09    3.79    65.31262    35.34696   163.41335
   288  C   4.0   -0.08    4.12    3.83    64.72202    31.90871   160.05958
   289  H   1.0    0.11    1.11    1.45    69.49385    39.01575   158.36751
   290  H   1.0    0.04    1.06    1.44    67.69483    34.27582   156.01477
   291  H   1.0    0.06    1.04    1.43    65.46107    38.22745   159.57346
   292  H   1.0    0.04    1.04    1.43    63.48334    35.99073   158.10073
   293  H   1.0    0.04    1.08    1.44    68.06000    34.04161   160.77837
   294  H   1.0    0.04    1.00    1.43    65.77282    33.93927   164.82615
   295  H   1.0    0.06    1.00    1.43    66.36584    37.05932   163.82694
   296  H   1.0    0.04    1.00    1.43    63.30419    35.76634   163.51207
   297  H   1.0    0.04    1.00    1.43    65.42164    30.32506   161.15762
   298  H   1.0    0.04    1.00    1.43    62.69517    32.05120   160.36633
   299  H   1.0    0.04    1.00    1.43    65.05261    31.48319   158.07497
   300  N   5.0   -0.14    3.45    2.05    65.87388    36.50154   152.17294
   301  C   4.0    0.03    4.46    4.47    64.81447    37.75148   150.00733
   302  C   4.0    0.14    3.47    3.10    62.15822    36.76373   149.26852
   303  O   6.0   -0.28    1.25    1.80    61.66393    34.49529   149.11944
   304  C   4.0   -0.01    4.24    4.09    66.62313    37.49246   147.67652
   305  C   4.0   -0.08    4.12    3.85    68.28637    39.83065   147.38705
   306  C   4.0   -0.06    4.16    3.93    68.42450    35.25466   147.82342
   307  H   1.0    0.08    1.07    1.44    66.54351    34.71826   151.94604
   308  H   1.0    0.05    1.08    1.44    64.66274    39.73937   150.52549
   309  H   1.0    0.06    1.06    1.44    65.42556    37.27539   145.99761
   310  H   1.0    0.05    1.00    1.43    69.61184    39.55730   145.84087
   311  H   1.0    0.04    1.00    1.43    67.18177    41.50481   146.97422
   312  H   1.0    0.04    1.00    1.43    69.37772    40.13301   149.10000
   313  H   1.0    0.06    1.01    1.43    69.41820    35.12379   146.03264
   314  H   1.0    0.05    1.01    1.43    69.77962    35.54501   149.33620
   315  H   1.0    0.06    1.00    1.43    67.45046    33.48600   148.13177
   316  N   5.0   -0.10    3.60    2.16    60.37188    38.53464   148.76457
   317  C   4.0    0.04    4.46    4.48    57.99969    37.73699   147.56394
   318  C   4.0    0.11    3.26    3.04    58.44523    35.97012   145.29929
   319  O   6.0   -0.25    1.13    1.80    60.19445    36.29986   143.81712
   320  C   4.0   -0.03    4.33    4.26    56.79270    40.18855   146.51386
   321  C   4.0   -0.03    4.24    4.07    58.27420    42.34057   147.72380
   322  C   4.0   -0.01    4.39    4.37    60.87057    41.17443   148.11634
   323  H   1.0    0.05    1.04    1.43    56.80566    36.76910   148.94145
   324  H   1.0    0.07    1.03    1.43    57.02198    40.22418   144.46527
   325  H   1.0    0.06    1.02    1.43    54.77299    40.22695   146.86399
   326  H   1.0    0.06    1.02    1.43    58.34001    44.00752   146.52775
   327  H   1.0    0.05    1.02    1.43    57.45149    42.88984   149.52784
   328  H   1.0    0.05    1.02    1.43    61.95442    41.22617   146.35066
   329  H   1.0    0.03    1.05    1.44    61.95085    42.11774   149.56864
   330  N   5.0   -0.19    3.19    1.95    70.59793    48.01404   137.79044
   331  C   4.0    0.03    4.27    4.13    72.29038    47.04666   139.68433
   332  C   4.0    0.09    3.25    3.04    74.78953    48.46370   139.70027
   333  O   6.0   -0.28    1.12    1.80    75.74655    49.24731   141.67493
   334  C   4.0   -0.02    4.31    4.22    72.91745    44.25265   139.42163
   335  C   4.0   -0.00    3.54    3.13    74.08105    43.26707   141.85379
   336  C   4.0   -0.04    3.47    3.10    73.16148    43.92122   144.26559
   337  C   4.0   -0.02    3.46    3.10    76.10245    41.59679   141.76331
   338  C   4.0   -0.04    3.39    3.07    74.23384    42.91818   146.41825
   339  C   4.0   -0.02    3.37    3.07    77.11011    40.52748   143.96895
   340  C   4.0   -0.03    3.35    3.06    76.20546    41.19069   146.30984
   341  H   1.0    0.10    1.02    1.43    69.55713    46.77374   136.75606
   342  H   1.0    0.04    1.07    1.44    71.42099    47.39300   141.53552
   343  H   1.0    0.06    1.03    1.43    71.14683    43.26509   139.04826
   344  H   1.0    0.06    1.03    1.43    74.20420    43.92923   137.84754
   345  H   1.0    0.04    1.03    1.43    71.56414    45.16840   144.47189
   346  H   1.0    0.07    1.03    1.43    76.88094    41.04140   139.96325
   347  H   1.0    0.04    1.03    1.43    73.50765    43.46948   148.24515
   348  H   1.0    0.07    1.03    1.43    78.65319    39.20929   143.77471
   349  H   1.0    0.06    1.03    1.43    76.97453    40.40341   148.02314
   350  N   5.0   -0.18    3.22    1.96    74.59491    54.75794   142.37566
   351  C   4.0    0.04    4.34    4.28    74.42057    54.69643   145.10116
   352  C   4.0    0.10    3.24    3.04    77.03018    54.16750   146.20116
   353  O   6.0   -0.29    1.13    1.80    77.75078    55.22070   148.12276
   354  C   4.0   -0.02    4.34    4.28    72.48194    52.82509   146.15053
   355  C   4.0   -0.04    4.21    4.03    69.98721    52.93843   144.71496
   356  C   4.0   -0.07    4.19    3.97    72.08350    53.55636   148.88544
   357  C   4.0   -0.07    4.03    3.67    67.98045    51.20571   145.81332
   358  H   1.0    0.10    1.03    1.43    73.73817    53.41439   141.32585
   359  H   1.0    0.06    1.06    1.44    73.90778    56.60770   145.73167
   360  H   1.0    0.05    1.05    1.44    73.26370    50.91431   146.00347
   361  H   1.0    0.05    1.03    1.43    69.29314    54.88364   144.71464
   362  H   1.0    0.05    1.03    1.43    70.29939    52.40946   142.75380
   363  H   1.0    0.04    1.00    1.43    71.17359    52.04171   149.93093
   364  H   1.0    0.06    1.02    1.43    73.87720    53.97675   149.79024
   365  H   1.0    0.05    1.00    1.43    70.90300    55.23474   149.00071
   366  H   1.0    0.05    1.00    1.43    66.34281    51.13476   144.57161
   367  H   1.0    0.04    1.00    1.43    68.71278    49.29759   146.03335
   368  H   1.0    0.04    1.00    1.43    67.34998    51.87803   147.64710
   369  N   5.0   -0.18    3.22    1.96    82.15560    59.62531   150.51571
   370  C   4.0    0.04    4.22    4.04    83.31005    59.28438   152.93138
   371  C   4.0    0.11    3.20    3.04    86.15895    59.81536   152.83523
   372  O   6.0   -0.23    1.12    1.80    87.50055    59.56183   154.69915
   373  C   4.0   -0.03    4.30    4.20    82.79648    56.64974   153.98234
   374  C   4.0   -0.04    4.15    3.90    80.01365    56.11833   154.54066
   375  C   4.0   -0.01    4.20    4.00    79.84415    53.38246   155.51083
   376  N   5.0   -0.14    3.37    2.01    78.15262    53.03945   157.64046
   377  C   4.0    0.10    3.33    3.06    78.76660    52.92931   160.08894
   378  N   5.0   -0.18    3.23    1.96    81.11163    52.70349   160.96604
   379  N   5.0   -0.18    3.26    1.97    76.87772    52.78381   161.76621
   380  H   1.0    0.11    1.02    1.43    81.96013    58.14284   149.32490
   381  H   1.0    0.07    1.05    1.44    82.54097    60.73287   154.20791
   382  H   1.0    0.06    1.03    1.43    83.48784    55.29841   152.58542
   383  H   1.0    0.07    1.03    1.43    83.92967    56.44613   155.69724
   384  H   1.0    0.06    1.03    1.43    79.34848    57.43886   155.97658
   385  H   1.0    0.06    1.02    1.43    78.89567    56.39778   152.83533
   386  H   1.0    0.05    1.03    1.43    79.17801    52.16475   153.98562
   387  H   1.0    0.05    1.04    1.43    81.72277    52.74845   156.06783
   388  H   1.0    0.08    1.07    1.44    76.30654    53.31207   157.22938
   389  H   1.0    0.09    1.02    1.43    82.70864    53.15568   159.97580
   390  H   1.0    0.09    1.04    1.43    81.34605    52.94014   162.84146
   391  H   1.0    0.09    1.03    1.43    75.06365    52.96679   161.21921
   392  H   1.0    0.09    1.03    1.43    77.23042    52.85689   163.63453
   393  N   5.0   -0.16    3.22    1.96    76.44429    18.47992   153.19322
   394  C   4.0    0.04    4.23    4.05    77.21069    20.92569   152.20866
   395  C   4.0    0.11    3.22    3.04    77.85662    20.79503   149.38780
   396  O   6.0   -0.21    1.13    1.80    78.80331    18.90976   148.44827
   397  C   4.0   -0.02    4.36    4.31    79.64709    21.71975   153.53803
   398  C   4.0   -0.01    3.55    3.14    79.36815    22.34637   156.30145
   399  C   4.0   -0.04    3.47    3.10    77.52248    23.99956   157.14628
   400  C   4.0   -0.02    3.47    3.10    81.10748    21.39897   158.02183
   401  C   4.0   -0.04    3.38    3.07    77.45541    24.74374   159.65264
   402  C   4.0   -0.02    3.38    3.07    81.03661    22.14332   160.51910
   403  C   4.0   -0.03    3.38    3.07    79.23583    23.85289   161.33805
   404  H   1.0    0.11    1.02    1.43    77.86493    17.25087   153.59710
   405  H   1.0    0.06    1.05    1.44    75.66410    22.26696   152.49914
   406  H   1.0    0.07    1.04    1.43    80.97782    20.16029   153.32982
   407  H   1.0    0.06    1.03    1.43    80.43686    23.35868   152.55312
   408  H   1.0    0.06    1.03    1.43    76.18547    24.75678   155.80658
   409  H   1.0    0.07    1.03    1.43    82.50217    20.05173   157.37981
   410  H   1.0    0.04    1.03    1.43    76.03453    26.04646   160.30179
   411  H   1.0    0.08    1.03    1.43    82.35457    21.36437   161.86556
   412  H   1.0    0.06    1.03    1.43    79.19793    24.42767   163.29645
   413  H   1.0    0.10    1.07    1.44    75.58210    18.69644   154.64316
   414  H   1.0    0.08    1.04    1.44    77.50413    22.27600   148.26819
   415  H   1.0    0.08    1.04    1.43    55.42019    53.17437   143.55766
   416  H   1.0    0.11    1.08    1.44    53.98689    53.51289   160.23124
   417  H   1.0    0.08    1.05    1.44    47.80855    45.33871   159.18175
   418  H   1.0    0.12    1.07    1.44    74.85100    15.60947   170.97670
   419  H   1.0    0.07    1.05    1.44    73.29486    18.59590   165.82562
   420  H   1.0    0.11    1.07    1.44    66.08562    22.16555   170.02220
   421  H   1.0    0.07    1.05    1.44    62.62276    22.31992   164.28105
   422  H   1.0    0.11    1.07    1.44    55.82460    28.45766   167.92107
   423  H   1.0    0.08    1.04    1.44    53.54222    26.47997   161.57673
   424  H   1.0    0.10    1.08    1.44    54.99937    29.65108   154.16256
   425  H   1.0    0.07    1.05    1.44    62.21087    29.14983   151.55094
   426  H   1.0    0.09    1.10    1.44    67.39182    28.93879   153.00016
   427  H   1.0    0.07    1.04    1.44    73.96655    30.32135   152.02683
   428  H   1.0    0.10    1.09    1.44    86.86003    48.22390   163.51158
   429  H   1.0    0.06    1.05    1.44    85.69069    41.20521   160.68703
   430  H   1.0    0.10    1.08    1.44    83.38943    35.60054   160.54504
   431  H   1.0    0.08    1.04    1.44    57.29091    34.50339   145.00378
   432  H   1.0    0.10    1.08    1.44    69.44821    49.03117   138.52267
   433  H   1.0    0.08    1.05    1.44    75.70480    48.78341   138.07820
   434  H   1.0    0.11    1.07    1.44    73.92838    56.21163   141.79680
   435  H   1.0    0.08    1.05    1.44    78.18457    52.93939   145.34664
   436  H   1.0    0.11    1.08    1.44    80.56612    60.19437   150.72133
   437  H   1.0    0.09    1.05    1.44    86.96026    60.38339   151.22082

  Z AO/shell   Hii/eV     exponent
  1     Wed Apr 25 08:07:45 CEST 2018   EN: 2.200 GM2: 0.406  GM3: 0.0800  RAES: 1.40
     1s    -10.707211    1.230000
  6     Wed Apr 25 08:07:45 CEST 2018   EN: 2.550 GM2: 0.538  GM3: 0.1500  RAES: 3.00
     2s    -13.970922    2.096432
     2p    -10.063292    1.800000
  7     Wed Apr 25 08:07:45 CEST 2018   EN: 3.040 GM2: 0.461  GM3:-0.0640  RAES: 1.90
     2s    -16.686243    2.339881
     2p    -12.523956    2.014332
  8     Wed Apr 25 08:07:45 CEST 2018   EN: 3.440 GM2: 0.452  GM3:-0.0517  RAES: 1.80
     2s    -20.229985    2.439742
     2p    -15.503117    2.137023
 16     Tue Apr 24 11:44:34 CEST 2018   EN: 2.580 GM2: 0.340  GM3:-0.0502  RAES: 3.10
     3s    -20.029654    1.981333
     3p    -11.377694    2.025643
     3d     -0.420282    1.702555
 no old-style atom pair restraining (fixing) potential

molecular fragmentation (1/2 indicates fragments):
111111111111111111111111111111111111111111111111111111111111111111111111
111111111111111111112222222222222222222222222222222222222222222222222222
222222222222222222222222222222222222222222222222222222222222222222222222
222222222222222222222222222222222222222222222222222222222222222222222222
222222222222222222222222222222222222222222222222222222222222222222222222
222222222222222222222222222222222222222222222222222222122222222222222222
22222
# atoms in fragment 1/2:    93   344
 fragment masses (1/2) :      637.81     2166.86
CMA distance (Bohr)    :   7.000
constraining FC (au)   :  0.0500
           ------------------------------------------------- 
          |        Self-Consistent Charge Iterations        |
           ------------------------------------------------- 

 Ncao       : 1037
 Nao        : 1036
 Nshell     : 636
 Nel        : 1112
 T(el)      :   500.0
 intcut     :    35.0
 scfconv/Eh :  0.100E-06
   qconv/e  :  0.100E-04
 intneglect :  0.100E-08
 broydamp   :      0.400
 iter      E             dE          RMSdq      gap      omega  full diag
   1   -627.0236732 -0.627024E+03  0.439E+00    2.64       0.0  T
   2   -628.2443486 -0.122068E+01  0.215E+00    1.15       1.0  T
   3   -628.3133554 -0.690068E-01  0.120E+00    1.34       1.0  T
   4   -628.4243063 -0.110951E+00  0.253E-01    1.04       1.0  T
   5   -628.4297820 -0.547573E-02  0.123E-01    1.12       1.0  T
   6   -628.4312574 -0.147541E-02  0.618E-02    1.08       1.0  T
   7   -628.4315994 -0.341946E-03  0.298E-02    1.05       1.0  T
   8   -628.4316913 -0.919791E-04  0.145E-02    1.03       1.0  T
   9   -628.4317138 -0.224970E-04  0.725E-03    1.02       1.0  T
  10   -628.4317193 -0.548634E-05  0.323E-03    1.02       1.5  T
  11   -628.4317205 -0.118530E-05  0.155E-03    1.02       3.1  T
  12   -628.4317208 -0.268678E-06  0.678E-04    1.02       7.1  T
  13   -628.4317208 -0.614266E-07  0.341E-04    1.02      14.0  T
  14   -628.4317209 -0.782688E-08  0.137E-04    1.02      34.9  T
  15   -628.4317209 -0.224793E-08  0.626E-05    1.02      76.4  T
  16   -628.4317209 -0.336513E-09  0.317E-05    1.02     151.0  T
speedup  1.94
cpu  time for SCC   22.51 s
wall time for SCC   11.59 s

   *** convergence criteria satisfied after 16 iterations ***

          eigenvalues
 #    :         544        545        546        547        548        549        550        551
 occ. :        2.000      2.000      2.000      2.000      2.000      2.000      2.000      2.000
 eps  :       -10.120    -10.015    -10.002     -9.996     -9.919     -9.902     -9.861     -9.822
 #    :         552        553        554        555        556        557        558        559
 occ. :        2.000      2.000      2.000      2.000      2.000      0.000      0.000      0.000
 eps  :        -9.796     -9.725     -9.529     -9.435     -9.271     -8.255     -7.971     -7.953
 #    :         560        561        562        563        564        565        566        567
 occ. :        0.000      0.000      0.000      0.000      0.000      0.000      0.000      0.000
 eps  :        -7.817     -7.793     -7.762     -7.691     -7.668     -7.648     -7.564     -7.533


   #   Z            q   n(s)   n(p)   n(d)      C6AA      α(0)
   1   7 N     -0.144  1.232  3.912  0.000    24.105     7.292
   2   6 C     -0.049  1.092  2.958  0.000    21.477     6.602
   3   6 C      0.267  1.033  2.700  0.000    22.491     7.765
   4   8 O     -0.440  1.754  4.685  0.000    22.489     6.358
   5   6 C     -0.105  1.058  3.047  0.000    22.493     6.751
   6   6 C      0.011  1.079  2.910  0.000    27.777     8.645
   7   6 C     -0.039  1.079  2.960  0.000    28.978     8.828
   8   6 C     -0.048  1.082  2.965  0.000    29.180     8.859
   9   6 C     -0.031  1.079  2.952  0.000    28.779     8.797
  10   6 C     -0.027  1.077  2.950  0.000    28.664     8.779
  11   6 C     -0.036  1.077  2.959  0.000    28.907     8.817
  12   1 H      0.294  0.706  0.000  0.000     0.731     1.339
  13   1 H      0.318  0.682  0.000  0.000     0.663     1.276
  14   1 H      0.310  0.690  0.000  0.000     0.684     1.296
  15   1 H      0.132  0.868  0.000  0.000     1.517     1.926
  16   1 H      0.090  0.910  0.000  0.000     1.879     2.143
  17   1 H      0.120  0.880  0.000  0.000     1.616     1.988
  18   1 H      0.063  0.937  0.000  0.000     2.159     2.298
  19   1 H      0.053  0.947  0.000  0.000     2.288     2.366
  20   1 H      0.022  0.978  0.000  0.000     2.704     2.571
  21   1 H      0.008  0.992  0.000  0.000     2.925     2.674
  22   1 H      0.011  0.989  0.000  0.000     2.869     2.649
  23   7 N     -0.173  1.250  3.922  0.000    24.737     7.387
  24   6 C     -0.009  1.077  2.932  0.000    20.737     6.484
  25   6 C      0.277  1.043  2.681  0.000    22.323     7.738
  26   8 O     -0.494  1.741  4.753  0.000    23.648     6.520
  27   6 C     -0.027  1.061  2.966  0.000    21.016     6.519
  28   6 C     -0.145  1.047  3.097  0.000    23.332     6.885
  29   6 C     -0.158  1.048  3.111  0.000    23.622     6.929
  30   1 H      0.255  0.745  0.000  0.000     0.865     1.457
  31   1 H      0.086  0.914  0.000  0.000     1.919     2.166
  32   1 H      0.046  0.954  0.000  0.000     2.368     2.407
  33   1 H      0.058  0.942  0.000  0.000     2.219     2.329
  34   1 H      0.042  0.958  0.000  0.000     2.426     2.436
  35   1 H      0.074  0.926  0.000  0.000     2.040     2.234
  36   1 H      0.063  0.937  0.000  0.000     2.161     2.299
  37   1 H      0.086  0.914  0.000  0.000     1.916     2.165
  38   1 H      0.068  0.932  0.000  0.000     2.111     2.272
  39   7 N     -0.158  1.247  3.911  0.000    24.411     7.338
  40   6 C      0.013  1.061  2.925  0.000    20.352     6.423
  41   6 C      0.273  1.038  2.689  0.000    22.385     7.748
  42   8 O     -0.490  1.739  4.751  0.000    23.572     6.509
  43   6 C     -0.075  1.052  3.023  0.000    21.893     6.655
  44   6 C     -0.016  1.064  2.952  0.000    20.859     6.503
  45  16 S     -0.215  1.916  4.251  0.049   150.221    20.629
  46   6 C     -0.075  1.062  3.013  0.000    22.012     6.693
  47   1 H      0.216  0.784  0.000  0.000     1.029     1.589
  48   1 H      0.081  0.919  0.000  0.000     1.967     2.194
  49   1 H      0.060  0.940  0.000  0.000     2.195     2.317
  50   1 H      0.075  0.925  0.000  0.000     2.027     2.226
  51   1 H      0.069  0.931  0.000  0.000     2.093     2.263
  52   1 H      0.041  0.959  0.000  0.000     2.436     2.441
  53   1 H      0.060  0.940  0.000  0.000     2.200     2.320
  54   1 H      0.054  0.946  0.000  0.000     2.275     2.358
  55   1 H      0.080  0.920  0.000  0.000     1.974     2.197
  56   7 N     -0.159  1.239  3.920  0.000    24.432     7.341
  57   6 C      0.010  1.059  2.931  0.000    20.403     6.430
  58   6 C      0.283  1.042  2.675  0.000    22.204     7.717
  59   8 O     -0.465  1.737  4.727  0.000    23.012     6.432
  60   6 C     -0.053  1.071  2.982  0.000    21.478     6.589
  61   6 C     -0.077  1.050  3.027  0.000    21.971     6.673
  62   6 C     -0.166  1.048  3.118  0.000    23.768     6.950
  63   6 C     -0.119  1.039  3.079  0.000    22.829     6.813
  64   1 H      0.219  0.781  0.000  0.000     1.015     1.578
  65   1 H      0.087  0.913  0.000  0.000     1.909     2.161
  66   1 H      0.094  0.906  0.000  0.000     1.840     2.121
  67   1 H      0.049  0.951  0.000  0.000     2.330     2.387
  68   1 H      0.036  0.964  0.000  0.000     2.506     2.476
  69   1 H      0.063  0.937  0.000  0.000     2.162     2.300
  70   1 H      0.065  0.935  0.000  0.000     2.139     2.287
  71   1 H      0.082  0.918  0.000  0.000     1.959     2.189
  72   1 H      0.043  0.957  0.000  0.000     2.405     2.425
  73   1 H      0.043  0.957  0.000  0.000     2.407     2.426
  74   1 H      0.049  0.951  0.000  0.000     2.334     2.389
  75   7 N     -0.171  1.238  3.933  0.000    24.703     7.382
  76   6 C     -0.039  1.054  2.985  0.000    21.334     6.587
  77   6 C      0.267  1.044  2.689  0.000    22.492     7.765
  78   8 O     -0.432  1.727  4.705  0.000    22.340     6.337
  79   1 H      0.202  0.798  0.000  0.000     1.098     1.642
  80   1 H      0.102  0.898  0.000  0.000     1.770     2.081
  81   1 H      0.072  0.928  0.000  0.000     2.063     2.246
  82   7 N     -0.186  1.240  3.946  0.000    25.027     7.430
  83   6 C      0.019  1.067  2.914  0.000    20.270     6.414
  84   6 C      0.196  1.089  2.715  0.000    23.814     7.992
  85   8 O     -0.359  1.760  4.599  0.000    20.883     6.127
  86   6 C      0.074  1.039  2.887  0.000    19.566     6.340
  87   8 O     -0.475  1.721  4.754  0.000    22.360     6.383
  88   1 H      0.209  0.791  0.000  0.000     1.062     1.614
  89   1 H      0.106  0.894  0.000  0.000     1.730     2.057
  90   1 H      0.089  0.911  0.000  0.000     1.888     2.149
  91   1 H      0.036  0.964  0.000  0.000     2.509     2.477
  92   1 H      0.346  0.654  0.000  0.000     0.599     1.215
  93   7 N     -0.398  1.320  4.078  0.000    30.313     8.177
  94   6 C      0.010  1.068  2.922  0.000    20.433     6.440
  95   6 C      0.271  1.048  2.681  0.000    22.418     7.754
  96   8 O     -0.467  1.716  4.751  0.000    23.061     6.439
  97   6 C      0.086  1.055  2.858  0.000    19.249     6.265
  98   8 O     -0.475  1.723  4.752  0.000    22.357     6.383
  99   6 C     -0.125  1.040  3.085  0.000    22.951     6.832
 100   1 H      0.151  0.849  0.000  0.000     1.393     1.849
 101   1 H      0.064  0.936  0.000  0.000     2.148     2.292
 102   1 H      0.099  0.901  0.000  0.000     1.792     2.093
 103   1 H      0.313  0.687  0.000  0.000     0.684     1.300
 104   1 H      0.059  0.941  0.000  0.000     2.213     2.326
 105   1 H      0.040  0.960  0.000  0.000     2.446     2.446
 106   1 H      0.036  0.964  0.000  0.000     2.509     2.477
 107   7 N     -0.166  1.235  3.931  0.000    24.586     7.364
 108   6 C      0.017  1.060  2.923  0.000    20.298     6.415
 109   6 C      0.198  1.086  2.716  0.000    23.782     7.987
 110   8 O     -0.361  1.759  4.602  0.000    20.915     6.132
 111   6 C     -0.077  1.057  3.020  0.000    21.967     6.671
 112   6 C      0.010  1.080  2.910  0.000    27.785     8.646
 113   6 C     -0.040  1.080  2.960  0.000    28.992     8.830
 114   6 C     -0.041  1.082  2.959  0.000    29.010     8.833
 115   6 C     -0.031  1.080  2.951  0.000    28.784     8.798
 116   6 C     -0.031  1.080  2.950  0.000    28.765     8.795
 117   6 C     -0.034  1.080  2.954  0.000    28.838     8.806
 118   1 H      0.200  0.800  0.000  0.000     1.107     1.648
 119   1 H      0.118  0.882  0.000  0.000     1.628     1.995
 120   1 H      0.091  0.909  0.000  0.000     1.870     2.138
 121   1 H      0.056  0.944  0.000  0.000     2.250     2.346
 122   1 H      0.066  0.934  0.000  0.000     2.126     2.280
 123   1 H      0.025  0.975  0.000  0.000     2.663     2.552
 124   1 H      0.046  0.954  0.000  0.000     2.373     2.409
 125   1 H      0.016  0.984  0.000  0.000     2.793     2.613
 126   1 H      0.023  0.977  0.000  0.000     2.694     2.567
 127   7 N     -0.401  1.319  4.082  0.000    30.398     8.188
 128   6 C      0.043  1.058  2.899  0.000    19.876     6.351
 129   6 C      0.201  1.091  2.708  0.000    23.729     7.977
 130   8 O     -0.366  1.742  4.624  0.000    21.009     6.145
 131   6 C     -0.042  1.051  2.992  0.000    21.329     6.575
 132   6 C     -0.096  1.067  3.029  0.000    22.325     6.728
 133   6 C      0.367  1.027  2.606  0.000    20.774     7.459
 134   8 O     -0.618  1.733  4.885  0.000    26.561     6.910
 135   8 O     -0.635  1.785  4.850  0.000    26.985     6.965
 136   1 H      0.161  0.839  0.000  0.000     1.330     1.806
 137   1 H      0.037  0.963  0.000  0.000     2.483     2.464
 138   1 H      0.036  0.964  0.000  0.000     2.500     2.472
 139   1 H      0.034  0.966  0.000  0.000     2.531     2.488
 140   1 H      0.032  0.968  0.000  0.000     2.556     2.500
 141   1 H      0.030  0.970  0.000  0.000     2.587     2.515
 142   7 N     -0.401  1.323  4.078  0.000    30.414     8.191
 143   6 C      0.037  1.060  2.904  0.000    19.971     6.366
 144   6 C      0.208  1.089  2.703  0.000    23.589     7.954
 145   8 O     -0.378  1.746  4.631  0.000    21.238     6.179
 146   6 C     -0.020  1.068  2.952  0.000    20.898     6.502
 147   6 C     -0.061  1.051  3.011  0.000    21.673     6.627
 148   6 C     -0.104  1.035  3.069  0.000    22.544     6.770
 149   6 C     -0.113  1.038  3.076  0.000    22.730     6.799
 150   1 H      0.160  0.840  0.000  0.000     1.338     1.812
 151   1 H      0.063  0.937  0.000  0.000     2.159     2.298
 152   1 H      0.050  0.950  0.000  0.000     2.319     2.381
 153   1 H      0.051  0.949  0.000  0.000     2.301     2.372
 154   1 H      0.035  0.965  0.000  0.000     2.523     2.484
 155   1 H      0.047  0.953  0.000  0.000     2.357     2.401
 156   1 H      0.029  0.971  0.000  0.000     2.604     2.524
 157   1 H      0.028  0.972  0.000  0.000     2.619     2.531
 158   1 H      0.064  0.936  0.000  0.000     2.157     2.297
 159   1 H      0.028  0.972  0.000  0.000     2.610     2.527
 160   1 H      0.050  0.950  0.000  0.000     2.321     2.382
 161   7 N     -0.401  1.325  4.076  0.000    30.403     8.189
 162   6 C      0.043  1.057  2.900  0.000    19.870     6.350
 163   6 C      0.205  1.089  2.706  0.000    23.644     7.964
 164   8 O     -0.366  1.754  4.612  0.000    21.012     6.146
 165   6 C     -0.072  1.053  3.018  0.000    21.865     6.656
 166   6 C      0.010  1.085  2.906  0.000    27.799     8.648
 167   6 C     -0.045  1.081  2.964  0.000    29.111     8.848
 168   6 C     -0.040  1.083  2.957  0.000    28.990     8.830
 169   6 C     -0.032  1.079  2.953  0.000    28.795     8.800
 170   6 C     -0.033  1.082  2.952  0.000    28.829     8.805
 171   6 C     -0.034  1.078  2.955  0.000    28.835     8.806
 172   1 H      0.172  0.828  0.000  0.000     1.258     1.757
 173   1 H      0.052  0.948  0.000  0.000     2.293     2.368
 174   1 H      0.056  0.944  0.000  0.000     2.242     2.341
 175   1 H      0.049  0.951  0.000  0.000     2.337     2.390
 176   1 H      0.034  0.966  0.000  0.000     2.525     2.485
 177   1 H      0.036  0.964  0.000  0.000     2.500     2.472
 178   1 H      0.029  0.971  0.000  0.000     2.594     2.519
 179   1 H      0.043  0.957  0.000  0.000     2.409     2.427
 180   1 H      0.036  0.964  0.000  0.000     2.506     2.475
 181   7 N     -0.391  1.326  4.065  0.000    30.126     8.152
 182   6 C      0.037  1.060  2.904  0.000    19.979     6.368
 183   6 C      0.202  1.085  2.713  0.000    23.704     7.973
 184   8 O     -0.384  1.764  4.620  0.000    21.369     6.198
 185   6 C     -0.069  1.056  3.013  0.000    21.816     6.649
 186   6 C     -0.070  1.050  3.020  0.000    21.842     6.654
 187   6 C     -0.095  1.056  3.039  0.000    22.314     6.726
 188   6 C     -0.051  1.064  2.987  0.000    21.588     6.633
 189   7 N     -0.128  1.222  3.906  0.000    23.770     7.241
 190   1 H      0.152  0.848  0.000  0.000     1.385     1.844
 191   1 H      0.068  0.932  0.000  0.000     2.104     2.268
 192   1 H      0.048  0.952  0.000  0.000     2.344     2.394
 193   1 H      0.052  0.948  0.000  0.000     2.297     2.370
 194   1 H      0.048  0.952  0.000  0.000     2.343     2.394
 195   1 H      0.064  0.936  0.000  0.000     2.152     2.294
 196   1 H      0.071  0.929  0.000  0.000     2.070     2.250
 197   1 H      0.081  0.919  0.000  0.000     1.968     2.194
 198   1 H      0.118  0.882  0.000  0.000     1.629     1.996
 199   1 H      0.124  0.876  0.000  0.000     1.579     1.965
 200   1 H      0.298  0.702  0.000  0.000     0.720     1.329
 201   1 H      0.282  0.718  0.000  0.000     0.769     1.374
 202   1 H      0.278  0.722  0.000  0.000     0.784     1.387
 203   7 N     -0.267  1.230  4.037  0.000    26.907     7.704
 204   6 C      0.032  1.063  2.905  0.000    20.033     6.371
 205   6 C      0.198  1.092  2.710  0.000    23.780     7.986
 206   8 O     -0.382  1.764  4.618  0.000    21.327     6.192
 207   6 C     -0.051  1.050  3.000  0.000    21.459     6.591
 208   6 C     -0.059  1.051  3.008  0.000    21.614     6.616
 209   6 C      0.018  1.046  2.936  0.000    20.333     6.430
 210   1 H      0.059  0.941  0.000  0.000     2.208     2.324
 211   1 H      0.043  0.957  0.000  0.000     2.415     2.430
 212   1 H      0.054  0.946  0.000  0.000     2.269     2.355
 213   1 H      0.037  0.963  0.000  0.000     2.495     2.470
 214   1 H      0.036  0.964  0.000  0.000     2.502     2.474
 215   1 H      0.024  0.976  0.000  0.000     2.669     2.555
 216   1 H      0.029  0.971  0.000  0.000     2.601     2.522
 217   7 N     -0.398  1.322  4.076  0.000    30.329     8.179
 218   6 C      0.029  1.056  2.915  0.000    20.102     6.387
 219   6 C      0.199  1.079  2.722  0.000    23.755     7.982
 220   8 O     -0.391  1.767  4.625  0.000    21.510     6.218
 221   6 C     -0.092  1.060  3.032  0.000    22.252     6.715
 222   6 C     -0.101  1.057  3.043  0.000    22.419     6.741
 223   6 C     -0.104  1.054  3.050  0.000    22.494     6.753
 224   6 C     -0.065  1.064  3.001  0.000    21.838     6.671
 225   7 N     -0.141  1.224  3.917  0.000    24.040     7.282
 226   1 H      0.150  0.850  0.000  0.000     1.401     1.854
 227   1 H      0.077  0.923  0.000  0.000     2.011     2.218
 228   1 H      0.059  0.941  0.000  0.000     2.214     2.327
 229   1 H      0.070  0.930  0.000  0.000     2.084     2.258
 230   1 H      0.061  0.939  0.000  0.000     2.186     2.312
 231   1 H      0.096  0.904  0.000  0.000     1.823     2.111
 232   1 H      0.100  0.900  0.000  0.000     1.785     2.089
 233   1 H      0.068  0.932  0.000  0.000     2.113     2.273
 234   1 H      0.140  0.860  0.000  0.000     1.460     1.889
 235   1 H      0.121  0.879  0.000  0.000     1.605     1.981
 236   1 H      0.296  0.704  0.000  0.000     0.724     1.333
 237   1 H      0.287  0.713  0.000  0.000     0.755     1.361
 238   1 H      0.286  0.714  0.000  0.000     0.756     1.362
 239   7 N     -0.384  1.320  4.063  0.000    29.919     8.124
 240   6 C      0.026  1.064  2.909  0.000    20.152     6.395
 241   6 C      0.263  1.051  2.686  0.000    22.566     7.779
 242   8 O     -0.444  1.699  4.745  0.000    22.588     6.372
 243   6 C     -0.074  1.054  3.019  0.000    21.909     6.665
 244   6 C     -0.074  1.052  3.022  0.000    21.915     6.665
 245   6 C     -0.090  1.054  3.036  0.000    22.222     6.712
 246   6 C     -0.055  1.065  2.991  0.000    21.674     6.647
 247   7 N     -0.146  1.228  3.918  0.000    24.153     7.299
 248   1 H      0.181  0.819  0.000  0.000     1.210     1.723
 249   1 H      0.011  0.989  0.000  0.000     2.868     2.649
 250   1 H      0.043  0.957  0.000  0.000     2.413     2.429
 251   1 H      0.017  0.983  0.000  0.000     2.780     2.608
 252   1 H      0.048  0.952  0.000  0.000     2.342     2.393
 253   1 H      0.085  0.915  0.000  0.000     1.926     2.170
 254   1 H      0.078  0.922  0.000  0.000     2.001     2.212
 255   1 H      0.038  0.962  0.000  0.000     2.478     2.461
 256   1 H      0.114  0.886  0.000  0.000     1.659     2.014
 257   1 H      0.136  0.864  0.000  0.000     1.489     1.908
 258   1 H      0.302  0.698  0.000  0.000     0.706     1.316
 259   1 H      0.280  0.720  0.000  0.000     0.777     1.381
 260   1 H      0.279  0.721  0.000  0.000     0.780     1.384
 261   7 N     -0.153  1.237  3.917  0.000    24.321     7.324
 262   6 C      0.014  1.068  2.918  0.000    20.351     6.425
 263   6 C      0.264  1.046  2.690  0.000    22.547     7.776
 264   8 O     -0.522  1.762  4.760  0.000    24.279     6.606
 265   6 C     -0.065  1.052  3.013  0.000    21.721     6.632
 266   6 C      0.014  1.075  2.911  0.000    27.703     8.634
 267   6 C     -0.035  1.078  2.958  0.000    28.877     8.812
 268   6 C     -0.041  1.079  2.962  0.000    29.017     8.834
 269   6 C     -0.028  1.080  2.949  0.000    28.709     8.787
 270   6 C     -0.036  1.079  2.957  0.000    28.893     8.815
 271   6 C     -0.036  1.079  2.957  0.000    28.886     8.814
 272   1 H      0.178  0.822  0.000  0.000     1.224     1.733
 273   1 H      0.104  0.896  0.000  0.000     1.746     2.067
 274   1 H      0.041  0.959  0.000  0.000     2.431     2.438
 275   1 H      0.054  0.946  0.000  0.000     2.272     2.357
 276   1 H      0.018  0.982  0.000  0.000     2.766     2.601
 277   1 H      0.055  0.945  0.000  0.000     2.264     2.353
 278   1 H      0.020  0.980  0.000  0.000     2.726     2.582
 279   1 H      0.057  0.943  0.000  0.000     2.231     2.336
 280   1 H      0.038  0.962  0.000  0.000     2.475     2.460
 281   7 N     -0.177  1.255  3.922  0.000    24.836     7.402
 282   6 C      0.025  1.058  2.917  0.000    20.164     6.394
 283   6 C      0.253  1.048  2.699  0.000    22.746     7.811
 284   8 O     -0.449  1.722  4.727  0.000    22.679     6.385
 285   6 C     -0.084  1.062  3.022  0.000    22.080     6.686
 286   6 C     -0.020  1.055  2.965  0.000    20.887     6.500
 287   6 C     -0.125  1.043  3.082  0.000    22.947     6.830
 288   6 C     -0.109  1.038  3.071  0.000    22.633     6.782
 289   1 H      0.252  0.748  0.000  0.000     0.877     1.467
 290   1 H      0.041  0.959  0.000  0.000     2.434     2.440
 291   1 H      0.088  0.912  0.000  0.000     1.896     2.153
 292   1 H      0.061  0.939  0.000  0.000     2.192     2.315
 293   1 H      0.043  0.957  0.000  0.000     2.407     2.426
 294   1 H      0.044  0.956  0.000  0.000     2.392     2.418
 295   1 H      0.059  0.941  0.000  0.000     2.213     2.326
 296   1 H      0.051  0.949  0.000  0.000     2.310     2.377
 297   1 H      0.028  0.972  0.000  0.000     2.620     2.531
 298   1 H      0.039  0.961  0.000  0.000     2.462     2.454
 299   1 H      0.016  0.984  0.000  0.000     2.800     2.617
 300   7 N     -0.151  1.231  3.921  0.000    24.278     7.318
 301   6 C      0.004  1.069  2.927  0.000    20.516     6.450
 302   6 C      0.259  1.054  2.687  0.000    22.633     7.790
 303   8 O     -0.500  1.767  4.733  0.000    23.787     6.539
 304   6 C     -0.013  1.062  2.951  0.000    20.774     6.483
 305   6 C     -0.123  1.045  3.079  0.000    22.909     6.823
 306   6 C     -0.112  1.035  3.077  0.000    22.683     6.789
 307   1 H      0.184  0.816  0.000  0.000     1.189     1.708
 308   1 H      0.102  0.898  0.000  0.000     1.767     2.079
 309   1 H      0.032  0.968  0.000  0.000     2.561     2.503
 310   1 H      0.047  0.953  0.000  0.000     2.359     2.402
 311   1 H      0.057  0.943  0.000  0.000     2.240     2.340
 312   1 H      0.060  0.940  0.000  0.000     2.195     2.317
 313   1 H      0.043  0.957  0.000  0.000     2.404     2.425
 314   1 H      0.055  0.945  0.000  0.000     2.259     2.350
 315   1 H      0.029  0.971  0.000  0.000     2.598     2.521
 316   7 N     -0.086  1.252  3.835  0.000    22.919     7.110
 317   6 C      0.020  1.068  2.912  0.000    20.231     6.402
 318   6 C      0.211  1.084  2.705  0.000    23.533     7.945
 319   8 O     -0.385  1.761  4.624  0.000    21.389     6.201
 320   6 C     -0.069  1.055  3.014  0.000    21.796     6.643
 321   6 C     -0.077  1.050  3.027  0.000    21.953     6.668
 322   6 C     -0.031  1.056  2.974  0.000    21.150     6.552
 323   1 H      0.082  0.918  0.000  0.000     1.958     2.188
 324   1 H      0.052  0.948  0.000  0.000     2.300     2.372
 325   1 H      0.076  0.924  0.000  0.000     2.023     2.224
 326   1 H      0.082  0.918  0.000  0.000     1.960     2.190
 327   1 H      0.088  0.912  0.000  0.000     1.897     2.154
 328   1 H      0.057  0.943  0.000  0.000     2.230     2.335
 329   1 H      0.106  0.894  0.000  0.000     1.729     2.056
 330   7 N     -0.396  1.312  4.084  0.000    30.269     8.171
 331   6 C      0.047  1.049  2.904  0.000    19.796     6.337
 332   6 C      0.195  1.091  2.714  0.000    23.840     7.997
 333   8 O     -0.366  1.755  4.611  0.000    21.009     6.145
 334   6 C     -0.071  1.055  3.016  0.000    21.841     6.652
 335   6 C      0.005  1.089  2.905  0.000    27.898     8.664
 336   6 C     -0.040  1.081  2.959  0.000    29.006     8.832
 337   6 C     -0.042  1.083  2.959  0.000    29.048     8.838
 338   6 C     -0.033  1.081  2.953  0.000    28.830     8.805
 339   6 C     -0.033  1.081  2.951  0.000    28.810     8.802
 340   6 C     -0.035  1.078  2.956  0.000    28.864     8.810
 341   1 H      0.166  0.834  0.000  0.000     1.297     1.784
 342   1 H      0.057  0.943  0.000  0.000     2.231     2.336
 343   1 H      0.068  0.932  0.000  0.000     2.110     2.272
 344   1 H      0.043  0.957  0.000  0.000     2.408     2.427
 345   1 H      0.049  0.951  0.000  0.000     2.331     2.388
 346   1 H      0.016  0.984  0.000  0.000     2.799     2.616
 347   1 H      0.061  0.939  0.000  0.000     2.187     2.312
 348   1 H      0.022  0.978  0.000  0.000     2.696     2.568
 349   1 H      0.044  0.956  0.000  0.000     2.396     2.420
 350   7 N     -0.391  1.308  4.083  0.000    30.133     8.153
 351   6 C      0.038  1.059  2.902  0.000    19.935     6.358
 352   6 C      0.203  1.094  2.703  0.000    23.684     7.970
 353   8 O     -0.370  1.736  4.634  0.000    21.099     6.158
 354   6 C     -0.019  1.060  2.959  0.000    20.871     6.497
 355   6 C     -0.052  1.044  3.008  0.000    21.500     6.601
 356   6 C     -0.127  1.041  3.086  0.000    22.975     6.832
 357   6 C     -0.113  1.037  3.076  0.000    22.721     6.797
 358   1 H      0.146  0.854  0.000  0.000     1.428     1.872
 359   1 H      0.052  0.948  0.000  0.000     2.301     2.372
 360   1 H      0.045  0.955  0.000  0.000     2.381     2.413
 361   1 H      0.030  0.970  0.000  0.000     2.587     2.515
 362   1 H      0.016  0.984  0.000  0.000     2.789     2.612
 363   1 H      0.064  0.936  0.000  0.000     2.157     2.297
 364   1 H      0.054  0.946  0.000  0.000     2.274     2.358
 365   1 H      0.047  0.953  0.000  0.000     2.359     2.402
 366   1 H      0.036  0.964  0.000  0.000     2.503     2.474
 367   1 H      0.047  0.953  0.000  0.000     2.356     2.400
 368   1 H      0.053  0.947  0.000  0.000     2.281     2.362
 369   7 N     -0.398  1.309  4.088  0.000    30.305     8.176
 370   6 C      0.038  1.053  2.909  0.000    19.946     6.362
 371   6 C      0.197  1.094  2.709  0.000    23.794     7.988
 372   8 O     -0.387  1.754  4.633  0.000    21.422     6.205
 373   6 C     -0.073  1.057  3.016  0.000    21.891     6.660
 374   6 C     -0.082  1.054  3.028  0.000    22.072     6.689
 375   6 C     -0.025  1.054  2.971  0.000    21.090     6.552
 376   7 N     -0.136  1.213  3.923  0.000    23.957     7.269
 377   6 C      0.224  1.024  2.752  0.000    23.284     7.900
 378   7 N     -0.227  1.232  3.995  0.000    25.958     7.567
 379   7 N     -0.242  1.231  4.012  0.000    26.326     7.620
 380   1 H      0.162  0.838  0.000  0.000     1.325     1.803
 381   1 H      0.077  0.923  0.000  0.000     2.006     2.215
 382   1 H      0.045  0.955  0.000  0.000     2.382     2.414
 383   1 H      0.063  0.937  0.000  0.000     2.163     2.300
 384   1 H      0.069  0.931  0.000  0.000     2.097     2.265
 385   1 H      0.063  0.937  0.000  0.000     2.160     2.298
 386   1 H      0.081  0.919  0.000  0.000     1.969     2.195
 387   1 H      0.085  0.915  0.000  0.000     1.929     2.172
 388   1 H      0.233  0.767  0.000  0.000     0.954     1.530
 389   1 H      0.228  0.772  0.000  0.000     0.974     1.546
 390   1 H      0.253  0.747  0.000  0.000     0.873     1.464
 391   1 H      0.241  0.759  0.000  0.000     0.919     1.501
 392   1 H      0.265  0.735  0.000  0.000     0.827     1.424
 393   7 N     -0.385  1.319  4.066  0.000    29.958     8.129
 394   6 C      0.044  1.055  2.901  0.000    19.856     6.348
 395   6 C      0.200  1.088  2.712  0.000    23.734     7.979
 396   8 O     -0.378  1.760  4.618  0.000    21.249     6.180
 397   6 C     -0.064  1.054  3.010  0.000    21.713     6.631
 398   6 C      0.014  1.082  2.904  0.000    27.702     8.633
 399   6 C     -0.042  1.078  2.965  0.000    29.055     8.840
 400   6 C     -0.038  1.080  2.958  0.000    28.949     8.824
 401   6 C     -0.034  1.078  2.956  0.000    28.847     8.808
 402   6 C     -0.030  1.079  2.951  0.000    28.756     8.794
 403   6 C     -0.032  1.076  2.955  0.000    28.794     8.800
 404   1 H      0.157  0.843  0.000  0.000     1.354     1.823
 405   1 H      0.068  0.932  0.000  0.000     2.113     2.273
 406   1 H      0.044  0.956  0.000  0.000     2.398     2.422
 407   1 H      0.050  0.950  0.000  0.000     2.322     2.383
 408   1 H      0.041  0.959  0.000  0.000     2.438     2.442
 409   1 H      0.024  0.976  0.000  0.000     2.671     2.556
 410   1 H      0.050  0.950  0.000  0.000     2.314     2.379
 411   1 H      0.026  0.974  0.000  0.000     2.647     2.544
 412   1 H      0.033  0.967  0.000  0.000     2.547     2.496
 413   1 H      0.182  0.818  0.000  0.000     1.202     1.717
 414   1 H      0.068  0.932  0.000  0.000     2.107     2.270
 415   1 H      0.086  0.914  0.000  0.000     1.922     2.168
 416   1 H      0.183  0.817  0.000  0.000     1.199     1.715
 417   1 H      0.071  0.929  0.000  0.000     2.073     2.251
 418   1 H      0.181  0.819  0.000  0.000     1.206     1.720
 419   1 H      0.066  0.934  0.000  0.000     2.130     2.282
 420   1 H      0.183  0.817  0.000  0.000     1.196     1.713
 421   1 H      0.055  0.945  0.000  0.000     2.256     2.348
 422   1 H      0.186  0.814  0.000  0.000     1.182     1.703
 423   1 H      0.058  0.942  0.000  0.000     2.218     2.329
 424   1 H      0.188  0.812  0.000  0.000     1.170     1.694
 425   1 H      0.057  0.943  0.000  0.000     2.237     2.338
 426   1 H      0.159  0.841  0.000  0.000     1.338     1.812
 427   1 H      0.069  0.931  0.000  0.000     2.094     2.263
 428   1 H      0.197  0.803  0.000  0.000     1.122     1.659
 429   1 H      0.056  0.944  0.000  0.000     2.244     2.343
 430   1 H      0.169  0.831  0.000  0.000     1.277     1.770
 431   1 H      0.061  0.939  0.000  0.000     2.188     2.313
 432   1 H      0.183  0.817  0.000  0.000     1.195     1.712
 433   1 H      0.061  0.939  0.000  0.000     2.188     2.313
 434   1 H      0.176  0.824  0.000  0.000     1.238     1.742
 435   1 H      0.064  0.936  0.000  0.000     2.146     2.291
 436   1 H      0.184  0.816  0.000  0.000     1.189     1.708
 437   1 H      0.059  0.941  0.000  0.000     2.210     2.325

 Mol. C6AA /au·bohr⁶  :    1698454.327282
 Mol. C8AA /au·bohr⁸  :   38223301.036637
 Mol. α(0) /au        :       1976.054590

 
molecular dipole:
                 x           y           z       tot (Debye)
 q only:      287.053     198.647     659.250
   full:      286.484     197.558     658.744    1893.677
molecular quadrupole (traceless):
                xx          xy          yy          xz          yz          zz
 q only:   -38213.794   21534.153  -55379.124   71344.650   48889.776   93592.917
  q+dip:   -38189.722   21300.248  -55334.277   71147.818   48575.485   93523.999
   full:   -38192.955   21308.997  -55332.107   71148.606   48568.429   93525.063
speedup  1.96
cpu  time for grad   30.41 s
wall time for grad   15.55 s

SCC energy    :    -628.4587062
rep           :       8.5484118
ES            :       2.0863378
AES           :      -0.1138468
AXC           :       0.2922545
disp          :      -0.5254361
XB            :       0.0000000
fix           :       0.0000000
Gborn         :       0.0000000
Gsasa         :       0.0000000
Ghb           :       0.0000000
Gshift        :       0.0000000
Gsolv         :      -1.0238018     -642.45
Etot ala COSMO:    -628.4587062
grad norm     :       0.7826345
total E       :    -619.8584729
atomizationE  :     118.7794232    74535.21
(atE without considering molecular charge,
 total energy contains solvation terms)
H-L gap (eV)  :          1.0156

------------------------------------------------------------------------
 * finished run on 2019/05/07 at 23:36:32.326     
------------------------------------------------------------------------
 total:
 * wall-time:     0 d,  0 h,  0 min, 16.315 sec
 *  cpu-time:     0 d,  0 h,  0 min, 31.700 sec
 * ratio c/w:     1.943 speedup
 SCF:
 * wall-time:     0 d,  0 h,  0 min, 15.985 sec
 *  cpu-time:     0 d,  0 h,  0 min, 31.284 sec
 * ratio c/w:     1.957 speedup

