      -----------------------------------------------------------      
     |                   =====================                   |     
     |                           x T B                           |     
     |                   =====================                   |     
     |                         S. Grimme                         |     
     |          Mulliken Center for Theoretical Chemistry        |     
     |                    University of Bonn                     |     
     |                 Version 6.0.1 (SAW181210)                 |     
      -----------------------------------------------------------      

   This program is distributed in the hope that it will be useful,
   but WITHOUT ANY WARRANTY; without even the implied warranty of
   MERCHANTABILITY or FITNESS FOR A PARTICULAR PURPOSE.
   
   FOR NON-COMMERCIAL, ACADEMIA USE ONLY.
   
   Cite this work as:
   S. Grimme, C. Bannwarth, P. Shushkov, J. Comput. Theory Chem., 2017,
   13, 1989-2009.
   C. Bannwarth, S. Ehlert and S. Grimme., ChemRxiv, 2018, preprint.
   http://doi.org/10.26434/chemrxiv.7246238.v1
   
   for sTDA-xTB:
   S. Grimme and C. Bannwarth, J. Chem. Phys., 2016, 145, 054103.
   
   in the mass-spec context:
   V. Asgeirsson, C. Bauer and S. Grimme, Chem. Sci., 2017, 8, 4879.
   
   if GBSA is used:
   P. Shushkov, F. März and S. Grimme, unpublished.
   
   for ANC optimizer:
   S. Grimme, unpublished.
   Rational Function algorithm used in ANCopt:
   F. Eckert, P. Pulay, H.-J. Werner, J. Comput. Chem., 1997, 18, 1473.
   
   with help from (in alphabetical order)
   C. Bannwarth, F. Bohle, G. Brandenburg, E. Caldeweyher, M. Checinski,
   S. Dohm, S. Ehlert, S. Ehrlich, F. März, H. Neugebauer, J. Pisarek,
   P. Pracht, P. Shushkov, and S. Spicher.
   
 * started run on 2019/05/12 at 03:17:35.079     
========================================================================
 # omp threads = 2
========================================================================
number of atoms            : 497
number of electrons        : 1272
charge                     : 2
spin                       : .0
first test random number   : .6563

########################################################################
# WARNING! Please study the warnings concerning your input carefully
#  - Process number higher than OMP_NUM_THREADS, I hope you know what you are doing.
########################################################################

           ------------------------------------------------- 
          |                 G F N 2 - x T B                 |
          | Geometry, Frequencies, Noncovalent interactions |
          |            JCTC 2018 parametrisation            |
           ------------------------------------------------- 
 
      method parameters     
 k(s)        :  1.8500
 k(p)        :  2.2300
 k(d)        :  2.2300
 k(f)        :  2.0000
 kEN (H0ij)  : -2.0000
 D4 a1       :  0.5200
 D4 a2       :  5.0000
 D4 s6       :  1.0000
 D4 s8       :  2.7000
 D4 s9       :  5.0000
 alphaj      :  2.0000

 Solvent             : h2o
 Using internal parameter file: .param_gbsa2_h2o
 Gsolv ref. state (COSMO-RS): gsolv [1 M gas/solution]
 temperature (mdtemp)       :    298.150000000000     
 dielectric constant        :    80.2000000000000     
 rho                        :    1.00000000000000     
 mass                       :    18.0000000000000     
 surface tension            :    15.5689454083859     
 probe radius               :   0.975313790000000     
 vdW radii scaling          :    1.00000000000000     
 Gshift (Eh)                :   1.857443126794793E-003
 c1                         :    1.55243817000000     
 soset                      :   0.130326360000000     
 HB correction              :  T

            Z     q(EN)     CN     RAES       Cart. coordinates
     1  N   5.0   -0.19    3.21    1.96    39.14047    74.33254   143.58936
     2  C   4.0    0.04    4.22    4.03    37.11058    75.32104   142.03991
     3  C   4.0    0.10    3.20    3.04    36.63925    78.14052   142.48179
     4  O   6.0   -0.26    1.12    1.80    35.54135    79.46177   140.95179
     5  C   4.0   -0.03    4.35    4.29    34.75383    73.74464   142.56593
     6  C   4.0   -0.01    3.57    3.15    32.46258    74.44796   141.05653
     7  C   4.0   -0.03    3.48    3.11    30.71609    76.11934   142.07718
     8  C   4.0   -0.03    3.45    3.10    31.92376    73.21299   138.80232
     9  C   4.0   -0.03    3.37    3.07    28.37946    76.44677   140.96586
    10  C   4.0   -0.03    3.37    3.07    29.57612    73.52529   137.69786
    11  C   4.0   -0.03    3.38    3.07    27.79187    75.09756   138.80146
    12  H   1.0    0.13    1.06    1.44    38.66189    73.13104   145.03691
    13  H   1.0    0.06    1.05    1.44    37.64467    75.11610   140.05182
    14  H   1.0    0.05    1.03    1.43    35.23272    71.77109   142.20464
    15  H   1.0    0.05    1.03    1.43    34.30822    73.89739   144.57934
    16  H   1.0    0.05    1.03    1.43    31.12370    77.04962   143.84720
    17  H   1.0    0.06    1.03    1.43    33.27963    71.91304   138.01479
    18  H   1.0    0.05    1.04    1.43    27.00340    77.67124   141.83366
    19  H   1.0    0.06    1.03    1.43    29.07861    72.51505   135.99765
    20  H   1.0    0.06    1.03    1.43    25.93886    75.28358   137.96326
    21  N   5.0   -0.19    3.20    1.96    17.37284    84.54844   132.07581
    22  C   4.0    0.03    4.21    4.03    16.68368    81.89785   132.36629
    23  C   4.0    0.09    3.19    3.03    14.80871    81.54071   134.53560
    24  O   6.0   -0.27    1.11    1.80    12.98865    80.12301   134.37904
    25  C   4.0   -0.03    4.27    4.14    19.09076    80.33404   132.68707
    26  C   4.0   -0.03    4.17    3.93    18.68981    77.57315   131.99766
    27  C   4.0    0.25    3.09    3.02    21.21942    76.20248   131.30382
    28  O   6.0   -0.30    1.23    1.80    20.96134    74.08111   130.27532
    29  O   6.0   -0.28    1.18    1.80    23.24061    77.25519   131.82493
    30  H   1.0    0.10    1.03    1.43    19.22149    84.90794   131.76477
    31  H   1.0    0.06    1.05    1.44    15.69481    81.29978   130.63642
    32  H   1.0    0.07    1.04    1.43    20.52274    81.11245   131.41300
    33  H   1.0    0.05    1.02    1.43    19.80481    80.53350   134.61035
    34  H   1.0    0.05    1.02    1.43    17.79703    76.55136   133.55082
    35  H   1.0    0.06    1.03    1.43    17.44345    77.42028   130.35940
    36  N   5.0   -0.19    3.25    1.97     4.29110    71.34583   150.69231
    37  C   4.0    0.03    4.46    4.48     6.51664    72.69238   151.51272
    38  C   4.0    0.14    3.59    3.16     8.81817    71.65108   150.17709
    39  O   6.0   -0.32    1.37    1.80     9.32138    69.38680   150.22560
    40  C   4.0   -0.02    4.37    4.33     6.93115    72.36006   154.36143
    41  C   4.0   -0.04    4.19    3.99     4.85047    73.76924   155.79721
    42  C   4.0   -0.07    4.15    3.90     9.56632    73.28545   155.07818
    43  C   4.0   -0.06    4.02    3.65     4.31964    72.60348   158.36926
    44  H   1.0    0.13    1.07    1.44     4.06102    69.55426   151.35718
    45  H   1.0    0.04    1.07    1.44     6.22246    74.68376   151.07233
    46  H   1.0    0.05    1.06    1.44     6.77372    70.34307   154.79177
    47  H   1.0    0.05    1.03    1.43     5.39942    75.74409   156.02367
    48  H   1.0    0.05    1.04    1.43     3.11899    73.69239   154.67567
    49  H   1.0    0.04    1.00    1.43     9.82643    73.14547   157.11257
    50  H   1.0    0.05    1.01    1.43    11.03611    72.15853   154.19062
    51  H   1.0    0.05    1.00    1.43     9.81640    75.25030   154.53695
    52  H   1.0    0.06    1.00    1.43     2.74933    73.56288   159.28025
    53  H   1.0    0.05    1.00    1.43     3.85007    70.61031   158.17537
    54  H   1.0    0.06    1.00    1.43     5.95013    72.75758   159.60423
    55  N   5.0   -0.10    3.68    2.25    10.30532    73.27676   148.98624
    56  C   4.0    0.03    4.60    4.66    12.55212    72.35670   147.68105
    57  C   4.0    0.15    3.40    3.08    14.84603    72.37159   149.47945
    58  O   6.0   -0.32    1.24    1.80    15.72780    74.32219   150.37968
    59  C   4.0   -0.04    4.34    4.27    12.84361    74.23726   145.51387
    60  C   4.0   -0.03    4.26    4.11    11.90996    76.72499   146.63364
    61  C   4.0   -0.01    4.35    4.29     9.82563    75.93656   148.50135
    62  H   1.0    0.06    1.06    1.44    12.23394    70.41536   147.05855
    63  H   1.0    0.04    1.03    1.43    14.78532    74.35850   144.86855
    64  H   1.0    0.04    1.03    1.43    11.62563    73.65822   143.95657
    65  H   1.0    0.05    1.03    1.43    13.42204    77.67086   147.65734
    66  H   1.0    0.05    1.02    1.43    11.19709    77.99652   145.18762
    67  H   1.0    0.05    1.02    1.43     9.94343    77.03509   150.24347
    68  H   1.0    0.04    1.02    1.43     7.95041    76.15252   147.65990
    69  N   5.0   -0.14    3.51    2.08    15.77873    70.08016   149.96745
    70  C   4.0    0.04    4.57    4.63    18.07476    69.76388   151.37696
    71  C   4.0    0.15    3.52    3.12    20.29206    69.24231   149.66550
    72  O   6.0   -0.31    1.29    1.80    20.10640    67.75894   147.90166
    73  C   4.0   -0.02    4.33    4.26    17.87806    67.43682   153.07072
    74  C   4.0   -0.07    4.16    3.91    20.40611    66.90862   154.36950
    75  C   4.0   -0.08    4.14    3.88    15.77437    67.85668   154.98059
    76  H   1.0    0.12    1.12    1.45    15.08419    68.53497   149.05799
    77  H   1.0    0.06    1.07    1.44    18.41014    71.46576   152.49730
    78  H   1.0    0.05    1.06    1.44    17.38858    65.82976   151.86235
    79  H   1.0    0.04    1.00    1.43    20.17159    65.44994   155.79584
    80  H   1.0    0.05    1.01    1.43    21.82705    66.28791   153.02564
    81  H   1.0    0.06    1.00    1.43    21.10410    68.61837   155.27677
    82  H   1.0    0.04    1.00    1.43    15.39806    66.12684   156.01880
    83  H   1.0    0.04    1.00    1.43    16.32478    69.30806   156.32712
    84  H   1.0    0.05    1.01    1.43    14.06988    68.48516   154.03508
    85  N   5.0   -0.15    3.52    2.09    22.43894    70.36345   150.34716
    86  C   4.0    0.04    4.52    4.56    24.86433    69.58954   149.35246
    87  C   4.0    0.14    3.43    3.09    26.29861    68.12937   151.42130
    88  O   6.0   -0.32    1.30    1.80    26.79856    69.17820   153.42968
    89  C   4.0   -0.02    4.30    4.20    26.38446    71.93194   148.61880
    90  C   4.0   -0.07    4.14    3.88    29.00410    71.18048   147.72999
    91  C   4.0   -0.07    4.14    3.87    25.00860    73.40292   146.57639
    92  H   1.0    0.11    1.09    1.44    22.47938    71.47730   151.90489
    93  H   1.0    0.07    1.08    1.44    24.52307    68.38119   147.71577
    94  H   1.0    0.05    1.06    1.44    26.56297    73.12672   150.30483
    95  H   1.0    0.04    1.00    1.43    30.01783    72.81563   147.00701
    96  H   1.0    0.05    1.00    1.43    30.11218    70.40539   149.27998
    97  H   1.0    0.05    1.01    1.43    28.87700    69.77790   146.24488
    98  H   1.0    0.04    1.00    1.43    25.92486    75.21394   146.26225
    99  H   1.0    0.04    1.00    1.43    25.03887    72.35618   144.80805
   100  H   1.0    0.05    1.01    1.43    23.05402    73.74911   147.10149
   101  N   5.0   -0.14    3.45    2.05    26.83383    65.70657   150.94099
   102  C   4.0    0.04    4.47    4.49    28.39091    64.09019   152.52127
   103  C   4.0    0.14    3.46    3.10    31.00620    63.84464   151.26314
   104  O   6.0   -0.30    1.24    1.80    31.17118    63.00123   149.10931
   105  C   4.0   -0.02    4.28    4.16    27.26283    61.41113   152.68516
   106  C   4.0   -0.07    4.15    3.90    29.13457    59.69957   154.04118
   107  C   4.0   -0.08    4.09    3.79    24.67578    61.35605   153.95184
   108  H   1.0    0.11    1.09    1.44    26.51630    65.06738   149.15869
   109  H   1.0    0.06    1.06    1.44    28.56455    64.97443   154.37984
   110  H   1.0    0.05    1.06    1.44    27.05619    60.74786   150.73468
   111  H   1.0    0.04    1.00    1.43    28.34854    57.81714   154.25809
   112  H   1.0    0.05    1.01    1.43    30.89253    59.56297   152.99508
   113  H   1.0    0.05    1.00    1.43    29.55421    60.44890   155.91180
   114  H   1.0    0.04    1.00    1.43    24.02072    59.41604   154.08288
   115  H   1.0    0.04    1.00    1.43    24.78286    62.14253   155.84774
   116  H   1.0    0.04    1.00    1.43    23.31806    62.43590   152.85884
   117  N   5.0   -0.14    3.44    2.04    33.02481    64.48409   152.66570
   118  C   4.0    0.04    4.27    4.15    35.59969    64.15302   151.76988
   119  C   4.0    0.08    3.23    3.04    37.20045    62.87387   153.80832
   120  O   6.0   -0.25    1.13    1.80    37.15530    63.57109   156.01332
   121  C   4.0   -0.03    4.24    4.07    37.01404    66.63641   151.08861
   122  C   4.0   -0.02    4.16    3.93    35.36519    68.99441   150.95146
   123  C   4.0    0.25    3.08    3.02    36.76905    71.23604   149.60026
   124  O   6.0   -0.30    1.21    1.80    37.80636    70.77426   147.52291
   125  O   6.0   -0.28    1.16    1.80    36.71174    73.33116   150.66561
   126  H   1.0    0.12    1.09    1.44    32.76355    65.31435   154.37119
   127  H   1.0    0.06    1.06    1.44    35.42690    62.96297   150.08712
   128  H   1.0    0.07    1.04    1.43    38.50146    66.97689   152.48321
   129  H   1.0    0.06    1.03    1.43    37.91942    66.41324   149.24834
   130  H   1.0    0.05    1.03    1.43    33.67925    68.60601   149.82144
   131  H   1.0    0.07    1.02    1.43    34.76461    69.63889   152.81599
   132  N   5.0   -0.17    3.22    1.96    36.50924    52.00176   146.19562
   133  C   4.0    0.03    4.23    4.06    33.97054    51.41316   145.41421
   134  C   4.0    0.09    3.24    3.04    33.56039    51.86952   142.61962
   135  O   6.0   -0.25    1.12    1.80    34.57760    53.54758   141.39896
   136  C   4.0   -0.04    4.38    4.35    32.01723    53.00053   146.83511
   137  C   4.0   -0.02    4.18    3.96    31.34665    51.92566   149.43316
   138  C   4.0   -0.08    4.12    3.84    30.00887    53.98899   150.93095
   139  C   4.0   -0.07    4.10    3.81    29.65082    49.60730   149.19399
   140  H   1.0    0.10    1.03    1.43    37.00999    53.83602   146.30703
   141  H   1.0    0.05    1.06    1.44    33.72052    49.39556   145.79941
   142  H   1.0    0.06    1.03    1.43    32.75970    54.91771   147.00780
   143  H   1.0    0.05    1.04    1.43    30.30207    53.14308   145.70281
   144  H   1.0    0.05    1.05    1.44    33.09107    51.37905   150.40629
   145  H   1.0    0.04    1.00    1.43    29.52350    53.31950   152.80895
   146  H   1.0    0.04    1.00    1.43    31.23851    55.61875   151.13620
   147  H   1.0    0.04    1.00    1.43    28.30077    54.58502   149.96165
   148  H   1.0    0.05    1.00    1.43    29.24545    48.80876   151.04226
   149  H   1.0    0.04    1.00    1.43    27.87431    50.12635   148.30184
   150  H   1.0    0.05    1.00    1.43    30.52590    48.12760   148.06507
   151  N   5.0   -0.17    3.30    1.98    28.82513    53.91575   139.71204
   152  C   4.0    0.03    4.33    4.25    27.51689    56.24640   139.22666
   153  C   4.0    0.16    3.41    3.08    28.01260    58.07439   141.40132
   154  O   6.0   -0.29    1.25    1.80    29.02493    57.36562   143.30127
   155  C   4.0   -0.05    4.28    4.15    24.68153    55.66711   138.96826
   156  C   4.0   -0.05    4.19    3.98    24.07019    53.64163   136.99204
   157  C   4.0   -0.05    4.16    3.92    24.75286    54.43663   134.29131
   158  C   4.0   -0.03    4.11    3.83    23.30159    52.94712   132.28347
   159  N   5.0   -0.12    4.02    2.92    24.10700    50.24819   132.28731
   160  H   1.0    0.09    1.03    1.43    28.46356    53.02555   141.35761
   161  H   1.0    0.05    1.05    1.44    28.32758    57.00244   137.48041
   162  H   1.0    0.04    1.03    1.43    24.01779    55.01917   140.80845
   163  H   1.0    0.04    1.03    1.43    23.68831    57.41071   138.51661
   164  H   1.0    0.04    1.03    1.43    25.07225    51.92368   137.51564
   165  H   1.0    0.04    1.03    1.43    22.04392    53.29193   137.11335
   166  H   1.0    0.04    1.03    1.43    24.28304    56.42496   134.04438
   167  H   1.0    0.05    1.02    1.43    26.78385    54.24693   133.98987
   168  H   1.0    0.04    1.02    1.43    21.27700    53.04029   132.65493
   169  H   1.0    0.05    1.02    1.43    23.68386    53.73661   130.42158
   170  H   1.0    0.07    1.02    1.43    23.18452    49.22354   130.91357
   171  H   1.0    0.06    1.02    1.43    26.02480    50.15375   131.94904
   172  H   1.0    0.06    1.02    1.43    23.77608    49.43631   134.02172
   173  N   5.0   -0.15    3.48    2.07    27.05836    60.45100   141.04948
   174  C   4.0    0.04    4.47    4.49    27.77515    62.48308   142.72719
   175  C   4.0    0.14    3.42    3.09    25.54284    64.13344   143.46701
   176  O   6.0   -0.32    1.27    1.80    25.45350    65.21635   145.51283
   177  C   4.0    0.06    4.24    4.08    29.86564    64.09833   141.45672
   178  O   6.0   -0.23    2.12    1.84    31.97134    62.54817   140.99433
   179  C   4.0   -0.07    4.08    3.77    30.54442    66.44465   142.96821
   180  H   1.0    0.07    1.08    1.44    26.94179    60.97660   139.21240
   181  H   1.0    0.07    1.06    1.44    28.57199    61.66520   144.45755
   182  H   1.0    0.05    1.04    1.43    29.22483    64.67823   139.57086
   183  H   1.0    0.14    1.03    1.43    32.78671    62.14860   142.57275
   184  H   1.0    0.05    1.00    1.43    32.22650    67.32882   142.18535
   185  H   1.0    0.04    1.00    1.43    29.01740    67.81452   142.90529
   186  H   1.0    0.06    1.00    1.43    30.93271    65.95557   144.93087
   187  N   5.0   -0.14    3.54    2.11    23.78534    64.38289   141.66791
   188  C   4.0    0.03    4.39    4.36    21.50127    65.85601   142.02711
   189  C   4.0    0.15    3.38    3.07    19.33885    63.93154   142.30833
   190  O   6.0   -0.33    1.30    1.80    19.08377    62.23671   140.75256
   191  C   4.0   -0.05    4.21    4.02    21.14390    67.82534   139.87338
   192  C   4.0   -0.05    4.20    3.99    22.27683    66.98416   137.36017
   193  C   4.0   -0.05    4.14    3.89    21.46592    68.68029   135.15140
   194  C   4.0   -0.03    4.10    3.80    22.23397    67.49935   132.60193
   195  N   5.0   -0.11    4.00    2.86    21.00295    68.75191   130.39668
   196  H   1.0    0.08    1.09    1.44    23.76703    63.14808   140.21339
   197  H   1.0    0.07    1.07    1.44    21.70243    66.86308   143.81924
   198  H   1.0    0.05    1.03    1.43    19.12333    68.18785   139.68231
   199  H   1.0    0.04    1.02    1.43    22.02176    69.59217   140.46818
   200  H   1.0    0.04    1.03    1.43    24.32970    66.99192   137.51443
   201  H   1.0    0.04    1.03    1.43    21.63819    65.05765   136.99096
   202  H   1.0    0.04    1.05    1.44    19.42454    68.92621   135.22744
   203  H   1.0    0.05    1.02    1.43    22.30982    70.54743   135.34544
   204  H   1.0    0.05    1.02    1.43    24.27479    67.68027   132.38041
   205  H   1.0    0.04    1.02    1.43    21.75490    65.49598   132.59365
   206  H   1.0    0.07    1.02    1.43    21.74086    68.11233   128.71813
   207  H   1.0    0.06    1.02    1.43    19.07077    68.56340   130.40781
   208  H   1.0    0.10    1.06    1.44    21.30844    70.72752   130.43881
   209  N   5.0   -0.14    3.47    2.06    17.90239    64.19546   144.34643
   210  C   4.0    0.04    4.39    4.35    15.75639    62.64666   145.03836
   211  C   4.0    0.14    3.43    3.09    13.48504    64.35246   145.67893
   212  O   6.0   -0.32    1.31    1.80    13.73541    66.19790   147.07120
   213  C   4.0   -0.03    4.36    4.30    16.22868    61.20129   147.53689
   214  C   4.0   -0.02    3.56    3.14    18.39223    59.38914   147.40850
   215  C   4.0   -0.03    3.49    3.11    20.85510    60.28944   147.24985
   216  C   4.0   -0.05    3.46    3.10    17.96214    56.80695   147.49906
   217  C   4.0   -0.04    3.38    3.07    22.86211    58.61795   147.16139
   218  C   4.0   -0.05    3.38    3.07    19.97554    55.14586   147.43773
   219  C   4.0   -0.04    3.37    3.07    22.42726    56.04042   147.27117
   220  H   1.0    0.11    1.10    1.44    18.29924    65.60937   145.58521
   221  H   1.0    0.06    1.05    1.44    15.32999    61.35756   143.48862
   222  H   1.0    0.05    1.03    1.43    16.60314    62.62053   148.99369
   223  H   1.0    0.04    1.03    1.43    14.48402    60.22270   148.04331
   224  H   1.0    0.07    1.03    1.43    21.21965    62.29835   147.26865
   225  H   1.0    0.04    1.03    1.43    16.05435    56.10528   147.66199
   226  H   1.0    0.06    1.03    1.43    24.76907    59.33597   147.01868
   227  H   1.0    0.04    1.03    1.43    19.63011    53.14169   147.55214
   228  H   1.0    0.05    1.03    1.43    24.01227    54.75922   147.23617
   229  N   5.0   -0.15    3.46    2.05    11.26928    63.63664   144.72254
   230  C   4.0    0.04    4.43    4.44     8.90327    64.85683   145.39709
   231  C   4.0    0.15    3.45    3.09     7.64871    63.41929   147.56530
   232  O   6.0   -0.32    1.32    1.80     6.72813    61.34279   147.10471
   233  C   4.0   -0.03    4.44    4.44     7.06549    64.69407   143.18252
   234  C   4.0   -0.02    4.20    4.00     7.67802    66.63872   141.16126
   235  C   4.0   -0.06    4.09    3.78     6.82376    65.69793   138.56350
   236  C   4.0   -0.07    4.11    3.83     6.46950    69.13820   141.91730
   237  H   1.0    0.11    1.11    1.45    11.14927    62.06080   143.63719
   238  H   1.0    0.06    1.06    1.44     9.32506    66.79427   145.97244
   239  H   1.0    0.06    1.04    1.43     7.18454    62.77814   142.43488
   240  H   1.0    0.05    1.04    1.43     5.14534    64.99237   143.86174
   241  H   1.0    0.05    1.07    1.44     9.72046    66.89205   141.09616
   242  H   1.0    0.05    1.00    1.43     7.26745    67.09821   137.13616
   243  H   1.0    0.06    1.00    1.43     7.79521    63.95111   138.09680
   244  H   1.0    0.05    1.00    1.43     4.80028    65.34733   138.54682
   245  H   1.0    0.05    1.00    1.43     7.11455    70.67136   140.71830
   246  H   1.0    0.05    1.00    1.43     4.42448    69.01778   141.76739
   247  H   1.0    0.05    1.00    1.43     6.95241    69.61542   143.85844
   248  N   5.0   -0.14    3.47    2.06     7.47798    64.55609   149.81128
   249  C   4.0    0.04    4.36    4.30     6.44436    63.26561   151.97256
   250  C   4.0    0.08    3.18    3.03     3.80840    64.25742   152.74673
   251  O   6.0   -0.30    1.17    1.80     3.31244    66.52587   152.85398
   252  C   4.0   -0.02    4.24    4.09     8.23095    63.46247   154.31756
   253  C   4.0   -0.08    4.11    3.83     9.70968    61.01985   154.73199
   254  C   4.0   -0.07    4.18    3.96    10.16313    65.58539   154.13376
   255  H   1.0    0.12    1.13    1.45     8.16440    66.33254   150.04865
   256  H   1.0    0.05    1.07    1.44     6.27856    61.29297   151.39854
   257  H   1.0    0.04    1.06    1.44     7.02760    63.81597   155.96962
   258  H   1.0    0.04    1.00    1.43    10.98726    61.24541   156.32636
   259  H   1.0    0.04    1.00    1.43     8.46509    59.44610   155.13998
   260  H   1.0    0.04    1.00    1.43    10.84738    60.58518   153.07907
   261  H   1.0    0.03    1.01    1.43    11.18074    65.67961   155.91311
   262  H   1.0    0.05    1.00    1.43    11.49512    65.21359   152.61674
   263  H   1.0    0.06    1.01    1.43     9.28298    67.40301   153.81879
   264  N   5.0   -0.20    3.19    1.95    12.29446    52.99737   164.21011
   265  C   4.0    0.03    4.26    4.13    13.97307    53.95905   162.29342
   266  C   4.0    0.09    3.24    3.04    16.48872    52.57190   162.31257
   267  O   6.0   -0.31    1.16    1.80    17.45528    51.77467   160.35719
   268  C   4.0   -0.04    4.32    4.24    14.51811    56.77552   162.53551
   269  C   4.0   -0.02    3.55    3.14    15.70711    57.78527   160.13183
   270  C   4.0   -0.04    3.47    3.10    14.83113    57.11452   157.71757
   271  C   4.0   -0.05    3.46    3.10    17.70216    59.48582   160.26728
   272  C   4.0   -0.05    3.38    3.07    15.93838    58.10068   155.57123
   273  C   4.0   -0.05    3.39    3.08    18.75387    60.53113   158.08224
   274  C   4.0   -0.05    3.38    3.07    17.90140    59.83015   155.72346
   275  H   1.0    0.09    1.02    1.43    11.31795    54.24671   165.29156
   276  H   1.0    0.05    1.07    1.44    13.11522    53.57045   160.44547
   277  H   1.0    0.04    1.03    1.43    12.71524    57.72041   162.87322
   278  H   1.0    0.05    1.03    1.43    15.76696    57.13743   164.13187
   279  H   1.0    0.05    1.03    1.43    13.25742    55.83716   157.50361
   280  H   1.0    0.05    1.03    1.43    18.42568    60.05710   162.08503
   281  H   1.0    0.04    1.03    1.43    15.26648    57.50206   153.73930
   282  H   1.0    0.04    1.04    1.43    20.29302    61.85181   158.29063
   283  H   1.0    0.04    1.03    1.43    18.74445    60.57813   154.02566
   284  N   5.0   -0.20    3.21    1.96    20.18850    48.50624   156.92958
   285  C   4.0    0.03    4.29    4.19    22.70012    48.88416   155.89886
   286  C   4.0    0.08    3.26    3.05    24.25649    46.46918   156.23260
   287  O   6.0   -0.30    1.15    1.80    25.46120    45.55167   154.47647
   288  C   4.0   -0.02    4.34    4.27    24.01054    51.17818   157.09687
   289  C   4.0   -0.05    4.18    3.96    23.37213    53.62697   155.66065
   290  C   4.0   -0.07    4.16    3.92    26.86542    50.82042   157.20244
   291  C   4.0   -0.07    4.05    3.70    21.65764    55.26251   157.29046
   292  H   1.0    0.12    1.05    1.44    19.61890    49.45211   158.48983
   293  H   1.0    0.04    1.06    1.44    22.51772    49.13265   153.84887
   294  H   1.0    0.05    1.07    1.44    23.30748    51.32124   159.03379
   295  H   1.0    0.03    1.03    1.43    25.10109    54.65500   155.22271
   296  H   1.0    0.04    1.03    1.43    22.42678    53.20823   153.88186
   297  H   1.0    0.04    1.00    1.43    27.76300    52.49065   157.99075
   298  H   1.0    0.06    1.01    1.43    27.37256    49.21126   158.35818
   299  H   1.0    0.05    1.00    1.43    27.58717    50.50354   155.30542
   300  H   1.0    0.04    1.03    1.43    21.11411    56.94591   156.26554
   301  H   1.0    0.06    1.01    1.43    19.95572    54.24260   157.81010
   302  H   1.0    0.05    1.00    1.43    22.62798    55.83445   159.00646
   303  N   5.0   -0.19    3.22    1.96    23.82892    41.32304   151.48415
   304  C   4.0    0.04    4.22    4.04    25.01686    41.69190   149.08186
   305  C   4.0    0.10    3.20    3.04    27.86455    41.15141   149.17355
   306  O   6.0   -0.27    1.12    1.80    29.19935    41.38409   147.30305
   307  C   4.0   -0.04    4.30    4.19    24.55035    44.35972   148.08895
   308  C   4.0   -0.05    4.15    3.91    21.78539    44.88919   147.44795
   309  C   4.0   -0.01    4.20    4.00    21.56936    47.65319   146.56860
   310  N   5.0   -0.15    3.37    2.01    19.90348    48.02115   144.42145
   311  C   4.0    0.09    3.33    3.06    20.57221    48.00179   141.99031
   312  N   5.0   -0.19    3.24    1.96    22.95988    48.05472   141.19472
   313  N   5.0   -0.19    3.25    1.97    18.75316    48.20325   140.24641
   314  H   1.0    0.11    1.05    1.44    23.67349    42.79293   152.70001
   315  H   1.0    0.06    1.05    1.44    24.23852    40.27692   147.77668
   316  H   1.0    0.05    1.03    1.43    25.18378    45.67056   149.55090
   317  H   1.0    0.05    1.03    1.43    25.75057    44.60524   146.42645
   318  H   1.0    0.05    1.03    1.43    21.19016    43.60717   145.94808
   319  H   1.0    0.05    1.02    1.43    20.61843    44.53146   149.10549
   320  H   1.0    0.04    1.03    1.43    20.85900    48.81039   148.11851
   321  H   1.0    0.04    1.04    1.43    23.44305    48.34208   146.05833
   322  H   1.0    0.08    1.07    1.44    18.03650    47.89615   144.81259
   323  H   1.0    0.08    1.02    1.43    24.48100    47.58736   142.28085
   324  H   1.0    0.08    1.04    1.43    23.27823    47.71292   139.35012
   325  H   1.0    0.08    1.03    1.43    16.91393    48.13669   140.73504
   326  H   1.0    0.09    1.03    1.43    19.16977    48.02795   138.39996
   327  N   5.0   -0.20    3.23    1.96     5.42398    67.13460   166.40406
   328  C   4.0    0.04    4.33    4.25     6.82603    68.51079   164.50833
   329  C   4.0    0.09    3.21    3.04     5.89913    71.22248   164.42386
   330  O   6.0   -0.28    1.12    1.80     7.37235    72.97052   164.06319
   331  C   4.0   -0.04    4.37    4.33     6.65563    67.17616   161.97720
   332  C   4.0   -0.04    4.09    3.79     8.25990    64.80060   162.02648
   333  S   6.0   -0.05    2.64    3.10    11.54301    65.68803   162.53811
   334  C   4.0   -0.07    3.91    3.48    12.82829    62.55920   162.77709
   335  H   1.0    0.09    1.03    1.43     4.72470    65.41520   165.94630
   336  H   1.0    0.06    1.11    1.45     8.83272    68.60850   165.03496
   337  H   1.0    0.05    1.02    1.43     4.69447    66.70393   161.53666
   338  H   1.0    0.04    1.04    1.43     7.37713    68.42411   160.50438
   339  H   1.0    0.04    1.07    1.44     7.71166    63.55014   163.57130
   340  H   1.0    0.04    1.06    1.44     8.13069    63.79958   160.22939
   341  H   1.0    0.04    1.05    1.44    14.76134    62.73972   163.43630
   342  H   1.0    0.04    1.04    1.44    11.70398    61.50797   164.13962
   343  H   1.0    0.04    1.04    1.44    12.79583    61.66118   160.93249
   344  N   5.0   -0.18    3.22    1.96    18.14837    82.55085   148.76738
   345  C   4.0    0.03    4.33    4.26    18.90496    80.09724   149.72632
   346  C   4.0    0.15    3.42    3.08    19.44979    80.20963   152.56217
   347  O   6.0   -0.27    1.23    1.80    20.22243    82.13064   153.58522
   348  C   4.0   -0.03    4.37    4.33    21.38695    79.29555   148.48853
   349  C   4.0   -0.02    3.56    3.14    21.14344    78.64250   145.73356
   350  C   4.0   -0.04    3.48    3.11    19.43966    76.82132   144.92993
   351  C   4.0   -0.04    3.47    3.10    22.73264    79.76693   143.97888
   352  C   4.0   -0.04    3.38    3.07    19.32870    76.13179   142.40993
   353  C   4.0   -0.04    3.39    3.08    22.61030    79.08181   141.46395
   354  C   4.0   -0.04    3.38    3.07    20.91708    77.25471   140.66932
   355  H   1.0    0.10    1.02    1.43    19.55974    83.79458   148.38138
   356  H   1.0    0.05    1.05    1.44    17.37341    78.75447   149.36523
   357  H   1.0    0.05    1.04    1.43    22.70747    80.86169   148.70800
   358  H   1.0    0.05    1.03    1.43    22.13879    77.66669   149.51637
   359  H   1.0    0.06    1.03    1.43    18.24380    75.91027   146.31067
   360  H   1.0    0.06    1.03    1.43    24.04727    81.19943   144.60533
   361  H   1.0    0.05    1.03    1.43    18.02859    74.69252   141.79482
   362  H   1.0    0.06    1.03    1.43    23.81599    79.99433   140.09558
   363  H   1.0    0.05    1.03    1.43    20.82767    76.74367   138.69603
   364  N   5.0   -0.14    3.47    2.06    19.18784    78.00910   153.79806
   365  C   4.0    0.03    4.49    4.52    20.30930    77.55646   156.27789
   366  C   4.0    0.14    3.48    3.11    22.43552    75.61803   155.93010
   367  O   6.0   -0.32    1.27    1.80    22.04061    73.53278   154.99593
   368  C   4.0   -0.01    4.26    4.11    18.37881    76.65873   158.24867
   369  C   4.0   -0.07    4.14    3.88    16.48424    74.80301   157.15673
   370  C   4.0   -0.06    4.18    3.96    19.81924    75.43298   160.40538
   371  H   1.0    0.10    1.07    1.44    18.41948    76.50981   152.88488
   372  H   1.0    0.06    1.07    1.44    21.12348    79.36000   156.88500
   373  H   1.0    0.05    1.05    1.44    17.38473    78.33441   158.94966
   374  H   1.0    0.04    1.00    1.43    15.22547    74.13688   158.63610
   375  H   1.0    0.05    1.00    1.43    15.35897    75.64423   155.65773
   376  H   1.0    0.05    1.01    1.43    17.48688    73.18857   156.37902
   377  H   1.0    0.05    1.00    1.43    18.53116    74.91403   161.92167
   378  H   1.0    0.05    1.01    1.43    20.77603    73.72831   159.77135
   379  H   1.0    0.06    1.00    1.43    21.22182    76.72175   161.18705
   380  N   5.0   -0.14    3.46    2.05    24.76190    76.38921   156.53922
   381  C   4.0    0.04    4.39    4.37    26.93855    74.77285   156.18109
   382  C   4.0    0.15    3.38    3.07    27.42857    73.20352   158.61547
   383  O   6.0   -0.28    1.22    1.80    27.29100    74.14441   160.74258
   384  C   4.0   -0.03    4.31    4.21    29.26971    76.37250   155.55194
   385  C   4.0   -0.01    3.51    3.12    29.25615    77.72045   153.03545
   386  C   4.0   -0.03    3.46    3.10    27.52631    79.61351   152.40688
   387  C   4.0   -0.03    3.47    3.10    31.16568    77.18708   151.31027
   388  C   4.0   -0.03    3.42    3.09    27.72566    80.98919   150.19117
   389  C   4.0   -0.04    3.44    3.09    31.35932    78.51455   149.07123
   390  C   4.0    0.07    3.44    3.09    29.67706    80.45797   148.50710
   391  O   6.0   -0.23    2.11    1.84    29.94397    81.88477   146.39181
   392  H   1.0    0.09    1.06    1.44    25.02276    77.99078   157.53769
   393  H   1.0    0.07    1.07    1.44    26.48994    73.45110   154.65640
   394  H   1.0    0.06    1.03    1.43    29.47645    77.77044   157.06416
   395  H   1.0    0.06    1.04    1.43    30.91712    75.13134   155.60051
   396  H   1.0    0.06    1.03    1.43    25.99799    80.08944   153.67670
   397  H   1.0    0.07    1.03    1.43    32.54311    75.73583   151.71666
   398  H   1.0    0.07    1.03    1.43    26.42607    82.50953   149.78496
   399  H   1.0    0.06    1.03    1.43    32.86921    78.05584   147.77346
   400  H   1.0    0.13    1.04    1.43    31.28190    81.19022   145.34586
   401  N   5.0   -0.13    3.51    2.08    28.01471    70.78848   158.23754
   402  C   4.0    0.04    4.35    4.29    28.66092    69.04438   160.22138
   403  C   4.0    0.09    3.27    3.05    31.07785    67.71646   159.50059
   404  O   6.0   -0.29    1.19    1.80    31.39943    66.96326   157.33367
   405  C   4.0   -0.03    4.46    4.48    26.70207    66.94259   160.45773
   406  C   4.0   -0.04    4.10    3.80    24.10335    67.99324   160.95897
   407  S   6.0   -0.04    2.59    3.10    22.19839    65.32038   161.79927
   408  C   4.0   -0.07    3.89    3.45    19.20437    66.94636   162.14586
   409  H   1.0    0.12    1.12    1.45    27.98802    70.04783   156.46158
   410  H   1.0    0.06    1.06    1.44    28.87428    70.06985   162.00032
   411  H   1.0    0.05    1.04    1.43    26.68419    65.85633   158.70105
   412  H   1.0    0.05    1.05    1.44    27.27765    65.69369   161.99714
   413  H   1.0    0.05    1.06    1.44    24.13025    69.34784   162.51755
   414  H   1.0    0.05    1.06    1.44    23.33036    68.90623   159.27803
   415  H   1.0    0.04    1.05    1.44    17.87996    65.62079   162.96720
   416  H   1.0    0.05    1.04    1.43    19.45787    68.54243   163.41012
   417  H   1.0    0.04    1.04    1.43    18.55657    67.57185   160.30292
   418  N   5.0   -0.12    4.07    3.06    17.41225    62.06378   132.45806
   419  C   4.0   -0.00    4.32    4.23    16.13779    63.24526   134.70166
   420  C   4.0    0.15    3.40    3.08    14.36234    61.26020   135.97811
   421  O   6.0   -0.29    1.25    1.80    12.15361    61.10845   135.37625
   422  C   4.0   -0.03    4.32    4.24    14.50767    65.50955   133.88646
   423  C   4.0   -0.02    3.56    3.14    14.48731    67.49103   135.94722
   424  C   4.0   -0.04    3.48    3.10    13.79359    66.85024   138.39523
   425  C   4.0   -0.04    3.49    3.11    15.31239    69.94428   135.44744
   426  C   4.0   -0.04    3.39    3.08    13.97565    68.63797   140.28982
   427  C   4.0   -0.04    3.36    3.07    15.52770    71.72724   137.35078
   428  C   4.0   -0.04    3.39    3.07    14.85507    71.05378   139.77554
   429  H   1.0    0.05    1.02    1.43    18.45173    63.38222   131.46805
   430  H   1.0    0.06    1.02    1.43    18.58061    60.60191   133.02010
   431  H   1.0    0.07    1.02    1.43    16.05406    61.34226   131.24420
   432  H   1.0    0.04    1.05    1.44    17.58251    63.84580   136.05289
   433  H   1.0    0.04    1.03    1.43    15.19005    66.36540   132.14569
   434  H   1.0    0.07    1.04    1.43    12.57436    64.85205   133.56720
   435  H   1.0    0.06    1.03    1.43    13.12370    64.97661   138.82914
   436  H   1.0    0.05    1.03    1.43    15.76001    70.51767   133.53854
   437  H   1.0    0.06    1.03    1.43    13.49707    68.17144   142.21835
   438  H   1.0    0.05    1.03    1.43    16.19748    73.61096   136.93967
   439  H   1.0    0.04    1.03    1.43    14.99220    72.40203   141.29310
   440  N   5.0   -0.14    3.43    2.04    15.56969    59.70105   137.56435
   441  C   4.0    0.04    4.39    4.36    14.33137    57.47429   138.61609
   442  C   4.0    0.09    3.26    3.05    11.71449    57.99028   139.75237
   443  O   6.0   -0.32    1.19    1.80    11.44441    59.25133   141.68233
   444  C   4.0   -0.02    4.30    4.20    15.86865    56.23134   140.75226
   445  C   4.0   -0.08    4.15    3.90    15.13651    53.44885   140.82462
   446  C   4.0   -0.07    4.15    3.89    18.71610    56.43324   140.42982
   447  H   1.0    0.10    1.11    1.44    17.11473    60.32989   138.53038
   448  H   1.0    0.05    1.06    1.44    14.10209    56.14368   137.04636
   449  H   1.0    0.05    1.06    1.44    15.34044    57.12773   142.53609
   450  H   1.0    0.04    1.00    1.43    16.07515    52.55354   142.41538
   451  H   1.0    0.05    1.00    1.43    13.11030    53.19714   141.06443
   452  H   1.0    0.04    1.00    1.43    15.71613    52.53296   139.08262
   453  H   1.0    0.04    1.01    1.43    19.60386    55.15858   141.77114
   454  H   1.0    0.04    1.00    1.43    19.24073    55.90060   138.52436
   455  H   1.0    0.07    1.02    1.43    19.42048    58.30780   140.86065
   456  N   5.0   -0.17    3.30    1.98     6.51565    55.37720   144.05970
   457  C   4.0    0.03    4.38    4.35     6.83751    54.06926   146.43898
   458  C   4.0    0.08    3.25    3.04     4.96911    51.89553   146.72342
   459  O   6.0   -0.25    1.14    1.80     3.68770    51.21006   144.94171
   460  C   4.0   -0.02    4.42    4.42     6.40847    56.10039   148.42429
   461  C   4.0   -0.05    4.15    3.90     7.70442    55.54353   150.93805
   462  C   4.0   -0.06    4.16    3.92     3.56547    56.70480   148.44014
   463  C   4.0   -0.08    4.06    3.72    10.45049    54.78513   150.47267
   464  H   1.0    0.10    1.04    1.43     5.46693    56.96866   144.11421
   465  H   1.0    0.04    1.06    1.44     8.74422    53.27802   146.42680
   466  H   1.0    0.07    1.11    1.45     7.38546    57.76959   147.70176
   467  H   1.0    0.04    1.03    1.43     7.69052    57.27700   152.04449
   468  H   1.0    0.04    1.02    1.43     6.72349    54.13888   152.08459
   469  H   1.0    0.06    1.00    1.43     3.30347    58.74085   148.40821
   470  H   1.0    0.06    1.02    1.43     2.65983    55.92354   146.76730
   471  H   1.0    0.05    1.00    1.43     2.62624    55.86937   150.04894
   472  H   1.0    0.04    1.00    1.43    11.54080    54.95655   152.20837
   473  H   1.0    0.04    1.00    1.43    10.61285    52.84270   149.82998
   474  H   1.0    0.04    1.00    1.43    11.28314    56.03268   149.07001
   475  H   1.0    0.11    1.07    1.44    40.22123    73.45204   142.61507
   476  H   1.0    0.07    1.05    1.44    37.24116    78.96094   144.07417
   477  H   1.0    0.11    1.07    1.44    16.53665    85.21055   130.75106
   478  H   1.0    0.06    1.05    1.44    15.04735    82.48384   136.15567
   479  H   1.0    0.10    1.08    1.44     2.90117    72.19638   151.17936
   480  H   1.0    0.06    1.05    1.44    38.32505    61.42434   153.35531
   481  H   1.0    0.10    1.08    1.44    36.78366    51.37513   147.75273
   482  H   1.0    0.06    1.05    1.44    32.38706    50.75605   141.64262
   483  H   1.0    0.09    1.09    1.44    28.44199    52.78645   138.49941
   484  H   1.0    0.06    1.04    1.43     2.43126    63.03922   153.18324
   485  H   1.0    0.10    1.07    1.44    11.09878    52.02993   163.48419
   486  H   1.0    0.06    1.05    1.44    17.39913    52.28864   163.94413
   487  H   1.0    0.10    1.07    1.44    19.02621    48.92807   155.76180
   488  H   1.0    0.07    1.05    1.44    24.30741    45.60230   157.91099
   489  H   1.0    0.10    1.08    1.44    22.22571    40.80533   151.25119
   490  H   1.0    0.08    1.05    1.44    28.66903    40.59464   150.79029
   491  H   1.0    0.10    1.07    1.44     6.41916    66.85485   167.75458
   492  H   1.0    0.07    1.05    1.44     4.06349    71.60149   164.66435
   493  H   1.0    0.10    1.07    1.44    17.29476    82.35216   147.30983
   494  H   1.0    0.07    1.05    1.44    32.42921    67.44610   160.79357
   495  H   1.0    0.06    1.04    1.44    10.16840    57.29272   138.91927
   496  H   1.0    0.10    1.07    1.44     8.03707    55.83640   143.45393
   497  H   1.0    0.06    1.05    1.44     4.78720    51.01751   148.38687

  Z AO/shell   Hii/eV     exponent
  1     Wed Apr 25 08:07:45 CEST 2018   EN: 2.200 GM2: 0.406  GM3: 0.0800  RAES: 1.40
     1s    -10.707211    1.230000
  6     Wed Apr 25 08:07:45 CEST 2018   EN: 2.550 GM2: 0.538  GM3: 0.1500  RAES: 3.00
     2s    -13.970922    2.096432
     2p    -10.063292    1.800000
  7     Wed Apr 25 08:07:45 CEST 2018   EN: 3.040 GM2: 0.461  GM3:-0.0640  RAES: 1.90
     2s    -16.686243    2.339881
     2p    -12.523956    2.014332
  8     Wed Apr 25 08:07:45 CEST 2018   EN: 3.440 GM2: 0.452  GM3:-0.0517  RAES: 1.80
     2s    -20.229985    2.439742
     2p    -15.503117    2.137023
 16     Tue Apr 24 11:44:34 CEST 2018   EN: 2.580 GM2: 0.340  GM3:-0.0502  RAES: 3.10
     3s    -20.029654    1.981333
     3p    -11.377694    2.025643
     3d     -0.420282    1.702555
 no old-style atom pair restraining (fixing) potential

molecular fragmentation (1/2 indicates fragments):
111111111111111111112222222222222222222222222222222222222222222222222222
222222222222222222222222222222222222222222222222222222222222222222222222
222222222222222222222222222222222222222222222222222222222222222222222222
222222222222222222222222222222222222222222222222222222222222222222222222
222222222222222222222222222222222222222222222222222222222222222222222222
222222222222222222222222222222222222222222222222222222222222222222222222
22222222222222222222222222222222222222222211222222222222222222222
# atoms in fragment 1/2:    22   475
 fragment masses (1/2) :      149.19     3068.03
CMA distance (Bohr)    :  18.839
constraining FC (au)   :  0.0500
           ------------------------------------------------- 
          |        Self-Consistent Charge Iterations        |
           ------------------------------------------------- 

 Ncao       : 1187
 Nao        : 1185
 Nshell     : 725
 Nel        : 1272
 T(el)      :   500.0
 intcut     :    35.0
 scfconv/Eh :  0.100E-06
   qconv/e  :  0.100E-04
 intneglect :  0.100E-08
 broydamp   :      0.400
 iter      E             dE          RMSdq      gap      omega  full diag
   1   -717.3668442 -0.717367E+03  0.440E+00    2.78       0.0  T
   2   -718.8299352 -0.146309E+01  0.214E+00    1.43       1.0  T
   3   -718.9155905 -0.856552E-01  0.119E+00    1.63       1.0  T
   4   -719.0333909 -0.117800E+00  0.255E-01    0.98       1.0  T
   5   -719.0391455 -0.575455E-02  0.131E-01    1.01       1.0  T
   6   -719.0408248 -0.167927E-02  0.629E-02    0.92       1.0  T
   7   -719.0412432 -0.418395E-03  0.295E-02    0.82       1.0  T
   8   -719.0413346 -0.914067E-04  0.143E-02    0.79       1.0  T
   9   -719.0413584 -0.238687E-04  0.669E-03    0.77       1.0  T
  10   -719.0413631 -0.468862E-05  0.273E-03    0.76       1.6  T
  11   -719.0413640 -0.888545E-06  0.133E-03    0.76       3.4  T
  12   -719.0413642 -0.171034E-06  0.591E-04    0.75       7.6  T
  13   -719.0413642 -0.539211E-07  0.307E-04    0.75      14.6  T
  14   -719.0413642 -0.851310E-08  0.132E-04    0.75      34.0  T
  15   -719.0413642 -0.231660E-08  0.618E-05    0.75      72.5  T
  16   -719.0413642 -0.386308E-09  0.306E-05    0.75     146.7  T
speedup  1.96
cpu  time for SCC   32.10 s
wall time for SCC   16.36 s

   *** convergence criteria satisfied after 16 iterations ***

          eigenvalues
 #    :         624        625        626        627        628        629        630        631
 occ. :        2.000      2.000      2.000      2.000      2.000      2.000      2.000      2.000
 eps  :       -10.067    -10.052    -10.031     -9.873     -9.844     -9.782     -9.773     -9.746
 #    :         632        633        634        635        636        637        638        639
 occ. :        2.000      2.000      2.000      2.000      2.000      0.000      0.000      0.000
 eps  :        -9.709     -9.636     -9.589     -9.498     -9.302     -8.548     -8.194     -8.120
 #    :         640        641        642        643        644        645        646        647
 occ. :        0.000      0.000      0.000      0.000      0.000      0.000      0.000      0.000
 eps  :        -7.949     -7.803     -7.792     -7.789     -7.787     -7.553     -7.385     -7.201


   #   Z            q   n(s)   n(p)   n(d)      C6AA      α(0)
   1   7 N     -0.420  1.327  4.093  0.000    30.923     8.259
   2   6 C      0.050  1.053  2.896  0.000    19.748     6.330
   3   6 C      0.205  1.088  2.708  0.000    23.651     7.964
   4   8 O     -0.380  1.749  4.631  0.000    21.283     6.185
   5   6 C     -0.048  1.051  2.998  0.000    21.427     6.588
   6   6 C      0.008  1.084  2.909  0.000    27.846     8.656
   7   6 C     -0.033  1.077  2.956  0.000    28.824     8.805
   8   6 C     -0.041  1.080  2.961  0.000    29.023     8.835
   9   6 C     -0.034  1.080  2.954  0.000    28.840     8.806
  10   6 C     -0.034  1.082  2.953  0.000    28.855     8.809
  11   6 C     -0.033  1.080  2.953  0.000    28.826     8.804
  12   1 H      0.175  0.825  0.000  0.000     1.242     1.746
  13   1 H      0.058  0.942  0.000  0.000     2.227     2.334
  14   1 H      0.052  0.948  0.000  0.000     2.296     2.370
  15   1 H      0.022  0.978  0.000  0.000     2.706     2.573
  16   1 H     -0.006  1.006  0.000  0.000     3.159     2.779
  17   1 H      0.048  0.952  0.000  0.000     2.344     2.394
  18   1 H      0.031  0.969  0.000  0.000     2.570     2.507
  19   1 H      0.068  0.932  0.000  0.000     2.102     2.267
  20   1 H      0.045  0.955  0.000  0.000     2.377     2.411
  21   7 N     -0.401  1.319  4.082  0.000    30.401     8.189
  22   6 C      0.041  1.059  2.899  0.000    19.897     6.354
  23   6 C      0.203  1.090  2.707  0.000    23.689     7.971
  24   8 O     -0.373  1.751  4.623  0.000    21.158     6.167
  25   6 C     -0.044  1.051  2.992  0.000    21.355     6.579
  26   6 C     -0.097  1.067  3.030  0.000    22.350     6.731
  27   6 C      0.367  1.026  2.607  0.000    20.776     7.459
  28   8 O     -0.613  1.729  4.883  0.000    26.431     6.893
  29   8 O     -0.630  1.784  4.846  0.000    26.872     6.950
  30   1 H      0.162  0.838  0.000  0.000     1.325     1.803
  31   1 H      0.040  0.960  0.000  0.000     2.454     2.450
  32   1 H      0.039  0.961  0.000  0.000     2.464     2.455
  33   1 H      0.031  0.969  0.000  0.000     2.566     2.505
  34   1 H      0.030  0.970  0.000  0.000     2.588     2.516
  35   1 H      0.032  0.968  0.000  0.000     2.563     2.503
  36   7 N     -0.407  1.321  4.086  0.000    30.563     8.211
  37   6 C      0.037  1.053  2.910  0.000    19.956     6.361
  38   6 C      0.261  1.047  2.692  0.000    22.605     7.787
  39   8 O     -0.485  1.723  4.762  0.000    23.457     6.494
  40   6 C     -0.019  1.066  2.953  0.000    20.878     6.498
  41   6 C     -0.058  1.050  3.008  0.000    21.621     6.620
  42   6 C     -0.103  1.036  3.067  0.000    22.527     6.767
  43   6 C     -0.103  1.036  3.067  0.000    22.528     6.768
  44   1 H      0.186  0.814  0.000  0.000     1.183     1.704
  45   1 H      0.022  0.978  0.000  0.000     2.697     2.568
  46   1 H      0.043  0.957  0.000  0.000     2.412     2.429
  47   1 H      0.030  0.970  0.000  0.000     2.590     2.517
  48   1 H      0.034  0.966  0.000  0.000     2.527     2.486
  49   1 H      0.042  0.958  0.000  0.000     2.428     2.437
  50   1 H      0.030  0.970  0.000  0.000     2.580     2.512
  51   1 H      0.025  0.975  0.000  0.000     2.663     2.552
  52   1 H      0.034  0.966  0.000  0.000     2.534     2.489
  53   1 H      0.038  0.962  0.000  0.000     2.477     2.461
  54   1 H      0.030  0.970  0.000  0.000     2.592     2.518
  55   7 N     -0.085  1.236  3.850  0.000    22.901     7.108
  56   6 C      0.018  1.068  2.913  0.000    20.244     6.402
  57   6 C      0.271  1.044  2.685  0.000    22.423     7.754
  58   8 O     -0.510  1.750  4.760  0.000    24.003     6.569
  59   6 C     -0.059  1.050  3.009  0.000    21.610     6.614
  60   6 C     -0.065  1.049  3.016  0.000    21.726     6.633
  61   6 C     -0.003  1.052  2.951  0.000    20.681     6.483
  62   1 H      0.081  0.919  0.000  0.000     1.969     2.194
  63   1 H      0.055  0.945  0.000  0.000     2.261     2.351
  64   1 H      0.065  0.935  0.000  0.000     2.144     2.290
  65   1 H      0.051  0.949  0.000  0.000     2.310     2.377
  66   1 H      0.061  0.939  0.000  0.000     2.190     2.314
  67   1 H      0.050  0.950  0.000  0.000     2.325     2.385
  68   1 H      0.061  0.939  0.000  0.000     2.182     2.310
  69   7 N     -0.183  1.257  3.926  0.000    24.964     7.421
  70   6 C      0.028  1.052  2.920  0.000    20.086     6.379
  71   6 C      0.273  1.042  2.685  0.000    22.387     7.749
  72   8 O     -0.472  1.716  4.756  0.000    23.174     6.454
  73   6 C     -0.010  1.060  2.950  0.000    20.714     6.472
  74   6 C     -0.110  1.037  3.073  0.000    22.657     6.787
  75   6 C     -0.120  1.040  3.079  0.000    22.844     6.814
  76   1 H      0.249  0.751  0.000  0.000     0.886     1.475
  77   1 H      0.055  0.945  0.000  0.000     2.262     2.352
  78   1 H      0.054  0.946  0.000  0.000     2.276     2.359
  79   1 H      0.069  0.931  0.000  0.000     2.093     2.262
  80   1 H      0.027  0.973  0.000  0.000     2.624     2.533
  81   1 H      0.028  0.972  0.000  0.000     2.617     2.530
  82   1 H      0.063  0.937  0.000  0.000     2.161     2.299
  83   1 H      0.035  0.965  0.000  0.000     2.523     2.484
  84   1 H      0.052  0.948  0.000  0.000     2.292     2.368
  85   7 N     -0.178  1.252  3.926  0.000    24.863     7.406
  86   6 C      0.017  1.065  2.918  0.000    20.287     6.413
  87   6 C      0.273  1.048  2.679  0.000    22.393     7.749
  88   8 O     -0.502  1.739  4.763  0.000    23.832     6.545
  89   6 C     -0.002  1.053  2.949  0.000    20.575     6.451
  90   6 C     -0.099  1.033  3.066  0.000    22.436     6.753
  91   6 C     -0.108  1.038  3.070  0.000    22.605     6.778
  92   1 H      0.204  0.796  0.000  0.000     1.085     1.631
  93   1 H      0.104  0.896  0.000  0.000     1.751     2.069
  94   1 H      0.019  0.981  0.000  0.000     2.754     2.595
  95   1 H      0.029  0.971  0.000  0.000     2.606     2.525
  96   1 H      0.010  0.990  0.000  0.000     2.884     2.656
  97   1 H      0.056  0.944  0.000  0.000     2.243     2.342
  98   1 H      0.031  0.969  0.000  0.000     2.566     2.505
  99   1 H      0.055  0.945  0.000  0.000     2.264     2.353
 100   1 H      0.043  0.957  0.000  0.000     2.413     2.429
 101   7 N     -0.172  1.253  3.919  0.000    24.720     7.384
 102   6 C      0.023  1.066  2.912  0.000    20.200     6.400
 103   6 C      0.270  1.050  2.679  0.000    22.431     7.756
 104   8 O     -0.479  1.736  4.743  0.000    23.324     6.475
 105   6 C     -0.013  1.060  2.953  0.000    20.770     6.482
 106   6 C     -0.115  1.039  3.076  0.000    22.756     6.801
 107   6 C     -0.119  1.040  3.079  0.000    22.831     6.813
 108   1 H      0.231  0.769  0.000  0.000     0.961     1.536
 109   1 H      0.058  0.942  0.000  0.000     2.224     2.332
 110   1 H      0.062  0.938  0.000  0.000     2.175     2.306
 111   1 H      0.074  0.926  0.000  0.000     2.042     2.235
 112   1 H      0.027  0.973  0.000  0.000     2.626     2.534
 113   1 H      0.033  0.967  0.000  0.000     2.541     2.493
 114   1 H      0.076  0.924  0.000  0.000     2.023     2.224
 115   1 H      0.040  0.960  0.000  0.000     2.449     2.447
 116   1 H      0.048  0.952  0.000  0.000     2.349     2.397
 117   7 N     -0.176  1.245  3.931  0.000    24.821     7.399
 118   6 C      0.028  1.061  2.912  0.000    20.124     6.389
 119   6 C      0.196  1.086  2.717  0.000    23.812     7.992
 120   8 O     -0.365  1.757  4.608  0.000    20.986     6.142
 121   6 C     -0.047  1.052  2.994  0.000    21.406     6.587
 122   6 C     -0.077  1.063  3.014  0.000    21.971     6.675
 123   6 C      0.368  1.028  2.605  0.000    20.768     7.458
 124   8 O     -0.618  1.763  4.855  0.000    26.574     6.911
 125   8 O     -0.634  1.776  4.858  0.000    26.976     6.964
 126   1 H      0.214  0.786  0.000  0.000     1.038     1.596
 127   1 H      0.088  0.912  0.000  0.000     1.901     2.156
 128   1 H      0.027  0.973  0.000  0.000     2.627     2.534
 129   1 H      0.059  0.941  0.000  0.000     2.205     2.322
 130   1 H      0.022  0.978  0.000  0.000     2.698     2.568
 131   1 H      0.009  0.991  0.000  0.000     2.902     2.664
 132   7 N     -0.388  1.312  4.076  0.000    30.036     8.140
 133   6 C      0.038  1.053  2.909  0.000    19.950     6.362
 134   6 C      0.196  1.086  2.718  0.000    23.818     7.993
 135   8 O     -0.377  1.763  4.614  0.000    21.221     6.176
 136   6 C     -0.067  1.060  3.007  0.000    21.776     6.641
 137   6 C     -0.007  1.054  2.953  0.000    20.667     6.466
 138   6 C     -0.112  1.040  3.071  0.000    22.684     6.790
 139   6 C     -0.117  1.041  3.076  0.000    22.795     6.807
 140   1 H      0.146  0.854  0.000  0.000     1.430     1.873
 141   1 H      0.060  0.940  0.000  0.000     2.194     2.316
 142   1 H      0.036  0.964  0.000  0.000     2.496     2.471
 143   1 H      0.064  0.936  0.000  0.000     2.148     2.292
 144   1 H      0.013  0.987  0.000  0.000     2.844     2.637
 145   1 H      0.037  0.963  0.000  0.000     2.493     2.469
 146   1 H      0.021  0.979  0.000  0.000     2.719     2.579
 147   1 H      0.056  0.944  0.000  0.000     2.250     2.346
 148   1 H      0.036  0.964  0.000  0.000     2.507     2.476
 149   1 H      0.061  0.939  0.000  0.000     2.190     2.314
 150   1 H      0.041  0.959  0.000  0.000     2.442     2.444
 151   7 N     -0.390  1.322  4.068  0.000    30.097     8.148
 152   6 C      0.015  1.060  2.925  0.000    20.337     6.423
 153   6 C      0.283  1.045  2.673  0.000    22.215     7.718
 154   8 O     -0.455  1.751  4.705  0.000    22.821     6.405
 155   6 C     -0.103  1.064  3.039  0.000    22.467     6.748
 156   6 C     -0.103  1.059  3.045  0.000    22.470     6.749
 157   6 C     -0.107  1.054  3.052  0.000    22.539     6.759
 158   6 C     -0.065  1.064  3.001  0.000    21.844     6.672
 159   7 N     -0.142  1.225  3.917  0.000    24.070     7.287
 160   1 H      0.138  0.862  0.000  0.000     1.483     1.908
 161   1 H      0.064  0.936  0.000  0.000     2.148     2.292
 162   1 H      0.062  0.938  0.000  0.000     2.180     2.309
 163   1 H      0.069  0.931  0.000  0.000     2.095     2.263
 164   1 H      0.062  0.938  0.000  0.000     2.176     2.307
 165   1 H      0.099  0.901  0.000  0.000     1.791     2.093
 166   1 H      0.101  0.899  0.000  0.000     1.778     2.085
 167   1 H      0.067  0.933  0.000  0.000     2.116     2.275
 168   1 H      0.142  0.858  0.000  0.000     1.450     1.883
 169   1 H      0.121  0.879  0.000  0.000     1.606     1.982
 170   1 H      0.297  0.703  0.000  0.000     0.723     1.332
 171   1 H      0.286  0.714  0.000  0.000     0.755     1.362
 172   1 H      0.288  0.712  0.000  0.000     0.751     1.358
 173   7 N     -0.217  1.277  3.940  0.000    25.729     7.534
 174   6 C      0.007  1.063  2.931  0.000    20.473     6.443
 175   6 C      0.269  1.042  2.690  0.000    22.464     7.761
 176   8 O     -0.501  1.753  4.748  0.000    23.815     6.543
 177   6 C      0.112  1.050  2.838  0.000    18.846     6.198
 178   8 O     -0.462  1.708  4.754  0.000    22.092     6.345
 179   6 C     -0.117  1.038  3.079  0.000    22.797     6.809
 180   1 H      0.214  0.786  0.000  0.000     1.035     1.594
 181   1 H      0.076  0.924  0.000  0.000     2.022     2.224
 182   1 H      0.066  0.934  0.000  0.000     2.129     2.282
 183   1 H      0.315  0.685  0.000  0.000     0.679     1.294
 184   1 H      0.042  0.958  0.000  0.000     2.422     2.434
 185   1 H      0.040  0.960  0.000  0.000     2.446     2.446
 186   1 H      0.034  0.966  0.000  0.000     2.532     2.488
 187   7 N     -0.165  1.244  3.921  0.000    24.563     7.361
 188   6 C      0.002  1.068  2.930  0.000    20.559     6.457
 189   6 C      0.258  1.048  2.695  0.000    22.664     7.796
 190   8 O     -0.446  1.694  4.753  0.000    22.630     6.378
 191   6 C     -0.074  1.054  3.021  0.000    21.924     6.667
 192   6 C     -0.091  1.057  3.034  0.000    22.232     6.713
 193   6 C     -0.095  1.053  3.042  0.000    22.308     6.725
 194   6 C     -0.058  1.064  2.995  0.000    21.723     6.654
 195   7 N     -0.150  1.229  3.920  0.000    24.233     7.311
 196   1 H      0.238  0.762  0.000  0.000     0.930     1.510
 197   1 H      0.066  0.934  0.000  0.000     2.126     2.280
 198   1 H      0.061  0.939  0.000  0.000     2.187     2.313
 199   1 H      0.034  0.966  0.000  0.000     2.534     2.489
 200   1 H      0.061  0.939  0.000  0.000     2.182     2.310
 201   1 H      0.095  0.905  0.000  0.000     1.828     2.115
 202   1 H      0.083  0.917  0.000  0.000     1.952     2.185
 203   1 H      0.045  0.955  0.000  0.000     2.378     2.412
 204   1 H      0.118  0.882  0.000  0.000     1.630     1.997
 205   1 H      0.139  0.861  0.000  0.000     1.465     1.893
 206   1 H      0.301  0.699  0.000  0.000     0.711     1.321
 207   1 H      0.280  0.720  0.000  0.000     0.778     1.381
 208   1 H      0.282  0.718  0.000  0.000     0.768     1.373
 209   7 N     -0.156  1.240  3.916  0.000    24.378     7.333
 210   6 C      0.014  1.066  2.920  0.000    20.360     6.426
 211   6 C      0.267  1.044  2.689  0.000    22.494     7.767
 212   8 O     -0.503  1.747  4.756  0.000    23.849     6.548
 213   6 C     -0.064  1.051  3.012  0.000    21.705     6.630
 214   6 C      0.013  1.076  2.911  0.000    27.725     8.637
 215   6 C     -0.036  1.078  2.957  0.000    28.889     8.814
 216   6 C     -0.040  1.080  2.960  0.000    28.996     8.831
 217   6 C     -0.026  1.078  2.948  0.000    28.655     8.778
 218   6 C     -0.036  1.079  2.957  0.000    28.899     8.816
 219   6 C     -0.034  1.079  2.955  0.000    28.837     8.806
 220   1 H      0.212  0.788  0.000  0.000     1.047     1.603
 221   1 H      0.102  0.898  0.000  0.000     1.764     2.077
 222   1 H      0.042  0.958  0.000  0.000     2.427     2.436
 223   1 H      0.053  0.947  0.000  0.000     2.281     2.362
 224   1 H      0.014  0.986  0.000  0.000     2.823     2.628
 225   1 H      0.055  0.945  0.000  0.000     2.257     2.349
 226   1 H      0.011  0.989  0.000  0.000     2.872     2.650
 227   1 H      0.066  0.934  0.000  0.000     2.129     2.282
 228   1 H      0.046  0.954  0.000  0.000     2.373     2.409
 229   7 N     -0.175  1.254  3.921  0.000    24.779     7.393
 230   6 C      0.025  1.059  2.916  0.000    20.155     6.392
 231   6 C      0.261  1.047  2.692  0.000    22.600     7.786
 232   8 O     -0.479  1.735  4.744  0.000    23.330     6.476
 233   6 C     -0.070  1.056  3.014  0.000    21.821     6.647
 234   6 C     -0.019  1.056  2.963  0.000    20.871     6.498
 235   6 C     -0.118  1.042  3.077  0.000    22.824     6.812
 236   6 C     -0.110  1.038  3.072  0.000    22.649     6.785
 237   1 H      0.246  0.754  0.000  0.000     0.899     1.486
 238   1 H      0.055  0.945  0.000  0.000     2.258     2.350
 239   1 H      0.074  0.926  0.000  0.000     2.043     2.235
 240   1 H      0.039  0.961  0.000  0.000     2.457     2.451
 241   1 H      0.048  0.952  0.000  0.000     2.342     2.393
 242   1 H      0.047  0.953  0.000  0.000     2.354     2.399
 243   1 H      0.058  0.942  0.000  0.000     2.225     2.333
 244   1 H      0.034  0.966  0.000  0.000     2.526     2.485
 245   1 H      0.034  0.966  0.000  0.000     2.524     2.484
 246   1 H      0.033  0.967  0.000  0.000     2.548     2.496
 247   1 H      0.023  0.977  0.000  0.000     2.686     2.563
 248   7 N     -0.180  1.249  3.931  0.000    24.899     7.411
 249   6 C      0.021  1.062  2.917  0.000    20.227     6.405
 250   6 C      0.195  1.094  2.711  0.000    23.840     7.996
 251   8 O     -0.370  1.758  4.612  0.000    21.086     6.157
 252   6 C     -0.008  1.063  2.945  0.000    20.688     6.469
 253   6 C     -0.120  1.044  3.076  0.000    22.855     6.815
 254   6 C     -0.121  1.040  3.081  0.000    22.870     6.817
 255   1 H      0.240  0.760  0.000  0.000     0.922     1.504
 256   1 H      0.093  0.907  0.000  0.000     1.849     2.126
 257   1 H      0.028  0.972  0.000  0.000     2.614     2.528
 258   1 H      0.053  0.947  0.000  0.000     2.278     2.360
 259   1 H      0.052  0.948  0.000  0.000     2.298     2.370
 260   1 H      0.062  0.938  0.000  0.000     2.176     2.307
 261   1 H      0.054  0.946  0.000  0.000     2.269     2.356
 262   1 H      0.059  0.941  0.000  0.000     2.211     2.325
 263   1 H      0.050  0.950  0.000  0.000     2.319     2.381
 264   7 N     -0.397  1.313  4.084  0.000    30.283     8.173
 265   6 C      0.045  1.050  2.905  0.000    19.830     6.343
 266   6 C      0.199  1.093  2.707  0.000    23.755     7.982
 267   8 O     -0.366  1.745  4.622  0.000    21.018     6.147
 268   6 C     -0.075  1.057  3.018  0.000    21.914     6.663
 269   6 C      0.003  1.087  2.910  0.000    27.947     8.671
 270   6 C     -0.042  1.080  2.962  0.000    29.032     8.836
 271   6 C     -0.039  1.083  2.956  0.000    28.972     8.827
 272   6 C     -0.032  1.080  2.953  0.000    28.809     8.802
 273   6 C     -0.031  1.084  2.948  0.000    28.784     8.798
 274   6 C     -0.034  1.078  2.955  0.000    28.839     8.806
 275   1 H      0.165  0.835  0.000  0.000     1.306     1.790
 276   1 H      0.057  0.943  0.000  0.000     2.231     2.336
 277   1 H      0.064  0.936  0.000  0.000     2.158     2.297
 278   1 H      0.048  0.952  0.000  0.000     2.346     2.395
 279   1 H      0.044  0.956  0.000  0.000     2.395     2.420
 280   1 H      0.023  0.977  0.000  0.000     2.688     2.564
 281   1 H      0.057  0.943  0.000  0.000     2.240     2.341
 282   1 H      0.038  0.962  0.000  0.000     2.479     2.462
 283   1 H      0.044  0.956  0.000  0.000     2.400     2.422
 284   7 N     -0.404  1.312  4.093  0.000    30.493     8.201
 285   6 C      0.036  1.063  2.901  0.000    19.982     6.367
 286   6 C      0.201  1.092  2.708  0.000    23.731     7.978
 287   8 O     -0.376  1.749  4.627  0.000    21.200     6.173
 288   6 C     -0.024  1.070  2.953  0.000    20.956     6.511
 289   6 C     -0.064  1.055  3.010  0.000    21.729     6.636
 290   6 C     -0.109  1.039  3.070  0.000    22.629     6.782
 291   6 C     -0.113  1.038  3.075  0.000    22.722     6.797
 292   1 H      0.173  0.827  0.000  0.000     1.254     1.754
 293   1 H      0.064  0.936  0.000  0.000     2.148     2.292
 294   1 H      0.044  0.956  0.000  0.000     2.395     2.420
 295   1 H      0.039  0.961  0.000  0.000     2.467     2.456
 296   1 H      0.056  0.944  0.000  0.000     2.248     2.345
 297   1 H      0.039  0.961  0.000  0.000     2.461     2.453
 298   1 H      0.023  0.977  0.000  0.000     2.685     2.562
 299   1 H      0.044  0.956  0.000  0.000     2.396     2.420
 300   1 H      0.046  0.954  0.000  0.000     2.366     2.405
 301   1 H      0.045  0.955  0.000  0.000     2.379     2.412
 302   1 H      0.020  0.980  0.000  0.000     2.739     2.588
 303   7 N     -0.401  1.313  4.087  0.000    30.388     8.187
 304   6 C      0.040  1.054  2.907  0.000    19.927     6.359
 305   6 C      0.200  1.093  2.706  0.000    23.736     7.979
 306   8 O     -0.386  1.752  4.635  0.000    21.405     6.203
 307   6 C     -0.078  1.058  3.020  0.000    21.974     6.673
 308   6 C     -0.081  1.054  3.027  0.000    22.052     6.686
 309   6 C     -0.026  1.054  2.972  0.000    21.118     6.557
 310   7 N     -0.137  1.212  3.925  0.000    23.959     7.270
 311   6 C      0.223  1.024  2.753  0.000    23.306     7.904
 312   7 N     -0.228  1.231  3.998  0.000    26.003     7.573
 313   7 N     -0.241  1.230  4.011  0.000    26.294     7.616
 314   1 H      0.165  0.835  0.000  0.000     1.303     1.788
 315   1 H      0.075  0.925  0.000  0.000     2.030     2.228
 316   1 H      0.057  0.943  0.000  0.000     2.236     2.338
 317   1 H      0.063  0.937  0.000  0.000     2.167     2.302
 318   1 H      0.070  0.930  0.000  0.000     2.081     2.256
 319   1 H      0.053  0.947  0.000  0.000     2.284     2.363
 320   1 H      0.080  0.920  0.000  0.000     1.977     2.199
 321   1 H      0.086  0.914  0.000  0.000     1.919     2.166
 322   1 H      0.232  0.768  0.000  0.000     0.956     1.531
 323   1 H      0.228  0.772  0.000  0.000     0.972     1.545
 324   1 H      0.254  0.746  0.000  0.000     0.870     1.461
 325   1 H      0.241  0.759  0.000  0.000     0.920     1.502
 326   1 H      0.267  0.733  0.000  0.000     0.820     1.419
 327   7 N     -0.393  1.313  4.080  0.000    30.174     8.158
 328   6 C      0.042  1.050  2.907  0.000    19.874     6.349
 329   6 C      0.201  1.090  2.709  0.000    23.716     7.976
 330   8 O     -0.389  1.762  4.627  0.000    21.455     6.210
 331   6 C     -0.058  1.049  3.010  0.000    21.581     6.607
 332   6 C     -0.008  1.065  2.943  0.000    20.731     6.483
 333  16 S     -0.238  1.925  4.254  0.059   151.265    20.700
 334   6 C     -0.056  1.054  3.003  0.000    21.654     6.638
 335   1 H      0.172  0.828  0.000  0.000     1.263     1.761
 336   1 H      0.059  0.941  0.000  0.000     2.206     2.323
 337   1 H      0.058  0.942  0.000  0.000     2.218     2.329
 338   1 H      0.052  0.948  0.000  0.000     2.291     2.367
 339   1 H      0.051  0.949  0.000  0.000     2.306     2.375
 340   1 H      0.062  0.938  0.000  0.000     2.180     2.309
 341   1 H      0.064  0.936  0.000  0.000     2.155     2.296
 342   1 H      0.059  0.941  0.000  0.000     2.215     2.328
 343   1 H      0.067  0.933  0.000  0.000     2.118     2.276
 344   7 N     -0.387  1.318  4.069  0.000    30.000     8.135
 345   6 C      0.038  1.057  2.905  0.000    19.951     6.362
 346   6 C      0.272  1.048  2.680  0.000    22.404     7.751
 347   8 O     -0.494  1.750  4.743  0.000    23.644     6.519
 348   6 C     -0.061  1.053  3.008  0.000    21.649     6.622
 349   6 C      0.011  1.083  2.906  0.000    27.755     8.642
 350   6 C     -0.042  1.077  2.965  0.000    29.049     8.839
 351   6 C     -0.037  1.079  2.958  0.000    28.910     8.818
 352   6 C     -0.035  1.079  2.956  0.000    28.871     8.811
 353   6 C     -0.028  1.079  2.949  0.000    28.701     8.785
 354   6 C     -0.031  1.077  2.954  0.000    28.778     8.797
 355   1 H      0.155  0.845  0.000  0.000     1.366     1.831
 356   1 H      0.054  0.946  0.000  0.000     2.267     2.355
 357   1 H      0.036  0.964  0.000  0.000     2.505     2.475
 358   1 H      0.027  0.973  0.000  0.000     2.636     2.539
 359   1 H      0.033  0.967  0.000  0.000     2.548     2.496
 360   1 H      0.020  0.980  0.000  0.000     2.737     2.587
 361   1 H      0.055  0.945  0.000  0.000     2.261     2.352
 362   1 H      0.031  0.969  0.000  0.000     2.570     2.507
 363   1 H      0.040  0.960  0.000  0.000     2.447     2.446
 364   7 N     -0.187  1.248  3.939  0.000    25.053     7.434
 365   6 C      0.024  1.064  2.912  0.000    20.178     6.396
 366   6 C      0.274  1.047  2.678  0.000    22.359     7.743
 367   8 O     -0.482  1.729  4.753  0.000    23.381     6.483
 368   6 C     -0.012  1.057  2.955  0.000    20.756     6.480
 369   6 C     -0.112  1.036  3.076  0.000    22.699     6.793
 370   6 C     -0.109  1.037  3.072  0.000    22.636     6.782
 371   1 H      0.213  0.787  0.000  0.000     1.042     1.599
 372   1 H      0.054  0.946  0.000  0.000     2.270     2.356
 373   1 H      0.044  0.956  0.000  0.000     2.397     2.421
 374   1 H      0.056  0.944  0.000  0.000     2.252     2.347
 375   1 H      0.047  0.953  0.000  0.000     2.361     2.403
 376   1 H      0.053  0.947  0.000  0.000     2.287     2.365
 377   1 H      0.059  0.941  0.000  0.000     2.215     2.327
 378   1 H      0.036  0.964  0.000  0.000     2.503     2.474
 379   1 H      0.031  0.969  0.000  0.000     2.575     2.509
 380   7 N     -0.166  1.247  3.919  0.000    24.593     7.365
 381   6 C      0.026  1.063  2.911  0.000    20.148     6.392
 382   6 C      0.266  1.048  2.686  0.000    22.502     7.768
 383   8 O     -0.500  1.752  4.749  0.000    23.792     6.540
 384   6 C     -0.067  1.053  3.015  0.000    21.785     6.644
 385   6 C      0.000  1.078  2.922  0.000    28.017     8.682
 386   6 C     -0.040  1.081  2.959  0.000    28.996     8.831
 387   6 C     -0.032  1.084  2.948  0.000    28.801     8.801
 388   6 C     -0.057  1.073  2.983  0.000    29.409     8.893
 389   6 C     -0.064  1.074  2.990  0.000    29.589     8.920
 390   6 C      0.146  1.044  2.810  0.000    24.817     8.164
 391   8 O     -0.413  1.709  4.705  0.000    21.111     6.203
 392   1 H      0.199  0.801  0.000  0.000     1.112     1.652
 393   1 H      0.081  0.919  0.000  0.000     1.967     2.194
 394   1 H      0.059  0.941  0.000  0.000     2.209     2.324
 395   1 H      0.046  0.954  0.000  0.000     2.369     2.407
 396   1 H      0.041  0.959  0.000  0.000     2.440     2.443
 397   1 H      0.033  0.967  0.000  0.000     2.545     2.495
 398   1 H      0.051  0.949  0.000  0.000     2.313     2.378
 399   1 H      0.021  0.979  0.000  0.000     2.725     2.582
 400   1 H      0.327  0.673  0.000  0.000     0.645     1.262
 401   7 N     -0.176  1.244  3.931  0.000    24.802     7.397
 402   6 C      0.030  1.051  2.919  0.000    20.067     6.379
 403   6 C      0.199  1.087  2.714  0.000    23.763     7.985
 404   8 O     -0.357  1.743  4.614  0.000    20.836     6.120
 405   6 C     -0.055  1.049  3.006  0.000    21.495     6.589
 406   6 C      0.003  1.056  2.942  0.000    20.531     6.451
 407  16 S     -0.193  1.904  4.239  0.049   149.237    20.561
 408   6 C     -0.059  1.054  3.005  0.000    21.703     6.645
 409   1 H      0.241  0.759  0.000  0.000     0.920     1.503
 410   1 H      0.084  0.916  0.000  0.000     1.943     2.180
 411   1 H      0.067  0.933  0.000  0.000     2.116     2.275
 412   1 H      0.072  0.928  0.000  0.000     2.065     2.247
 413   1 H      0.036  0.964  0.000  0.000     2.497     2.471
 414   1 H      0.040  0.960  0.000  0.000     2.444     2.445
 415   1 H      0.076  0.924  0.000  0.000     2.024     2.225
 416   1 H      0.047  0.953  0.000  0.000     2.354     2.399
 417   1 H      0.065  0.935  0.000  0.000     2.137     2.286
 418   7 N     -0.145  1.232  3.913  0.000    24.126     7.295
 419   6 C     -0.050  1.091  2.958  0.000    21.487     6.604
 420   6 C      0.267  1.032  2.700  0.000    22.485     7.765
 421   8 O     -0.446  1.759  4.687  0.000    22.625     6.377
 422   6 C     -0.103  1.057  3.047  0.000    22.464     6.747
 423   6 C      0.010  1.078  2.912  0.000    27.800     8.649
 424   6 C     -0.042  1.078  2.964  0.000    29.049     8.839
 425   6 C     -0.047  1.083  2.964  0.000    29.174     8.858
 426   6 C     -0.033  1.079  2.954  0.000    28.820     8.804
 427   6 C     -0.027  1.079  2.948  0.000    28.667     8.780
 428   6 C     -0.036  1.079  2.958  0.000    28.905     8.817
 429   1 H      0.299  0.701  0.000  0.000     0.715     1.325
 430   1 H      0.322  0.678  0.000  0.000     0.653     1.265
 431   1 H      0.311  0.689  0.000  0.000     0.683     1.295
 432   1 H      0.136  0.864  0.000  0.000     1.488     1.908
 433   1 H      0.099  0.901  0.000  0.000     1.798     2.097
 434   1 H      0.114  0.886  0.000  0.000     1.665     2.018
 435   1 H      0.055  0.945  0.000  0.000     2.262     2.352
 436   1 H      0.062  0.938  0.000  0.000     2.177     2.307
 437   1 H      0.018  0.982  0.000  0.000     2.762     2.599
 438   1 H      0.013  0.987  0.000  0.000     2.836     2.633
 439   1 H      0.012  0.988  0.000  0.000     2.856     2.643
 440   7 N     -0.168  1.251  3.918  0.000    24.646     7.373
 441   6 C      0.003  1.067  2.930  0.000    20.540     6.453
 442   6 C      0.209  1.090  2.701  0.000    23.563     7.950
 443   8 O     -0.384  1.753  4.631  0.000    21.361     6.197
 444   6 C     -0.029  1.062  2.968  0.000    21.057     6.526
 445   6 C     -0.144  1.047  3.097  0.000    23.329     6.885
 446   6 C     -0.163  1.049  3.114  0.000    23.725     6.944
 447   1 H      0.261  0.739  0.000  0.000     0.844     1.439
 448   1 H      0.107  0.893  0.000  0.000     1.720     2.051
 449   1 H      0.046  0.954  0.000  0.000     2.367     2.406
 450   1 H      0.067  0.933  0.000  0.000     2.115     2.274
 451   1 H      0.029  0.971  0.000  0.000     2.603     2.523
 452   1 H      0.086  0.914  0.000  0.000     1.916     2.165
 453   1 H      0.071  0.929  0.000  0.000     2.074     2.252
 454   1 H      0.095  0.905  0.000  0.000     1.832     2.117
 455   1 H      0.069  0.931  0.000  0.000     2.099     2.266
 456   7 N     -0.379  1.304  4.075  0.000    29.802     8.108
 457   6 C      0.031  1.057  2.911  0.000    20.059     6.378
 458   6 C      0.203  1.083  2.714  0.000    23.674     7.968
 459   8 O     -0.383  1.759  4.624  0.000    21.352     6.195
 460   6 C     -0.037  1.071  2.967  0.000    21.196     6.547
 461   6 C     -0.070  1.049  3.021  0.000    21.836     6.653
 462   6 C     -0.113  1.036  3.077  0.000    22.724     6.797
 463   6 C     -0.117  1.040  3.077  0.000    22.795     6.808
 464   1 H      0.155  0.845  0.000  0.000     1.365     1.830
 465   1 H      0.079  0.921  0.000  0.000     1.994     2.208
 466   1 H      0.085  0.915  0.000  0.000     1.931     2.173
 467   1 H      0.038  0.962  0.000  0.000     2.481     2.463
 468   1 H      0.022  0.978  0.000  0.000     2.703     2.571
 469   1 H      0.043  0.957  0.000  0.000     2.406     2.426
 470   1 H      0.036  0.964  0.000  0.000     2.504     2.475
 471   1 H      0.024  0.976  0.000  0.000     2.672     2.556
 472   1 H      0.047  0.953  0.000  0.000     2.360     2.402
 473   1 H      0.048  0.952  0.000  0.000     2.340     2.392
 474   1 H      0.046  0.954  0.000  0.000     2.373     2.409
 475   1 H      0.180  0.820  0.000  0.000     1.211     1.724
 476   1 H      0.053  0.947  0.000  0.000     2.283     2.363
 477   1 H      0.183  0.817  0.000  0.000     1.195     1.712
 478   1 H      0.067  0.933  0.000  0.000     2.118     2.276
 479   1 H      0.170  0.830  0.000  0.000     1.273     1.767
 480   1 H      0.086  0.914  0.000  0.000     1.920     2.167
 481   1 H      0.173  0.827  0.000  0.000     1.257     1.756
 482   1 H      0.089  0.911  0.000  0.000     1.892     2.151
 483   1 H      0.202  0.798  0.000  0.000     1.093     1.638
 484   1 H      0.078  0.922  0.000  0.000     1.996     2.209
 485   1 H      0.186  0.814  0.000  0.000     1.181     1.702
 486   1 H      0.064  0.936  0.000  0.000     2.151     2.293
 487   1 H      0.192  0.808  0.000  0.000     1.149     1.679
 488   1 H      0.053  0.947  0.000  0.000     2.280     2.361
 489   1 H      0.182  0.818  0.000  0.000     1.202     1.717
 490   1 H      0.057  0.943  0.000  0.000     2.235     2.338
 491   1 H      0.182  0.818  0.000  0.000     1.204     1.718
 492   1 H      0.073  0.927  0.000  0.000     2.053     2.241
 493   1 H      0.185  0.815  0.000  0.000     1.186     1.706
 494   1 H      0.086  0.914  0.000  0.000     1.916     2.164
 495   1 H      0.076  0.924  0.000  0.000     2.021     2.223
 496   1 H      0.178  0.822  0.000  0.000     1.224     1.733
 497   1 H      0.054  0.946  0.000  0.000     2.268     2.355

 Mol. C6AA /au·bohr⁶  :    2233260.960075
 Mol. C8AA /au·bohr⁸  :   50457725.506659
 Mol. α(0) /au        :       2261.815733

 
molecular dipole:
                 x           y           z       tot (Debye)
 q only:       22.313      75.873     257.253
   full:       23.009      79.320     260.516     694.660
molecular quadrupole (traceless):
                xx          xy          yy          xz          yz          zz
 q only:   -17554.680     324.764  -14707.150    3663.138   13647.277   32261.830
  q+dip:   -18203.725     526.135  -14784.714    3919.221   14699.960   32988.439
   full:   -18199.318     521.258  -14782.274    3918.857   14692.207   32981.593
speedup  1.97
cpu  time for grad   43.38 s
wall time for grad   22.01 s

SCC energy    :    -719.0634684
rep           :       9.5868116
ES            :       2.1427641
AES           :      -0.1197918
AXC           :       0.3150866
disp          :      -0.6495510
XB            :       0.0000000
fix           :       0.0000000
Gborn         :       0.0000000
Gsasa         :       0.0000000
Ghb           :       0.0000000
Gshift        :       0.0000000
Gsolv         :      -0.8485463     -532.47
Etot ala COSMO:    -719.0634684
grad norm     :       0.7423752
total E       :    -709.3978602
atomizationE  :     136.2348132    85488.64
(atE without considering molecular charge,
 total energy contains solvation terms)
H-L gap (eV)  :          0.7543

------------------------------------------------------------------------
 * finished run on 2019/05/12 at 03:17:58.033     
------------------------------------------------------------------------
 total:
 * wall-time:     0 d,  0 h,  0 min, 22.952 sec
 *  cpu-time:     0 d,  0 h,  0 min, 44.722 sec
 * ratio c/w:     1.949 speedup
 SCF:
 * wall-time:     0 d,  0 h,  0 min, 22.496 sec
 *  cpu-time:     0 d,  0 h,  0 min, 44.242 sec
 * ratio c/w:     1.967 speedup

