      -----------------------------------------------------------      
     |                   =====================                   |     
     |                           x T B                           |     
     |                   =====================                   |     
     |                         S. Grimme                         |     
     |          Mulliken Center for Theoretical Chemistry        |     
     |                    University of Bonn                     |     
     |                 Version 6.0.1 (SAW181210)                 |     
      -----------------------------------------------------------      

   This program is distributed in the hope that it will be useful,
   but WITHOUT ANY WARRANTY; without even the implied warranty of
   MERCHANTABILITY or FITNESS FOR A PARTICULAR PURPOSE.
   
   FOR NON-COMMERCIAL, ACADEMIA USE ONLY.
   
   Cite this work as:
   S. Grimme, C. Bannwarth, P. Shushkov, J. Comput. Theory Chem., 2017,
   13, 1989-2009.
   C. Bannwarth, S. Ehlert and S. Grimme., ChemRxiv, 2018, preprint.
   http://doi.org/10.26434/chemrxiv.7246238.v1
   
   for sTDA-xTB:
   S. Grimme and C. Bannwarth, J. Chem. Phys., 2016, 145, 054103.
   
   in the mass-spec context:
   V. Asgeirsson, C. Bauer and S. Grimme, Chem. Sci., 2017, 8, 4879.
   
   if GBSA is used:
   P. Shushkov, F. März and S. Grimme, unpublished.
   
   for ANC optimizer:
   S. Grimme, unpublished.
   Rational Function algorithm used in ANCopt:
   F. Eckert, P. Pulay, H.-J. Werner, J. Comput. Chem., 1997, 18, 1473.
   
   with help from (in alphabetical order)
   C. Bannwarth, F. Bohle, G. Brandenburg, E. Caldeweyher, M. Checinski,
   S. Dohm, S. Ehlert, S. Ehrlich, F. März, H. Neugebauer, J. Pisarek,
   P. Pracht, P. Shushkov, and S. Spicher.
   
 * started run on 2019/05/11 at 17:06:06.711     
========================================================================
 # omp threads = 2
========================================================================
number of atoms            : 152
number of electrons        : 398
charge                     : 1
spin                       : .0
first test random number   : .1164

########################################################################
# WARNING! Please study the warnings concerning your input carefully
#  - Process number higher than OMP_NUM_THREADS, I hope you know what you are doing.
########################################################################

           ------------------------------------------------- 
          |                 G F N 2 - x T B                 |
          | Geometry, Frequencies, Noncovalent interactions |
          |            JCTC 2018 parametrisation            |
           ------------------------------------------------- 
 
      method parameters     
 k(s)        :  1.8500
 k(p)        :  2.2300
 k(d)        :  2.2300
 k(f)        :  2.0000
 kEN (H0ij)  : -2.0000
 D4 a1       :  0.5200
 D4 a2       :  5.0000
 D4 s6       :  1.0000
 D4 s8       :  2.7000
 D4 s9       :  5.0000
 alphaj      :  2.0000

 Solvent             : h2o
 Using internal parameter file: .param_gbsa2_h2o
 Gsolv ref. state (COSMO-RS): gsolv [1 M gas/solution]
 temperature (mdtemp)       :    298.150000000000     
 dielectric constant        :    80.2000000000000     
 rho                        :    1.00000000000000     
 mass                       :    18.0000000000000     
 surface tension            :    15.5689454083859     
 probe radius               :   0.975313790000000     
 vdW radii scaling          :    1.00000000000000     
 Gshift (Eh)                :   1.857443126794793E-003
 c1                         :    1.55243817000000     
 soset                      :   0.130326360000000     
 HB correction              :  T

            Z     q(EN)     CN     RAES       Cart. coordinates
     1  N   5.0   -0.07    4.33    3.83     8.76551    65.74194   -35.07310
     2  C   4.0    0.00    4.47    4.49     9.27619    66.38652   -32.35920
     3  C   4.0    0.15    3.39    3.08    11.77713    65.05684   -31.62239
     4  O   6.0   -0.31    1.30    1.80    12.77117    63.68334   -33.10367
     5  C   4.0   -0.04    4.31    4.22     6.97387    65.32947   -30.88407
     6  C   4.0   -0.04    4.26    4.11     4.89329    65.39929   -32.84579
     7  C   4.0   -0.03    4.28    4.15     6.23709    64.51355   -35.24536
     8  H   1.0    0.06    1.05    1.44     8.84615    67.31651   -36.18684
     9  H   1.0    0.09    1.10    1.44    10.23306    64.51421   -35.58893
    10  H   1.0    0.05    1.04    1.43     9.43802    68.42399   -32.11318
    11  H   1.0    0.05    1.02    1.43     7.34327    63.38033   -30.29916
    12  H   1.0    0.04    1.02    1.43     6.57023    66.43757   -29.22563
    13  H   1.0    0.05    1.02    1.43     3.32961    64.16418   -32.34801
    14  H   1.0    0.05    1.02    1.43     4.17240    67.31205   -33.07544
    15  H   1.0    0.05    1.02    1.43     6.48334    62.46255   -35.18151
    16  H   1.0    0.05    1.02    1.43     5.27704    65.04648   -36.96516
    17  N   5.0   -0.14    3.48    2.06    12.60367    65.54655   -29.28717
    18  C   4.0    0.04    4.51    4.55    14.58333    64.11550   -28.10579
    19  C   4.0    0.15    3.51    3.12    13.75540    63.60071   -25.39405
    20  O   6.0   -0.33    1.29    1.80    13.18627    65.35997   -24.03225
    21  C   4.0   -0.03    4.18    3.96    17.04303    65.57867   -28.09304
    22  S   6.0   -0.03    2.50    3.10    19.59973    63.56621   -26.73237
    23  H   1.0    0.09    1.07    1.44    11.68432    66.76580   -28.12779
    24  H   1.0    0.07    1.07    1.44    14.82529    62.30850   -29.14334
    25  H   1.0    0.05    1.05    1.44    17.61406    66.06607   -30.02447
    26  H   1.0    0.05    1.08    1.44    16.93119    67.23681   -26.92305
    27  N   5.0   -0.14    3.49    2.07    13.66418    61.17962   -24.73193
    28  C   4.0    0.04    4.32    4.24    12.77616    60.41178   -22.27075
    29  C   4.0    0.07    3.21    3.04    13.58702    57.70168   -21.68692
    30  O   6.0   -0.30    1.17    1.80    14.17009    56.18667   -23.33551
    31  C   4.0   -0.04    4.37    4.32     9.91214    60.74696   -22.08181
    32  C   4.0   -0.03    4.08    3.76     8.46891    59.38629   -24.07943
    33  S   6.0   -0.04    2.49    3.10     5.22338    60.66312   -24.30612
    34  C   4.0   -0.06    3.89    3.44     3.85007    59.36592   -21.47475
    35  H   1.0    0.12    1.10    1.44    14.07902    59.76478   -25.95796
    36  H   1.0    0.05    1.04    1.43    13.64571    61.67590   -20.82932
    37  H   1.0    0.04    1.03    1.43     9.33026    60.16185   -20.17849
    38  H   1.0    0.05    1.05    1.44     9.53337    62.76685   -22.24062
    39  H   1.0    0.05    1.08    1.44     9.27768    59.66164   -25.94480
    40  H   1.0    0.05    1.06    1.44     8.31360    57.35064   -23.72660
    41  H   1.0    0.05    1.05    1.44     1.81508    59.51435   -21.70139
    42  H   1.0    0.05    1.04    1.43     4.36579    57.37578   -21.35293
    43  H   1.0    0.04    1.05    1.44     4.51847    60.41690   -19.87545
    44  N   5.0   -0.19    3.19    1.95    15.31041    47.73903   -23.61681
    45  C   4.0    0.03    4.31    4.23    15.94814    50.20236   -24.75874
    46  C   4.0    0.15    3.40    3.08    14.63672    50.54621   -27.32475
    47  O   6.0   -0.27    1.22    1.80    14.18966    48.74104   -28.69984
    48  C   4.0   -0.04    4.36    4.30    18.81515    50.40471   -25.28881
    49  C   4.0   -0.04    4.06    3.72    20.31092    50.94418   -22.91760
    50  S   6.0   -0.00    2.47    3.10    23.67257    51.13279   -23.46558
    51  C   4.0   -0.05    3.89    3.45    23.73127    53.81186   -25.64554
    52  H   1.0    0.11    1.04    1.43    15.07794    46.35050   -24.85742
    53  H   1.0    0.06    1.05    1.44    15.37094    51.69567   -23.44215
    54  H   1.0    0.06    1.03    1.43    19.44970    48.62108   -26.14015
    55  H   1.0    0.05    1.05    1.44    19.10729    51.90368   -26.63522
    56  H   1.0    0.05    1.07    1.44    19.69998    52.71224   -22.06525
    57  H   1.0    0.05    1.06    1.44    20.05681    49.42622   -21.50132
    58  H   1.0    0.07    1.04    1.43    25.62991    54.65991   -25.41355
    59  H   1.0    0.06    1.04    1.43    23.51628    53.15847   -27.54993
    60  H   1.0    0.05    1.05    1.44    22.32088    55.12310   -25.07653
    61  N   5.0   -0.14    3.49    2.07    14.28517    52.95230   -27.91721
    62  C   4.0    0.04    4.32    4.24    13.43460    53.87891   -30.34012
    63  C   4.0    0.15    3.43    3.09    14.67309    56.43646   -30.75449
    64  O   6.0   -0.31    1.30    1.80    14.42298    58.11129   -29.18139
    65  C   4.0   -0.05    4.10    3.80    10.54200    54.21591   -30.38183
    66  H   1.0    0.11    1.10    1.44    14.47573    54.29480   -26.56807
    67  H   1.0    0.06    1.05    1.44    14.00659    52.50400   -31.79639
    68  H   1.0    0.06    1.00    1.43     9.93206    54.83519   -32.23907
    69  H   1.0    0.06    1.00    1.43     9.65478    52.41248   -29.95526
    70  H   1.0    0.06    1.00    1.43     9.99958    55.59383   -28.97200
    71  N   5.0   -0.12    3.45    2.05    15.94464    56.76564   -32.90701
    72  C   4.0    0.04    4.28    4.16    17.19684    59.14528   -33.52970
    73  C   4.0    0.09    3.24    3.04    17.78686    59.19525   -36.33066
    74  O   6.0   -0.25    1.15    1.80    17.74214    57.24279   -37.60228
    75  C   4.0    0.04    4.16    3.92    19.68841    59.44223   -32.03282
    76  O   6.0   -0.23    2.05    1.83    21.52507    57.66715   -32.70989
    77  H   1.0    0.11    1.08    1.44    16.28628    55.33388   -34.10679
    78  H   1.0    0.07    1.05    1.44    15.92026    60.70503   -33.03622
    79  H   1.0    0.04    1.01    1.43    20.36923    61.37667   -32.26883
    80  H   1.0    0.06    1.02    1.43    19.28821    59.13464   -30.01854
    81  H   1.0    0.13    1.03    1.43    22.25024    58.17602   -34.31058
    82  N   5.0   -0.20    3.27    1.97    25.82496    63.65263   -27.91353
    83  C   4.0    0.04    4.39    4.36    26.17084    65.64315   -26.06294
    84  C   4.0    0.15    3.45    3.10    27.07096    64.68476   -23.48422
    85  O   6.0   -0.28    1.23    1.80    27.90954    66.17781   -21.95133
    86  C   4.0   -0.04    4.20    3.99    23.81088    67.24004   -25.68520
    87  S   6.0   -0.03    2.49    3.10    21.22369    65.65575   -24.10576
    88  H   1.0    0.09    1.08    1.44    24.11249    62.83558   -28.06152
    89  H   1.0    0.06    1.06    1.44    27.65592    66.88551   -26.78360
    90  H   1.0    0.06    1.08    1.44    24.25933    68.80566   -24.39682
    91  H   1.0    0.04    1.07    1.44    23.15496    68.01580   -27.46796
    92  N   5.0   -0.13    3.56    2.12    26.76997    62.22879   -23.05833
    93  C   4.0    0.04    4.40    4.37    27.41853    60.93896   -20.74760
    94  C   4.0    0.08    3.24    3.04    28.55308    58.37406   -21.46095
    95  O   6.0   -0.28    1.17    1.80    28.36999    57.57748   -23.61136
    96  C   4.0   -0.02    4.26    4.13    25.05295    60.57257   -19.08291
    97  C   4.0   -0.06    4.13    3.86    24.13182    63.10184   -18.12263
    98  C   4.0   -0.07    4.13    3.85    22.94023    59.18216   -20.47052
    99  H   1.0    0.10    1.10    1.44    26.33985    61.05051   -24.53012
   100  H   1.0    0.06    1.06    1.44    28.82278    62.04696   -19.72858
   101  H   1.0    0.05    1.05    1.44    25.68277    59.43697   -17.46129
   102  H   1.0    0.05    1.00    1.43    22.48032    62.87192   -16.89725
   103  H   1.0    0.06    1.00    1.43    25.59261    64.05236   -17.05077
   104  H   1.0    0.06    1.02    1.43    23.57322    64.32749   -19.67762
   105  H   1.0    0.05    1.00    1.43    21.40012    58.81665   -19.17756
   106  H   1.0    0.05    1.01    1.43    22.25125    60.29689   -22.02949
   107  H   1.0    0.05    1.00    1.43    23.65276    57.37149   -21.18102
   108  N   5.0   -0.19    3.24    1.96    11.33489    66.20037   -15.81451
   109  C   4.0    0.03    4.40    4.38    10.74521    67.15991   -18.29850
   110  C   4.0    0.15    3.42    3.08    12.03637    69.76703   -18.69806
   111  O   6.0   -0.28    1.21    1.80    11.97154    71.42691   -17.04676
   112  C   4.0   -0.02    4.36    4.31     7.86790    67.32390   -18.63131
   113  C   4.0   -0.04    4.21    4.02     7.26274    68.40419   -21.22685
   114  C   4.0   -0.06    4.17    3.93     6.68554    68.88014   -16.57085
   115  C   4.0   -0.07    4.02    3.65     4.42667    68.25819   -21.82712
   116  H   1.0    0.10    1.02    1.43    11.23835    67.47078   -14.35765
   117  H   1.0    0.05    1.06    1.44    11.53669    65.84282   -19.68837
   118  H   1.0    0.04    1.06    1.44     7.16119    65.39929   -18.54329
   119  H   1.0    0.06    1.02    1.43     7.88523    70.37859   -21.36655
   120  H   1.0    0.05    1.02    1.43     8.32800    67.36021   -22.68234
   121  H   1.0    0.05    1.00    1.43     4.62706    68.87636   -16.74590
   122  H   1.0    0.05    1.00    1.43     7.15466    68.11858   -14.71562
   123  H   1.0    0.07    1.00    1.43     7.33220    70.83381   -16.67052
   124  H   1.0    0.05    0.99    1.43     4.11993    68.85107   -23.81143
   125  H   1.0    0.04    1.00    1.43     3.79767    66.32622   -21.64907
   126  H   1.0    0.05    1.01    1.43     3.36218    69.49088   -20.64490
   127  N   5.0   -0.14    3.49    2.07    13.24581    70.02476   -20.91383
   128  C   4.0    0.04    4.34    4.27    14.33627    72.37438   -21.73921
   129  C   4.0    0.09    3.25    3.04    12.16930    74.06077   -22.61807
   130  O   6.0   -0.28    1.15    1.80    10.84229    73.39249   -24.35227
   131  C   4.0   -0.04    4.38    4.35    16.12901    71.81153   -23.92905
   132  C   4.0   -0.02    4.17    3.94    18.26695    73.71107   -24.29503
   133  C   4.0   -0.07    4.11    3.81    19.60227    73.13584   -26.81178
   134  C   4.0   -0.06    4.13    3.87    17.34652    76.40407   -24.24945
   135  H   1.0    0.10    1.10    1.44    13.05517    68.62187   -22.18825
   136  H   1.0    0.06    1.05    1.44    15.37543    73.16985   -20.12052
   137  H   1.0    0.05    1.03    1.43    16.99058    69.95079   -23.57828
   138  H   1.0    0.06    1.04    1.43    14.99632    71.72616   -25.64609
   139  H   1.0    0.05    1.05    1.44    19.65199    73.45523   -22.74933
   140  H   1.0    0.05    1.00    1.43    21.23038    74.38536   -27.04534
   141  H   1.0    0.04    1.00    1.43    20.29145    71.20742   -26.84829
   142  H   1.0    0.05    1.00    1.43    18.32479    73.44640   -28.37111
   143  H   1.0    0.05    0.99    1.43    18.86384    77.69020   -24.86130
   144  H   1.0    0.06    1.00    1.43    15.75062    76.67265   -25.49825
   145  H   1.0    0.05    1.00    1.43    16.83575    76.97476   -22.34922
   146  H   1.0    0.05    1.05    1.44    13.65745    57.10144   -19.89644
   147  H   1.0    0.10    1.07    1.44    16.55772    47.26144   -22.56388
   148  H   1.0    0.06    1.04    1.44    18.22101    60.82875   -37.17581
   149  H   1.0    0.10    1.07    1.44    26.15034    64.26020   -29.46837
   150  H   1.0    0.06    1.04    1.44    29.45104    57.34250   -20.15687
   151  H   1.0    0.09    1.08    1.44    10.25149    64.95121   -15.41651
   152  H   1.0    0.06    1.04    1.44    11.85043    75.71377   -21.75960

  Z AO/shell   Hii/eV     exponent
  1     Wed Apr 25 08:07:45 CEST 2018   EN: 2.200 GM2: 0.406  GM3: 0.0800  RAES: 1.40
     1s    -10.707211    1.230000
  6     Wed Apr 25 08:07:45 CEST 2018   EN: 2.550 GM2: 0.538  GM3: 0.1500  RAES: 3.00
     2s    -13.970922    2.096432
     2p    -10.063292    1.800000
  7     Wed Apr 25 08:07:45 CEST 2018   EN: 3.040 GM2: 0.461  GM3:-0.0640  RAES: 1.90
     2s    -16.686243    2.339881
     2p    -12.523956    2.014332
  8     Wed Apr 25 08:07:45 CEST 2018   EN: 3.440 GM2: 0.452  GM3:-0.0517  RAES: 1.80
     2s    -20.229985    2.439742
     2p    -15.503117    2.137023
 16     Tue Apr 24 11:44:34 CEST 2018   EN: 2.580 GM2: 0.340  GM3:-0.0502  RAES: 3.10
     3s    -20.029654    1.981333
     3p    -11.377694    2.025643
     3d     -0.420282    1.702555
 no old-style atom pair restraining (fixing) potential

molecular fragmentation (1/2 indicates fragments):
111111111111111111111111111111111111111111122222222222222222222222222222
222222222111111111111111111111111112222222222222222222222222222222222222
21221122
# atoms in fragment 1/2:    72    80
 fragment masses (1/2) :      536.74      519.70
CMA distance (Bohr)    :   2.072
constraining FC (au)   :  0.0500
           ------------------------------------------------- 
          |        Self-Consistent Charge Iterations        |
           ------------------------------------------------- 

 Ncao       : 383
 Nao        : 379
 Nshell     : 225
 Nel        : 398
 T(el)      :   500.0
 intcut     :    35.0
 scfconv/Eh :  0.100E-06
   qconv/e  :  0.100E-04
 intneglect :  0.100E-08
 broydamp   :      0.400
 iter      E             dE          RMSdq      gap      omega  full diag
   1   -225.2980495 -0.225298E+03  0.464E+00    2.98       0.0  T
   2   -225.8005116 -0.502462E+00  0.220E+00    1.51       1.0  T
   3   -225.8284880 -0.279764E-01  0.120E+00    1.78       1.0  T
   4   -225.8621563 -0.336683E-01  0.293E-01    1.31       1.0  T
   5   -225.8636464 -0.149010E-02  0.149E-01    1.44       1.0  T
   6   -225.8641474 -0.500934E-03  0.743E-02    1.41       1.0  T
   7   -225.8642431 -0.957341E-04  0.449E-02    1.42       1.0  T
   8   -225.8642808 -0.377351E-04  0.234E-02    1.43       1.0  T
   9   -225.8642917 -0.108361E-04  0.128E-02    1.43       1.0  T
  10   -225.8642948 -0.307703E-05  0.509E-03    1.43       1.6  T
  11   -225.8642953 -0.545467E-06  0.237E-03    1.43       3.4  T
  12   -225.8642954 -0.130622E-06  0.987E-04    1.43       8.2  T
  13   -225.8642954 -0.115842E-07  0.449E-04    1.43      18.1  T
  14   -225.8642954 -0.460531E-08  0.202E-04    1.43      40.2  T
  15   -225.8642954 -0.475353E-09  0.873E-05    1.43      92.9  T
  16   -225.8642954 -0.116358E-09  0.382E-05    1.43     212.3  T
speedup  2.00
cpu  time for SCC    0.91 s
wall time for SCC    0.45 s

   *** convergence criteria satisfied after 16 iterations ***

          eigenvalues
 #    :         187        188        189        190        191        192        193        194
 occ. :        2.000      2.000      2.000      2.000      2.000      2.000      2.000      2.000
 eps  :       -11.254    -11.089    -11.018    -10.899    -10.809    -10.786    -10.702    -10.599
 #    :         195        196        197        198        199        200        201        202
 occ. :        2.000      2.000      2.000      2.000      2.000      0.000      0.000      0.000
 eps  :       -10.245    -10.049     -9.919     -9.793     -9.639     -8.208     -8.133     -7.890
 #    :         203        204        205        206        207        208        209        210
 occ. :        0.000      0.000      0.000      0.000      0.000      0.000      0.000      0.000
 eps  :        -7.850     -6.685     -6.614     -6.373     -6.202     -5.966     -5.927     -5.797


   #   Z            q   n(s)   n(p)   n(d)      C6AA      α(0)
   1   7 N     -0.059  1.236  3.823  0.000    22.375     7.025
   2   6 C     -0.035  1.089  2.946  0.000    21.193     6.553
   3   6 C      0.274  1.028  2.697  0.000    22.361     7.743
   4   8 O     -0.430  1.723  4.707  0.000    22.295     6.331
   5   6 C     -0.080  1.055  3.025  0.000    22.013     6.676
   6   6 C     -0.085  1.051  3.034  0.000    22.093     6.688
   7   6 C     -0.045  1.063  2.982  0.000    21.419     6.597
   8   1 H      0.279  0.721  0.000  0.000     0.779     1.383
   9   1 H      0.286  0.714  0.000  0.000     0.758     1.364
  10   1 H      0.126  0.874  0.000  0.000     1.563     1.955
  11   1 H      0.082  0.918  0.000  0.000     1.963     2.191
  12   1 H      0.092  0.908  0.000  0.000     1.857     2.131
  13   1 H      0.094  0.906  0.000  0.000     1.837     2.119
  14   1 H      0.086  0.914  0.000  0.000     1.916     2.164
  15   1 H      0.114  0.886  0.000  0.000     1.663     2.017
  16   1 H      0.116  0.884  0.000  0.000     1.642     2.004
  17   7 N     -0.153  1.229  3.924  0.000    24.309     7.323
  18   6 C     -0.002  1.063  2.939  0.000    20.596     6.457
  19   6 C      0.274  1.035  2.691  0.000    22.373     7.746
  20   8 O     -0.471  1.730  4.740  0.000    23.141     6.450
  21   6 C     -0.046  1.083  2.962  0.000    21.391     6.585
  22  16 S     -0.103  1.918  4.093  0.092   145.355    20.292
  23   1 H      0.219  0.781  0.000  0.000     1.014     1.578
  24   1 H      0.104  0.896  0.000  0.000     1.746     2.067
  25   1 H      0.091  0.909  0.000  0.000     1.874     2.141
  26   1 H      0.084  0.916  0.000  0.000     1.934     2.174
  27   7 N     -0.159  1.237  3.923  0.000    24.447     7.343
  28   6 C      0.021  1.059  2.920  0.000    20.228     6.405
  29   6 C      0.195  1.087  2.718  0.000    23.828     7.994
  30   8 O     -0.357  1.746  4.611  0.000    20.842     6.121
  31   6 C     -0.065  1.049  3.016  0.000    21.708     6.628
  32   6 C     -0.016  1.062  2.954  0.000    20.868     6.505
  33  16 S     -0.200  1.912  4.242  0.045   149.553    20.583
  34   6 C     -0.057  1.050  3.008  0.000    21.676     6.641
  35   1 H      0.241  0.759  0.000  0.000     0.921     1.503
  36   1 H      0.097  0.903  0.000  0.000     1.813     2.106
  37   1 H      0.058  0.942  0.000  0.000     2.222     2.331
  38   1 H      0.087  0.913  0.000  0.000     1.911     2.162
  39   1 H      0.075  0.925  0.000  0.000     2.031     2.229
  40   1 H      0.046  0.954  0.000  0.000     2.370     2.407
  41   1 H      0.060  0.940  0.000  0.000     2.194     2.317
  42   1 H      0.050  0.950  0.000  0.000     2.314     2.379
  43   1 H      0.052  0.948  0.000  0.000     2.299     2.371
  44   7 N     -0.395  1.322  4.073  0.000    30.248     8.168
  45   6 C      0.017  1.071  2.911  0.000    20.296     6.417
  46   6 C      0.276  1.040  2.684  0.000    22.326     7.737
  47   8 O     -0.506  1.754  4.753  0.000    23.928     6.558
  48   6 C     -0.061  1.052  3.009  0.000    21.645     6.619
  49   6 C     -0.001  1.062  2.938  0.000    20.603     6.463
  50  16 S     -0.250  1.923  4.274  0.053   151.791    20.736
  51   6 C     -0.061  1.053  3.008  0.000    21.742     6.652
  52   1 H      0.160  0.840  0.000  0.000     1.333     1.809
  53   1 H      0.058  0.942  0.000  0.000     2.228     2.334
  54   1 H      0.040  0.960  0.000  0.000     2.455     2.450
  55   1 H      0.045  0.955  0.000  0.000     2.381     2.413
  56   1 H      0.053  0.947  0.000  0.000     2.285     2.364
  57   1 H      0.045  0.955  0.000  0.000     2.378     2.412
  58   1 H      0.070  0.930  0.000  0.000     2.081     2.256
  59   1 H      0.059  0.941  0.000  0.000     2.206     2.323
  60   1 H      0.068  0.932  0.000  0.000     2.104     2.268
  61   7 N     -0.180  1.242  3.939  0.000    24.909     7.412
  62   6 C      0.024  1.058  2.918  0.000    20.188     6.399
  63   6 C      0.268  1.043  2.689  0.000    22.472     7.763
  64   8 O     -0.466  1.721  4.744  0.000    23.034     6.435
  65   6 C     -0.126  1.043  3.083  0.000    22.964     6.833
  66   1 H      0.227  0.773  0.000  0.000     0.979     1.550
  67   1 H      0.057  0.943  0.000  0.000     2.238     2.340
  68   1 H      0.072  0.928  0.000  0.000     2.068     2.249
  69   1 H      0.058  0.942  0.000  0.000     2.217     2.328
  70   1 H      0.073  0.927  0.000  0.000     2.057     2.243
  71   7 N     -0.153  1.233  3.919  0.000    24.302     7.322
  72   6 C      0.004  1.067  2.929  0.000    20.526     6.453
  73   6 C      0.196  1.081  2.723  0.000    23.811     7.992
  74   8 O     -0.369  1.767  4.602  0.000    21.063     6.153
  75   6 C      0.068  1.039  2.892  0.000    19.647     6.350
  76   8 O     -0.465  1.723  4.742  0.000    22.152     6.354
  77   1 H      0.215  0.785  0.000  0.000     1.030     1.590
  78   1 H      0.130  0.870  0.000  0.000     1.533     1.936
  79   1 H      0.060  0.940  0.000  0.000     2.200     2.319
  80   1 H      0.083  0.917  0.000  0.000     1.945     2.181
  81   1 H      0.333  0.667  0.000  0.000     0.630     1.246
  82   7 N     -0.396  1.313  4.083  0.000    30.264     8.170
  83   6 C      0.031  1.055  2.914  0.000    20.045     6.374
  84   6 C      0.275  1.039  2.686  0.000    22.346     7.741
  85   8 O     -0.511  1.752  4.759  0.000    24.018     6.571
  86   6 C     -0.020  1.071  2.949  0.000    20.932     6.514
  87  16 S     -0.124  1.936  4.077  0.110   146.242    20.354
  88   1 H      0.170  0.830  0.000  0.000     1.273     1.768
  89   1 H      0.051  0.949  0.000  0.000     2.306     2.375
  90   1 H      0.052  0.948  0.000  0.000     2.297     2.370
  91   1 H      0.064  0.936  0.000  0.000     2.155     2.295
  92   7 N     -0.157  1.230  3.927  0.000    24.387     7.334
  93   6 C      0.021  1.061  2.918  0.000    20.225     6.404
  94   6 C      0.198  1.085  2.717  0.000    23.780     7.986
  95   8 O     -0.353  1.748  4.606  0.000    20.774     6.111
  96   6 C     -0.011  1.061  2.950  0.000    20.735     6.476
  97   6 C     -0.109  1.037  3.072  0.000    22.641     6.784
  98   6 C     -0.117  1.037  3.080  0.000    22.798     6.808
  99   1 H      0.224  0.776  0.000  0.000     0.991     1.559
 100   1 H      0.085  0.915  0.000  0.000     1.927     2.171
 101   1 H      0.048  0.952  0.000  0.000     2.344     2.394
 102   1 H      0.054  0.946  0.000  0.000     2.269     2.356
 103   1 H      0.040  0.960  0.000  0.000     2.444     2.445
 104   1 H      0.043  0.957  0.000  0.000     2.404     2.425
 105   1 H      0.059  0.941  0.000  0.000     2.215     2.328
 106   1 H      0.056  0.944  0.000  0.000     2.245     2.343
 107   1 H      0.041  0.959  0.000  0.000     2.434     2.440
 108   7 N     -0.386  1.318  4.069  0.000    29.994     8.134
 109   6 C      0.023  1.067  2.909  0.000    20.198     6.401
 110   6 C      0.268  1.054  2.678  0.000    22.473     7.763
 111   8 O     -0.517  1.765  4.752  0.000    24.158     6.590
 112   6 C     -0.020  1.061  2.959  0.000    20.892     6.500
 113   6 C     -0.058  1.053  3.005  0.000    21.620     6.620
 114   6 C     -0.099  1.032  3.067  0.000    22.442     6.754
 115   6 C     -0.112  1.038  3.074  0.000    22.705     6.795
 116   1 H      0.148  0.852  0.000  0.000     1.415     1.864
 117   1 H      0.053  0.947  0.000  0.000     2.280     2.361
 118   1 H      0.038  0.962  0.000  0.000     2.474     2.460
 119   1 H      0.015  0.985  0.000  0.000     2.810     2.621
 120   1 H      0.041  0.959  0.000  0.000     2.437     2.441
 121   1 H      0.039  0.961  0.000  0.000     2.467     2.456
 122   1 H      0.030  0.970  0.000  0.000     2.587     2.515
 123   1 H      0.030  0.970  0.000  0.000     2.592     2.518
 124   1 H      0.044  0.956  0.000  0.000     2.396     2.421
 125   1 H      0.050  0.950  0.000  0.000     2.320     2.382
 126   1 H      0.037  0.963  0.000  0.000     2.487     2.466
 127   7 N     -0.177  1.253  3.924  0.000    24.840     7.402
 128   6 C      0.034  1.054  2.912  0.000    20.015     6.371
 129   6 C      0.212  1.079  2.709  0.000    23.518     7.942
 130   8 O     -0.344  1.735  4.609  0.000    20.592     6.084
 131   6 C     -0.075  1.062  3.014  0.000    21.928     6.665
 132   6 C     -0.010  1.056  2.954  0.000    20.723     6.475
 133   6 C     -0.119  1.043  3.075  0.000    22.824     6.811
 134   6 C     -0.115  1.039  3.076  0.000    22.746     6.800
 135   1 H      0.235  0.765  0.000  0.000     0.943     1.521
 136   1 H      0.062  0.938  0.000  0.000     2.179     2.308
 137   1 H      0.063  0.937  0.000  0.000     2.166     2.302
 138   1 H      0.073  0.927  0.000  0.000     2.052     2.240
 139   1 H      0.029  0.971  0.000  0.000     2.607     2.525
 140   1 H      0.039  0.961  0.000  0.000     2.457     2.451
 141   1 H      0.040  0.960  0.000  0.000     2.444     2.445
 142   1 H      0.057  0.943  0.000  0.000     2.238     2.339
 143   1 H      0.044  0.956  0.000  0.000     2.390     2.418
 144   1 H      0.043  0.957  0.000  0.000     2.409     2.427
 145   1 H      0.030  0.970  0.000  0.000     2.591     2.517
 146   1 H      0.086  0.914  0.000  0.000     1.916     2.164
 147   1 H      0.178  0.822  0.000  0.000     1.226     1.734
 148   1 H      0.098  0.902  0.000  0.000     1.805     2.101
 149   1 H      0.190  0.810  0.000  0.000     1.157     1.685
 150   1 H      0.076  0.924  0.000  0.000     2.015     2.220
 151   1 H      0.184  0.816  0.000  0.000     1.194     1.711
 152   1 H      0.057  0.943  0.000  0.000     2.230     2.335

 Mol. C6AA /au·bohr⁶  :     221589.813712
 Mol. C8AA /au·bohr⁸  :    5337579.080619
 Mol. α(0) /au        :        710.157863

 
molecular dipole:
                 x           y           z       tot (Debye)
 q only:        7.779      66.768     -35.133
   full:        8.234      67.389     -34.660     193.751
molecular quadrupole (traceless):
                xx          xy          yy          xz          yz          zz
 q only:    -2757.694     816.469    3751.959    -443.972   -3570.462    -994.265
  q+dip:    -2783.462     879.924    3843.607    -466.336   -3549.163   -1060.145
   full:    -2776.400     881.733    3838.405    -466.732   -3551.251   -1062.005
speedup  2.00
cpu  time for grad    1.19 s
wall time for grad    0.60 s

SCC energy    :    -225.8735518
rep           :       2.6853304
ES            :       0.5511501
AES           :      -0.0187775
AXC           :       0.0951446
disp          :      -0.1753317
XB            :       0.0000000
fix           :       0.0000000
Gborn         :       0.0000000
Gsasa         :       0.0000000
Ghb           :       0.0000000
Gshift        :       0.0000000
Gsolv         :      -0.1599436     -100.37
Etot ala COSMO:    -225.8735518
grad norm     :       0.4276933
total E       :    -223.1769084
atomizationE  :      39.8020866    24976.19
(atE without considering molecular charge,
 total energy contains solvation terms)
H-L gap (eV)  :          1.4312

------------------------------------------------------------------------
 * finished run on 2019/05/11 at 17:06:07.552     
------------------------------------------------------------------------
 total:
 * wall-time:     0 d,  0 h,  0 min,  0.840 sec
 *  cpu-time:     0 d,  0 h,  0 min,  1.498 sec
 * ratio c/w:     1.782 speedup
 SCF:
 * wall-time:     0 d,  0 h,  0 min,  0.666 sec
 *  cpu-time:     0 d,  0 h,  0 min,  1.331 sec
 * ratio c/w:     1.999 speedup

