      -----------------------------------------------------------      
     |                   =====================                   |     
     |                           x T B                           |     
     |                   =====================                   |     
     |                         S. Grimme                         |     
     |          Mulliken Center for Theoretical Chemistry        |     
     |                    University of Bonn                     |     
     |                 Version 6.0.1 (SAW181210)                 |     
      -----------------------------------------------------------      

   This program is distributed in the hope that it will be useful,
   but WITHOUT ANY WARRANTY; without even the implied warranty of
   MERCHANTABILITY or FITNESS FOR A PARTICULAR PURPOSE.
   
   FOR NON-COMMERCIAL, ACADEMIA USE ONLY.
   
   Cite this work as:
   S. Grimme, C. Bannwarth, P. Shushkov, J. Comput. Theory Chem., 2017,
   13, 1989-2009.
   C. Bannwarth, S. Ehlert and S. Grimme., ChemRxiv, 2018, preprint.
   http://doi.org/10.26434/chemrxiv.7246238.v1
   
   for sTDA-xTB:
   S. Grimme and C. Bannwarth, J. Chem. Phys., 2016, 145, 054103.
   
   in the mass-spec context:
   V. Asgeirsson, C. Bauer and S. Grimme, Chem. Sci., 2017, 8, 4879.
   
   if GBSA is used:
   P. Shushkov, F. März and S. Grimme, unpublished.
   
   for ANC optimizer:
   S. Grimme, unpublished.
   Rational Function algorithm used in ANCopt:
   F. Eckert, P. Pulay, H.-J. Werner, J. Comput. Chem., 1997, 18, 1473.
   
   with help from (in alphabetical order)
   C. Bannwarth, F. Bohle, G. Brandenburg, E. Caldeweyher, M. Checinski,
   S. Dohm, S. Ehlert, S. Ehrlich, F. März, H. Neugebauer, J. Pisarek,
   P. Pracht, P. Shushkov, and S. Spicher.
   
 * started run on 2019/02/20 at 00:09:55.918     
========================================================================
 # omp threads = 18
========================================================================
number of atoms            : 908
number of electrons        : 2592
charge                     : -3
spin                       : .0
first test random number   : .6003

########################################################################
# WARNING! Please study the warnings concerning your input carefully
#  - Process number higher than OMP_NUM_THREADS, I hope you know what you are doing.
########################################################################

           ------------------------------------------------- 
          |                 G F N 2 - x T B                 |
          | Geometry, Frequencies, Noncovalent interactions |
          |            JCTC 2018 parametrisation            |
           ------------------------------------------------- 
 
      method parameters     
 k(s)        :  1.8500
 k(p)        :  2.2300
 k(d)        :  2.2300
 k(f)        :  2.0000
 kEN (H0ij)  : -2.0000
 D4 a1       :  0.5200
 D4 a2       :  5.0000
 D4 s6       :  1.0000
 D4 s8       :  2.7000
 D4 s9       :  5.0000
 alphaj      :  2.0000

 Solvent             : h2o
 Using internal parameter file: .param_gbsa2_h2o
 Gsolv ref. state (COSMO-RS): gsolv [1 M gas/solution]
 temperature (mdtemp)       :    298.150000000000     
 dielectric constant        :    80.2000000000000     
 rho                        :    1.00000000000000     
 mass                       :    18.0000000000000     
 surface tension            :    15.5689454083859     
 probe radius               :   0.975313790000000     
 vdW radii scaling          :    1.00000000000000     
 Gshift (Eh)                :   1.857443126794793E-003
 c1                         :    1.55243817000000     
 soset                      :   0.130326360000000     
 HB correction              :  T

            Z     q(EN)     CN     RAES       Cart. coordinates
     1  N   5.0   -0.23    3.27    1.97   104.36201   176.61001   195.98159
     2  C   4.0    0.02    4.48    4.50   105.12734   178.27108   198.04706
     3  C   4.0    0.15    3.47    3.10   106.52196   176.72906   200.04072
     4  O   6.0   -0.30    1.23    1.80   105.76418   174.59556   200.63409
     5  C   4.0   -0.03    4.38    4.34   102.84456   179.69215   199.20168
     6  C   4.0   -0.08    4.27    4.14   100.70917   177.88368   199.69490
     7  C   4.0   -0.08    4.24    4.09   103.59289   181.03575   201.66210
     8  H   1.0    0.11    1.08    1.44   103.50974   175.31555   196.46725
     9  H   1.0    0.04    1.16    1.46   106.25551   179.55420   197.38188
    10  H   1.0    0.04    1.12    1.45   102.29465   180.95827   197.99604
    11  H   1.0    0.04    1.06    1.44    99.29187   178.79264   200.41678
    12  H   1.0    0.04    1.06    1.44   100.19327   177.10134   198.11887
    13  H   1.0    0.06    1.06    1.44   101.26285   176.58733   200.86653
    14  H   1.0    0.04    1.05    1.44   102.13591   181.91069   202.34808
    15  H   1.0    0.07    1.06    1.44   104.19004   179.79987   202.87720
    16  H   1.0    0.05    1.05    1.44   104.92514   182.24706   201.31817
    17  N   5.0   -0.16    3.57    2.13   108.57987   177.81754   201.06495
    18  C   4.0    0.04    4.54    4.59   110.08787   176.55710   202.96791
    19  C   4.0    0.16    3.49    3.11   109.79875   177.92715   205.49069
    20  O   6.0   -0.29    1.25    1.80   108.03563   179.40680   205.86674
    21  C   4.0   -0.05    4.32    4.23   112.82798   176.35489   202.07218
    22  S   6.0   -0.13    2.45    3.10   114.83676   179.08555   202.33107
    23  H   1.0    0.09    1.21    1.47   109.11467   179.29720   200.66055
    24  H   1.0    0.06    1.14    1.45   109.50017   174.84122   203.22869
    25  H   1.0    0.05    1.15    1.45   113.61977   174.99240   203.00759
    26  H   1.0    0.04    1.19    1.46   112.80152   175.85034   200.31095
    27  N   5.0   -0.17    3.55    2.11   111.50706   177.39046   207.25758
    28  C   4.0    0.03    4.44    4.45   111.26328   178.37690   209.80682
    29  C   4.0    0.16    3.45    3.09   112.71837   180.81654   210.26792
    30  O   6.0   -0.29    1.24    1.80   112.23460   182.07510   212.17654
    31  C   4.0   -0.07    4.22    4.05   112.09665   176.36434   211.71167
    32  H   1.0    0.10    1.14    1.45   112.81664   176.45883   207.01192
    33  H   1.0    0.06    1.15    1.45   109.49261   178.79264   210.02792
    34  H   1.0    0.06    1.06    1.44   111.93225   177.02764   213.41242
    35  H   1.0    0.06    1.05    1.44   111.04030   174.87713   211.53214
    36  H   1.0    0.05    1.07    1.44   113.84465   175.91270   211.39797
    37  N   5.0   -0.15    3.51    2.09   114.52117   181.47038   208.62952
    38  C   4.0    0.04    4.43    4.42   115.80430   183.90435   208.76936
    39  C   4.0    0.17    3.47    3.10   113.89000   186.06620   208.74102
    40  O   6.0   -0.27    1.24    1.80   111.91902   185.90368   207.49569
    41  C   4.0   -0.08    4.22    4.04   117.64111   184.15946   206.55649
    42  H   1.0    0.09    1.15    1.45   115.02762   180.51607   207.41443
    43  H   1.0    0.06    1.13    1.45   116.74160   183.99317   210.34162
    44  H   1.0    0.05    1.06    1.44   118.49338   185.77896   206.65287
    45  H   1.0    0.04    1.05    1.44   118.88077   182.81209   206.63208
    46  H   1.0    0.05    1.06    1.44   116.71703   184.04797   204.97857
    47  N   5.0   -0.16    3.54    2.10   114.50605   188.10899   210.11863
    48  C   4.0    0.04    4.49    4.52   112.66546   190.13289   210.55704
    49  C   4.0    0.16    3.46    3.10   112.00973   191.48971   208.11363
    50  O   6.0   -0.27    1.23    1.80   109.80064   192.10954   207.64687
    51  C   4.0   -0.05    4.37    4.33   113.66324   192.01694   212.52236
    52  C   4.0   -0.04    4.27    4.14   113.34576   191.14389   215.27380
    53  C   4.0    0.16    3.28    3.05   115.01817   188.84976   215.93143
    54  O   6.0   -0.30    1.30    1.80   116.47704   187.90679   214.34783
    55  N   5.0   -0.24    3.25    1.97   114.76873   187.92191   218.25768
    56  H   1.0    0.12    1.16    1.46   115.96114   188.34899   210.80271
    57  H   1.0    0.07    1.13    1.45   111.13478   189.36377   211.20711
    58  H   1.0    0.05    1.09    1.44   115.44147   192.32308   212.19922
    59  H   1.0    0.05    1.09    1.44   112.79396   193.61565   212.30504
    60  H   1.0    0.04    1.09    1.44   113.75583   192.53284   216.39819
    61  H   1.0    0.05    1.09    1.44   111.58832   190.71492   215.57238
    62  H   1.0    0.12    1.10    1.44   113.74260   188.62111   219.30648
    63  H   1.0    0.12    1.09    1.44   115.63422   186.62367   218.71121
    64  N   5.0   -0.16    3.51    2.09   113.89000   191.95269   206.52059
    65  C   4.0    0.04    4.52    4.57   113.43080   192.86921   203.97135
    66  C   4.0    0.15    3.46    3.10   113.95992   190.74327   202.09296
    67  O   6.0   -0.30    1.23    1.80   115.91579   190.66201   200.79472
    68  C   4.0   -0.03    4.39    4.36   114.99360   195.23893   203.44034
    69  C   4.0    0.16    3.29    3.05   113.43836   197.65589   203.67088
    70  O   6.0   -0.27    1.22    1.80   111.49383   197.70313   204.95023
    71  N   5.0   -0.24    3.22    1.96   114.28118   199.66655   202.40855
    72  H   1.0    0.09    1.13    1.45   115.46037   191.74482   206.88531
    73  H   1.0    0.08    1.15    1.45   111.67524   193.36054   203.78805
    74  H   1.0    0.05    1.09    1.44   116.40334   195.31074   204.61008
    75  H   1.0    0.05    1.10    1.44   115.70225   195.13310   201.75281
    76  H   1.0    0.12    1.09    1.44   113.45915   201.06684   202.46902
    77  H   1.0    0.10    1.09    1.44   115.64745   199.56262   201.53360
    78  N   5.0   -0.15    3.51    2.08   112.19303   188.94614   202.01737
    79  C   4.0    0.03    4.61    4.68   112.26295   187.04696   200.04261
    80  C   4.0    0.15    3.60    3.17   111.61288   188.35654   197.61242
    81  O   6.0   -0.29    1.25    1.80   109.60222   189.51306   197.39510
    82  C   4.0   -0.05    4.26    4.11   110.43181   184.86811   200.53016
    83  S   6.0   -0.14    2.46    3.10   109.98016   182.75729   197.79762
    84  H   1.0    0.11    1.13    1.45   110.96660   188.80441   203.07373
    85  H   1.0    0.04    1.15    1.45   113.93347   186.29485   199.98214
    86  H   1.0    0.05    1.14    1.45   111.04786   183.88167   201.94745
    87  H   1.0    0.06    1.13    1.45   108.80664   185.55786   201.02338
    88  N   5.0   -0.17    3.67    2.23   113.34954   188.19592   195.81340
    89  C   4.0    0.03    4.55    4.60   113.21159   189.52251   193.42101
    90  C   4.0    0.15    3.45    3.10   111.65257   188.07309   191.49727
    91  O   6.0   -0.29    1.25    1.80   112.07020   188.27907   189.21826
    92  C   4.0   -0.04    4.46    4.47   115.90067   189.99116   192.56118
    93  C   4.0   -0.03    4.45    4.46   117.48426   190.59776   194.86665
    94  C   4.0    0.16    3.30    3.05   120.26216   190.53351   194.32241
    95  O   6.0   -0.30    1.23    1.80   121.04451   189.54140   192.37599
    96  N   5.0   -0.24    3.22    1.96   121.79662   191.53128   196.07041
    97  H   1.0    0.09    1.19    1.46   114.68369   187.27940   195.96080
    98  H   1.0    0.06    1.13    1.45   112.34421   191.12688   193.60998
    99  H   1.0    0.06    1.10    1.44   116.56397   188.51339   191.70136
   100  H   1.0    0.05    1.09    1.44   115.95736   191.37822   191.36499
   101  H   1.0    0.05    1.10    1.44   117.02884   192.25883   195.49404
   102  H   1.0    0.06    1.14    1.45   117.10065   189.39778   196.19702
   103  H   1.0    0.11    1.09    1.44   121.17112   192.20970   197.40833
   104  H   1.0    0.12    1.08    1.44   123.40666   191.49349   195.85498
   105  N   5.0   -0.16    3.56    2.12   109.84599   186.65201   192.44591
   106  C   4.0    0.03    4.48    4.50   108.12823   184.96071   191.13822
   107  C   4.0    0.16    3.55    3.14   109.21860   183.93837   188.67969
   108  O   6.0   -0.29    1.29    1.80   108.18870   184.49961   186.66524
   109  C   4.0   -0.04    4.40    4.37   105.63190   186.33454   190.65256
   110  C   4.0   -0.06    4.28    4.16   103.78186   186.21171   192.90322
   111  C   4.0   -0.02    4.32    4.24   101.26096   187.42113   192.28528
   112  N   5.0   -0.17    3.43    2.04    99.19549   186.22871   193.67612
   113  C   4.0    0.10    3.47    3.10    97.66104   184.47127   192.70858
   114  N   5.0   -0.25    3.30    1.98    97.95394   183.67569   190.32186
   115  N   5.0   -0.25    3.28    1.98    95.82611   183.49428   194.13722
   116  H   1.0    0.10    1.19    1.46   109.56064   186.65012   194.04651
   117  H   1.0    0.04    1.13    1.45   107.84855   183.50562   192.21725
   118  H   1.0    0.06    1.09    1.44   105.98150   188.09009   190.26139
   119  H   1.0    0.06    1.10    1.44   104.82688   185.60699   189.17480
   120  H   1.0    0.05    1.09    1.44   103.51730   184.46182   193.38133
   121  H   1.0    0.05    1.09    1.44   104.52452   187.05641   194.35075
   122  H   1.0    0.04    1.09    1.44   101.32144   189.20692   192.69158
   123  H   1.0    0.04    1.10    1.44   100.94349   187.29074   190.48438
   124  H   1.0    0.09    1.13    1.45    98.95172   186.68792   195.21625
   125  H   1.0    0.10    1.09    1.44    99.13691   184.29741   189.39778
   126  H   1.0    0.10    1.09    1.44    96.95806   182.54375   189.71526
   127  H   1.0    0.10    1.09    1.44    95.63714   183.99695   195.67167
   128  H   1.0    0.10    1.09    1.44    94.83401   182.36233   193.52306
   129  N   5.0   -0.08    3.69    2.26   111.27462   182.45682   188.75339
   130  C   4.0    0.03    4.57    4.63   112.28752   181.37779   186.40635
   131  C   4.0    0.08    3.27    3.05   110.25228   179.92270   185.01740
   132  O   6.0   -0.29    1.13    1.80   108.86711   178.40147   186.12478
   133  C   4.0   -0.05    4.51    4.56   114.40401   179.62601   187.31531
   134  C   4.0   -0.05    4.46    4.48   115.09187   180.55954   189.76817
   135  C   4.0   -0.02    4.46    4.49   112.65412   181.46660   190.94925
   136  H   1.0    0.05    1.12    1.45   112.89034   182.64579   185.22716
   137  H   1.0    0.05    1.10    1.44   113.83142   177.88746   187.40412
   138  H   1.0    0.04    1.09    1.44   115.83264   179.66192   186.16824
   139  H   1.0    0.04    1.10    1.44   115.86666   179.24429   190.78106
   140  H   1.0    0.05    1.10    1.44   116.31074   181.92392   189.63778
   141  H   1.0    0.04    1.08    1.44   111.74327   180.10600   191.77317
   142  H   1.0    0.04    1.08    1.44   112.94514   182.75918   192.21536
   143  N   5.0   -0.23    3.27    1.97   122.26149   165.98786   194.55296
   144  C   4.0    0.03    4.40    4.39   121.60386   166.45462   197.15700
   145  C   4.0    0.15    3.44    3.09   123.75059   165.61747   198.90499
   146  O   6.0   -0.30    1.23    1.80   125.32851   164.00365   198.28516
   147  C   4.0   -0.04    4.38    4.35   119.18313   165.10347   197.86753
   148  C   4.0   -0.02    3.70    3.24   116.81719   165.72708   196.41434
   149  C   4.0   -0.02    3.64    3.19   116.18980   164.90693   194.06352
   150  C   4.0    0.01    3.91    3.47   114.66668   167.14815   197.31573
   151  N   5.0   -0.15    3.53    2.10   113.81441   165.77432   193.42668
   152  C   4.0    0.03    3.93    3.51   112.84876   167.12925   195.40900
   153  C   4.0   -0.05    3.47    3.10   114.09976   168.37080   199.57207
   154  C   4.0   -0.06    3.47    3.10   110.50172   168.32923   195.67545
   155  C   4.0   -0.04    3.46    3.10   111.77729   169.54810   199.82718
   156  C   4.0   -0.04    3.46    3.10   110.01040   169.50464   197.90911
   157  H   1.0    0.11    1.08    1.44   122.58274   164.44017   194.17312
   158  H   1.0    0.05    1.13    1.45   121.33741   168.25742   197.35542
   159  H   1.0    0.05    1.10    1.44   119.47981   163.30256   197.70691
   160  H   1.0    0.05    1.10    1.44   118.85620   165.43606   199.64010
   161  H   1.0    0.04    1.08    1.44   117.21025   163.90916   193.03740
   162  H   1.0    0.08    1.10    1.44   113.06041   165.50598   192.01127
   163  H   1.0    0.06    1.09    1.44   115.26383   168.39726   200.88921
   164  H   1.0    0.05    1.09    1.44   109.32254   168.32167   194.37154
   165  H   1.0    0.06    1.10    1.44   111.39934   170.38714   201.32384
   166  H   1.0    0.06    1.10    1.44   108.45704   170.29265   198.14721
   167  N   5.0   -0.17    3.56    2.12   123.79406   166.78910   201.12164
   168  C   4.0    0.04    4.60    4.66   125.43812   165.99542   203.16255
   169  C   4.0    0.14    3.48    3.11   123.98492   166.33935   205.62864
   170  O   6.0   -0.31    1.30    1.80   122.29928   167.95506   205.82895
   171  C   4.0   -0.02    4.41    4.40   127.92122   167.50342   203.14554
   172  C   4.0   -0.08    4.30    4.19   127.33918   170.23785   203.54427
   173  C   4.0   -0.08    4.25    4.09   129.70890   166.50375   205.16755
   174  H   1.0    0.13    1.17    1.46   122.86431   168.07223   201.47880
   175  H   1.0    0.06    1.13    1.45   125.91244   164.23608   202.96413
   176  H   1.0    0.05    1.13    1.45   128.75837   167.30878   201.52604
   177  H   1.0    0.04    1.06    1.44   128.89821   171.20350   203.53671
   178  H   1.0    0.06    1.06    1.44   126.24503   170.83312   202.19879
   179  H   1.0    0.06    1.07    1.44   126.49637   170.45517   205.15810
   180  H   1.0    0.04    1.06    1.44   131.26603   167.46940   205.13731
   181  H   1.0    0.05    1.06    1.44   128.92088   166.66627   206.81539
   182  H   1.0    0.06    1.06    1.44   130.07929   164.73875   204.83873
   183  N   5.0   -0.16    3.49    2.07   124.63310   164.78221   207.50703
   184  C   4.0    0.03    4.48    4.51   123.20257   164.55545   209.85218
   185  C   4.0    0.15    3.49    3.11   124.91466   164.99386   212.10662
   186  O   6.0   -0.28    1.24    1.80   127.02738   164.01498   212.20867
   187  C   4.0   -0.04    4.37    4.33   121.99126   161.91550   210.02792
   188  C   4.0   -0.03    4.33    4.26   120.76861   161.36748   212.59606
   189  C   4.0    0.17    3.30    3.05   119.71603   158.69919   212.79637
   190  O   6.0   -0.30    1.25    1.80   120.96325   156.91150   212.07072
   191  N   5.0   -0.24    3.24    1.97   117.38789   158.45352   213.62974
   192  H   1.0    0.11    1.14    1.45   125.93890   163.81656   207.44656
   193  H   1.0    0.06    1.14    1.45   121.88921   165.83479   209.84084
   194  H   1.0    0.06    1.10    1.44   120.72136   161.75298   208.71645
   195  H   1.0    0.07    1.09    1.44   123.27060   160.64560   209.69344
   196  H   1.0    0.07    1.10    1.44   122.01016   161.62637   213.92076
   197  H   1.0    0.05    1.09    1.44   119.41745   162.57123   212.88708
   198  H   1.0    0.12    1.10    1.44   116.56019   159.76121   214.12674
   199  H   1.0    0.12    1.09    1.44   116.69247   156.98520   213.67698
   200  N   5.0   -0.16    3.49    2.07   123.97169   166.45084   213.93398
   201  C   4.0    0.04    4.54    4.59   125.53827   167.25397   216.04103
   202  C   4.0    0.17    3.51    3.12   126.34897   165.00898   217.65108
   203  O   6.0   -0.27    1.25    1.80   124.89577   163.24776   218.10461
   204  C   4.0   -0.06    4.28    4.16   124.10775   169.18716   217.67375
   205  S   6.0   -0.12    2.56    3.10   126.01449   170.70650   220.20599
   206  H   1.0    0.11    1.14    1.45   122.43912   166.98752   213.98123
   207  H   1.0    0.06    1.14    1.45   127.04628   168.04010   215.35884
   208  H   1.0    0.04    1.14    1.45   123.44068   170.49674   216.57960
   209  H   1.0    0.04    1.15    1.45   122.67156   168.35002   218.44665
   210  N   5.0   -0.16    3.57    2.13   128.66766   165.11103   218.56948
   211  C   4.0    0.04    4.52    4.56   129.43111   163.33090   220.52346
   212  C   4.0    0.15    3.43    3.09   128.96435   164.35513   223.18986
   213  O   6.0   -0.27    1.24    1.80   128.36719   162.88115   224.91896
   214  C   4.0   -0.03    4.35    4.29   132.21468   162.62415   220.14551
   215  C   4.0    0.26    3.16    3.03   132.72301   161.56212   217.51880
   216  O   6.0   -0.27    1.19    1.80   131.07706   160.20530   216.48512
   217  O   6.0   -0.30    1.20    1.80   134.75825   162.07802   216.46811
   218  H   1.0    0.13    1.17    1.46   129.81094   166.16927   218.10461
   219  H   1.0    0.08    1.14    1.45   128.39365   161.82857   220.36283
   220  H   1.0    0.05    1.09    1.44   133.25969   164.10569   220.41386
   221  H   1.0    0.06    1.09    1.44   132.70412   161.38638   221.40596
   222  N   5.0   -0.17    3.46    2.05   129.07962   166.85902   223.52056
   223  C   4.0    0.01    4.32    4.23   129.09663   168.10624   225.98288
   224  C   4.0    0.16    3.36    3.07   126.85919   167.52421   227.70064
   225  O   6.0   -0.29    1.23    1.80   126.88943   168.33679   229.89272
   226  H   1.0    0.10    1.19    1.46   129.15143   167.90215   222.27713
   227  H   1.0    0.06    1.09    1.44   130.63675   167.63759   226.85971
   228  H   1.0    0.04    1.09    1.44   129.16466   169.91849   225.71454
   229  N   5.0   -0.15    3.43    2.04   124.93923   166.17116   226.78412
   230  C   4.0    0.02    4.36    4.30   122.81518   165.50409   228.38283
   231  C   4.0    0.15    3.35    3.07   120.26216   165.54188   227.08648
   232  O   6.0   -0.26    1.22    1.80   118.99793   163.57846   226.96365
   233  H   1.0    0.12    1.14    1.45   124.84097   165.63070   225.25533
   234  H   1.0    0.07    1.09    1.44   123.10053   163.82601   229.06502
   235  H   1.0    0.06    1.10    1.44   122.76605   166.66060   229.80390
   236  N   5.0   -0.17    3.50    2.08   119.51194   167.75664   226.07925
   237  C   4.0    0.03    4.50    4.54   116.93246   168.20451   225.17219
   238  C   4.0    0.16    3.52    3.12   116.18413   166.46596   223.00656
   239  O   6.0   -0.28    1.23    1.80   113.91835   166.25809   222.43208
   240  C   4.0   -0.04    4.22    4.03   116.63011   170.97484   224.37283
   241  S   6.0   -0.12    2.31    3.10   117.75449   171.89892   221.23967
   242  H   1.0    0.09    1.17    1.46   120.49838   169.03788   225.90729
   243  H   1.0    0.06    1.13    1.45   115.80619   167.82845   226.56680
   244  H   1.0    0.06    1.14    1.45   114.84998   171.39625   224.47677
   245  H   1.0    0.04    1.15    1.45   117.49938   172.01230   225.60871
   246  N   5.0   -0.15    3.54    2.11   118.05685   165.26409   221.79147
   247  C   4.0    0.04    4.52    4.57   117.67135   163.27421   219.91497
   248  C   4.0    0.16    3.46    3.10   115.87422   164.09435   217.81548
   249  O   6.0   -0.30    1.24    1.80   114.38700   162.59580   216.80637
   250  C   4.0   -0.02    4.39    4.37   116.79829   160.84591   221.18486
   251  C   4.0    0.25    3.16    3.03   118.99415   159.36626   222.23366
   252  O   6.0   -0.26    1.22    1.80   121.04640   160.51710   222.51901
   253  O   6.0   -0.28    1.17    1.80   118.70314   157.07024   222.71743
   254  H   1.0    0.10    1.14    1.45   119.62532   165.60046   222.05036
   255  H   1.0    0.06    1.14    1.45   119.28517   162.94540   219.10994
   256  H   1.0    0.07    1.10    1.44   115.62855   161.24843   222.53791
   257  H   1.0    0.06    1.10    1.44   115.88555   159.81412   219.97544
   258  N   5.0   -0.15    3.55    2.11   116.07453   166.49619   217.09928
   259  C   4.0    0.03    4.54    4.59   114.55897   167.53554   215.07538
   260  C   4.0    0.15    3.44    3.09   116.15201   167.83790   212.70188
   261  O   6.0   -0.31    1.24    1.80   118.48960   167.96451   212.77369
   262  C   4.0   -0.05    4.39    4.37   113.36277   170.02620   215.89363
   263  C   4.0   -0.03    4.31    4.22   110.93636   169.53865   217.36195
   264  C   4.0    0.24    3.15    3.03   109.11278   171.72318   217.28825
   265  O   6.0   -0.28    1.17    1.80   106.82432   171.28476   216.81015
   266  O   6.0   -0.29    1.18    1.80   109.96882   173.87557   217.76068
   267  H   1.0    0.10    1.14    1.45   117.09687   167.56011   217.78147
   268  H   1.0    0.06    1.15    1.45   113.19458   166.37525   214.68421
   269  H   1.0    0.06    1.10    1.44   114.54007   170.96918   216.93298
   270  H   1.0    0.05    1.10    1.44   113.00183   171.05610   214.42153
   271  H   1.0    0.06    1.10    1.44   110.11433   168.04955   216.68165
   272  H   1.0    0.07    1.09    1.44   111.35777   169.16827   219.10805
   273  N   5.0   -0.16    3.50    2.08   114.82731   167.84735   210.57405
   274  C   4.0    0.04    4.53    4.58   115.98193   167.77365   208.08528
   275  C   4.0    0.15    3.47    3.10   116.03106   170.37769   206.88909
   276  O   6.0   -0.31    1.23    1.80   114.07331   171.64759   206.67744
   277  C   4.0   -0.04    4.42    4.41   114.54196   165.99920   206.34674
   278  C   4.0   -0.02    3.76    3.29   114.98227   163.31201   206.92499
   279  C   4.0   -0.01    3.66    3.21   113.57820   161.82290   208.46512
   280  C   4.0    0.00    3.94    3.52   116.96270   161.75298   205.94233
   281  N   5.0   -0.14    3.54    2.10   114.54763   159.41350   208.49724
   282  C   4.0    0.04    3.95    3.53   116.62633   159.32657   206.95901
   283  C   4.0   -0.05    3.47    3.10   118.96392   162.17061   204.26426
   284  C   4.0   -0.05    3.47    3.10   118.22503   157.34803   206.39587
   285  C   4.0   -0.04    3.45    3.10   120.53806   160.19018   203.68600
   286  C   4.0   -0.05    3.46    3.10   120.16389   157.80723   204.74236
   287  H   1.0    0.10    1.14    1.45   113.20403   167.89837   210.53815
   288  H   1.0    0.06    1.14    1.45   117.69969   167.17083   208.30638
   289  H   1.0    0.05    1.10    1.44   112.74861   166.35635   206.47524
   290  H   1.0    0.05    1.11    1.44   115.03140   166.32990   204.61197
   291  H   1.0    0.05    1.08    1.44   112.16657   162.35392   209.36652
   292  H   1.0    0.09    1.11    1.44   113.94670   158.16439   209.34573
   293  H   1.0    0.06    1.09    1.44   119.22281   163.75798   203.55561
   294  H   1.0    0.06    1.10    1.44   117.99638   155.75877   207.11207
   295  H   1.0    0.07    1.10    1.44   121.87410   160.44340   202.57295
   296  H   1.0    0.05    1.10    1.44   121.25616   156.49765   204.31528
   297  N   5.0   -0.15    3.59    2.15   118.26094   171.11468   206.01981
   298  C   4.0    0.04    4.57    4.63   118.56141   173.45228   204.62142
   299  C   4.0    0.15    3.49    3.11   119.26060   172.89292   201.90210
   300  O   6.0   -0.31    1.28    1.80   120.56641   171.02020   201.39943
   301  C   4.0   -0.04    4.50    4.54   120.55696   175.00752   205.85541
   302  C   4.0   -0.01    3.69    3.23   120.19980   175.22673   208.61063
   303  C   4.0   -0.04    3.53    3.13   121.47725   173.65448   210.23957
   304  C   4.0   -0.05    3.56    3.14   118.51038   176.98795   209.58951
   305  C   4.0   -0.04    3.45    3.09   121.09175   173.86613   212.83605
   306  C   4.0   -0.05    3.47    3.10   118.13811   177.21094   212.14819
   307  C   4.0   -0.05    3.45    3.10   119.40611   175.65192   213.77714
   308  H   1.0    0.13    1.17    1.46   119.63666   170.27376   206.22390
   309  H   1.0    0.05    1.15    1.45   116.98160   174.38202   204.62331
   310  H   1.0    0.05    1.11    1.45   122.19724   174.26486   205.51715
   311  H   1.0    0.04    1.11    1.44   120.56263   176.68371   205.11274
   312  H   1.0    0.06    1.10    1.44   122.59597   172.45261   209.61029
   313  H   1.0    0.05    1.11    1.45   117.61843   178.03108   208.49346
   314  H   1.0    0.05    1.09    1.44   121.96291   172.81355   213.94154
   315  H   1.0    0.06    1.10    1.44   117.02506   178.42037   212.77369
   316  H   1.0    0.05    1.10    1.44   119.14155   175.78609   215.51002
   317  N   5.0   -0.16    3.51    2.09   118.33275   174.46328   200.14277
   318  C   4.0    0.03    4.51    4.56   119.54028   174.54643   197.66911
   319  C   4.0    0.15    3.51    3.12   122.26338   175.43082   197.94501
   320  O   6.0   -0.30    1.27    1.80   122.79439   177.21850   199.31507
   321  C   4.0   -0.06    4.42    4.41   118.23637   176.30009   195.79451
   322  C   4.0    0.01    3.87    3.42   115.47359   175.84089   195.42223
   323  N   5.0   -0.18    3.58    2.14   113.63300   177.40936   196.37465
   324  C   4.0   -0.01    3.67    3.21   114.25094   173.93794   194.23737
   325  C   4.0    0.01    3.84    3.39   111.38234   176.53820   195.70947
   326  N   5.0   -0.13    3.53    2.10   111.70926   174.43871   194.39611
   327  H   1.0    0.09    1.18    1.46   117.05907   175.45161   200.34119
   328  H   1.0    0.05    1.13    1.45   119.43446   172.84000   197.00771
   329  H   1.0    0.04    1.14    1.45   118.46881   178.02919   196.35575
   330  H   1.0    0.04    1.10    1.44   119.07541   176.14702   194.17312
   331  H   1.0    0.05    1.07    1.44   114.99171   172.54710   193.45880
   332  H   1.0    0.04    1.09    1.44   109.83654   177.27708   196.10064
   333  H   1.0    0.08    1.11    1.45   110.52440   173.53542   193.74793
   334  N   5.0   -0.17    3.46    2.05   123.99626   174.19872   196.59575
   335  C   4.0    0.03    4.42    4.42   126.64754   174.96595   196.78283
   336  C   4.0    0.09    3.26    3.04   126.98580   177.72306   196.02505
   337  O   6.0   -0.30    1.14    1.80   128.18389   179.18381   197.40266
   338  C   4.0   -0.05    4.39    4.37   128.32562   173.25574   195.17657
   339  C   4.0   -0.04    4.32    4.24   128.78860   170.71406   196.39733
   340  C   4.0    0.16    3.28    3.05   130.23046   168.87158   194.71358
   341  O   6.0   -0.29    1.21    1.80   131.37564   169.59535   192.81441
   342  N   5.0   -0.24    3.23    1.96   130.15110   166.46218   195.40144
   343  H   1.0    0.09    1.13    1.45   123.69390   172.95528   195.59419
   344  H   1.0    0.06    1.13    1.45   127.15966   174.79398   198.53461
   345  H   1.0    0.05    1.10    1.44   127.54327   173.00630   193.53817
   346  H   1.0    0.07    1.10    1.44   129.93189   174.08722   194.88177
   347  H   1.0    0.04    1.09    1.44   129.72591   170.96162   197.95257
   348  H   1.0    0.05    1.10    1.44   127.17667   169.96951   196.85464
   349  H   1.0    0.12    1.09    1.44   129.33473   166.02565   196.73748
   350  H   1.0    0.12    1.09    1.44   130.91643   165.33779   194.51138
   351  N   5.0   -0.22    3.32    1.99   123.03250   182.58154   196.23859
   352  C   4.0    0.04    4.48    4.51   122.10842   184.21804   198.27194
   353  C   4.0    0.15    3.45    3.10   123.91122   184.40891   200.50748
   354  O   6.0   -0.30    1.24    1.80   123.63721   186.10588   202.08729
   355  C   4.0   -0.04    4.27    4.13   119.60831   183.22594   199.27916
   356  S   6.0   -0.15    2.55    3.10   117.24616   182.90468   196.97369
   357  H   1.0    0.11    1.11    1.45   122.01394   181.37212   195.86632
   358  H   1.0    0.06    1.13    1.45   121.93646   185.88100   197.51983
   359  H   1.0    0.05    1.16    1.46   119.89177   181.59510   200.06718
   360  H   1.0    0.05    1.16    1.45   119.00738   184.35788   200.59063
   361  N   5.0   -0.16    3.53    2.10   125.70079   182.69870   200.72858
   362  C   4.0    0.04    4.52    4.56   127.40343   182.63823   202.87720
   363  C   4.0    0.08    3.25    3.04   130.12842   183.05208   202.03816
   364  O   6.0   -0.30    1.14    1.80   131.82728   183.43381   203.60474
   365  C   4.0   -0.02    4.46    4.48   127.00848   180.15324   204.33229
   366  C   4.0   -0.07    4.39    4.37   129.01348   179.68648   206.11808
   367  C   4.0   -0.08    4.30    4.19   124.55940   180.25151   205.77604
   368  H   1.0    0.13    1.16    1.45   125.97102   181.52896   199.63254
   369  H   1.0    0.07    1.14    1.45   127.02549   184.01584   204.02615
   370  H   1.0    0.05    1.14    1.45   126.98769   178.80587   203.09074
   371  H   1.0    0.05    1.08    1.44   128.69790   178.10856   206.99491
   372  H   1.0    0.06    1.08    1.44   130.61219   179.58066   205.22802
   373  H   1.0    0.06    1.07    1.44   129.08151   181.05653   207.33317
   374  H   1.0    0.04    1.06    1.44   124.32318   178.67926   206.68878
   375  H   1.0    0.05    1.06    1.44   124.60475   181.64613   206.96468
   376  H   1.0    0.05    1.06    1.44   123.16856   180.49339   204.60630
   377  N   5.0   -0.22    3.29    1.98   134.72612   179.87167   198.28138
   378  C   4.0    0.03    4.36    4.30   136.34940   177.74384   198.91444
   379  C   4.0    0.07    3.27    3.05   136.54215   176.13758   196.53906
   380  O   6.0   -0.28    1.14    1.80   134.69400   175.81443   195.15200
   381  C   4.0   -0.03    4.37    4.33   135.32328   176.20561   201.20479
   382  C   4.0   -0.08    4.24    4.08   132.50569   175.64814   200.91377
   383  C   4.0   -0.09    4.24    4.08   136.78214   173.77353   201.55628
   384  H   1.0    0.13    1.09    1.44   133.53182   179.48806   197.24959
   385  H   1.0    0.04    1.12    1.45   138.00480   178.32777   199.44357
   386  H   1.0    0.04    1.13    1.45   135.55382   177.23740   202.70145
   387  H   1.0    0.04    1.06    1.44   131.91799   174.69005   202.36319
   388  H   1.0    0.06    1.06    1.44   131.57784   177.22606   200.80795
   389  H   1.0    0.06    1.06    1.44   132.22979   174.67304   199.38687
   390  H   1.0    0.04    1.06    1.44   136.10562   172.85512   202.99058
   391  H   1.0    0.05    1.06    1.44   136.62908   172.74552   200.04639
   392  H   1.0    0.04    1.06    1.44   138.54904   174.15714   201.85675
   393  N   5.0   -0.22    3.25    1.97   145.28591   162.30100   206.73224
   394  C   4.0    0.03    4.40    4.37   145.34827   163.29122   209.30983
   395  C   4.0    0.16    3.47    3.10   142.69699   163.72586   210.31138
   396  O   6.0   -0.29    1.25    1.80   140.90364   164.07357   208.87330
   397  C   4.0   -0.05    4.38    4.34   146.82226   165.78566   209.50447
   398  C   4.0   -0.04    4.28    4.15   149.68708   165.46629   209.57439
   399  C   4.0    0.24    3.15    3.03   150.81903   165.37748   206.94578
   400  O   6.0   -0.29    1.18    1.80   152.21365   167.16516   206.30138
   401  O   6.0   -0.30    1.21    1.80   150.32014   163.54633   205.52848
   402  H   1.0    0.12    1.08    1.44   144.57915   163.28933   205.65321
   403  H   1.0    0.04    1.13    1.45   146.20432   162.02132   210.31705
   404  H   1.0    0.06    1.10    1.44   146.38006   166.84768   208.07772
   405  H   1.0    0.05    1.10    1.44   146.28935   166.67194   211.01814
   406  H   1.0    0.05    1.09    1.44   150.43352   166.85335   210.51358
   407  H   1.0    0.04    1.09    1.44   150.10660   163.92428   210.47201
   408  N   5.0   -0.15    3.51    2.08   142.48156   163.76365   212.80960
   409  C   4.0    0.04    4.54    4.60   140.03436   164.09057   214.02091
   410  C   4.0    0.16    3.46    3.10   138.91564   166.70595   213.49179
   411  O   6.0   -0.29    1.25    1.80   140.14397   168.41616   212.49968
   412  C   4.0   -0.03    4.41    4.40   140.25546   163.67294   216.86306
   413  C   4.0    0.25    3.18    3.03   140.89608   160.99331   217.49990
   414  O   6.0   -0.27    1.21    1.80   140.36695   159.33791   215.89363
   415  O   6.0   -0.29    1.18    1.80   141.89763   160.54167   219.58238
   416  H   1.0    0.09    1.14    1.45   143.73067   163.60302   213.83761
   417  H   1.0    0.07    1.14    1.45   138.90053   162.83769   213.31038
   418  H   1.0    0.05    1.10    1.44   141.54425   164.78410   217.54336
   419  H   1.0    0.06    1.10    1.44   138.67376   164.12837   217.66997
   420  N   5.0   -0.17    3.48    2.07   136.51569   167.00264   214.16264
   421  C   4.0    0.04    4.53    4.58   135.24013   169.41960   213.83761
   422  C   4.0    0.15    3.49    3.11   133.57906   169.95817   216.12040
   423  O   6.0   -0.31    1.29    1.80   131.68555   168.66371   216.56826
   424  C   4.0   -0.03    4.39    4.36   133.64331   169.54999   211.40931
   425  C   4.0   -0.01    3.65    3.20   132.16554   172.00097   211.34317
   426  C   4.0   -0.05    3.53    3.13   133.30127   174.23462   210.54949
   427  C   4.0   -0.04    3.54    3.13   129.69000   172.10679   212.21055
   428  C   4.0   -0.04    3.51    3.12   132.00492   176.47206   210.57972
   429  C   4.0   -0.05    3.50    3.12   128.37475   174.35556   212.24646
   430  C   4.0    0.07    3.56    3.14   129.55583   176.52686   211.43199
   431  O   6.0   -0.28    2.18    1.85   128.30105   178.78319   211.45089
   432  H   1.0    0.12    1.14    1.45   135.59351   165.82912   214.80893
   433  H   1.0    0.06    1.15    1.45   136.54782   170.69328   213.68454
   434  H   1.0    0.05    1.09    1.44   134.72990   169.43472   209.93910
   435  H   1.0    0.06    1.09    1.44   132.49436   168.12325   211.33939
   436  H   1.0    0.06    1.10    1.44   134.96612   174.20628   209.99013
   437  H   1.0    0.07    1.10    1.44   128.90766   170.63847   212.77558
   438  H   1.0    0.06    1.10    1.44   132.77970   177.94793   210.02603
   439  H   1.0    0.05    1.10    1.44   126.71179   174.40470   212.81338
   440  H   1.0    0.13    1.11    1.44   126.83085   178.56776   212.00835
   441  N   5.0   -0.16    3.55    2.12   134.27448   171.94049   217.47911
   442  C   4.0    0.03    4.57    4.63   132.81939   172.98173   219.56537
   443  C   4.0    0.16    3.50    3.11   131.52682   175.34578   218.56192
   444  O   6.0   -0.28    1.25    1.80   132.77592   177.00307   217.49234
   445  C   4.0   -0.03    4.44    4.45   134.53904   173.58078   221.82737
   446  C   4.0   -0.05    4.32    4.24   136.16420   171.26586   222.49255
   447  C   4.0   -0.08    4.24    4.07   132.95923   174.44438   224.06481
   448  C   4.0   -0.08    4.13    3.87   138.65864   171.06177   221.06959
   449  H   1.0    0.10    1.14    1.45   135.65776   172.74741   217.20132
   450  H   1.0    0.05    1.14    1.45   131.57595   171.77987   220.17386
   451  H   1.0    0.05    1.13    1.45   135.67476   174.94894   221.38139
   452  H   1.0    0.04    1.10    1.44   136.51947   171.29988   224.28968
   453  H   1.0    0.05    1.10    1.44   135.18344   169.75219   222.16941
   454  H   1.0    0.05    1.06    1.44   134.05905   174.81855   225.48210
   455  H   1.0    0.06    1.06    1.44   132.02192   175.95049   223.60560
   456  H   1.0    0.05    1.06    1.44   131.78760   173.11590   224.53535
   457  H   1.0    0.05    1.05    1.44   139.54870   169.55377   221.61005
   458  H   1.0    0.05    1.06    1.44   138.32983   170.96540   219.26868
   459  H   1.0    0.05    1.05    1.44   139.68665   172.53765   221.42297
   460  N   5.0   -0.16    3.57    2.13   129.03994   175.52719   218.86617
   461  C   4.0    0.03    4.55    4.61   127.72469   177.71361   217.83438
   462  C   4.0    0.16    3.51    3.12   128.12720   179.95293   219.60127
   463  O   6.0   -0.29    1.27    1.80   129.64843   179.89813   221.37006
   464  C   4.0   -0.05    4.19    3.99   124.92033   177.16181   217.39218
   465  S   6.0   -0.14    2.48    3.10   122.93423   176.66859   220.24000
   466  H   1.0    0.09    1.23    1.47   128.10641   174.44438   219.63718
   467  H   1.0    0.06    1.14    1.45   128.41822   178.12368   216.18843
   468  H   1.0    0.04    1.13    1.45   124.20980   178.55265   216.43409
   469  H   1.0    0.04    1.13    1.45   124.79183   175.66514   216.34150
   470  N   5.0   -0.17    3.57    2.13   126.78738   182.00518   219.07404
   471  C   4.0    0.03    4.58    4.64   127.17478   184.29363   220.54425
   472  C   4.0    0.15    3.46    3.10   126.06362   183.99506   223.18041
   473  O   6.0   -0.29    1.24    1.80   127.35430   184.50339   225.05691
   474  C   4.0   -0.03    4.41    4.40   126.19023   186.61800   219.08727
   475  C   4.0   -0.05    4.34    4.28   123.43501   186.36477   218.26146
   476  C   4.0   -0.08    4.22    4.03   127.82295   187.01862   216.68543
   477  C   4.0   -0.07    4.16    3.92   121.44891   187.04885   220.18142
   478  H   1.0    0.09    1.14    1.45   125.66867   182.11289   217.90052
   479  H   1.0    0.06    1.14    1.45   128.96813   184.58276   220.78991
   480  H   1.0    0.05    1.12    1.45   126.30361   188.04096   220.23811
   481  H   1.0    0.05    1.10    1.44   123.18368   187.41546   216.78180
   482  H   1.0    0.04    1.11    1.44   123.15155   184.63000   217.74178
   483  H   1.0    0.05    1.05    1.44   127.20879   188.47938   215.76513
   484  H   1.0    0.05    1.05    1.44   129.56906   187.29452   217.17109
   485  H   1.0    0.05    1.05    1.44   127.71335   185.53329   215.61584
   486  H   1.0    0.06    1.06    1.44   119.78406   186.81642   219.45010
   487  H   1.0    0.06    1.09    1.44   121.62465   185.97171   221.65352
   488  H   1.0    0.08    1.08    1.44   121.65678   188.80063   220.67842
   489  N   5.0   -0.16    3.54    2.11   123.78839   182.89524   223.37695
   490  C   4.0    0.04    4.50    4.54   122.60920   182.51918   225.85438
   491  C   4.0    0.16    3.47    3.10   124.08696   180.63512   227.46442
   492  O   6.0   -0.29    1.24    1.80   124.35909   180.98472   229.76044
   493  C   4.0   -0.05    4.38    4.35   119.86532   181.64991   225.54257
   494  C   4.0    0.15    3.29    3.05   118.09086   183.79475   224.78479
   495  O   6.0   -0.30    1.23    1.80   118.72014   186.00573   225.07581
   496  N   5.0   -0.24    3.22    1.96   115.84965   183.13901   223.83048
   497  H   1.0    0.09    1.13    1.45   122.91344   182.36233   222.11461
   498  H   1.0    0.07    1.13    1.45   122.62810   184.12923   226.72932
   499  H   1.0    0.04    1.09    1.44   119.79162   180.32899   224.27268
   500  H   1.0    0.05    1.09    1.44   119.28328   180.91291   227.11671
   501  H   1.0    0.13    1.09    1.44   114.78573   184.28607   223.39395
   502  H   1.0    0.10    1.09    1.44   115.46981   181.56865   223.65285
   503  N   5.0   -0.16    3.63    2.18   125.08474   178.65280   226.30224
   504  C   4.0    0.04    4.63    4.70   126.42645   176.71394   227.70064
   505  C   4.0    0.16    3.49    3.11   129.15332   177.40558   228.22031
   506  O   6.0   -0.29    1.25    1.80   130.47613   175.93916   229.46186
   507  C   4.0   -0.04    4.28    4.16   126.35275   174.26297   226.22476
   508  S   6.0   -0.13    2.68    3.10   123.24982   173.23118   225.67107
   509  H   1.0    0.10    1.16    1.46   125.00348   178.39769   224.69975
   510  H   1.0    0.06    1.15    1.45   125.58552   176.53631   229.32013
   511  H   1.0    0.04    1.16    1.46   127.21257   174.49162   224.62227
   512  H   1.0    0.06    1.16    1.45   127.26926   172.97040   227.14506
   513  N   5.0   -0.14    3.55    2.11   130.03771   179.53341   227.24521
   514  C   4.0    0.04    4.41    4.40   132.58506   180.35922   227.80079
   515  C   4.0    0.26    3.23    3.04   132.64931   181.57432   230.42751
   516  O   6.0   -0.25    1.21    1.80   130.65754   181.96549   231.61426
   517  C   4.0   -0.07    4.22    4.04   133.51859   182.18281   225.78257
   518  O   6.0   -0.28    1.19    1.80   134.68266   182.15824   231.43285
   519  H   1.0    0.12    1.15    1.45   129.19489   180.51796   226.26445
   520  H   1.0    0.06    1.13    1.45   133.70945   178.91169   227.79701
   521  H   1.0    0.05    1.06    1.44   135.22501   182.71760   226.18319
   522  H   1.0    0.06    1.06    1.44   133.50725   181.34755   224.15173
   523  H   1.0    0.07    1.06    1.44   132.41877   183.64735   225.72587
   524  Zn  2.0    0.48    4.25    5.00   113.90890   180.60300   198.14532
   525  Zn  2.0    0.47    3.81    5.00   122.11220   172.73418   221.67241
   526  N   5.0   -0.16    4.25    3.62   137.11096   159.61948   207.57884
   527  C   4.0    0.00    4.42    4.42   134.83762   158.98075   208.99424
   528  C   4.0    0.15    3.48    3.11   132.96868   157.58992   207.34262
   529  O   6.0   -0.30    1.26    1.80   133.54882   156.90395   205.21290
   530  C   4.0   -0.07    4.25    4.10   133.62252   161.35047   210.09217
   531  H   1.0    0.09    1.10    1.44   138.02369   160.72875   208.45378
   532  H   1.0    0.08    1.09    1.44   138.01991   158.22864   207.31805
   533  H   1.0    0.09    1.10    1.44   136.68010   160.29222   206.09918
   534  H   1.0    0.05    1.13    1.45   135.32328   157.87904   210.37563
   535  H   1.0    0.07    1.06    1.44   132.11452   160.88749   211.02570
   536  H   1.0    0.06    1.06    1.44   134.80738   162.18006   211.21845
   537  H   1.0    0.05    1.06    1.44   133.17088   162.49375   208.73157
   538  N   5.0   -0.16    3.54    2.10   130.71423   157.16095   208.34229
   539  C   4.0    0.03    4.43    4.43   128.75270   155.96475   206.83995
   540  C   4.0    0.08    3.23    3.04   127.79461   157.80912   204.83306
   541  O   6.0   -0.29    1.13    1.80   127.11242   159.96908   205.39809
   542  C   4.0   -0.05    4.44    4.45   126.59841   155.07469   208.52937
   543  C   4.0   -0.06    4.35    4.30   127.35430   153.09993   210.37563
   544  C   4.0   -0.01    4.37    4.33   125.44757   152.91473   212.45433
   545  N   5.0   -0.15    3.45    2.05   125.78016   154.85548   214.40075
   546  C   4.0    0.13    3.48    3.11   124.24192   155.18241   216.36039
   547  N   5.0   -0.23    3.32    1.99   122.23503   153.70086   216.61362
   548  N   5.0   -0.22    3.28    1.98   124.67845   157.01733   218.02524
   549  H   1.0    0.10    1.13    1.45   130.28527   157.54078   209.86352
   550  H   1.0    0.05    1.13    1.45   129.45379   154.49643   205.99714
   551  H   1.0    0.06    1.11    1.44   125.92189   156.51466   209.44022
   552  H   1.0    0.04    1.10    1.44   125.24726   154.42085   207.47679
   553  H   1.0    0.04    1.10    1.44   127.50926   151.48232   209.52714
   554  H   1.0    0.05    1.10    1.44   129.00025   153.49866   211.07483
   555  H   1.0    0.06    1.10    1.44   123.76382   153.05835   211.74190
   556  H   1.0    0.04    1.09    1.44   125.56095   151.25744   213.23101
   557  H   1.0    0.10    1.14    1.45   127.05761   155.85137   214.26658
   558  H   1.0    0.11    1.10    1.44   121.93835   152.54057   215.51569
   559  H   1.0    0.12    1.09    1.44   121.23159   153.90117   217.87595
   560  H   1.0    0.13    1.09    1.44   125.95968   157.99810   217.83627
   561  H   1.0    0.13    1.09    1.44   123.67878   157.22142   219.28947
   562  Zn  2.0    0.47    3.25    5.00   113.90890   198.14532   231.01712
   563  N   5.0   -0.16    4.24    3.56   102.53087   176.00907   222.26013
   564  C   4.0    0.02    4.44    4.45   101.51608   174.97728   219.91687
   565  C   4.0    0.14    3.44    3.09   100.87925   177.05787   218.05549
   566  O   6.0   -0.30    1.24    1.80    99.87202   179.01563   218.79815
   567  C   4.0    0.03    4.25    4.11    99.14448   173.37480   220.42899
   568  O   6.0   -0.27    2.08    1.84    99.80021   170.81044   220.85606
   569  H   1.0    0.08    1.10    1.44   102.11135   175.00563   223.54326
   570  H   1.0    0.08    1.09    1.44   104.20705   176.10923   222.15053
   571  H   1.0    0.09    1.11    1.44   101.89403   177.54353   222.51902
   572  H   1.0    0.07    1.13    1.45   102.81433   173.90959   219.18555
   573  H   1.0    0.05    1.07    1.44    98.25253   174.03620   221.88786
   574  H   1.0    0.05    1.08    1.44    97.99930   173.49196   219.00224
   575  H   1.0    0.14    1.08    1.44    98.48496   169.96573   221.13385
   576  N   5.0   -0.16    3.50    2.08   101.44805   176.61001   215.63853
   577  C   4.0    0.03    4.48    4.50   100.68272   178.27108   213.57306
   578  C   4.0    0.07    3.26    3.05    99.28810   176.72906   211.57940
   579  O   6.0   -0.28    1.13    1.80   100.04588   174.59556   210.98603
   580  C   4.0   -0.02    4.38    4.34   102.96550   179.69215   212.41844
   581  C   4.0   -0.07    4.28    4.15   105.10090   177.88368   211.92522
   582  C   4.0   -0.08    4.24    4.07   102.21717   181.03575   209.95802
   583  H   1.0    0.11    1.13    1.45   102.30032   175.31555   215.15287
   584  H   1.0    0.05    1.17    1.46    99.55455   179.55420   214.23824
   585  H   1.0    0.05    1.12    1.45   103.51541   180.95827   213.62408
   586  H   1.0    0.05    1.07    1.44   106.51819   178.79264   211.20334
   587  H   1.0    0.06    1.06    1.44   105.61679   177.10134   213.50125
   588  H   1.0    0.07    1.06    1.44   104.54721   176.58733   210.75359
   589  H   1.0    0.06    1.05    1.44   103.67415   181.91069   209.27204
   590  H   1.0    0.05    1.06    1.44   101.62002   179.79987   208.74292
   591  H   1.0    0.04    1.05    1.44   100.88492   182.24706   210.30195
   592  N   5.0   -0.22    3.27    1.97    93.61703   188.94614   209.60275
   593  C   4.0    0.03    4.48    4.51    93.54711   187.04696   211.57751
   594  C   4.0    0.15    3.57    3.15    94.19718   188.35654   214.00770
   595  O   6.0   -0.30    1.25    1.80    96.20784   189.51306   214.22502
   596  C   4.0   -0.05    4.17    3.95    95.37826   184.86811   211.08996
   597  S   6.0   -0.07    2.43    3.10    95.82990   182.75729   213.82251
   598  H   1.0    0.10    1.08    1.44    94.84346   188.80441   208.54639
   599  H   1.0    0.03    1.14    1.45    91.87659   186.29485   211.63798
   600  H   1.0    0.04    1.13    1.45    94.76220   183.88167   209.67267
   601  H   1.0    0.05    1.13    1.45    97.00342   185.55786   210.59674
   602  H   1.0    0.05    1.01    1.43    96.64084   180.66204   213.51487
   603  N   5.0   -0.18    3.66    2.22    92.46052   188.19592   215.80672
   604  C   4.0    0.03    4.55    4.60    92.59847   189.52251   218.19911
   605  C   4.0    0.15    3.45    3.10    94.15749   188.07309   220.12285
   606  O   6.0   -0.29    1.25    1.80    93.73986   188.27907   222.40186
   607  C   4.0   -0.04    4.46    4.47    89.90939   189.99116   219.05894
   608  C   4.0   -0.04    4.45    4.46    88.32580   190.59776   216.75347
   609  C   4.0    0.15    3.30    3.05    85.54790   190.53351   217.29771
   610  O   6.0   -0.30    1.23    1.80    84.76555   189.54140   219.24413
   611  N   5.0   -0.25    3.22    1.96    84.01344   191.53128   215.54971
   612  H   1.0    0.08    1.17    1.46    91.12637   187.27940   215.65932
   613  H   1.0    0.05    1.13    1.45    93.46585   191.12688   218.01014
   614  H   1.0    0.06    1.10    1.44    89.24609   188.51339   219.91876
   615  H   1.0    0.05    1.09    1.44    89.85270   191.37822   220.25513
   616  H   1.0    0.04    1.10    1.44    88.78122   192.25883   216.12608
   617  H   1.0    0.04    1.14    1.45    88.70941   189.39778   215.42310
   618  H   1.0    0.10    1.09    1.44    84.63894   192.20970   214.21179
   619  H   1.0    0.11    1.08    1.44    82.40340   191.49349   215.76514
   620  N   5.0   -0.16    3.56    2.12    95.96407   186.65201   219.17421
   621  C   4.0    0.04    4.48    4.50    97.68183   184.96071   220.48190
   622  C   4.0    0.16    3.55    3.14    96.59146   183.93837   222.94043
   623  O   6.0   -0.29    1.29    1.80    97.62136   184.49961   224.95488
   624  C   4.0   -0.04    4.40    4.37   100.17816   186.33454   220.96756
   625  C   4.0   -0.05    4.28    4.16   102.02820   186.21171   218.71690
   626  C   4.0   -0.01    4.32    4.24   104.54910   187.42113   219.33484
   627  N   5.0   -0.16    3.43    2.04   106.61457   186.22871   217.94400
   628  C   4.0    0.12    3.47    3.10   108.14902   184.47127   218.91154
   629  N   5.0   -0.23    3.30    1.98   107.85612   183.67569   221.29826
   630  N   5.0   -0.23    3.28    1.98   109.98395   183.49428   217.48290
   631  H   1.0    0.11    1.19    1.46    96.24942   186.65012   217.57361
   632  H   1.0    0.05    1.13    1.45    97.96151   183.50562   219.40287
   633  H   1.0    0.05    1.09    1.44    99.82856   188.09009   221.35873
   634  H   1.0    0.06    1.10    1.44   100.98318   185.60699   222.44532
   635  H   1.0    0.06    1.09    1.44   102.29276   184.46182   218.23879
   636  H   1.0    0.05    1.09    1.44   101.28554   187.05641   217.26937
   637  H   1.0    0.04    1.09    1.44   104.48862   189.20692   218.92854
   638  H   1.0    0.05    1.10    1.44   104.86657   187.29074   221.13574
   639  H   1.0    0.10    1.13    1.45   106.85834   186.68792   216.40387
   640  H   1.0    0.12    1.09    1.44   106.67315   184.29741   222.22234
   641  H   1.0    0.11    1.09    1.44   108.85200   182.54375   221.90486
   642  H   1.0    0.13    1.09    1.44   110.17292   183.99695   215.94845
   643  H   1.0    0.12    1.09    1.44   110.97605   182.36233   218.09707
   644  N   5.0   -0.08    3.69    2.26    94.53544   182.45682   222.86673
   645  C   4.0    0.03    4.68    4.74    93.52254   181.37779   225.21377
   646  C   4.0    0.16    3.49    3.11    95.55778   179.92270   226.60272
   647  O   6.0   -0.29    1.23    1.80    96.94295   178.40147   225.49534
   648  C   4.0   -0.05    4.51    4.56    91.40605   179.62601   224.30481
   649  C   4.0   -0.05    4.46    4.48    90.71819   180.55954   221.85195
   650  C   4.0   -0.01    4.46    4.48    93.15594   181.46660   220.67087
   651  H   1.0    0.05    1.13    1.45    92.91972   182.64579   226.39296
   652  H   1.0    0.05    1.10    1.44    91.97864   177.88746   224.21600
   653  H   1.0    0.04    1.09    1.44    89.97742   179.66192   225.45188
   654  H   1.0    0.04    1.10    1.44    89.94340   179.24429   220.83906
   655  H   1.0    0.04    1.10    1.44    89.49932   181.92392   221.98234
   656  H   1.0    0.05    1.08    1.44    94.06679   180.10600   219.84695
   657  H   1.0    0.05    1.08    1.44    92.86492   182.75918   219.40476
   658  N   5.0   -0.16    3.50    2.08    95.78077   180.47261   229.03858
   659  C   4.0    0.04    4.56    4.62    97.79144   179.46349   230.61461
   660  C   4.0    0.08    3.36    3.07    96.55177   178.53375   233.02023
   661  O   6.0   -0.29    1.22    1.80    96.54989   179.84144   234.94397
   662  C   4.0   -0.03    4.38    4.34    99.78888   181.41558   231.16452
   663  S   6.0    0.01    2.76    3.11   101.83734   180.30442   233.56447
   664  H   1.0    0.10    1.14    1.45    94.75465   181.45338   229.83037
   665  H   1.0    0.05    1.15    1.45    98.66071   178.09911   229.75289
   666  H   1.0    0.05    1.17    1.46   100.74508   181.77841   229.64329
   667  H   1.0    0.06    1.15    1.45    99.00275   182.98594   231.68986
   668  N   5.0   -0.24    3.25    1.97   113.89000   206.52059   219.66743
   669  C   4.0    0.04    4.42    4.41   113.43080   203.97135   218.75091
   670  C   4.0    0.15    3.46    3.10   113.95992   202.09296   220.87685
   671  O   6.0   -0.30    1.23    1.80   115.91579   200.79472   220.95811
   672  C   4.0   -0.04    4.39    4.36   114.99360   203.44034   216.38119
   673  C   4.0    0.16    3.29    3.05   113.43836   203.67088   213.96423
   674  O   6.0   -0.29    1.22    1.80   111.49383   204.95023   213.91699
   675  N   5.0   -0.24    3.22    1.96   114.28118   202.40855   211.95357
   676  H   1.0    0.10    1.08    1.44   115.46037   206.88531   219.87530
   677  H   1.0    0.06    1.14    1.45   111.67524   203.78805   218.25958
   678  H   1.0    0.05    1.09    1.44   116.40334   204.61008   216.30938
   679  H   1.0    0.06    1.10    1.44   115.70225   201.75281   216.48702
   680  H   1.0    0.12    1.09    1.44   113.45915   202.46902   210.55328
   681  H   1.0    0.10    1.09    1.44   115.64745   201.53360   212.05750
   682  N   5.0   -0.16    3.51    2.08   112.19303   202.01737   222.67398
   683  C   4.0    0.03    4.61    4.68   112.26295   200.04261   224.57316
   684  C   4.0    0.16    3.60    3.17   111.61288   197.61242   223.26358
   685  O   6.0   -0.30    1.25    1.80   109.60222   197.39510   222.10706
   686  C   4.0   -0.06    4.26    4.11   110.43181   200.53016   226.75201
   687  S   6.0   -0.14    2.29    3.10   109.98016   197.79762   228.86283
   688  H   1.0    0.09    1.13    1.45   110.96660   203.07373   222.81571
   689  H   1.0    0.04    1.15    1.45   113.93347   199.98214   225.32527
   690  H   1.0    0.03    1.14    1.45   111.04786   201.94745   227.73845
   691  H   1.0    0.05    1.13    1.45   108.80664   201.02338   226.06226
   692  N   5.0   -0.17    3.67    2.23   113.34954   195.81340   223.42420
   693  C   4.0    0.03    4.55    4.61   113.21159   193.42101   222.09761
   694  C   4.0    0.15    3.46    3.10   111.65257   191.49727   223.54703
   695  O   6.0   -0.29    1.26    1.80   112.07020   189.21826   223.34105
   696  C   4.0   -0.04    4.47    4.49   115.90067   192.56118   221.62896
   697  C   4.0   -0.03    4.45    4.46   117.48426   194.86665   221.02236
   698  C   4.0    0.16    3.31    3.05   120.26216   194.32241   221.08661
   699  O   6.0   -0.30    1.26    1.80   121.04451   192.37599   222.07872
   700  N   5.0   -0.24    3.22    1.96   121.79662   196.07041   220.08884
   701  H   1.0    0.09    1.19    1.46   114.68369   195.96080   224.34072
   702  H   1.0    0.05    1.13    1.45   112.34421   193.60998   220.49324
   703  H   1.0    0.07    1.10    1.44   116.56397   191.70136   223.10673
   704  H   1.0    0.05    1.11    1.45   115.95736   191.36499   220.24190
   705  H   1.0    0.05    1.10    1.44   117.02884   195.49404   219.36129
   706  H   1.0    0.06    1.14    1.45   117.10065   196.19702   222.22234
   707  H   1.0    0.11    1.09    1.44   121.17112   197.40833   219.41042
   708  H   1.0    0.12    1.08    1.44   123.40666   195.85498   220.12663
   709  N   5.0   -0.16    3.56    2.12   109.84599   192.44591   224.96811
   710  C   4.0    0.03    4.48    4.50   108.12823   191.13822   226.65941
   711  C   4.0    0.16    3.55    3.14   109.21860   188.67969   227.68176
   712  O   6.0   -0.29    1.29    1.80   108.18870   186.66524   227.12051
   713  C   4.0   -0.04    4.40    4.37   105.63190   190.65256   225.28558
   714  C   4.0   -0.06    4.28    4.16   103.78186   192.90322   225.40841
   715  C   4.0   -0.01    4.32    4.24   101.26096   192.28528   224.19899
   716  N   5.0   -0.16    3.43    2.04    99.19549   193.67612   225.39141
   717  C   4.0    0.11    3.47    3.10    97.66104   192.70858   227.14885
   718  N   5.0   -0.23    3.30    1.98    97.95394   190.32186   227.94443
   719  N   5.0   -0.24    3.28    1.98    95.82611   194.13722   228.12584
   720  H   1.0    0.10    1.19    1.46   109.56064   194.04651   224.97000
   721  H   1.0    0.04    1.13    1.45   107.84855   192.21725   228.11450
   722  H   1.0    0.05    1.09    1.44   105.98150   190.26139   223.53003
   723  H   1.0    0.06    1.10    1.44   104.82688   189.17480   226.01313
   724  H   1.0    0.05    1.09    1.44   103.51730   193.38133   227.15830
   725  H   1.0    0.05    1.09    1.44   104.52452   194.35075   224.56371
   726  H   1.0    0.04    1.09    1.44   101.32144   192.69158   222.41320
   727  H   1.0    0.05    1.10    1.44   100.94349   190.48438   224.32938
   728  H   1.0    0.09    1.13    1.45    98.95172   195.21625   224.93220
   729  H   1.0    0.11    1.09    1.44    99.13691   189.39778   227.32271
   730  H   1.0    0.11    1.09    1.44    96.95806   189.71526   229.07637
   731  H   1.0    0.10    1.09    1.44    95.63714   195.67167   227.62317
   732  H   1.0    0.10    1.09    1.44    94.83401   193.52306   229.25779
   733  N   5.0   -0.08    3.69    2.26   111.27462   188.75339   229.16330
   734  C   4.0    0.03    4.68    4.74   112.28752   186.40635   230.24233
   735  C   4.0    0.16    3.49    3.11   110.25228   185.01740   231.69742
   736  O   6.0   -0.29    1.23    1.80   108.86711   186.12478   233.21865
   737  C   4.0   -0.05    4.52    4.56   114.40401   187.31531   231.99411
   738  C   4.0   -0.05    4.46    4.48   115.09187   189.76817   231.06059
   739  C   4.0   -0.02    4.46    4.49   112.65412   190.94925   230.15352
   740  H   1.0    0.05    1.13    1.45   112.89034   185.22716   228.97433
   741  H   1.0    0.05    1.10    1.44   113.83142   187.40412   233.73266
   742  H   1.0    0.04    1.09    1.44   115.83264   186.16824   231.95820
   743  H   1.0    0.04    1.10    1.44   115.86666   190.78106   232.37583
   744  H   1.0    0.05    1.10    1.44   116.31074   189.63778   229.69620
   745  H   1.0    0.04    1.08    1.44   111.74327   191.77317   231.51412
   746  H   1.0    0.04    1.08    1.44   112.94514   192.21536   228.86094
   747  N   5.0   -0.16    3.51    2.09   110.02929   182.58154   231.14751
   748  C   4.0    0.04    4.67    4.74   108.01862   181.00551   232.15663
   749  C   4.0    0.15    3.60    3.16   109.25829   178.59989   233.08637
   750  O   6.0   -0.29    1.33    1.80   109.26017   176.67615   231.77868
   751  C   4.0   -0.03    4.38    4.35   106.02118   180.45560   230.20454
   752  S   6.0    0.01    2.76    3.11   103.97272   178.05565   231.31570
   753  H   1.0    0.10    1.14    1.45   111.05541   181.78975   230.16674
   754  H   1.0    0.06    1.15    1.45   107.14935   181.86723   233.52101
   755  H   1.0    0.05    1.17    1.46   105.06498   181.97683   229.84171
   756  H   1.0    0.06    1.15    1.45   106.80731   179.93026   228.63418
   757  N   5.0   -0.16    3.56    2.13   110.33354   178.73217   235.33703
   758  C   4.0    0.04    4.53    4.58   111.32376   176.49096   236.56347
   759  C   4.0    0.16    3.48    3.11   110.86266   176.70071   239.38483
   760  O   6.0   -0.29    1.25    1.80   109.87056   178.59044   240.31835
   761  C   4.0   -0.05    4.44    4.45   114.12055   176.13191   235.97954
   762  C   4.0   -0.05    4.36    4.31   115.59643   178.53564   235.81703
   763  C   4.0   -0.05    4.33    4.26   118.27984   177.89124   235.04224
   764  C   4.0   -0.04    4.28    4.15   120.11098   180.02096   235.54490
   765  N   5.0   -0.16    4.13    3.22   122.74148   179.33121   234.78901
   766  H   1.0    0.11    1.14    1.45   110.50928   180.10600   236.18741
   767  H   1.0    0.06    1.14    1.45   110.45637   175.01130   235.91907
   768  H   1.0    0.05    1.10    1.44   114.86321   175.06988   237.27589
   769  H   1.0    0.05    1.10    1.44   114.28118   175.23051   234.39028
   770  H   1.0    0.05    1.10    1.44   114.83487   179.67136   234.59626
   771  H   1.0    0.05    1.09    1.44   115.58887   179.40113   237.43274
   772  H   1.0    0.05    1.10    1.44   118.82786   176.39647   235.94931
   773  H   1.0    0.05    1.09    1.44   118.31007   177.47739   233.25645
   774  H   1.0    0.04    1.08    1.44   119.57997   181.51574   234.62461
   775  H   1.0    0.04    1.08    1.44   120.07886   180.44993   237.32692
   776  H   1.0    0.08    1.09    1.44   123.77327   180.62001   235.10649
   777  H   1.0    0.08    1.09    1.44   123.24226   177.98384   235.66396
   778  H   1.0    0.09    1.10    1.44   122.77927   178.97783   233.14495
   779  N   5.0   -0.14    3.60    2.16   111.50328   174.67871   240.71708
   780  C   4.0    0.04    4.45    4.46   111.84910   174.83933   243.43073
   781  C   4.0    0.08    3.26    3.05   114.35110   176.14891   243.87104
   782  O   6.0   -0.29    1.14    1.80   116.19925   175.61412   242.54445
   783  C   4.0   -0.04    4.37    4.32   111.86989   172.20695   244.61181
   784  C   4.0    0.25    3.16    3.03   109.55497   170.65737   243.88993
   785  O   6.0   -0.28    1.17    1.80   109.05608   168.74686   245.19574
   786  O   6.0   -0.27    1.23    1.80   108.23783   171.34712   242.02666
   787  H   1.0    0.10    1.14    1.45   111.74516   173.20094   240.08403
   788  H   1.0    0.06    1.13    1.45   110.47527   175.77097   244.20741
   789  H   1.0    0.06    1.09    1.44   113.38356   171.31689   244.08269
   790  H   1.0    0.05    1.09    1.44   111.94925   172.36190   246.43729
   791  N   5.0   -0.22    3.30    1.98   116.73782   183.63034   244.53622
   792  C   4.0    0.03    4.41    4.39   117.52395   185.70904   242.91862
   793  C   4.0    0.07    3.24    3.04   119.29462   187.44003   244.39449
   794  O   6.0   -0.29    1.13    1.80   118.94880   187.81797   246.66405
   795  C   4.0   -0.03    4.44    4.45   115.20147   187.19058   242.00021
   796  C   4.0   -0.09    4.30    4.20   115.96492   188.98204   240.00466
   797  C   4.0   -0.08    4.28    4.17   113.18514   185.39912   241.07235
   798  H   1.0    0.11    1.08    1.44   115.79674   184.09899   245.77588
   799  H   1.0    0.04    1.12    1.45   118.40456   185.04763   241.45408
   800  H   1.0    0.05    1.14    1.45   114.49472   188.14489   243.39672
   801  H   1.0    0.04    1.07    1.44   114.49661   189.91557   239.42640
   802  H   1.0    0.04    1.07    1.44   117.20647   190.15178   240.67551
   803  H   1.0    0.04    1.06    1.44   116.69247   188.05797   238.59870
   804  H   1.0    0.05    1.06    1.44   111.73194   186.35721   240.49977
   805  H   1.0    0.05    1.06    1.44   113.84465   184.40135   239.68340
   806  H   1.0    0.05    1.06    1.44   112.68058   184.28418   242.43863
   807  N   5.0   -0.23    3.25    1.97   118.33275   200.14277   237.15684
   808  C   4.0    0.02    4.40    4.38   119.54028   197.66911   237.07369
   809  C   4.0    0.15    3.48    3.11   122.26338   197.94501   236.18930
   810  O   6.0   -0.30    1.27    1.80   122.79439   199.31507   234.40162
   811  C   4.0   -0.06    4.42    4.41   118.23637   195.79451   235.32003
   812  C   4.0    0.00    3.87    3.42   115.47359   195.42223   235.77923
   813  N   5.0   -0.18    3.53    2.10   113.63300   196.37465   234.21076
   814  C   4.0   -0.02    3.68    3.23   114.25094   194.23737   237.68218
   815  C   4.0    0.00    3.83    3.38   111.38234   195.70947   235.08192
   816  N   5.0   -0.13    3.53    2.10   111.70926   194.39611   237.18141
   817  H   1.0    0.09    1.08    1.44   117.05907   200.34119   236.16851
   818  H   1.0    0.03    1.13    1.45   119.43446   197.00771   238.78012
   819  H   1.0    0.04    1.14    1.45   118.46881   196.35575   233.59093
   820  H   1.0    0.04    1.10    1.44   119.07541   194.17312   235.47310
   821  H   1.0    0.04    1.08    1.44   114.99171   193.45880   239.07302
   822  H   1.0    0.04    1.09    1.44   109.83654   196.10064   234.34304
   823  H   1.0    0.08    1.11    1.45   110.52440   193.74793   238.08470
   824  N   5.0   -0.18    3.49    2.07   123.99626   196.59575   237.42140
   825  C   4.0    0.03    4.51    4.56   126.64754   196.78283   236.65417
   826  C   4.0    0.16    3.48    3.11   126.98580   196.02505   233.89706
   827  O   6.0   -0.30    1.31    1.80   128.18389   197.40266   232.43631
   828  C   4.0   -0.05    4.40    4.38   128.32562   195.17657   238.36438
   829  C   4.0   -0.05    4.32    4.24   128.78860   196.39733   240.90606
   830  C   4.0    0.15    3.28    3.05   130.23046   194.71358   242.74854
   831  O   6.0   -0.29    1.21    1.80   131.37564   192.81441   242.02478
   832  N   5.0   -0.25    3.23    1.96   130.15110   195.40144   245.15794
   833  H   1.0    0.08    1.13    1.45   123.69390   195.59419   238.66484
   834  H   1.0    0.06    1.13    1.45   127.15966   198.53461   236.82614
   835  H   1.0    0.05    1.10    1.44   127.54327   193.53817   238.61382
   836  H   1.0    0.06    1.10    1.44   129.93189   194.88177   237.53290
   837  H   1.0    0.04    1.09    1.44   129.72591   197.95257   240.65850
   838  H   1.0    0.04    1.10    1.44   127.17667   196.85464   241.65061
   839  H   1.0    0.10    1.09    1.44   129.33473   196.73748   245.59447
   840  H   1.0    0.11    1.09    1.44   130.91643   194.51138   246.28233
   841  N   5.0   -0.17    3.50    2.07   125.85386   193.88399   233.15818
   842  C   4.0    0.03    4.55    4.61   125.93323   192.96748   230.55225
   843  C   4.0    0.16    3.54    3.13   125.25293   195.06507   228.69087
   844  O   6.0   -0.29    1.24    1.80   126.71557   195.65278   226.96366
   845  C   4.0   -0.03    4.41    4.40   124.16444   190.67146   230.27257
   846  C   4.0   -0.07    4.29    4.18   123.41989   190.29729   227.56837
   847  C   4.0   -0.07    4.22    4.04   125.41544   188.26962   231.29302
   848  H   1.0    0.09    1.14    1.45   125.01671   192.92401   234.16729
   849  H   1.0    0.06    1.13    1.45   127.64343   192.43835   230.15730
   850  H   1.0    0.04    1.13    1.45   122.65644   191.00972   231.25712
   851  H   1.0    0.06    1.06    1.44   122.30873   188.84598   227.43420
   852  H   1.0    0.06    1.07    1.44   122.54684   191.79018   226.96177
   853  H   1.0    0.06    1.06    1.44   124.92033   190.01194   226.55359
   854  H   1.0    0.06    1.06    1.44   124.27027   186.85232   231.09838
   855  H   1.0    0.06    1.06    1.44   126.95935   187.93891   230.35950
   856  H   1.0    0.05    1.05    1.44   125.81228   188.49260   233.06936
   857  N   5.0   -0.16    3.57    2.13   123.03250   196.23859   229.03858
   858  C   4.0    0.04    4.57    4.63   122.10842   198.27194   227.40208
   859  C   4.0    0.16    3.48    3.11   123.91122   200.50748   227.21121
   860  O   6.0   -0.29    1.24    1.80   123.63721   202.08729   225.51424
   861  C   4.0   -0.04    4.26    4.12   119.60831   199.27916   228.39418
   862  S   6.0   -0.15    2.51    3.10   117.24616   196.97369   228.71544
   863  H   1.0    0.10    1.16    1.45   122.01394   195.86632   230.24800
   864  H   1.0    0.06    1.13    1.45   121.93646   197.51983   225.73912
   865  H   1.0    0.05    1.16    1.46   119.89177   200.06718   230.02502
   866  H   1.0    0.05    1.16    1.45   119.00738   200.59063   227.26224
   867  N   5.0   -0.15    3.61    2.17   125.70079   200.72858   228.92142
   868  C   4.0    0.04    4.61    4.68   127.40343   202.87720   228.98189
   869  C   4.0    0.16    3.49    3.11   130.12842   202.03816   228.56804
   870  O   6.0   -0.29    1.26    1.80   131.82728   203.60474   228.18631
   871  C   4.0   -0.02    4.46    4.48   127.00848   204.33229   231.46688
   872  C   4.0   -0.08    4.37    4.33   129.01348   206.11808   231.93364
   873  C   4.0   -0.08    4.29    4.18   124.55940   205.77604   231.36861
   874  H   1.0    0.13    1.17    1.46   125.97102   199.63254   230.09116
   875  H   1.0    0.06    1.14    1.45   127.02549   204.02615   227.60428
   876  H   1.0    0.06    1.14    1.45   126.98769   203.09074   232.81425
   877  H   1.0    0.04    1.07    1.44   128.69790   206.99491   233.51156
   878  H   1.0    0.06    1.08    1.44   130.61219   205.22802   232.03946
   879  H   1.0    0.05    1.07    1.44   129.08151   207.33317   230.56359
   880  H   1.0    0.04    1.06    1.44   124.32318   206.68878   232.94086
   881  H   1.0    0.04    1.06    1.44   124.60475   206.96468   229.97399
   882  H   1.0    0.05    1.06    1.44   123.16856   204.60630   231.12673
   883  N   5.0   -0.15    3.48    2.06   130.55928   199.57018   228.49434
   884  C   4.0    0.02    4.28    4.16   132.95356   198.58563   227.62695
   885  C   4.0    0.09    3.18    3.03   135.03982   199.19223   229.44487
   886  O   6.0   -0.28    1.12    1.80   136.86718   200.46969   228.80047
   887  H   1.0    0.13    1.16    1.46   129.48213   198.43823   228.94220
   888  H   1.0    0.05    1.09    1.44   132.83073   196.76960   227.41719
   889  H   1.0    0.07    1.10    1.44   133.34851   199.29050   225.98100
   890  H   1.0    0.09    1.08    1.44   103.38873   177.47551   194.88788
   891  H   1.0    0.05    1.05    1.44   110.00471   180.18189   183.16198
   892  H   1.0    0.09    1.09    1.44   120.97598   166.46754   193.54801
   893  H   1.0    0.05    1.04    1.43   126.23832   178.35748   194.40955
   894  H   1.0    0.10    1.08    1.44   123.26378   183.50374   194.82840
   895  H   1.0    0.06    1.05    1.44   130.56673   183.01783   200.20029
   896  H   1.0    0.10    1.09    1.44   134.00247   180.47469   199.69746
   897  H   1.0    0.05    1.04    1.44   138.18451   175.32358   196.07958
   898  H   1.0    0.12    1.10    1.44   146.87475   162.02828   206.19024
   899  H   1.0    0.05    1.04    1.43   127.71104   157.27539   203.02221
   900  H   1.0    0.04    1.04    1.43    97.75039   177.43871   210.74100
   901  H   1.0    0.09    1.08    1.44    92.18365   188.86967   208.69054
   902  H   1.0    0.05    1.05    1.44    95.72033   176.83723   233.06001
   903  H   1.0    0.10    1.08    1.44   113.26225   207.64499   218.55647
   904  H   1.0    0.05    1.04    1.43   114.51090   177.44720   245.23485
   905  H   1.0    0.10    1.09    1.44   115.85319   182.50215   243.62125
   906  H   1.0    0.05    1.04    1.43   120.74614   188.27524   243.51895
   907  H   1.0    0.09    1.08    1.44   117.76356   200.44404   238.73095
   908  H   1.0    0.06    1.05    1.44   134.96041   198.55339   231.22156

  Z AO/shell   Hii/eV     exponent
  1     Wed Apr 25 08:07:45 CEST 2018   EN: 2.200 GM2: 0.406  GM3: 0.0800  RAES: 1.40
     1s    -10.707211    1.230000
  6     Wed Apr 25 08:07:45 CEST 2018   EN: 2.550 GM2: 0.538  GM3: 0.1500  RAES: 3.00
     2s    -13.970922    2.096432
     2p    -10.063292    1.800000
  7     Wed Apr 25 08:07:45 CEST 2018   EN: 3.040 GM2: 0.461  GM3:-0.0640  RAES: 1.90
     2s    -16.686243    2.339881
     2p    -12.523956    2.014332
  8     Wed Apr 25 08:07:45 CEST 2018   EN: 3.440 GM2: 0.452  GM3:-0.0517  RAES: 1.80
     2s    -20.229985    2.439742
     2p    -15.503117    2.137023
 16     Tue Apr 24 11:44:34 CEST 2018   EN: 2.580 GM2: 0.340  GM3:-0.0502  RAES: 3.10
     3s    -20.029654    1.981333
     3p    -11.377694    2.025643
     3d     -0.420282    1.702555
 30     Wed Apr 25 13:34:15 CEST 2018   EN: 1.650 GM2: 0.564  GM3: 0.2313  RAES: 5.00
     4s     -7.177294    1.664847
     4p     -0.991895    1.176434
 no old-style atom pair restraining (fixing) potential

molecular fragmentation (1/2 indicates fragments):
111111111111111111111111111111111111111111111111111111111111111111111111
111111111111111111111111111111111111111111111111111111111111111111111111
111111111111111111111111111111111111111111111111111111111111111111111111
111111111111111111111111111111111111111111111111111111111111111111111111
111111111111111111111111111111111111111111111111111111111111111111111111
111111111111111122222222222222221111111111111111111111111111111111111111
111111111111111111111111111111111111111111111111111111111111111111111111
111111111111111111111222222222222222222222222222222222222222222222222222
222222222222222222222222222222222222222222222222222222222222222222222222
222222222222222222222222222222222222222222222222222222222222222222222222
222222222222222222222222222222222222222222222222222222222222222222222222
222222222222222222222222222222222222222222222222222222222222222222222222
22222222222222222222222221111112212222222222
# atoms in fragment 1/2:   516   392
 fragment masses (1/2) :     4133.20     2848.75
CMA distance (Bohr)    :  21.155
constraining FC (au)   :  0.0500
           ------------------------------------------------- 
          |        Self-Consistent Charge Iterations        |
           ------------------------------------------------- 

 Ncao       : 2384
 Nao        : 2372
 Nshell     : 1388
 Nel        : 2592
 T(el)      :   500.0
 intcut     :    35.0
 scfconv/Eh :  0.100E-06
   qconv/e  :  0.100E-04
 intneglect :  0.100E-08
 broydamp   :      0.400
 # of PC   :    805
 sum of qPC:    3.86200
 iter      E             dE          RMSdq      gap      omega  full diag
   1  -1490.1467845 -0.149015E+04  0.492E+00    2.93       0.0  T
   2  -1494.3006850 -0.415390E+01  0.230E+00    1.41       1.0  T
   3  -1494.5525079 -0.251823E+00  0.134E+00    1.23       1.0  T
   4  -1494.7930041 -0.240496E+00  0.367E-01    0.39       1.0  T
   5  -1494.8138044 -0.208003E-01  0.220E-01    0.81       1.0  T
   6  -1494.8213001 -0.749574E-02  0.123E-01    0.88       1.0  T
   7  -1494.8255781 -0.427802E-02  0.624E-02    0.94       1.0  T
   8  -1494.8261074 -0.529277E-03  0.371E-02    0.98       1.0  T
   9  -1494.8263521 -0.244718E-03  0.172E-02    0.98       1.0  T
  10  -1494.8263989 -0.467636E-04  0.968E-03    0.98       1.0  T
  11  -1494.8264127 -0.137756E-04  0.587E-03    0.98       1.0  T
  12  -1494.8264216 -0.892869E-05  0.281E-03    0.98       1.2  T
  13  -1494.8264225 -0.934643E-06  0.144E-03    0.98       2.3  T
  14  -1494.8264230 -0.460129E-06  0.828E-04    0.98       4.0  T
  15  -1494.8264231 -0.860416E-07  0.465E-04    0.98       7.1  T
  16  -1494.8264231 -0.396051E-07  0.231E-04    0.98      14.4  T
  17  -1494.8264231 -0.838327E-08  0.119E-04    0.98      27.9  T
  18  -1494.8264231 -0.202272E-08  0.549E-05    0.98      60.4  T
  19  -1494.8264231 -0.751015E-09  0.270E-05    0.98     123.0  T
speedup 17.38
cpu  time for SCC    6 m 51.4 s
wall time for SCC    0 m 23.7 s

   *** convergence criteria satisfied after 19 iterations ***

          eigenvalues
 #    :        1284       1285       1286       1287       1288       1289       1290       1291
 occ. :        2.000      2.000      2.000      2.000      2.000      2.000      2.000      2.000
 eps  :       -10.470    -10.467    -10.462    -10.419    -10.412    -10.402    -10.363    -10.359
 #    :        1292       1293       1294       1295       1296       1297       1298       1299
 occ. :        2.000      2.000      2.000      2.000      2.000      0.000      0.000      0.000
 eps  :       -10.290    -10.286    -10.218    -10.148    -10.130     -9.151     -9.103     -8.993
 #    :        1300       1301       1302       1303       1304       1305       1306       1307
 occ. :        0.000      0.000      0.000      0.000      0.000      0.000      0.000      0.000
 eps  :        -8.733     -8.730     -8.624     -8.583     -8.546     -8.478     -8.212     -7.906


   #   Z            q   n(s)   n(p)   n(d)      C6AA      α(0)
   1   7 N     -0.420  1.293  4.127  0.000    30.935     8.260
   2   6 C      0.009  1.039  2.952  0.000    20.433     6.437
   3   6 C      0.279  1.050  2.671  0.000    22.282     7.730
   4   8 O     -0.510  1.758  4.752  0.000    24.013     6.570
   5   6 C     -0.037  1.043  2.994  0.000    21.187     6.546
   6   6 C     -0.149  0.973  3.176  0.000    23.411     6.894
   7   6 C     -0.151  0.978  3.172  0.000    23.445     6.900
   8   1 H      0.184  0.816  0.000  0.000     1.191     1.709
   9   1 H      0.067  0.933  0.000  0.000     2.118     2.276
  10   1 H      0.071  0.929  0.000  0.000     2.076     2.253
  11   1 H      0.070  0.930  0.000  0.000     2.083     2.257
  12   1 H      0.064  0.936  0.000  0.000     2.147     2.291
  13   1 H      0.041  0.959  0.000  0.000     2.439     2.442
  14   1 H      0.074  0.926  0.000  0.000     2.045     2.236
  15   1 H      0.038  0.962  0.000  0.000     2.480     2.463
  16   1 H      0.043  0.957  0.000  0.000     2.409     2.427
  17   7 N     -0.202  1.216  3.986  0.000    25.379     7.482
  18   6 C      0.038  1.028  2.934  0.000    19.933     6.355
  19   6 C      0.275  1.045  2.681  0.000    22.357     7.743
  20   8 O     -0.481  1.740  4.741  0.000    23.362     6.480
  21   6 C      0.013  1.004  2.982  0.000    20.347     6.420
  22  16 S     -0.657  1.934  4.707  0.017   171.563    22.046
  23   1 H      0.216  0.784  0.000  0.000     1.029     1.589
  24   1 H      0.065  0.935  0.000  0.000     2.138     2.287
  25   1 H      0.015  0.985  0.000  0.000     2.812     2.622
  26   1 H      0.039  0.961  0.000  0.000     2.464     2.454
  27   7 N     -0.195  1.207  3.988  0.000    25.231     7.460
  28   6 C      0.023  1.036  2.942  0.000    20.195     6.398
  29   6 C      0.267  1.047  2.687  0.000    22.499     7.767
  30   8 O     -0.480  1.730  4.750  0.000    23.356     6.480
  31   6 C     -0.144  0.978  3.166  0.000    23.311     6.880
  32   1 H      0.193  0.807  0.000  0.000     1.144     1.675
  33   1 H      0.111  0.889  0.000  0.000     1.690     2.032
[...]
 622   6 C      0.262  1.044  2.695  0.000    22.592     7.784
 623   8 O     -0.482  1.738  4.743  0.000    23.384     6.483
 624   6 C     -0.118  1.016  3.101  0.000    22.735     6.786
 625   6 C     -0.125  1.015  3.110  0.000    22.889     6.810
 626   6 C     -0.062  1.016  3.046  0.000    21.746     6.650
 627   7 N     -0.144  1.178  3.965  0.000    24.115     7.293
 628   6 C      0.207  1.027  2.766  0.000    23.606     7.955
 629   7 N     -0.241  1.162  4.078  0.000    26.284     7.614
 630   7 N     -0.253  1.168  4.085  0.000    26.568     7.655
 631   1 H      0.213  0.787  0.000  0.000     1.040     1.598
 632   1 H      0.105  0.895  0.000  0.000     1.742     2.064
 633   1 H      0.095  0.905  0.000  0.000     1.831     2.116
 634   1 H      0.103  0.897  0.000  0.000     1.755     2.072
 635   1 H      0.084  0.916  0.000  0.000     1.934     2.175
 636   1 H      0.092  0.908  0.000  0.000     1.859     2.132
 637   1 H      0.121  0.879  0.000  0.000     1.602     1.979
 638   1 H      0.107  0.893  0.000  0.000     1.723     2.053
 639   1 H      0.231  0.769  0.000  0.000     0.961     1.536
 640   1 H      0.266  0.734  0.000  0.000     0.825     1.423
 641   1 H      0.237  0.763  0.000  0.000     0.934     1.514
 642   1 H      0.231  0.769  0.000  0.000     0.960     1.535
 643   1 H      0.233  0.767  0.000  0.000     0.950     1.527
 644   7 N     -0.081  1.232  3.849  0.000    22.816     7.094
 645   6 C      0.002  1.045  2.952  0.000    20.508     6.441
 646   6 C      0.269  1.043  2.688  0.000    22.457     7.760
 647   8 O     -0.476  1.742  4.734  0.000    23.267     6.467
 648   6 C     -0.087  0.999  3.088  0.000    22.113     6.687
 649   6 C     -0.090  0.994  3.096  0.000    22.172     6.696
 650   6 C     -0.035  1.011  3.024  0.000    21.210     6.559
 651   1 H      0.088  0.912  0.000  0.000     1.898     2.154
 652   1 H      0.072  0.928  0.000  0.000     2.059     2.244
 653   1 H      0.076  0.924  0.000  0.000     2.025     2.225
 654   1 H      0.079  0.921  0.000  0.000     1.987     2.204
 655   1 H      0.076  0.924  0.000  0.000     2.022     2.224
 656   1 H      0.085  0.915  0.000  0.000     1.924     2.169
 657   1 H      0.080  0.920  0.000  0.000     1.974     2.197
 658   7 N     -0.169  1.205  3.964  0.000    24.662     7.376
 659   6 C      0.009  1.032  2.959  0.000    20.387     6.420
 660   6 C      0.193  1.083  2.724  0.000    23.869     8.002
 661   8 O     -0.342  1.761  4.580  0.000    20.548     6.078
 662   6 C     -0.055  1.022  3.033  0.000    21.536     6.603
 663  16 S     -0.105  1.934  4.088  0.082   145.424    20.297
 664   1 H      0.224  0.776  0.000  0.000     0.989     1.558
 665   1 H      0.112  0.888  0.000  0.000     1.676     2.024
 666   1 H      0.111  0.889  0.000  0.000     1.684     2.029
 667   1 H      0.123  0.877  0.000  0.000     1.589     1.971
 668   7 N     -0.414  1.281  4.134  0.000    30.777     8.239
 669   6 C      0.025  1.030  2.945  0.000    20.162     6.394
 670   6 C      0.265  1.051  2.684  0.000    22.537     7.774
 671   8 O     -0.506  1.758  4.748  0.000    23.914     6.556
 672   6 C     -0.129  1.015  3.113  0.000    22.957     6.819
 673   6 C      0.280  1.041  2.679  0.000    22.256     7.725
 674   8 O     -0.502  1.755  4.747  0.000    23.835     6.546
 675   7 N     -0.307  1.200  4.107  0.000    27.908     7.846
 676   1 H      0.181  0.819  0.000  0.000     1.207     1.721
 677   1 H      0.083  0.917  0.000  0.000     1.948     2.183
 678   1 H      0.087  0.913  0.000  0.000     1.909     2.161
 679   1 H      0.081  0.919  0.000  0.000     1.972     2.196
 680   1 H      0.239  0.761  0.000  0.000     0.925     1.507
 681   1 H      0.234  0.766  0.000  0.000     0.947     1.524
 682   7 N     -0.187  1.212  3.975  0.000    25.057     7.434
 683   6 C      0.022  1.028  2.950  0.000    20.187     6.393
 684   6 C      0.270  1.037  2.693  0.000    22.436     7.757
 685   8 O     -0.471  1.739  4.732  0.000    23.157     6.452
 686   6 C     -0.026  1.020  3.006  0.000    21.035     6.529
 687  16 S     -0.398  1.897  4.490  0.012   158.626    21.199
 688   1 H      0.229  0.771  0.000  0.000     0.969     1.542
 689   1 H      0.062  0.938  0.000  0.000     2.170     2.304
 690   1 H      0.059  0.941  0.000  0.000     2.216     2.328
 691   1 H      0.086  0.914  0.000  0.000     1.916     2.165
 692   7 N     -0.181  1.206  3.975  0.000    24.928     7.415
 693   6 C     -0.006  1.039  2.967  0.000    20.682     6.473
 694   6 C      0.256  1.039  2.706  0.000    22.699     7.802
 695   8 O     -0.483  1.744  4.739  0.000    23.408     6.487
 696   6 C     -0.102  1.006  3.095  0.000    22.416     6.737
 697   6 C     -0.128  1.012  3.116  0.000    22.932     6.814
 698   6 C      0.279  1.036  2.685  0.000    22.281     7.729
 699   8 O     -0.491  1.757  4.734  0.000    23.596     6.513
 700   7 N     -0.318  1.198  4.119  0.000    28.176     7.884
 701   1 H      0.213  0.787  0.000  0.000     1.041     1.598
 702   1 H      0.104  0.896  0.000  0.000     1.752     2.070
 703   1 H      0.094  0.906  0.000  0.000     1.835     2.118
 704   1 H      0.084  0.916  0.000  0.000     1.940     2.178
 705   1 H      0.084  0.916  0.000  0.000     1.934     2.175
 706   1 H      0.101  0.899  0.000  0.000     1.774     2.083
 707   1 H      0.232  0.768  0.000  0.000     0.956     1.531
 708   1 H      0.220  0.780  0.000  0.000     1.011     1.575
 709   7 N     -0.162  1.197  3.965  0.000    24.497     7.351
 710   6 C     -0.005  1.042  2.963  0.000    20.674     6.475
 711   6 C      0.260  1.044  2.696  0.000    22.625     7.789
 712   8 O     -0.484  1.739  4.744  0.000    23.425     6.489
 713   6 C     -0.118  1.015  3.103  0.000    22.747     6.788
 714   6 C     -0.125  1.016  3.109  0.000    22.885     6.809
 715   6 C     -0.055  1.013  3.043  0.000    21.628     6.632
 716   7 N     -0.149  1.181  3.968  0.000    24.217     7.309
 717   6 C      0.219  1.025  2.756  0.000    23.368     7.915
 718   7 N     -0.244  1.166  4.078  0.000    26.374     7.627
 719   7 N     -0.268  1.175  4.093  0.000    26.948     7.710
 720   1 H      0.221  0.779  0.000  0.000     1.004     1.569
 721   1 H      0.109  0.891  0.000  0.000     1.702     2.040
 722   1 H      0.086  0.914  0.000  0.000     1.918     2.165
 723   1 H      0.106  0.894  0.000  0.000     1.732     2.058
 724   1 H      0.097  0.903  0.000  0.000     1.815     2.107
 725   1 H      0.087  0.913  0.000  0.000     1.907     2.159
 726   1 H      0.110  0.890  0.000  0.000     1.699     2.038
 727   1 H      0.099  0.901  0.000  0.000     1.790     2.092
 728   1 H      0.242  0.758  0.000  0.000     0.914     1.498
 729   1 H      0.247  0.753  0.000  0.000     0.897     1.483
 730   1 H      0.250  0.750  0.000  0.000     0.885     1.473
 731   1 H      0.253  0.747  0.000  0.000     0.870     1.461
 732   1 H      0.255  0.745  0.000  0.000     0.864     1.456
 733   7 N     -0.081  1.233  3.848  0.000    22.819     7.095
 734   6 C      0.000  1.044  2.956  0.000    20.542     6.447
 735   6 C      0.272  1.040  2.688  0.000    22.402     7.751
 736   8 O     -0.460  1.742  4.719  0.000    22.923     6.419
 737   6 C     -0.094  1.000  3.093  0.000    22.242     6.707
 738   6 C     -0.094  0.995  3.099  0.000    22.244     6.707
 739   6 C     -0.034  1.011  3.023  0.000    21.188     6.555
 740   1 H      0.072  0.928  0.000  0.000     2.059     2.244
 741   1 H      0.089  0.911  0.000  0.000     1.891     2.150
 742   1 H      0.072  0.928  0.000  0.000     2.060     2.244
 743   1 H      0.084  0.916  0.000  0.000     1.939     2.177
 744   1 H      0.072  0.928  0.000  0.000     2.059     2.244
 745   1 H      0.094  0.906  0.000  0.000     1.843     2.123
 746   1 H      0.079  0.921  0.000  0.000     1.988     2.205
 747   7 N     -0.189  1.207  3.982  0.000    25.093     7.440
 748   6 C      0.008  1.033  2.960  0.000    20.402     6.422
 749   6 C      0.268  1.036  2.696  0.000    22.472     7.764
 750   8 O     -0.491  1.760  4.731  0.000    23.590     6.512
 751   6 C     -0.043  1.019  3.024  0.000    21.315     6.569
 752  16 S     -0.150  1.942  4.110  0.098   147.389    20.433
 753   1 H      0.208  0.792  0.000  0.000     1.068     1.618
 754   1 H      0.103  0.897  0.000  0.000     1.756     2.072
 755   1 H      0.112  0.888  0.000  0.000     1.681     2.027
 756   1 H      0.093  0.907  0.000  0.000     1.853     2.128
 757   7 N     -0.172  1.200  3.972  0.000    24.721     7.384
 758   6 C      0.011  1.033  2.956  0.000    20.388     6.427
 759   6 C      0.266  1.040  2.695  0.000    22.518     7.771
 760   8 O     -0.483  1.739  4.744  0.000    23.402     6.486
 761   6 C     -0.100  1.007  3.093  0.000    22.392     6.733
 762   6 C     -0.093  0.999  3.094  0.000    22.252     6.713
 763   6 C     -0.117  1.007  3.110  0.000    22.718     6.783
 764   6 C     -0.073  1.015  3.058  0.000    21.970     6.687
 765   7 N     -0.136  1.143  3.993  0.000    23.936     7.266
 766   1 H      0.227  0.773  0.000  0.000     0.977     1.548
 767   1 H      0.083  0.917  0.000  0.000     1.951     2.184
 768   1 H      0.068  0.932  0.000  0.000     2.108     2.270
 769   1 H      0.071  0.929  0.000  0.000     2.069     2.249
 770   1 H      0.080  0.920  0.000  0.000     1.980     2.200
 771   1 H      0.079  0.921  0.000  0.000     1.993     2.208
 772   1 H      0.083  0.917  0.000  0.000     1.951     2.184
 773   1 H      0.080  0.920  0.000  0.000     1.980     2.200
 774   1 H      0.141  0.859  0.000  0.000     1.451     1.884
 775   1 H      0.142  0.858  0.000  0.000     1.445     1.880
 776   1 H      0.294  0.706  0.000  0.000     0.730     1.339
 777   1 H      0.283  0.717  0.000  0.000     0.767     1.372
 778   1 H      0.263  0.737  0.000  0.000     0.833     1.429
 779   7 N     -0.162  1.195  3.967  0.000    24.507     7.352
 780   6 C      0.034  1.029  2.937  0.000    20.008     6.368
 781   6 C      0.188  1.089  2.724  0.000    23.981     8.020
 782   8 O     -0.365  1.756  4.609  0.000    20.990     6.143
 783   6 C     -0.110  1.022  3.089  0.000    22.587     6.764
 784   6 C      0.370  1.021  2.609  0.000    20.726     7.451
 785   8 O     -0.643  1.780  4.863  0.000    27.208     6.993
 786   8 O     -0.640  1.776  4.864  0.000    27.123     6.982
 787   1 H      0.204  0.796  0.000  0.000     1.087     1.633
 788   1 H      0.092  0.908  0.000  0.000     1.856     2.130
 789   1 H      0.060  0.940  0.000  0.000     2.200     2.319
 790   1 H      0.069  0.931  0.000  0.000     2.094     2.263
 791   7 N     -0.411  1.288  4.123  0.000    30.678     8.226
 792   6 C      0.017  1.039  2.944  0.000    20.287     6.413
 793   6 C      0.194  1.088  2.718  0.000    23.860     8.000
 794   8 O     -0.383  1.766  4.617  0.000    21.344     6.194
 795   6 C     -0.031  1.032  2.999  0.000    21.083     6.530
 796   6 C     -0.173  0.979  3.194  0.000    23.880     6.961
 797   6 C     -0.152  0.976  3.176  0.000    23.465     6.902
 798   1 H      0.182  0.818  0.000  0.000     1.202     1.717
 799   1 H      0.075  0.925  0.000  0.000     2.032     2.229
 800   1 H      0.059  0.941  0.000  0.000     2.213     2.326
 801   1 H      0.083  0.917  0.000  0.000     1.949     2.183
 802   1 H      0.055  0.945  0.000  0.000     2.258     2.350
 803   1 H      0.070  0.930  0.000  0.000     2.081     2.256
 804   1 H      0.076  0.924  0.000  0.000     2.017     2.221
 805   1 H      0.053  0.947  0.000  0.000     2.285     2.364
 806   1 H      0.047  0.953  0.000  0.000     2.351     2.398
 807   7 N     -0.408  1.280  4.128  0.000    30.607     8.217
 808   6 C      0.019  1.033  2.948  0.000    20.258     6.409
 809   6 C      0.264  1.046  2.690  0.000    22.544     7.776
 810   8 O     -0.484  1.755  4.729  0.000    23.436     6.491
 811   6 C     -0.098  1.005  3.093  0.000    22.347     6.727
 812   6 C      0.048  1.066  2.886  0.000    26.812     8.486
 813   7 N     -0.165  1.333  3.832  0.000    24.560     7.360
 814   6 C     -0.033  1.046  2.987  0.000    28.758     8.794
 815   6 C      0.075  1.046  2.879  0.000    26.230     8.396
 816   7 N     -0.041  1.195  3.846  0.000    22.028     6.971
 817   1 H      0.189  0.811  0.000  0.000     1.166     1.691
 818   1 H      0.073  0.927  0.000  0.000     2.057     2.243
 819   1 H      0.080  0.920  0.000  0.000     1.976     2.198
 820   1 H      0.086  0.914  0.000  0.000     1.922     2.168
 821   1 H      0.123  0.877  0.000  0.000     1.589     1.971
 822   1 H      0.141  0.859  0.000  0.000     1.456     1.887
 823   1 H      0.257  0.743  0.000  0.000     0.856     1.450
 824   7 N     -0.204  1.216  3.988  0.000    25.442     7.491
 825   6 C      0.006  1.042  2.952  0.000    20.473     6.441
 826   6 C      0.271  1.046  2.683  0.000    22.422     7.754
 827   8 O     -0.506  1.757  4.749  0.000    23.919     6.557
 828   6 C     -0.089  1.005  3.084  0.000    22.182     6.703
 829   6 C     -0.129  1.013  3.116  0.000    22.959     6.819
 830   6 C      0.285  1.036  2.679  0.000    22.172     7.710
 831   8 O     -0.523  1.772  4.751  0.000    24.301     6.609
 832   7 N     -0.302  1.199  4.104  0.000    27.789     7.829
 833   1 H      0.230  0.770  0.000  0.000     0.964     1.538
 834   1 H      0.105  0.895  0.000  0.000     1.742     2.064
 835   1 H      0.081  0.919  0.000  0.000     1.969     2.194
 836   1 H      0.072  0.928  0.000  0.000     2.066     2.248
 837   1 H      0.097  0.903  0.000  0.000     1.813     2.106
 838   1 H      0.100  0.900  0.000  0.000     1.785     2.089
 839   1 H      0.247  0.753  0.000  0.000     0.893     1.480
 840   1 H      0.238  0.762  0.000  0.000     0.931     1.511
 841   7 N     -0.196  1.214  3.981  0.000    25.247     7.463
 842   6 C      0.005  1.046  2.949  0.000    20.493     6.445
 843   6 C      0.281  1.044  2.675  0.000    22.251     7.724
 844   8 O     -0.508  1.763  4.744  0.000    23.959     6.563
 845   6 C     -0.037  1.040  2.997  0.000    21.199     6.548
 846   6 C     -0.146  0.974  3.172  0.000    23.351     6.885
 847   6 C     -0.156  0.982  3.175  0.000    23.554     6.916
 848   1 H      0.228  0.772  0.000  0.000     0.974     1.546
 849   1 H      0.078  0.922  0.000  0.000     1.996     2.209
 850   1 H      0.081  0.919  0.000  0.000     1.965     2.192
 851   1 H      0.083  0.917  0.000  0.000     1.948     2.182
 852   1 H      0.066  0.934  0.000  0.000     2.131     2.283
 853   1 H      0.039  0.961  0.000  0.000     2.467     2.456
 854   1 H      0.077  0.923  0.000  0.000     2.009     2.216
 855   1 H      0.038  0.962  0.000  0.000     2.474     2.459
 856   1 H      0.068  0.932  0.000  0.000     2.112     2.273
 857   7 N     -0.199  1.209  3.990  0.000    25.324     7.474
 858   6 C      0.034  1.035  2.932  0.000    19.981     6.360
 859   6 C      0.271  1.040  2.689  0.000    22.420     7.754
 860   8 O     -0.514  1.751  4.763  0.000    24.087     6.580
 861   6 C      0.016  0.999  2.985  0.000    20.298     6.412
 862  16 S     -0.460  1.904  4.537  0.020   161.622    21.398
 863   1 H      0.221  0.779  0.000  0.000     1.004     1.569
 864   1 H      0.074  0.926  0.000  0.000     2.038     2.232
 865   1 H      0.053  0.947  0.000  0.000     2.281     2.362
 866   1 H      0.050  0.950  0.000  0.000     2.315     2.379
 867   7 N     -0.175  1.205  3.970  0.000    24.791     7.395
 868   6 C      0.008  1.043  2.949  0.000    20.432     6.434
 869   6 C      0.267  1.044  2.689  0.000    22.502     7.768
 870   8 O     -0.496  1.756  4.740  0.000    23.691     6.526
 871   6 C     -0.017  1.022  2.994  0.000    20.830     6.490
 872   6 C     -0.151  0.970  3.182  0.000    23.423     6.891
 873   6 C     -0.153  0.978  3.175  0.000    23.468     6.899
 874   1 H      0.215  0.785  0.000  0.000     1.033     1.592
 875   1 H      0.104  0.896  0.000  0.000     1.747     2.067
 876   1 H      0.059  0.941  0.000  0.000     2.210     2.325
 877   1 H      0.076  0.924  0.000  0.000     2.019     2.222
 878   1 H      0.051  0.949  0.000  0.000     2.307     2.375
 879   1 H      0.064  0.936  0.000  0.000     2.156     2.296
 880   1 H      0.080  0.920  0.000  0.000     1.982     2.202
 881   1 H      0.060  0.940  0.000  0.000     2.196     2.317
 882   1 H      0.051  0.949  0.000  0.000     2.311     2.377
 883   7 N     -0.171  1.202  3.969  0.000    24.708     7.383
 884   6 C     -0.035  1.000  3.035  0.000    21.253     6.572
 885   6 C      0.207  1.077  2.716  0.000    23.611     7.958
 886   8 O     -0.356  1.756  4.600  0.000    20.818     6.117
 887   1 H      0.226  0.774  0.000  0.000     0.982     1.552
 888   1 H      0.106  0.894  0.000  0.000     1.729     2.056
 889   1 H      0.107  0.893  0.000  0.000     1.726     2.054
 890   1 H      0.199  0.801  0.000  0.000     1.110     1.650
 891   1 H      0.077  0.923  0.000  0.000     2.014     2.219
 892   1 H      0.190  0.810  0.000  0.000     1.156     1.684
 893   1 H      0.093  0.907  0.000  0.000     1.850     2.127
 894   1 H      0.186  0.814  0.000  0.000     1.180     1.701
 895   1 H      0.084  0.916  0.000  0.000     1.938     2.177
 896   1 H      0.172  0.828  0.000  0.000     1.260     1.758
 897   1 H      0.063  0.937  0.000  0.000     2.160     2.298
 898   1 H      0.194  0.806  0.000  0.000     1.136     1.670
 899   1 H      0.109  0.891  0.000  0.000     1.707     2.043
 900   1 H      0.094  0.906  0.000  0.000     1.837     2.119
 901   1 H      0.197  0.803  0.000  0.000     1.123     1.660
 902   1 H      0.078  0.922  0.000  0.000     2.001     2.212
 903   1 H      0.193  0.807  0.000  0.000     1.142     1.674
 904   1 H      0.088  0.912  0.000  0.000     1.901     2.156
 905   1 H      0.172  0.828  0.000  0.000     1.262     1.760
 906   1 H      0.069  0.931  0.000  0.000     2.093     2.262
 907   1 H      0.194  0.806  0.000  0.000     1.135     1.669
 908   1 H      0.079  0.921  0.000  0.000     1.992     2.207

 Mol. C6AA /au·bohr⁶  :    8683022.877343
 Mol. C8AA /au·bohr⁸  :  208479035.267324
 Mol. α(0) /au        :       4459.689347

 
molecular dipole:
                 x           y           z       tot (Debye)
 q only:     -474.561    -468.594    -674.736
   full:     -469.141    -472.613    -672.709    2405.990
molecular quadrupole (traceless):
                xx          xy          yy          xz          yz          zz
 q only:    40734.500 -115148.813   39330.059 -158113.974 -157824.774  -80064.559
  q+dip:    42334.396 -114363.515   36860.706 -155896.730 -158666.229  -79195.103
   full:    42335.155 -114358.945   36860.806 -155896.448 -158668.584  -79195.961
speedup 17.40
cpu  time for grad    7 m 14.4 s
wall time for grad    0 m 25.0 s

SCC energy    :   -1494.8542876
rep           :      30.3928052
ES            :       5.8483233
AES           :      -0.3249016
AXC           :       0.1985926
disp          :      -1.3372457
XB            :       0.0000000
fix           :       0.0000000
Gborn         :       0.0000000
Gsasa         :       0.0000000
Ghb           :       0.0000000
Gshift        :       0.0000000
Gsolv         :      -1.7790121    -1116.35
Etot ala COSMO:   -1494.8542876
grad norm     :       3.9313691
total E       :   -1464.3181910
atomizationE  :     253.7615377   159237.77
(atE without considering molecular charge,
 total energy contains solvation terms)
H-L gap (eV)  :          0.9790

------------------------------------------------------------------------
 * finished run on 2019/02/20 at 00:10:22.761     
------------------------------------------------------------------------
 total:
 * wall-time:     0 d,  0 h,  0 min, 26.842 sec
 *  cpu-time:     0 d,  0 h,  7 min, 31.763 sec
 * ratio c/w:    16.831 speedup
 SCF:
 * wall-time:     0 d,  0 h,  0 min, 25.946 sec
 *  cpu-time:     0 d,  0 h,  7 min, 25.557 sec
 * ratio c/w:    17.172 speedup

