      -----------------------------------------------------------      
     |                   =====================                   |     
     |                           x T B                           |     
     |                   =====================                   |     
     |                         S. Grimme                         |     
     |          Mulliken Center for Theoretical Chemistry        |     
     |                    University of Bonn                     |     
     |                 Version 6.0.1 (SAW181210)                 |     
      -----------------------------------------------------------      

   This program is distributed in the hope that it will be useful,
   but WITHOUT ANY WARRANTY; without even the implied warranty of
   MERCHANTABILITY or FITNESS FOR A PARTICULAR PURPOSE.
   
   FOR NON-COMMERCIAL, ACADEMIA USE ONLY.
   
   Cite this work as:
   S. Grimme, C. Bannwarth, P. Shushkov, J. Comput. Theory Chem., 2017,
   13, 1989-2009.
   C. Bannwarth, S. Ehlert and S. Grimme., ChemRxiv, 2018, preprint.
   http://doi.org/10.26434/chemrxiv.7246238.v1
   
   for sTDA-xTB:
   S. Grimme and C. Bannwarth, J. Chem. Phys., 2016, 145, 054103.
   
   in the mass-spec context:
   V. Asgeirsson, C. Bauer and S. Grimme, Chem. Sci., 2017, 8, 4879.
   
   if GBSA is used:
   P. Shushkov, F. März and S. Grimme, unpublished.
   
   for ANC optimizer:
   S. Grimme, unpublished.
   Rational Function algorithm used in ANCopt:
   F. Eckert, P. Pulay, H.-J. Werner, J. Comput. Chem., 1997, 18, 1473.
   
   with help from (in alphabetical order)
   C. Bannwarth, F. Bohle, G. Brandenburg, E. Caldeweyher, M. Checinski,
   S. Dohm, S. Ehlert, S. Ehrlich, F. März, H. Neugebauer, J. Pisarek,
   P. Pracht, P. Shushkov, and S. Spicher.
   
 * started run on 2019/05/04 at 20:22:39.020     
========================================================================
 # omp threads = 2
========================================================================
number of atoms            : 1496
number of electrons        : 4124
charge                     : -12
spin                       : .0
first test random number   : .6176

########################################################################
# WARNING! Please study the warnings concerning your input carefully
#  - Process number higher than OMP_NUM_THREADS, I hope you know what you are doing.
########################################################################

           ------------------------------------------------- 
          |                 G F N 2 - x T B                 |
          | Geometry, Frequencies, Noncovalent interactions |
          |            JCTC 2018 parametrisation            |
           ------------------------------------------------- 
 
      method parameters     
 k(s)        :  1.8500
 k(p)        :  2.2300
 k(d)        :  2.2300
 k(f)        :  2.0000
 kEN (H0ij)  : -2.0000
 D4 a1       :  0.5200
 D4 a2       :  5.0000
 D4 s6       :  1.0000
 D4 s8       :  2.7000
 D4 s9       :  5.0000
 alphaj      :  2.0000

 Solvent             : h2o
 Using internal parameter file: .param_gbsa2_h2o
 Gsolv ref. state (COSMO-RS): gsolv [1 M gas/solution]
 temperature (mdtemp)       :    298.150000000000     
 dielectric constant        :    80.2000000000000     
 rho                        :    1.00000000000000     
 mass                       :    18.0000000000000     
 surface tension            :    15.5689454083859     
 probe radius               :   0.975313790000000     
 vdW radii scaling          :    1.00000000000000     
 Gshift (Eh)                :   1.857443126794793E-003
 c1                         :    1.55243817000000     
 soset                      :   0.130326360000000     
 HB correction              :  T

            Z     q(EN)     CN     RAES       Cart. coordinates
     1  N   5.0   -0.13    4.08    3.08    14.81356   183.25428    -5.40273
     2  C   4.0   -0.00    4.20    4.01    12.22464   182.15446    -5.60115
     3  C   4.0    0.06    3.22    3.04    10.60136   182.85933    -3.33537
     4  O   6.0   -0.34    1.13    1.80    11.51977   183.11633    -1.20942
     5  C   4.0    0.03    4.14    3.88    12.32857   179.27452    -5.86949
     6  O   6.0   -0.26    2.06    1.83     9.85681   178.29375    -6.18129
     7  H   1.0    0.04    1.02    1.43    16.14204   181.80675    -5.39895
     8  H   1.0    0.02    1.01    1.43    15.14048   184.43914    -6.93529
     9  H   1.0    0.04    1.03    1.43    14.96285   184.28418    -3.73599
    10  H   1.0    0.03    1.05    1.44    11.33458   182.92169    -7.29245
    11  H   1.0    0.04    1.01    1.43    13.46430   178.78886    -7.51733
    12  H   1.0    0.04    1.01    1.43    13.16950   178.46572    -4.17251
    13  H   1.0    0.14    1.04    1.43     9.49020   178.06321    -7.98220
    14  N   5.0   -0.21    3.21    1.96     4.46731   179.82065    -2.39428
    15  C   4.0    0.02    4.26    4.11     3.01978   177.58889    -1.67997
    16  C   4.0    0.14    3.41    3.08     4.61849   175.75774    -0.13606
    17  O   6.0   -0.32    1.24    1.80     4.03456   175.17760     2.03523
    18  C   4.0   -0.08    4.12    3.85     2.00311   176.29253    -4.04023
    19  H   1.0    0.09    1.03    1.43     5.08336   179.77908    -4.21976
    20  H   1.0    0.03    1.06    1.44     1.42107   178.17470    -0.51967
    21  H   1.0    0.04    1.00    1.43     0.92597   174.62957    -3.48088
    22  H   1.0    0.03    1.00    1.43     0.78613   177.60778    -5.05691
    23  H   1.0    0.05    1.00    1.43     3.58670   175.73506    -5.23454
    24  N   5.0   -0.15    3.46    2.05     6.64617   174.85445    -1.30202
    25  C   4.0    0.03    4.28    4.16     8.42062   173.11401    -0.10960
    26  C   4.0    0.08    3.22    3.04     9.35036   174.16659     2.43019
    27  O   6.0   -0.31    1.12    1.80     9.51666   172.77575     4.30480
    28  C   4.0   -0.05    4.31    4.22    10.63727   172.60001    -1.92563
    29  C   4.0   -0.03    4.14    3.88    10.46341   170.74430    -4.18196
    30  C   4.0   -0.08    4.07    3.75     7.77811   170.12258    -5.11927
    31  C   4.0   -0.07    4.09    3.79    12.06023   171.75152    -6.37405
    32  H   1.0    0.08    1.07    1.44     7.12994   175.29854    -3.11427
    33  H   1.0    0.05    1.06    1.44     7.49276   171.31500     0.26834
    34  H   1.0    0.04    1.05    1.44    11.14182   174.41604    -2.75522
    35  H   1.0    0.04    1.04    1.43    12.18873   171.89892    -0.76534
    36  H   1.0    0.04    1.06    1.44    11.18340   168.94528    -3.48465
    37  H   1.0    0.04    1.00    1.43     7.90661   168.80733    -6.69908
    38  H   1.0    0.04    1.00    1.43     6.71231   169.26653    -3.57914
    39  H   1.0    0.05    1.00    1.43     6.85971   171.86302    -5.72587
    40  H   1.0    0.05    1.00    1.43    11.92984   170.44005    -7.95575
    41  H   1.0    0.05    1.00    1.43    11.34214   173.59967    -6.93340
    42  H   1.0    0.04    1.00    1.43    14.01799   171.91593    -5.75611
    43  N   5.0   -0.21    3.20    1.96     4.77912   171.49452     6.85215
    44  C   4.0    0.03    4.23    4.07     4.45597   168.77520     6.81813
    45  C   4.0    0.07    3.21    3.04     6.75955   167.46751     7.93874
    46  O   6.0   -0.31    1.13    1.80     6.82191   165.14504     8.09748
    47  C   4.0   -0.04    4.38    4.35     3.96465   167.79822     4.14795
    48  C   4.0   -0.03    4.21    4.01     1.83114   165.84424     4.03079
    49  C   4.0   -0.09    4.13    3.86    -0.40440   167.13303     2.78546
    50  C   4.0   -0.08    4.09    3.79     2.56625   163.44807     2.60593
    51  H   1.0    0.11    1.04    1.43     5.04557   172.29198     5.11738
    52  H   1.0    0.03    1.07    1.44     2.77979   168.28199     7.90850
    53  H   1.0    0.04    1.05    1.44     3.44119   169.38559     2.94230
    54  H   1.0    0.05    1.04    1.43     5.68241   166.91004     3.43741
    55  H   1.0    0.04    1.06    1.44     1.36249   165.20173     5.92996
    56  H   1.0    0.03    1.00    1.43    -1.96909   165.79700     2.66829
    57  H   1.0    0.03    1.00    1.43    -0.95620   168.76198     3.91929
    58  H   1.0    0.03    1.00    1.43     0.14173   167.74341     0.89573
    59  H   1.0    0.03    1.00    1.43     0.96376   162.15360     2.60026
    60  H   1.0    0.03    1.00    1.43     3.07458   163.94695     0.67274
    61  H   1.0    0.05    1.00    1.43     4.17440   162.57312     3.55080
    62  N   5.0   -0.24    3.23    1.96   -22.38002   154.49454     0.98455
    63  C   4.0    0.03    4.31    4.22   -20.61502   155.97231    -0.49889
    64  C   4.0    0.06    3.28    3.05   -17.94484   155.27122     0.13984
    65  O   6.0   -0.34    1.30    1.80   -16.58046   154.21487    -1.41729
    66  C   4.0    0.04    4.28    4.15   -20.86257   158.76344     0.12850
    67  O   6.0   -0.29    2.10    1.84   -23.49118   159.41917     0.35905
    68  C   4.0   -0.08    4.08    3.76   -19.56433   160.35459    -1.89162
    69  H   1.0    0.06    1.04    1.43   -23.44961   155.56791     2.17507
    70  H   1.0    0.04    1.06    1.44   -21.02509   155.62082    -2.48688
    71  H   1.0    0.02    1.05    1.44   -19.94228   159.17918     1.92374
    72  H   1.0    0.08    1.00    1.43   -23.67827   160.91394     1.43808
    73  H   1.0    0.03    1.00    1.43   -19.74386   162.35580    -1.43619
    74  H   1.0    0.04    1.00    1.43   -17.56500   159.86893    -1.99366
    75  H   1.0    0.04    1.00    1.43   -20.43172   160.00688    -3.72843
    76  N   5.0   -0.22    3.29    1.98   -15.79244   149.05780    -1.37761
    77  C   4.0    0.03    4.37    4.32   -15.59213   148.55514    -4.07236
    78  C   4.0    0.15    3.49    3.11   -13.38115   149.97432    -5.06636
    79  O   6.0   -0.32    1.27    1.80   -12.00165   149.05213    -6.64995
    80  C   4.0   -0.04    4.28    4.16   -17.97885   149.29780    -5.53690
    81  C   4.0   -0.04    4.18    3.96   -18.76120   147.29658    -7.50977
    82  C   4.0    0.24    3.11    3.03   -20.02354   148.40963    -9.83224
    83  O   6.0   -0.30    1.19    1.80   -20.54699   150.72265    -9.86248
    84  O   6.0   -0.30    1.17    1.80   -20.48463   146.96021   -11.64449
    85  H   1.0    0.09    1.04    1.43   -17.20973   150.26534    -0.87872
    86  H   1.0    0.05    1.07    1.44   -15.38615   146.52557    -4.36338
    87  H   1.0    0.04    1.03    1.43   -19.53599   149.52646    -4.20842
    88  H   1.0    0.06    1.04    1.43   -17.63303   151.07036    -6.52900
    89  H   1.0    0.06    1.03    1.43   -17.07934   146.28369    -8.13149
    90  H   1.0    0.03    1.03    1.43   -20.08968   145.98700    -6.63672
    91  N   5.0   -0.15    3.64    2.20   -13.02399   152.21365    -4.05724
    92  C   4.0    0.03    4.51    4.56   -11.09836   153.84637    -4.98888
    93  C   4.0    0.15    3.57    3.15    -8.48109   153.09237    -4.00055
    94  O   6.0   -0.32    1.34    1.80    -6.55735   153.70086    -5.14005
    95  C   4.0   -0.04    4.50    4.53   -11.77677   156.51277    -4.27645
    96  C   4.0   -0.04    4.17    3.95   -10.70341   157.26866    -1.79713
    97  S   6.0   -0.03    2.73    3.11    -7.76299   158.79178    -2.44342
    98  C   4.0   -0.07    3.95    3.54    -8.96486   161.82479    -3.35426
    99  H   1.0    0.12    1.18    1.46   -14.04822   152.93552    -2.59270
   100  H   1.0    0.05    1.07    1.44   -11.00009   153.77834    -7.04490
   101  H   1.0    0.05    1.09    1.44   -11.04545   157.79779    -5.70886
   102  H   1.0    0.05    1.04    1.44   -13.82712   156.67718    -4.16307
   103  H   1.0    0.03    1.07    1.44   -11.96574   158.58202    -0.83526
   104  H   1.0    0.04    1.09    1.44   -10.37837   155.61137    -0.61794
   105  H   1.0    0.04    1.09    1.44    -7.38505   163.05500    -3.83425
   106  H   1.0    0.05    1.04    1.43   -10.19696   161.59425    -4.98888
   107  H   1.0    0.03    1.09    1.44   -10.02689   162.62604    -1.78012
   108  N   5.0   -0.15    3.53    2.10    -8.39227   151.76200    -1.89351
   109  C   4.0    0.03    4.46    4.47    -6.03389   150.60738    -1.12628
   110  C   4.0    0.15    3.60    3.17    -5.20808   148.67986    -3.06891
   111  O   6.0   -0.31    1.44    1.80    -3.14639   148.88584    -4.09504
   112  C   4.0   -0.06    4.39    4.36    -6.31357   149.31859     1.42296
   113  C   4.0   -0.03    4.22    4.05    -5.15895   146.68620     1.80847
   114  C   4.0   -0.08    4.06    3.72    -2.22232   146.51423     1.56658
   115  C   4.0   -0.10    4.11    3.82    -6.05468   145.75078     4.35771
   116  H   1.0    0.07    1.06    1.44    -9.87949   151.45587    -0.70676
   117  H   1.0    0.05    1.06    1.44    -4.61282   152.08892    -0.95053
   118  H   1.0    0.03    1.05    1.44    -5.44619   150.54502     2.83270
   119  H   1.0    0.03    1.05    1.44    -8.32991   149.12961     1.79902
   120  H   1.0    0.04    1.09    1.44    -5.79579   145.47488     0.26834
   121  H   1.0    0.03    1.00    1.43    -1.63650   144.56404     1.87650
   122  H   1.0    0.05    1.01    1.43    -1.66863   147.12083    -0.32125
   123  H   1.0    0.03    1.00    1.43    -1.36060   147.74066     2.98010
   124  H   1.0    0.02    1.00    1.43    -5.26856   143.87806     4.69786
   125  H   1.0    0.03    1.00    1.43    -5.41218   147.05847     5.81469
   126  H   1.0    0.02    1.00    1.43    -8.11259   145.65819     4.35393
   127  N   5.0   -0.15    3.58    2.14    -6.82380   146.79391    -3.51678
   128  C   4.0    0.02    4.44    4.44    -6.35704   144.85505    -5.38761
   129  C   4.0    0.17    3.58    3.16    -4.92652   146.09093    -7.53056
   130  O   6.0   -0.31    1.28    1.80    -2.94230   145.20276    -8.33369
   131  C   4.0   -0.04    4.36    4.31    -8.84959   143.88940    -6.43263
   132  C   4.0   -0.04    4.16    3.91   -10.44074   142.21511    -4.73565
   133  C   4.0    0.23    3.11    3.02   -12.90305   141.40252    -6.07925
   134  O   6.0   -0.30    1.19    1.80   -13.43973   142.40219    -8.17495
   135  O   6.0   -0.33    1.15    1.80   -14.32412   139.77925    -5.05880
   136  H   1.0    0.07    1.06    1.44    -8.49810   146.56903    -2.58703
   137  H   1.0    0.04    1.05    1.44    -5.31580   143.27524    -4.57314
   138  H   1.0    0.08    1.05    1.44   -10.00799   145.52402    -6.90884
   139  H   1.0    0.05    1.04    1.43    -8.43952   142.79714    -8.12960
   140  H   1.0    0.03    1.03    1.43    -9.37304   140.52191    -4.24810
   141  H   1.0    0.03    1.03    1.43   -10.94151   143.24879    -3.02545
   142  N   5.0   -0.13    3.56    2.12    -5.98098   148.19609    -8.40550
   143  C   4.0    0.03    4.41    4.39    -4.84526   149.78535   -10.32357
   144  C   4.0    0.16    3.56    3.14    -2.14484   150.39762    -9.62626
   145  O   6.0   -0.31    1.42    1.80    -0.37039   149.56614   -10.88860
   146  C   4.0   -0.05    4.28    4.15    -6.35326   152.24010   -10.69207
   147  C   4.0   -0.05    4.16    3.91    -8.97998   151.91318   -11.89960
   148  C   4.0   -0.04    4.15    3.89   -10.52577   154.37927   -11.95819
   149  C   4.0   -0.02    4.11    3.83   -13.36603   153.88794   -12.13771
   150  N   5.0   -0.10    4.03    2.95   -14.14271   152.84103   -14.64916
   151  H   1.0    0.10    1.07    1.44    -7.68174   148.86694    -7.79512
   152  H   1.0    0.05    1.06    1.44    -4.86415   148.76868   -12.11503
   153  H   1.0    0.07    1.06    1.44    -6.62916   153.11693    -8.84770
   154  H   1.0    0.04    1.03    1.43    -5.26667   153.49299   -11.91283
   155  H   1.0    0.04    1.03    1.43    -8.74754   151.26500   -13.84035
   156  H   1.0    0.06    1.03    1.43   -10.04578   150.52423   -10.81679
   157  H   1.0    0.05    1.03    1.43   -10.16862   155.44319   -10.23098
   158  H   1.0    0.06    1.03    1.43    -9.96264   155.49043   -13.59847
   159  H   1.0    0.05    1.02    1.43   -13.90460   152.52734   -10.68829
   160  H   1.0    0.06    1.02    1.43   -14.37326   155.66051   -11.84858
   161  H   1.0    0.08    1.01    1.43   -16.08535   152.53868   -14.67939
   162  H   1.0    0.11    1.05    1.44   -13.67028   154.10337   -16.07968
   163  H   1.0    0.07    1.02    1.43   -13.22619   151.13272   -14.97797
   164  N   5.0   -0.13    3.60    2.16    -1.78390   151.80735    -7.59481
   165  C   4.0    0.04    4.65    4.71     0.76723   152.47632    -6.97120
   166  C   4.0    0.17    3.71    3.25     2.34326   150.17463    -7.18663
   167  O   6.0   -0.31    1.37    1.80     4.03268   150.00456    -8.73998
   168  C   4.0   -0.05    4.49    4.52     0.98077   153.32291    -4.28590
   169  C   4.0   -0.03    4.25    4.10     3.55457   154.60415    -4.03456
   170  C   4.0   -0.08    4.15    3.90     3.59237   156.93796    -5.73343
   171  C   4.0   -0.08    4.07    3.74     4.17818   155.33169    -1.26990
   172  H   1.0    0.11    1.09    1.44    -3.15773   152.47254    -6.41562
   173  H   1.0    0.04    1.09    1.44     1.36249   154.00511    -8.21653
   174  H   1.0    0.04    1.03    1.43    -0.51212   154.66840    -3.83425
   175  H   1.0    0.04    1.05    1.44     0.88250   151.70720    -3.01222
   176  H   1.0    0.04    1.06    1.44     5.02100   153.28134    -4.61849
   177  H   1.0    0.03    1.00    1.43     5.42540   157.86204    -5.56335
   178  H   1.0    0.03    1.02    1.43     3.27867   156.35215    -7.68363
   179  H   1.0    0.03    1.00    1.43     2.09949   158.22486    -5.13816
   180  H   1.0    0.04    1.00    1.43     6.02823   156.23498    -1.21509
   181  H   1.0    0.04    1.00    1.43     2.74010   156.63560    -0.57826
   182  H   1.0    0.03    1.00    1.43     4.19330   153.62716    -0.11527
   183  N   5.0   -0.14    3.59    2.15     1.71587   148.38506    -5.57091
   184  C   4.0    0.04    4.42    4.41     2.97821   145.97188    -5.45186
   185  C   4.0    0.17    3.54    3.13     3.92685   144.97600    -7.99921
   186  O   6.0   -0.29    1.30    1.80     6.05657   144.05759    -8.19385
   187  C   4.0   -0.04    4.25    4.10     1.26801   144.04436    -4.11015
   188  C   4.0   -0.04    4.17    3.93     2.31680   141.33827    -3.95520
   189  C   4.0    0.24    3.12    3.03     5.12116   141.20221    -3.20875
   190  O   6.0   -0.27    1.17    1.80     6.62916   140.05704    -4.64495
   191  O   6.0   -0.31    1.17    1.80     5.81280   142.25857    -1.20565
   192  H   1.0    0.10    1.12    1.45     0.29480   148.55892    -4.28023
   193  H   1.0    0.06    1.07    1.44     4.70164   146.23077    -4.35204
   194  H   1.0    0.04    1.03    1.43     0.95242   144.69065    -2.18074
   195  H   1.0    0.06    1.04    1.43    -0.52345   143.95176    -5.12305
   196  H   1.0    0.03    1.03    1.43     1.24155   140.29136    -2.54357
   197  H   1.0    0.05    1.03    1.43     2.11649   140.44443    -5.79957
   198  N   5.0   -0.13    3.56    2.13     2.41885   145.15174    -9.97208
   199  C   4.0    0.04    4.63    4.70     3.44119   144.18987   -12.31345
   200  C   4.0    0.16    3.59    3.16     5.52745   145.90952   -13.24131
   201  O   6.0   -0.31    1.41    1.80     7.61560   145.05158   -13.81390
   202  C   4.0   -0.02    4.33    4.25     1.47399   143.76090   -14.37137
   203  C   4.0   -0.07    4.16    3.92    -0.71054   142.28125   -13.34524
   204  C   4.0   -0.07    4.22    4.05     0.62361   146.24022   -15.45607
   205  H   1.0    0.12    1.09    1.44     0.63684   145.88495   -10.00799
   206  H   1.0    0.06    1.08    1.44     4.19708   142.32471   -11.87693
   207  H   1.0    0.05    1.06    1.44     2.31302   142.66486   -15.90015
   208  H   1.0    0.04    1.00    1.43    -2.09193   141.99779   -14.84569
   209  H   1.0    0.04    1.00    1.43    -0.02835   140.45955   -12.66683
   210  H   1.0    0.06    1.02    1.43    -1.56469   143.33382   -11.79378
   211  H   1.0    0.04    1.00    1.43    -0.78046   145.88495   -16.92061
   212  H   1.0    0.07    1.03    1.43    -0.20220   147.38162   -13.95374
   213  H   1.0    0.05    1.03    1.43     2.25066   147.21154   -16.26298
   214  N   5.0   -0.13    3.62    2.18     4.98321   148.34349   -13.35091
   215  C   4.0    0.04    4.62    4.69     6.91829   150.07448   -14.14082
   216  C   4.0    0.17    3.71    3.24     9.40328   149.29969   -12.92195
   217  O   6.0   -0.30    1.47    1.80    11.20796   148.66474   -14.22208
   218  C   4.0   -0.02    4.37    4.32     6.26444   152.74466   -13.43973
   219  C   4.0   -0.08    4.19    3.98     8.60581   154.38494   -13.50209
   220  C   4.0   -0.08    4.16    3.92     4.32180   153.71598   -15.26332
   221  H   1.0    0.10    1.08    1.44     3.27678   149.12961   -12.91817
   222  H   1.0    0.05    1.07    1.44     7.11104   149.97243   -16.18928
   223  H   1.0    0.06    1.07    1.44     5.49910   152.81080   -11.52922
   224  H   1.0    0.03    1.00    1.43     8.08803   156.31057   -12.98809
   225  H   1.0    0.04    1.02    1.43     9.97964   153.64417   -12.15850
   226  H   1.0    0.04    1.00    1.43     9.39572   154.35282   -15.40316
   227  H   1.0    0.04    1.00    1.43     3.83992   155.65484   -14.76065
   228  H   1.0    0.04    1.00    1.43     5.10226   153.65740   -17.16816
   229  H   1.0    0.04    1.00    1.43     2.64562   152.52545   -15.15371
   230  N   5.0   -0.14    3.57    2.13     9.48076   149.31103   -10.43129
   231  C   4.0    0.04    4.62    4.68    11.63504   148.31703    -9.15572
   232  C   4.0    0.17    3.66    3.21    12.77077   146.11928   -10.60325
   233  O   6.0   -0.33    1.59    1.81    14.62459   146.49911   -11.88071
   234  C   4.0   -0.02    4.36    4.31    10.95474   147.58193    -6.52333
   235  C   4.0   -0.06    4.14    3.89    13.20163   146.34794    -5.19864
   236  C   4.0   -0.08    4.15    3.90    10.03822   149.92519    -5.11360
   237  H   1.0    0.09    1.09    1.44     8.08992   149.99133    -9.28422
   238  H   1.0    0.04    1.07    1.44    13.08824   149.77590    -9.09525
   239  H   1.0    0.07    1.07    1.44     9.43918   146.18731    -6.53845
   240  H   1.0    0.06    1.00    1.43    12.64983   145.83204    -3.28245
   241  H   1.0    0.05    1.02    1.43    13.75532   144.66419    -6.24743
   242  H   1.0    0.04    1.00    1.43    14.76632   147.68775    -5.14383
   243  H   1.0    0.04    1.00    1.43     9.53934   149.39606    -3.18608
   244  H   1.0    0.04    1.00    1.43    11.54812   151.32547    -5.08903
   245  H   1.0    0.04    1.01    1.43     8.38849   150.68864    -6.08303
   246  N   5.0   -0.13    3.50    2.08    11.71819   143.85728   -10.50877
   247  C   4.0    0.05    4.58    4.64    12.95785   141.81448   -11.89205
   248  C   4.0    0.16    3.61    3.17    13.91594   142.50612   -14.47152
   249  O   6.0   -0.31    1.39    1.80    16.01732   141.80692   -15.20851
   250  C   4.0   -0.03    4.42    4.41    11.27033   139.55059   -12.16984
   251  C   4.0    0.15    3.28    3.05    11.78433   137.67598   -10.21019
   252  O   6.0   -0.30    1.28    1.80    12.44385   138.36573    -8.07102
   253  N   5.0   -0.19    3.19    1.95    11.54812   135.27225   -10.87537
   254  H   1.0    0.11    1.06    1.44    10.10814   143.39618    -9.55445
   255  H   1.0    0.05    1.11    1.45    14.60002   141.35717   -10.73553
   256  H   1.0    0.06    1.04    1.43     9.30312   140.14019   -12.00732
   257  H   1.0    0.04    1.05    1.44    11.59536   138.67754   -14.00665
   258  H   1.0    0.08    1.02    1.43    11.88260   133.87763    -9.58658
   259  H   1.0    0.08    1.03    1.43    11.03222   134.81683   -12.67628
   260  N   5.0   -0.13    3.62    2.18    12.31345   143.86673   -15.83590
   261  C   4.0    0.04    4.47    4.49    12.93517   144.77757   -18.31900
   262  C   4.0    0.17    3.52    3.12    15.62236   145.77535   -18.33412
   263  O   6.0   -0.29    1.24    1.80    16.99431   145.49756   -20.17660
   264  C   4.0   -0.03    4.34    4.28    11.04923   146.79391   -19.11458
   265  C   4.0   -0.03    4.22    4.04     8.55101   145.70543   -19.90826
   266  C   4.0    0.25    3.14    3.03     7.71197   146.74289   -22.44239
   267  O   6.0   -0.30    1.19    1.80     6.43263   148.72143   -22.44428
   268  O   6.0   -0.27    1.17    1.80     8.33936   145.60716   -24.43416
   269  H   1.0    0.12    1.13    1.45    10.54656   144.36750   -15.24820
   270  H   1.0    0.05    1.06    1.44    12.82368   143.25634   -19.70228
   271  H   1.0    0.08    1.09    1.44    10.71664   148.06381   -17.52721
   272  H   1.0    0.06    1.04    1.43    11.82213   147.84460   -20.70762
   273  H   1.0    0.05    1.04    1.43     8.71920   143.65886   -20.06889
   274  H   1.0    0.06    1.03    1.43     7.12238   146.18542   -18.50609
   275  N   5.0   -0.13    3.68    2.25    16.38392   146.87517   -16.22897
   276  C   4.0    0.04    4.49    4.53    18.95206   147.66697   -15.92661
   277  C   4.0    0.15    3.63    3.19    20.53376   145.49945   -14.96663
   278  O   6.0   -0.30    1.46    1.80    22.37436   144.79836   -16.16661
   279  C   4.0   -0.04    4.33    4.26    19.08812   149.88928   -14.12759
   280  C   4.0   -0.04    4.19    3.99    17.33068   152.03601   -14.82112
   281  C   4.0   -0.01    4.18    3.96    18.32845   153.77078   -16.91116
   282  N   5.0   -0.14    3.38    2.01    20.97407   154.56258   -16.58612
   283  C   4.0    0.10    3.32    3.06    21.78854   156.66962   -15.44473
   284  N   5.0   -0.18    3.24    1.97    20.18416   158.31935   -14.40916
   285  N   5.0   -0.18    3.23    1.96    24.26597   157.12882   -15.33324
   286  H   1.0    0.13    1.20    1.47    15.25198   147.23422   -14.71152
   287  H   1.0    0.07    1.07    1.44    19.70039   148.29246   -17.74075
   288  H   1.0    0.05    1.04    1.43    18.57979   149.24489   -12.23787
   289  H   1.0    0.05    1.04    1.43    21.01186   150.62439   -14.12759
   290  H   1.0    0.06    1.04    1.43    15.54489   151.24044   -15.47308
   291  H   1.0    0.04    1.03    1.43    17.01698   153.19630   -13.14871
   292  H   1.0    0.06    1.03    1.43    18.19428   152.77678   -18.71018
   293  H   1.0    0.04    1.03    1.43    17.17194   155.47531   -16.96029
   294  H   1.0    0.09    1.06    1.44    22.32333   153.38717   -17.30233
   295  H   1.0    0.08    1.03    1.43    18.28688   157.98865   -14.47530
   296  H   1.0    0.12    1.06    1.44    20.85691   159.90861   -13.55122
   297  H   1.0    0.09    1.02    1.43    25.51319   155.88160   -16.11180
   298  H   1.0    0.09    1.02    1.43    24.91226   158.72564   -14.46963
   299  N   5.0   -0.14    3.62    2.17    19.80055   144.42042   -12.82935
   300  C   4.0    0.03    4.44    4.44    21.17627   142.32282   -11.72008
   301  C   4.0    0.17    3.59    3.16    21.93972   140.59372   -13.83846
   302  O   6.0   -0.30    1.25    1.80    23.61402   139.02336   -13.55878
   303  C   4.0   -0.05    4.27    4.15    19.54355   140.81104    -9.86626
   304  C   4.0   -0.05    4.20    3.99    17.87303   142.35117    -8.06724
   305  C   4.0    0.00    4.22    4.03    16.51998   140.74868    -6.05279
   306  N   5.0   -0.14    3.40    2.02    17.93539   140.64096    -3.67741
   307  C   4.0    0.09    3.33    3.06    18.77254   138.52636    -2.56436
   308  N   5.0   -0.20    3.24    1.97    18.30955   136.23979    -3.53946
   309  N   5.0   -0.20    3.23    1.96    20.05755   138.69833    -0.41196
   310  H   1.0    0.09    1.09    1.44    18.25286   144.96088   -11.81646
   311  H   1.0    0.04    1.05    1.44    22.79765   143.04281   -10.67128
   312  H   1.0    0.05    1.04    1.43    18.29255   139.59406   -10.96041
   313  H   1.0    0.04    1.03    1.43    20.79454   139.66587    -8.69841
   314  H   1.0    0.04    1.04    1.43    19.05033   143.72689    -7.08458
   315  H   1.0    0.05    1.05    1.44    16.42739   143.31871    -9.17084
   316  H   1.0    0.06    1.03    1.43    14.67372   141.57260    -5.66162
   317  H   1.0    0.06    1.05    1.44    16.29889   138.82494    -6.75577
   318  H   1.0    0.12    1.15    1.45    18.31522   142.31337    -2.79679
   319  H   1.0    0.08    1.03    1.43    17.29666   136.07539    -5.17029
   320  H   1.0    0.06    1.02    1.43    18.97096   134.66187    -2.65129
   321  H   1.0    0.07    1.03    1.43    20.39581   140.42554     0.37228
   322  H   1.0    0.05    1.02    1.43    20.70573   137.10340     0.45353
   323  N   5.0   -0.11    3.79    2.40    20.69250   140.87340   -15.98141
   324  C   4.0    0.05    4.63    4.69    21.35012   139.37296   -18.13381
   325  C   4.0    0.17    3.51    3.12    23.69716   140.34995   -19.45095
   326  O   6.0   -0.26    1.28    1.80    25.72484   139.23123   -19.26765
   327  C   4.0   -0.04    4.37    4.32    19.16182   139.25768   -19.97440
   328  C   4.0   -0.04    4.23    4.07    19.31678   136.89742   -21.50697
   329  C   4.0    0.23    3.24    3.04    20.41471   134.73746   -19.95173
   330  O   6.0   -0.30    1.25    1.80    22.75230   134.76959   -19.41315
   331  O   6.0   -0.31    1.16    1.80    18.91427   133.02537   -19.22607
   332  H   1.0    0.12    1.19    1.46    19.24119   142.10928   -16.26487
   333  H   1.0    0.09    1.16    1.46    21.74886   137.47000   -17.45540
   334  H   1.0    0.06    1.04    1.43    17.38170   139.25768   -18.93694
   335  H   1.0    0.05    1.05    1.44    19.23741   140.87907   -21.24430
   336  H   1.0    0.05    1.03    1.43    17.42894   136.35885   -22.13247
   337  H   1.0    0.04    1.03    1.43    20.53565   137.21489   -23.13591
   338  N   5.0   -0.14    3.59    2.15    23.37969   142.45321   -20.76998
   339  C   4.0    0.03    4.49    4.52    25.42815   143.68909   -22.04554
   340  C   4.0    0.17    3.58    3.15    27.74874   143.53980   -20.42605
   341  O   6.0   -0.29    1.28    1.80    29.66870   142.58738   -21.26320
   342  C   4.0   -0.04    4.37    4.33    24.76486   146.42164   -22.53876
   343  C   4.0   -0.03    4.25    4.09    22.42160   146.70698   -24.11479
   344  C   4.0    0.25    3.13    3.03    21.11202   149.21654   -23.69527
   345  O   6.0   -0.27    1.17    1.80    18.79332   149.34315   -24.11857
   346  O   6.0   -0.30    1.19    1.80    22.38380   151.06091   -22.93749
   347  H   1.0    0.09    1.09    1.44    21.68649   143.35083   -20.98352
   348  H   1.0    0.04    1.06    1.44    25.77019   142.78958   -23.86724
   349  H   1.0    0.06    1.04    1.43    24.44361   147.37028   -20.73974
   350  H   1.0    0.04    1.03    1.43    26.32388   147.32115   -23.54221
   351  H   1.0    0.04    1.03    1.43    22.93182   146.57848   -26.10656
   352  H   1.0    0.06    1.05    1.44    21.09690   145.20654   -23.62724
   353  N   5.0   -0.13    3.51    2.08    27.55787   144.41286   -18.08468
   354  C   4.0    0.04    4.35    4.29    29.64035   144.22010   -16.31967
   355  C   4.0    0.09    3.27    3.05    30.80820   141.57260   -16.32534
   356  O   6.0   -0.31    1.13    1.80    32.81320   141.20221   -17.39682
   357  C   4.0   -0.05    4.30    4.20    28.74084   144.87773   -13.68540
   358  C   4.0   -0.05    4.17    3.94    30.33766   146.84493   -12.32101
   359  C   4.0    0.23    3.11    3.03    29.24162   149.52646   -12.48353
   360  O   6.0   -0.32    1.16    1.80    29.49484   150.98154   -10.62404
   361  O   6.0   -0.30    1.18    1.80    28.13802   150.17841   -14.47341
   362  H   1.0    0.11    1.09    1.44    25.98562   145.26134   -17.36091
   363  H   1.0    0.05    1.06    1.44    31.10867   145.54858   -16.88848
   364  H   1.0    0.06    1.05    1.44    26.82277   145.61850   -13.81579
   365  H   1.0    0.04    1.04    1.43    28.75785   143.16375   -12.54211
   366  H   1.0    0.03    1.03    1.43    30.46616   146.33471   -10.32924
   367  H   1.0    0.03    1.03    1.43    32.21794   146.87895   -13.16194
   368  N   5.0   -0.22    3.33    1.99   -14.89671   180.74662    -3.56780
   369  C   4.0    0.02    4.32    4.24   -12.90305   181.79542    -5.13061
   370  C   4.0    0.15    3.44    3.09   -11.00009   179.65814    -5.35170
   371  O   6.0   -0.31    1.21    1.80   -10.42562   178.72650    -7.42284
   372  C   4.0   -0.06    4.30    4.19   -11.66717   184.08954    -3.84748
   373  C   4.0   -0.06    4.23    4.05   -13.03722   185.12700    -1.51178
   374  C   4.0    0.22    3.12    3.03   -11.91850   184.14812     0.95809
   375  O   6.0   -0.34    1.24    1.80   -11.06246   181.93715     1.05258
   376  O   6.0   -0.37    1.17    1.80   -11.89016   185.62022     2.81758
   377  H   1.0    0.08    1.06    1.44   -14.80600   181.27385    -1.71587
   378  H   1.0    0.02    1.05    1.44   -13.59658   182.47761    -6.94663
   379  H   1.0    0.04    1.05    1.44    -9.76988   183.55097    -3.25222
   380  H   1.0    0.01    1.03    1.43   -11.56512   185.62022    -5.22320
   381  H   1.0    0.01    1.03    1.43   -12.89360   187.18113    -1.50611
   382  H   1.0    0.02    1.05    1.44   -15.01576   184.55820    -1.58548
   383  N   5.0   -0.14    3.51    2.08   -10.11948   178.86634    -3.12750
   384  C   4.0    0.03    4.33    4.26    -8.25621   176.88213    -2.82136
   385  C   4.0    0.15    3.43    3.09    -9.14627   174.37635    -3.95142
   386  O   6.0   -0.31    1.31    1.80    -8.93840   173.96628    -6.23043
   387  C   4.0   -0.09    4.15    3.89    -7.59292   176.60056    -0.01323
   388  H   1.0    0.10    1.12    1.45   -10.69207   179.60144    -1.43997
   389  H   1.0    0.04    1.06    1.44    -6.54601   177.39613    -3.84748
   390  H   1.0    0.03    1.00    1.43    -6.19263   175.10579     0.19842
   391  H   1.0    0.04    1.00    1.43    -6.82758   178.38446     0.67652
   392  H   1.0    0.03    1.00    1.43    -9.29934   176.11679     1.03368
   393  N   5.0   -0.16    3.48    2.06   -10.20074   172.75308    -2.35271
   394  C   4.0    0.03    4.40    4.37   -10.82624   170.15470    -3.04057
   395  C   4.0    0.15    3.46    3.10   -12.12826   169.85235    -5.59737
   396  O   6.0   -0.31    1.28    1.80   -11.79189   167.91727    -6.85593
   397  C   4.0   -0.06    4.33    4.25   -12.42306   168.92449    -0.95431
   398  C   4.0   -0.04    4.16    3.91   -11.27977   167.82656     1.49855
   399  C   4.0   -0.09    4.11    3.83   -11.60103   164.97119     1.65918
   400  C   4.0   -0.09    4.11    3.82    -8.51133   168.53143     1.87461
   401  H   1.0    0.06    1.07    1.44   -10.65616   173.18204    -0.52912
   402  H   1.0    0.04    1.08    1.44    -9.03478   169.15126    -3.20498
   403  H   1.0    0.03    1.04    1.43   -13.76854   170.35501    -0.33259
   404  H   1.0    0.04    1.05    1.44   -13.42272   167.35413    -1.83681
   405  H   1.0    0.02    1.06    1.44   -12.33802   168.68450     3.04246
   406  H   1.0    0.02    1.00    1.43   -10.76388   164.30033     3.41662
   407  H   1.0    0.02    1.00    1.43   -13.60981   164.51954     1.61950
   408  H   1.0    0.03    1.05    1.44   -10.65427   164.09813     0.05291
   409  H   1.0    0.02    1.00    1.43    -7.83858   167.69428     3.63205
   410  H   1.0    0.03    1.00    1.43    -7.41339   167.80955     0.28913
   411  H   1.0    0.03    1.00    1.43    -8.34881   170.58367     1.96531
   412  N   5.0   -0.14    3.50    2.08   -13.55878   171.77231    -6.38349
   413  C   4.0    0.03    4.43    4.42   -15.11781   171.58712    -8.66061
   414  C   4.0    0.16    3.43    3.09   -13.66839   170.66871   -10.99065
   415  O   6.0   -0.31    1.22    1.80   -14.76065   169.57267   -12.72730
   416  C   4.0   -0.05    4.26    4.13   -16.41794   174.10612    -9.21052
   417  C   4.0   -0.06    4.17    3.94   -19.07300   173.82455   -10.32168
   418  C   4.0   -0.06    4.17    3.94   -20.85313   172.40726    -8.52077
   419  C   4.0   -0.05    4.11    3.83   -23.19450   171.38303    -9.86626
   420  N   5.0   -0.14    3.99    2.84   -25.11446   173.37102   -10.42373
   421  H   1.0    0.08    1.07    1.44   -13.68162   173.47684    -5.49154
   422  H   1.0    0.04    1.07    1.44   -16.57479   170.18116    -8.28078
   423  H   1.0    0.03    1.03    1.43   -16.58046   175.16626    -7.45119
   424  H   1.0    0.04    1.03    1.43   -15.27654   175.15870   -10.56357
   425  H   1.0    0.02    1.03    1.43   -19.86480   175.69349   -10.67128
   426  H   1.0    0.04    1.03    1.43   -18.96340   172.76442   -12.08480
   427  H   1.0    0.03    1.04    1.43   -19.84590   170.81422    -7.69118
   428  H   1.0    0.02    1.03    1.43   -21.47863   173.69416    -7.03923
   429  H   1.0    0.03    1.02    1.43   -22.62002   170.53832   -11.65583
   430  H   1.0    0.02    1.02    1.43   -24.08456   169.96195    -8.67006
   431  H   1.0    0.02    1.01    1.43   -26.66214   172.57355   -11.33647
   432  H   1.0    0.02    1.01    1.43   -25.72106   174.20628    -8.75132
   433  H   1.0    0.03    1.01    1.43   -24.33400   174.75430   -11.58213
   434  N   5.0   -0.14    3.62    2.18   -11.20041   171.09201   -10.97553
   435  C   4.0    0.03    4.51    4.56    -9.59036   170.44950   -13.10336
   436  C   4.0    0.14    3.66    3.20    -8.49432   167.81522   -12.79344
   437  O   6.0   -0.31    1.34    1.80    -8.23732   166.37336   -14.61703
   438  C   4.0   -0.03    4.32    4.24    -7.42473   172.36379   -13.31123
   439  C   4.0   -0.05    4.25    4.10    -4.94163   171.30933   -12.16795
   440  C   4.0   -0.07    4.15    3.89    -8.28078   174.96217   -12.20196
   441  C   4.0   -0.08    4.08    3.77    -4.09315   172.49418    -9.67351
   442  H   1.0    0.10    1.10    1.44   -10.24987   171.88758    -9.49965
   443  H   1.0    0.06    1.06    1.44   -10.73175   170.52320   -14.81734
   444  H   1.0    0.03    1.06    1.44    -6.97876   172.68883   -15.29544
   445  H   1.0    0.05    1.15    1.45    -5.19486   169.29299   -11.82968
   446  H   1.0    0.04    1.03    1.43    -3.42607   171.60979   -13.53044
   447  H   1.0    0.03    1.00    1.43    -6.72553   176.30387   -12.36070
   448  H   1.0    0.04    1.00    1.43    -9.90783   175.64247   -13.26588
   449  H   1.0    0.07    1.03    1.43    -8.79289   174.71083   -10.22342
   450  H   1.0    0.03    1.00    1.43    -2.33948   171.60034    -9.06879
   451  H   1.0    0.04    1.00    1.43    -3.79079   174.51241    -9.95886
   452  H   1.0    0.05    1.06    1.44    -5.55768   172.19561    -8.25621
   453  N   5.0   -0.14    3.67    2.23    -7.85559   167.22185   -10.44074
   454  C   4.0    0.03    4.40    4.38    -6.72553   164.83135    -9.76043
   455  C   4.0    0.15    3.43    3.09    -8.59636   162.68273   -10.23287
   456  O   6.0   -0.32    1.24    1.80    -8.27700   160.57379    -9.32202
   457  C   4.0   -0.05    4.44    4.45    -5.91295   164.90882    -6.99199
   458  C   4.0   -0.03    4.18    3.96    -3.82292   166.69084    -6.06980
   459  C   4.0   -0.08    4.18    3.96    -4.84715   169.24386    -5.29879
   460  C   4.0   -0.09    4.12    3.83    -2.47932   165.48330    -3.81914
   461  H   1.0    0.09    1.09    1.44    -8.10881   168.39537    -8.93273
   462  H   1.0    0.04    1.06    1.44    -5.05313   164.47230   -10.90939
   463  H   1.0    0.05    1.06    1.44    -7.58536   165.39826    -5.89406
   464  H   1.0    0.05    1.05    1.44    -5.28178   163.00965    -6.50444
   465  H   1.0    0.03    1.06    1.44    -2.50011   167.00075    -7.61938
   466  H   1.0    0.03    1.00    1.43    -3.28623   170.42871    -4.66195
   467  H   1.0    0.04    1.07    1.44    -5.77311   170.11313    -6.92018
   468  H   1.0    0.04    1.02    1.43    -6.20397   168.98874    -3.77000
   469  H   1.0    0.03    1.00    1.43    -0.99400   166.75131    -3.16529
   470  H   1.0    0.03    1.00    1.43    -3.84748   165.16772    -2.31113
   471  H   1.0    0.03    1.00    1.43    -1.66107   163.68806    -4.41062
   472  N   5.0   -0.13    3.68    2.24   -10.56735   163.25531   -11.66339
   473  C   4.0    0.04    4.46    4.48   -12.38148   161.38260   -12.42117
   474  C   4.0    0.16    3.45    3.09   -11.70496   160.44340   -15.05545
   475  O   6.0   -0.28    1.25    1.80   -12.72919   158.56879   -15.96440
   476  C   4.0   -0.02    4.34    4.27   -15.03277   162.52210   -12.37393
   477  C   4.0    0.15    3.24    3.04   -17.01887   160.60970   -11.68795
   478  O   6.0   -0.27    1.20    1.80   -18.52498   159.83113   -13.28477
   479  N   5.0   -0.19    3.18    1.95   -17.01320   159.79712    -9.31068
   480  H   1.0    0.11    1.16    1.46   -10.94718   165.02599   -12.32479
   481  H   1.0    0.05    1.07    1.44   -12.44574   159.78389   -11.12293
   482  H   1.0    0.05    1.04    1.43   -15.09135   164.03577   -10.97742
   483  H   1.0    0.07    1.04    1.43   -15.48063   163.26854   -14.24097
   484  H   1.0    0.09    1.02    1.43   -18.31522   158.49887    -8.73242
   485  H   1.0    0.08    1.03    1.43   -15.70551   160.47175    -8.06535
   486  N   5.0   -0.13    3.54    2.11    -9.94752   161.73597   -16.28188
   487  C   4.0    0.05    4.56    4.62    -9.40139   161.14449   -18.89159
   488  C   4.0    0.15    3.53    3.13    -6.76333   160.32057   -19.29599
   489  O   6.0   -0.34    1.64    1.81    -5.06069   161.82290   -19.70417
   490  C   4.0   -0.03    4.38    4.34   -10.09492   163.32523   -20.59234
   491  C   4.0    0.15    3.26    3.04   -12.88226   163.62381   -20.84935
   492  O   6.0   -0.26    1.24    1.80   -14.31089   161.83424   -20.44495
   493  N   5.0   -0.19    3.18    1.95   -13.70240   165.90471   -21.51831
   494  H   1.0    0.12    1.12    1.45    -8.90250   163.16839   -15.52599
   495  H   1.0    0.08    1.11    1.45   -10.54089   159.48720   -19.33757
   496  H   1.0    0.06    1.04    1.43    -9.33147   165.06756   -19.80244
   497  H   1.0    0.04    1.04    1.43    -9.30879   162.99831   -22.46695
   498  H   1.0    0.09    1.02    1.43   -15.59213   166.22785   -21.72429
   499  H   1.0    0.07    1.03    1.43   -12.44196   167.33145   -21.82444
   500  N   5.0   -0.15    3.55    2.11    -6.43263   157.87149   -19.22418
   501  C   4.0    0.03    4.50    4.54    -3.96842   156.81513   -19.63236
   502  C   4.0    0.16    3.61    3.17    -2.42830   158.34203   -21.57500
   503  O   6.0   -0.32    1.53    1.80    -0.34582   159.15272   -20.99108
   504  C   4.0   -0.03    4.33    4.25    -4.11204   153.90117   -20.14448
   505  C   4.0   -0.04    4.26    4.12    -2.28090   153.06969   -22.20995
   506  C   4.0   -0.07    4.19    3.99    -6.75010   153.10182   -20.83990
   507  C   4.0   -0.07    4.10    3.81     0.38361   152.87694   -21.32934
   508  H   1.0    0.08    1.10    1.44    -7.82536   156.58080   -18.88970
   509  H   1.0    0.04    1.07    1.44    -2.87238   157.03623   -17.90326
   510  H   1.0    0.04    1.06    1.44    -3.56402   152.98276   -18.38325
   511  H   1.0    0.06    1.04    1.43    -2.85349   151.21587   -22.89970
   512  H   1.0    0.05    1.06    1.44    -2.34137   154.44163   -23.74441
   513  H   1.0    0.05    1.00    1.43    -6.76711   151.07036   -21.18005
   514  H   1.0    0.05    1.02    1.43    -8.02189   153.56480   -19.28843
   515  H   1.0    0.05    1.00    1.43    -7.32647   154.10526   -22.54443
   516  H   1.0    0.04    1.16    1.46     1.56847   152.27790   -22.90348
   517  H   1.0    0.05    1.01    1.43     0.99967   154.72131   -20.64904
   518  H   1.0    0.04    1.00    1.43     0.48755   151.49555   -19.80622
   519  N   5.0   -0.14    3.54    2.11    -3.45820   158.81257   -23.82189
   520  C   4.0    0.03    4.49    4.52    -1.95398   160.00310   -25.80799
   521  C   4.0    0.17    3.62    3.18    -0.61605   162.14982   -24.58156
   522  O   6.0   -0.31    1.26    1.80     1.69697   162.32557   -24.59478
   523  C   4.0   -0.06    4.32    4.24    -3.60749   161.08969   -27.90180
   524  C   4.0   -0.05    4.18    3.95    -4.76211   159.18862   -29.69704
   525  C   4.0   -0.01    4.19    3.98    -2.90829   158.13794   -31.66614
   526  N   5.0   -0.13    3.38    2.01    -4.20653   156.40884   -33.42169
   527  C   4.0    0.11    3.33    3.06    -3.15017   155.34870   -35.45693
   528  N   5.0   -0.17    3.23    1.96    -0.72943   155.81546   -36.05786
   529  N   5.0   -0.16    3.25    1.97    -4.53345   153.82180   -36.90635
   530  H   1.0    0.07    1.05    1.44    -5.27611   158.40439   -24.31321
   531  H   1.0    0.04    1.05    1.44    -0.70487   158.61226   -26.67159
   532  H   1.0    0.04    1.04    1.43    -5.16084   162.12148   -27.02686
   533  H   1.0    0.04    1.04    1.43    -2.45664   162.37281   -29.02997
   534  H   1.0    0.05    1.03    1.43    -5.47832   157.59747   -28.60289
   535  H   1.0    0.04    1.04    1.43    -6.30602   160.09569   -30.71561
   536  H   1.0    0.04    1.02    1.43    -2.10515   159.69318   -32.75273
   537  H   1.0    0.04    1.02    1.43    -1.40785   157.09670   -30.71183
   538  H   1.0    0.09    1.06    1.44    -6.05279   155.98932   -33.05509
   539  H   1.0    0.08    1.03    1.43     0.32692   156.99087   -34.95615
   540  H   1.0    0.11    1.02    1.43     0.05291   154.99343   -37.61688
   541  H   1.0    0.09    1.03    1.43    -6.37594   153.47409   -36.45659
   542  H   1.0    0.12    1.03    1.43    -3.74922   153.00166   -38.46537
   543  N   5.0   -0.14    3.72    2.29    -2.16563   163.73530   -23.43449
   544  C   4.0    0.03    4.52    4.57    -1.37761   166.10502   -22.36491
   545  C   4.0    0.17    3.57    3.15     0.21732   165.58346   -20.07645
   546  O   6.0   -0.32    1.31    1.80     1.89728   167.01209   -19.41693
   547  C   4.0    0.05    4.27    4.13    -3.68497   167.61680   -21.52020
   548  O   6.0   -0.24    2.17    1.85    -4.66762   166.53777   -19.23930
   549  C   4.0   -0.08    4.09    3.79    -5.74099   167.61491   -23.57622
   550  H   1.0    0.09    1.11    1.45    -4.05346   163.41216   -23.21150
   551  H   1.0    0.04    1.06    1.44    -0.34393   167.20295   -23.76708
   552  H   1.0    0.04    1.04    1.43    -3.14261   169.57456   -21.18194
   553  H   1.0    0.16    1.17    1.46    -4.93596   164.71985   -19.46229
   554  H   1.0    0.04    1.00    1.43    -7.37182   168.70150   -22.94127
   555  H   1.0    0.03    1.00    1.43    -5.00777   168.45773   -25.30721
   556  H   1.0    0.04    1.01    1.43    -6.33814   165.68361   -23.97495
   557  N   5.0   -0.12    3.67    2.23    -0.34960   163.51610   -18.82545
   558  C   4.0    0.04    4.55    4.60     1.13573   162.81690   -16.68250
   559  C   4.0    0.15    3.63    3.19     3.73410   162.07613   -17.64059
   560  O   6.0   -0.30    1.41    1.80     5.58981   163.39515   -17.20973
   561  C   4.0   -0.05    4.41    4.40    -0.13417   160.66450   -15.26143
   562  C   4.0   -0.03    4.23    4.06     1.12439   160.13727   -12.72164
   563  C   4.0   -0.08    4.16    3.92     1.75745   162.56556   -11.33080
   564  C   4.0   -0.08    4.12    3.84    -0.50267   158.46297   -11.09458
   565  H   1.0    0.13    1.16    1.46    -1.79902   162.31990   -19.25253
   566  H   1.0    0.05    1.08    1.44     1.32470   164.36458   -15.33702
   567  H   1.0    0.05    1.03    1.43    -2.10326   161.15772   -14.91372
   568  H   1.0    0.05    1.04    1.43    -0.02835   158.95052   -16.40093
   569  H   1.0    0.04    1.06    1.44     2.89317   159.14894   -13.09391
   570  H   1.0    0.03    1.00    1.43     2.64940   162.09691    -9.53367
   571  H   1.0    0.05    1.01    1.43     3.04624   163.68239   -12.48542
   572  H   1.0    0.04    1.00    1.43     0.01890   163.62003   -10.99821
   573  H   1.0    0.03    1.01    1.43     0.45731   158.13038    -9.30312
   574  H   1.0    0.05    1.00    1.43    -2.30736   159.40027   -10.76199
   575  H   1.0    0.04    1.00    1.43    -0.80880   156.67529   -12.06968
   576  N   5.0   -0.14    3.65    2.21     3.81158   159.96152   -18.97096
   577  C   4.0    0.03    4.48    4.50     5.97531   159.21319   -20.40715
   578  C   4.0    0.17    3.59    3.16     7.52867   161.53377   -20.99863
   579  O   6.0   -0.32    1.26    1.80     9.83224   161.49220   -20.84179
   580  C   4.0   -0.04    4.39    4.36     5.03234   158.04156   -22.84112
   581  C   4.0   -0.05    4.21    4.02     6.31924   155.63594   -23.54599
   582  C   4.0   -0.01    4.24    4.07     5.17974   154.60604   -25.96294
   583  N   5.0   -0.13    3.52    2.09     3.68686   152.32325   -25.54343
   584  C   4.0    0.10    3.34    3.06     2.51334   151.00611   -27.34244
   585  N   5.0   -0.17    3.24    1.97     2.60215   151.70909   -29.76318
   586  N   5.0   -0.16    3.24    1.97     1.23021   148.95765   -26.69994
   587  H   1.0    0.10    1.13    1.45     2.35271   158.70674   -19.08056
   588  H   1.0    0.04    1.06    1.44     7.14694   157.86204   -19.38670
   589  H   1.0    0.06    1.06    1.44     3.02167   157.63905   -22.64081
   590  H   1.0    0.06    1.05    1.44     5.33281   159.38327   -24.37558
   591  H   1.0    0.05    1.03    1.43     8.32613   155.98365   -23.85401
   592  H   1.0    0.05    1.04    1.43     6.06602   154.24510   -22.04743
   593  H   1.0    0.04    1.04    1.43     3.94386   156.03467   -26.78687
   594  H   1.0    0.05    1.03    1.43     6.69530   154.14306   -27.27819
   595  H   1.0    0.08    1.16    1.46     3.53001   151.68641   -23.73118
   596  H   1.0    0.08    1.03    1.43     3.58481   153.28701   -30.27341
   597  H   1.0    0.10    1.02    1.43     1.68753   150.66785   -31.10300
   598  H   1.0    0.10    1.03    1.43     1.15084   148.40963   -24.85368
   599  H   1.0    0.11    1.03    1.43     0.32125   147.92775   -28.05109
   600  N   5.0   -0.11    3.63    2.18     6.22098   163.58035   -21.61846
   601  C   4.0    0.04    4.33    4.25     7.43607   165.96518   -22.24963
   602  C   4.0    0.15    3.61    3.17     8.73242   167.33334   -20.01598
   603  O   6.0   -0.32    1.43    1.80    11.04923   167.18028   -19.77976
   604  C   4.0   -0.07    4.12    3.84     5.59737   167.69050   -23.62157
   605  H   1.0    0.11    1.10    1.44     4.29724   163.64838   -21.70161
   606  H   1.0    0.05    1.07    1.44     8.99510   165.50409   -23.51386
   607  H   1.0    0.04    1.00    1.43     6.54790   169.46117   -24.07322
   608  H   1.0    0.05    1.00    1.43     4.97565   166.76643   -25.35445
   609  H   1.0    0.07    1.03    1.43     3.97976   168.05333   -22.39892
   610  N   5.0   -0.14    3.48    2.06     7.30568   168.65993   -18.40026
   611  C   4.0    0.03    4.37    4.32     8.47353   170.04888   -16.28188
   612  C   4.0    0.16    3.41    3.08     9.94941   168.15915   -14.65482
   613  O   6.0   -0.32    1.22    1.80    10.76388   168.73363   -12.55156
   614  C   4.0   -0.05    4.19    3.98     6.58947   171.64192   -14.69262
   615  C   4.0   -0.03    4.12    3.84     7.83858   173.63747   -12.86336
   616  C   4.0    0.14    3.15    3.03     5.99421   175.56688   -11.58024
   617  O   6.0   -0.32    1.23    1.80     6.61782   176.72717    -9.66406
   618  N   5.0   -0.20    3.16    1.95     3.73221   175.91459   -12.69896
   619  H   1.0    0.10    1.06    1.44     5.38572   168.81111   -18.49853
   620  H   1.0    0.05    1.06    1.44     9.75288   171.46995   -17.04911
   621  H   1.0    0.04    1.03    1.43     5.36115   172.67560   -15.98330
   622  H   1.0    0.05    1.02    1.43     5.47076   170.35879   -13.53233
   623  H   1.0    0.06    1.03    1.43     8.79289   172.61513   -11.35158
   624  H   1.0    0.06    1.02    1.43     9.20674   174.73351   -13.94429
   625  H   1.0    0.07    1.03    1.43     3.29190   174.94327   -14.30334
   626  H   1.0    0.08    1.02    1.43     2.46231   177.15047   -11.94118
   627  N   5.0   -0.11    3.70    2.26    10.30279   165.90282   -15.71685
   628  C   4.0    0.04    4.35    4.29    11.70685   163.85436   -14.53010
   629  C   4.0    0.15    3.49    3.11    14.42806   163.85625   -15.42961
   630  O   6.0   -0.30    1.33    1.80    16.16283   163.84113   -13.87437
   631  C   4.0   -0.07    4.12    3.84    10.46152   161.31268   -15.06301
   632  H   1.0    0.12    1.29    1.49     9.61493   165.42850   -17.45351
   633  H   1.0    0.06    1.06    1.44    11.67662   164.08301   -12.48353
   634  H   1.0    0.04    1.00    1.43    11.55567   159.82546   -14.15027
   635  H   1.0    0.05    1.00    1.43     8.54345   161.33535   -14.31278
   636  H   1.0    0.07    1.03    1.43    10.41617   161.00276   -17.09824
   637  N   5.0   -0.14    3.55    2.12    14.78333   163.86381   -17.92783
   638  C   4.0    0.03    4.44    4.45    17.29288   164.07168   -19.09379
   639  C   4.0    0.17    3.57    3.15    18.91049   165.77621   -17.49697
   640  O   6.0   -0.28    1.22    1.80    21.19706   165.35858   -17.15493
   641  C   4.0   -0.05    4.37    4.34    17.10202   165.39259   -21.64681
   642  C   4.0   -0.04    4.26    4.13    15.10836   164.40616   -23.37402
   643  C   4.0   -0.01    4.27    4.14    16.29511   163.28744   -25.68516
   644  N   5.0   -0.14    3.42    2.03    14.61136   161.41472   -26.78120
   645  C   4.0    0.09    3.34    3.06    14.60947   160.73064   -29.19627
   646  N   5.0   -0.19    3.24    1.97    16.20818   161.77377   -30.85356
   647  N   5.0   -0.18    3.23    1.96    12.97108   158.99209   -29.95405
   648  H   1.0    0.10    1.09    1.44    13.35469   163.72775   -19.21473
   649  H   1.0    0.05    1.05    1.44    18.08657   162.18195   -19.29410
   650  H   1.0    0.05    1.04    1.43    16.69762   167.38437   -21.31611
   651  H   1.0    0.04    1.05    1.44    18.90860   165.19228   -22.61624
   652  H   1.0    0.06    1.05    1.44    14.02177   162.94162   -22.41593
   653  H   1.0    0.05    1.03    1.43    13.86492   165.94439   -23.94850
   654  H   1.0    0.04    1.03    1.43    16.63715   164.76710   -27.07788
   655  H   1.0    0.04    1.03    1.43    18.06956   162.37092   -25.18060
   656  H   1.0    0.08    1.07    1.44    13.33769   160.56434   -25.60957
   657  H   1.0    0.08    1.03    1.43    17.45729   163.11925   -30.26963
   658  H   1.0    0.08    1.02    1.43    16.17794   161.22197   -32.69982
   659  H   1.0    0.08    1.03    1.43    11.74465   158.20786   -28.68982
   660  H   1.0    0.08    1.02    1.43    12.93706   158.43840   -31.80031
   661  N   5.0   -0.13    3.62    2.18    17.64815   167.73963   -16.56534
   662  C   4.0    0.03    4.42    4.41    18.87080   169.76542   -15.24253
   663  C   4.0    0.16    3.47    3.10    20.39770   168.77898   -13.01832
   664  O   6.0   -0.31    1.25    1.80    22.67671   169.31756   -12.86147
   665  C   4.0   -0.05    4.25    4.10    16.95840   171.80254   -14.47530
   666  C   4.0   -0.04    4.14    3.89    16.24408   173.59778   -16.67872
   667  C   4.0    0.23    3.09    3.02    14.80978   175.99774   -15.85669
   668  O   6.0   -0.31    1.16    1.80    14.44129   177.67392   -17.51209
   669  O   6.0   -0.31    1.17    1.80    14.04633   176.23584   -13.60225
   670  H   1.0    0.09    1.09    1.44    15.73953   167.96451   -16.71085
   671  H   1.0    0.05    1.07    1.44    20.19928   170.68950   -16.51620
   672  H   1.0    0.06    1.03    1.43    15.23497   170.88603   -13.81957
   673  H   1.0    0.05    1.03    1.43    17.76909   172.94394   -12.96352
   674  H   1.0    0.04    1.03    1.43    17.97318   174.19872   -17.62547
   675  H   1.0    0.05    1.03    1.43    15.03844   172.57355   -17.99775
   676  N   5.0   -0.13    3.44    2.04    19.25442   167.23886   -11.38182
   677  C   4.0    0.04    4.45    4.47    20.72462   166.41305    -9.21997
   678  C   4.0    0.15    3.40    3.08    22.14192   163.89404    -9.39761
   679  O   6.0   -0.30    1.27    1.80    21.82822   162.38037   -11.13993
   680  C   4.0    0.02    4.16    3.93    19.21095   166.64170    -6.78979
   681  O   6.0   -0.27    2.15    1.85    20.83423   166.34313    -4.69786
   682  H   1.0    0.10    1.07    1.44    17.44406   166.58690   -11.50654
   683  H   1.0    0.06    1.11    1.45    22.30066   167.73963    -9.18407
   684  H   1.0    0.04    1.02    1.43    18.32845   168.50119    -6.70853
   685  H   1.0    0.04    1.03    1.43    17.76531   165.17528    -6.74632
   686  H   1.0    0.15    1.21    1.47    20.30888   164.88048    -3.69252
   687  N   5.0   -0.13    3.63    2.18    23.76141   163.52932    -7.53434
   688  C   4.0    0.03    4.53    4.58    25.36201   161.34858    -7.39261
   689  C   4.0    0.16    3.60    3.17    23.79543   159.36248    -6.12838
   690  O   6.0   -0.32    1.72    1.81    22.69939   159.85759    -4.15929
   691  C   4.0    0.04    4.28    4.17    27.61079   161.89471    -5.67296
   692  O   6.0   -0.26    2.18    1.85    26.72261   162.22352    -3.13317
   693  C   4.0   -0.10    4.11    3.83    28.95438   164.29655    -6.49877
   694  H   1.0    0.09    1.10    1.44    24.00141   164.75387    -6.06413
   695  H   1.0    0.04    1.05    1.44    26.04798   160.77599    -9.24832
   696  H   1.0    0.02    1.04    1.43    28.94682   160.33002    -5.76366
   697  H   1.0    0.09    1.02    1.43    27.86779   163.34224    -2.20153
   698  H   1.0    0.01    1.00    1.43    30.55687   164.66883    -5.25911
   699  H   1.0    0.02    1.00    1.43    29.63657   164.09246    -8.43196
   700  H   1.0    0.04    1.00    1.43    27.65803   165.89526    -6.41373
   701  N   5.0   -0.15    3.43    2.04    23.67638   157.10048    -7.21308
   702  C   4.0    0.03    4.25    4.09    22.26853   155.09548    -5.95075
   703  C   4.0    0.09    3.36    3.07    23.03009   155.17485    -3.16151
   704  O   6.0   -0.31    1.33    1.80    21.38792   155.29012    -1.54202
   705  C   4.0   -0.05    4.21    4.02    23.48551   152.38561    -7.15261
   706  C   4.0   -0.02    4.19    3.98    22.14381   150.34849    -5.64083
   707  C   4.0   -0.08    4.12    3.84    21.16493   148.41341    -7.54379
   708  C   4.0   -0.09    4.05    3.70    23.91637   148.91796    -3.69252
   709  H   1.0    0.08    1.05    1.44    24.49652   156.61671    -8.88927
   710  H   1.0    0.04    1.04    1.43    20.22763   155.23532    -6.19263
   711  H   1.0    0.05    1.02    1.43    23.05655   152.19853    -9.15761
   712  H   1.0    0.05    1.01    1.43    25.52075   152.28546    -6.85593
   713  H   1.0    0.04    1.07    1.44    20.65470   151.23477    -4.52778
   714  H   1.0    0.04    1.00    1.43    20.18605   146.91107    -6.52900
   715  H   1.0    0.04    1.00    1.43    19.86669   149.34693    -8.84203
   716  H   1.0    0.04    1.00    1.43    22.75986   147.63106    -8.58691
   717  H   1.0    0.04    0.99    1.43    22.80710   147.49689    -2.69475
   718  H   1.0    0.03    0.99    1.43    25.45272   148.01278    -4.72243
   719  H   1.0    0.03    0.99    1.43    24.67793   150.28235    -2.35082
   720  N   5.0   -0.18    3.38    2.01    23.43071   159.09792     0.76912
   721  C   4.0    0.03    4.45    4.46    21.46918   160.49631     2.05224
   722  C   4.0    0.17    3.59    3.16    19.05600   159.15650     1.55902
   723  O   6.0   -0.32    1.55    1.80    17.86358   158.22864     3.28056
   724  C   4.0    0.05    4.31    4.22    21.18005   163.15327     0.96943
   725  O   6.0   -0.28    2.51    1.99    20.78888   162.98697    -1.70264
   726  C   4.0   -0.08    4.09    3.78    23.53465   164.71607     1.48721
   727  H   1.0    0.11    1.08    1.44    24.15826   160.04089    -0.74644
   728  H   1.0    0.05    1.06    1.44    21.94350   160.65316     4.04968
   729  H   1.0    0.04    1.04    1.43    19.57378   164.09246     1.85382
   730  H   1.0    0.17    1.24    1.48    22.14759   162.00054    -2.48121
   731  H   1.0    0.03    1.00    1.43    23.30977   166.60958     0.70676
   732  H   1.0    0.03    1.00    1.43    23.85023   164.86347     3.51678
   733  H   1.0    0.04    1.01    1.43    25.17682   163.82601     0.61794
   734  N   5.0   -0.12    3.72    2.30    18.35491   159.04312    -0.83904
   735  C   4.0    0.03    4.53    4.58    15.97007   157.96219    -1.59304
   736  C   4.0    0.17    3.64    3.19    15.53355   155.64728    -0.03024
   737  O   6.0   -0.32    1.48    1.80    13.88949   155.62082     1.58359
   738  C   4.0   -0.05    4.41    4.40    16.04188   157.34425    -4.37661
   739  C   4.0   -0.02    4.27    4.14    16.82423   159.71964    -5.82980
   740  C   4.0   -0.07    4.08    3.77    17.53288   159.22642    -8.59447
   741  C   4.0   -0.08    4.13    3.86    14.74931   161.70385    -5.62949
   742  H   1.0    0.11    1.16    1.45    19.41504   159.69318    -2.31113
   743  H   1.0    0.04    1.07    1.44    14.40727   159.27177    -1.30391
   744  H   1.0    0.04    1.04    1.43    17.41760   155.85137    -4.72998
   745  H   1.0    0.03    1.03    1.43    14.17672   156.74710    -5.01155
   746  H   1.0    0.06    1.10    1.44    18.54955   160.43395    -4.96053
   747  H   1.0    0.07    1.01    1.43    18.06011   161.01032    -9.48076
   748  H   1.0    0.05    1.00    1.43    19.12025   157.91495    -8.65683
   749  H   1.0    0.04    1.00    1.43    15.90960   158.41195    -9.56768
   750  H   1.0    0.04    1.01    1.43    15.32757   163.38571    -6.66884
   751  H   1.0    0.04    1.00    1.43    13.01265   160.94229    -6.43452
   752  H   1.0    0.04    1.01    1.43    14.45829   162.17061    -3.64528
   753  N   5.0   -0.14    3.58    2.14    17.10391   153.74621    -0.40629
   754  C   4.0    0.04    4.49    4.52    17.05667   151.49933     1.15651
   755  C   4.0    0.17    3.55    3.14    16.26109   152.12483     3.83236
   756  O   6.0   -0.30    1.23    1.80    14.63215   150.90596     4.93785
   757  C   4.0   -0.05    4.30    4.20    19.67961   150.25778     1.21509
   758  C   4.0   -0.05    4.19    3.99    19.63803   147.54791     2.13350
   759  C   4.0    0.23    3.17    3.03    17.48374   146.06637     0.92975
   760  O   6.0   -0.34    1.28    1.80    17.92594   144.92497    -1.10927
   761  O   6.0   -0.30    1.17    1.80    15.34646   146.07582     2.01445
   762  H   1.0    0.10    1.12    1.45    18.44373   153.70464    -1.79146
   763  H   1.0    0.06    1.07    1.44    15.69795   150.17652     0.35338
   764  H   1.0    0.04    1.04    1.43    20.46195   150.26723    -0.68975
   765  H   1.0    0.04    1.03    1.43    20.89659   151.33492     2.48121
   766  H   1.0    0.03    1.03    1.43    21.41437   146.63140     1.63650
   767  H   1.0    0.04    1.03    1.43    19.38103   147.52335     4.17629
   768  N   5.0   -0.13    3.69    2.26    17.44028   154.07125     4.85093
   769  C   4.0    0.04    4.49    4.52    17.19084   154.66651     7.49087
   770  C   4.0    0.16    3.58    3.15    14.72663   155.95530     8.03700
   771  O   6.0   -0.33    1.29    1.80    13.80256   155.82302    10.12137
   772  C   4.0   -0.05    4.33    4.26    19.42827   156.28412     8.32424
   773  C   4.0   -0.04    4.27    4.15    18.77821   158.43084    10.05523
   774  C   4.0    0.23    3.15    3.03    20.15582   160.81190     9.29745
   775  O   6.0   -0.35    1.16    1.80    22.39892   161.11992    10.03444
   776  O   6.0   -0.31    1.17    1.80    18.98419   162.36903     7.93874
   777  H   1.0    0.12    1.18    1.46    18.59112   155.27689     3.88339
   778  H   1.0    0.04    1.07    1.44    17.23430   152.93741     8.60959
   779  H   1.0    0.02    1.03    1.43    20.77187   155.07658     9.31635
   780  H   1.0    0.06    1.06    1.44    20.31077   157.08914     6.64617
   781  H   1.0    0.06    1.08    1.44    16.75242   158.79367     9.96641
   782  H   1.0    0.02    1.03    1.43    19.32434   157.94707    11.98086
   783  N   5.0   -0.13    3.61    2.17    13.64382   157.20252     6.18129
   784  C   4.0    0.04    4.50    4.54    11.34780   158.54990     6.71609
   785  C   4.0    0.16    3.50    3.12     9.02722   156.92284     6.34192
   786  O   6.0   -0.31    1.29    1.80     7.07324   157.37449     7.48709
   787  C   4.0   -0.04    4.39    4.37    11.19285   160.98008     5.21375
   788  C   4.0   -0.04    4.09    3.78    10.48420   160.68151     2.47743
   789  S   6.0   -0.05    2.49    3.10    10.40294   163.72586     0.90707
   790  C   4.0   -0.07    3.88    3.43    13.68917   164.62915     0.87683
   791  H   1.0    0.13    1.15    1.45    14.28822   157.30835     4.36716
   792  H   1.0    0.06    1.08    1.44    11.37615   159.15272     8.68518
   793  H   1.0    0.06    1.05    1.44     9.77366   162.19140     6.08681
   794  H   1.0    0.05    1.05    1.44    13.03533   161.89849     5.27423
   795  H   1.0    0.05    1.07    1.44    11.87693   159.49287     1.53257
   796  H   1.0    0.04    1.07    1.44     8.61715   159.82357     2.33948
   797  H   1.0    0.04    1.04    1.43    13.87248   166.46596    -0.03968
   798  H   1.0    0.05    1.04    1.43    14.37137   164.74064     2.81758
   799  H   1.0    0.04    1.04    1.43    14.76443   163.21374    -0.16441
   800  N   5.0   -0.14    3.55    2.12     9.24454   155.02745     4.73754
   801  C   4.0    0.04    4.40    4.38     7.32647   153.12071     4.62794
   802  C   4.0    0.09    3.41    3.08     7.21686   152.00200     7.21686
   803  O   6.0   -0.31    1.15    1.80     5.21753   151.88483     8.29779
   804  C   4.0   -0.05    4.38    4.34     8.02567   151.09304     2.74388
   805  C   4.0   -0.02    4.19    3.98     7.21497   148.38884     3.36938
   806  C   4.0   -0.08    4.04    3.70     4.49566   147.73311     2.45853
   807  C   4.0   -0.06    4.06    3.73     9.22375   146.51801     2.32247
   808  H   1.0    0.10    1.09    1.44    10.71097   154.77422     3.51111
   809  H   1.0    0.05    1.06    1.44     5.51800   153.89928     4.02134
   810  H   1.0    0.03    1.04    1.43     7.16017   151.57870     0.93919
   811  H   1.0    0.06    1.05    1.44    10.07791   151.07792     2.56058
   812  H   1.0    0.04    1.08    1.44     7.11671   148.19231     5.41784
   813  H   1.0    0.04    1.00    1.43     4.06669   145.78480     2.97443
   814  H   1.0    0.04    1.00    1.43     3.15773   149.01056     3.36560
   815  H   1.0    0.04    1.00    1.43     4.40117   147.95609     0.41385
   816  H   1.0    0.05    1.00    1.43     8.64361   144.59238     2.77034
   817  H   1.0    0.05    1.00    1.43     9.35981   146.75423     0.28157
   818  H   1.0    0.07    1.00    1.43    11.04167   146.92619     3.19931
   819  N   5.0   -0.20    3.25    1.97     3.01411   155.98176    10.96797
   820  C   4.0    0.03    4.30    4.20     0.41007   155.63216    10.35381
   821  C   4.0    0.07    3.35    3.07    -0.48566   153.04513    11.11726
   822  O   6.0   -0.35    1.13    1.80    -2.15996   152.76923    12.65172
   823  C   4.0   -0.05    4.50    4.53     0.02646   155.94396     7.56457
   824  C   4.0   -0.03    4.30    4.19    -2.63806   155.31091     6.81057
   825  C   4.0   -0.09    4.11    3.83    -3.53946   157.02678     4.68841
   826  C   4.0   -0.08    4.22    4.04    -2.50389   152.59726     6.02445
   827  H   1.0    0.12    1.06    1.44     4.12716   156.62616     9.53367
   828  H   1.0    0.03    1.06    1.44    -0.68219   157.05890    11.36103
   829  H   1.0    0.04    1.04    1.43     0.40440   157.89983     7.03923
   830  H   1.0    0.05    1.05    1.44     1.30580   154.68352     6.55735
   831  H   1.0    0.03    1.06    1.44    -4.01189   155.58870     8.32046
   832  H   1.0    0.03    1.00    1.43    -5.47265   156.51655     4.18952
   833  H   1.0    0.03    1.00    1.43    -3.47332   158.98264     5.33281
   834  H   1.0    0.04    1.00    1.43    -2.30547   156.78300     3.05758
   835  H   1.0    0.03    1.01    1.43    -4.37850   151.97365     5.44241
   836  H   1.0    0.03    1.01    1.43    -1.18486   152.41963     4.45219
   837  H   1.0    0.04    1.04    1.43    -1.85193   151.46909     7.61938
   838  N   5.0   -0.23    3.23    1.96    -4.02631   130.25238   -36.57691
   839  C   4.0    0.02    4.33    4.25    -4.20557   132.87210   -35.80968
   840  C   4.0    0.14    3.54    3.13    -2.94919   134.55104   -37.75232
   841  O   6.0   -0.32    1.42    1.80    -4.15842   136.23352   -38.77844
   842  C   4.0   -0.06    4.39    4.36    -2.94960   133.27429   -33.26044
   843  C   4.0   -0.03    4.22    4.05    -1.24720   135.59042   -32.87493
   844  C   4.0   -0.08    4.06    3.72    -2.56659   138.21960   -33.11682
   845  C   4.0   -0.08    4.11    3.82     0.01076   135.28240   -30.32569
   846  H   1.0    0.06    1.03    1.43    -3.01759   129.11748   -35.39016
   847  H   1.0    0.03    1.06    1.44    -6.19916   133.36202   -35.63393
   848  H   1.0    0.03    1.05    1.44    -4.44542   133.41225   -31.85070
   849  H   1.0    0.03    1.05    1.44    -1.77778   131.62258   -32.88438
   850  H   1.0    0.04    1.09    1.44     0.12025   135.64456   -34.41506
   851  H   1.0    0.04    1.00    1.43    -1.17058   139.70203   -32.80690
   852  H   1.0    0.05    1.01    1.43    -3.36877   138.39581   -35.00465
   853  H   1.0    0.04    1.00    1.43    -4.05957   138.35265   -31.70330
   854  H   1.0    0.04    1.00    1.43     1.23952   136.89956   -29.98554
   855  H   1.0    0.04    1.00    1.43    -1.44299   135.18498   -28.86871
   856  H   1.0    0.03    1.00    1.43     1.11990   133.54649   -30.32947
   857  N   5.0   -0.15    3.54    2.11    -0.50806   134.09476   -38.20018
   858  C   4.0    0.03    4.32    4.24     0.93766   135.46842   -40.07101
   859  C   4.0    0.09    3.37    3.07    -0.84790   136.08934   -42.21396
   860  O   6.0   -0.32    1.16    1.80    -1.07083   138.25181   -43.01709
   861  C   4.0   -0.05    4.34    4.27     3.02021   133.79263   -41.11603
   862  C   4.0   -0.04    4.16    3.91     5.26577   133.25180   -39.41905
   863  C   4.0    0.23    3.11    3.02     7.20064   131.52567   -40.76265
   864  O   6.0   -0.33    1.19    1.80     6.60325   130.56106   -42.85835
   865  O   6.0   -0.31    1.15    1.80     9.31698   131.10662   -39.74220
   866  H   1.0    0.06    1.06    1.44     0.52384   132.75721   -37.27043
   867  H   1.0    0.05    1.05    1.44     1.78520   137.16006   -39.25654
   868  H   1.0    0.04    1.04    1.43     2.18380   131.97212   -41.59224
   869  H   1.0    0.05    1.04    1.43     3.76110   134.69389   -42.81300
   870  H   1.0    0.05    1.03    1.43     6.19827   135.02305   -38.93150
   871  H   1.0    0.03    1.03    1.43     4.62097   132.30128   -37.70885
   872  N   5.0   -0.19    3.32    1.99    -7.36978   135.95272   -42.27821
   873  C   4.0    0.02    4.50    4.53    -9.22468   137.82758   -41.65460
   874  C   4.0    0.15    3.58    3.15    -8.01938   140.34331   -41.87003
   875  O   6.0   -0.32    1.35    1.80    -8.71680   141.89142   -43.42338
   876  C   4.0   -0.05    4.49    4.52   -10.06463   137.58921   -38.96930
   877  C   4.0   -0.03    4.25    4.10   -12.46111   139.17758   -38.71797
   878  C   4.0   -0.10    4.14    3.89   -14.50115   138.04340   -40.41683
   879  C   4.0   -0.09    4.07    3.74   -13.40299   139.35387   -35.95330
   880  H   1.0    0.08    1.03    1.43    -7.25893   134.43035   -41.09902
   881  H   1.0    0.03    1.09    1.44   -10.84628   137.57870   -42.89993
   882  H   1.0    0.03    1.03    1.43   -10.48341   135.62359   -38.51765
   883  H   1.0    0.04    1.05    1.44    -8.61624   138.31197   -37.69562
   884  H   1.0    0.04    1.06    1.44   -12.04874   141.10894   -39.30189
   885  H   1.0    0.02    1.00    1.43   -16.21794   139.16882   -40.24675
   886  H   1.0    0.03    1.01    1.43   -13.83697   138.06464   -42.36703
   887  H   1.0    0.02    1.00    1.43   -14.86920   136.10707   -39.82157
   888  H   1.0    0.03    1.00    1.43   -15.11028   140.50440   -35.89849
   889  H   1.0    0.03    1.00    1.43   -13.81317   137.45650   -35.26166
   890  H   1.0    0.03    1.00    1.43   -11.93438   140.21922   -34.79867
   891  N   5.0   -0.14    3.58    2.14    -6.15587   140.69476   -40.25431
   892  C   4.0    0.04    4.42    4.41    -4.69716   142.99456   -40.13526
   893  C   4.0    0.17    3.54    3.13    -4.30902   144.31405   -42.68261
   894  O   6.0   -0.28    1.30    1.80    -4.57852   146.61765   -42.87725
   895  C   4.0   -0.04    4.25    4.10    -2.17278   142.47724   -38.79355
   896  C   4.0   -0.03    4.17    3.93    -0.35364   144.73857   -38.63860
   897  C   4.0    0.25    3.12    3.03    -1.63798   147.23524   -37.89215
   898  O   6.0   -0.25    1.17    1.80    -1.40024   149.11380   -39.32835
   899  O   6.0   -0.30    1.17    1.80    -2.89864   147.30604   -35.88905
   900  H   1.0    0.10    1.12    1.45    -5.59590   139.37714   -38.96363
   901  H   1.0    0.06    1.07    1.44    -5.78309   144.35765   -39.03544
   902  H   1.0    0.04    1.03    1.43    -2.57469   141.88080   -36.86414
   903  H   1.0    0.07    1.04    1.43    -1.19686   140.97209   -39.80645
   904  H   1.0    0.05    1.03    1.43     1.09064   144.33083   -37.22697
   905  H   1.0    0.06    1.03    1.43     0.52060   145.01202   -40.48297
   906  N   5.0   -0.13    3.55    2.11    -3.70722   142.92021   -44.65548
   907  C   4.0    0.04    4.63    4.70    -3.38539   144.28652   -46.99685
   908  C   4.0    0.16    3.59    3.16    -5.91778   145.23345   -47.92471
   909  O   6.0   -0.31    1.41    1.80    -6.21886   147.47081   -48.49730
   910  C   4.0   -0.03    4.33    4.25    -2.03029   142.79736   -49.05477
   911  C   4.0   -0.08    4.16    3.92     0.34339   141.64533   -48.02864
   912  C   4.0   -0.08    4.22    4.03    -3.75225   140.82125   -50.13947
   913  H   1.0    0.10    1.07    1.44    -3.45120   141.01034   -44.69139
   914  H   1.0    0.06    1.08    1.44    -2.14806   145.87372   -46.56033
   915  H   1.0    0.04    1.06    1.44    -1.50061   144.07201   -50.58355
   916  H   1.0    0.03    1.00    1.43     1.27957   140.59074   -49.52909
   917  H   1.0    0.04    1.00    1.43     1.57993   143.14698   -47.35023
   918  H   1.0    0.06    1.02    1.43    -0.14109   140.37932   -46.47718
   919  H   1.0    0.02    1.00    1.43    -2.74255   139.78293   -51.60401
   920  H   1.0    0.04    1.00    1.43    -4.32783   139.53538   -48.63714
   921  H   1.0    0.04    1.03    1.43    -5.40697   141.74466   -50.94638
   922  N   5.0   -0.14    3.62    2.18    -7.75353   143.54514   -48.03431
   923  C   4.0    0.03    4.62    4.69   -10.22015   144.35547   -48.82422
   924  C   4.0    0.17    3.71    3.24   -10.79166   146.89493   -47.60535
   925  O   6.0   -0.31    1.47    1.80   -11.14413   148.77531   -48.90548
   926  C   4.0   -0.03    4.37    4.32   -12.20568   142.45413   -48.12313
   927  C   4.0   -0.09    4.19    3.98   -14.79689   143.66168   -48.18549
   928  C   4.0   -0.10    4.16    3.92   -12.07555   140.28610   -49.94672
   929  H   1.0    0.08    1.07    1.44    -7.58113   141.67427   -47.60157
   930  H   1.0    0.04    1.07    1.44   -10.22816   144.57342   -50.87268
   931  H   1.0    0.05    1.07    1.44   -11.88029   141.75826   -46.21262
   932  H   1.0    0.02    1.00    1.43   -16.20564   142.25045   -47.67149
   933  H   1.0    0.04    1.02    1.43   -14.84228   145.22184   -46.84190
   934  H   1.0    0.03    1.00    1.43   -15.16402   144.36182   -50.08656
   935  H   1.0    0.01    1.00    1.43   -13.51371   138.89935   -49.44405
   936  H   1.0    0.03    1.00    1.43   -12.41504   140.99129   -51.85156
   937  H   1.0    0.03    1.00    1.43   -10.20643   139.42974   -49.83711
   938  N   5.0   -0.14    3.57    2.13   -10.84022   146.95636   -45.11469
   939  C   4.0    0.04    4.62    4.68   -11.05654   149.31903   -43.83912
   940  C   4.0    0.17    3.66    3.21    -9.72109   151.40147   -45.28665
   941  O   6.0   -0.33    1.59    1.81   -10.97695   152.81701   -46.56411
   942  C   4.0   -0.02    4.36    4.31   -10.07977   149.09742   -41.20673
   943  C   4.0   -0.07    4.14    3.89   -10.13455   151.66027   -39.88204
   944  C   4.0   -0.08    4.15    3.90   -11.65084   147.13206   -39.79700
   945  H   1.0    0.09    1.09    1.44   -10.73396   145.41171   -43.96762
   946  H   1.0    0.04    1.07    1.44   -13.04656   149.84810   -43.77865
   947  H   1.0    0.07    1.07    1.44    -8.11422   148.48221   -41.22185
   948  H   1.0    0.05    1.00    1.43    -9.41187   151.44035   -37.96585
   949  H   1.0    0.05    1.02    1.43    -8.95322   152.98166   -40.93083
   950  H   1.0    0.04    1.00    1.43   -12.07721   152.34543   -39.82723
   951  H   1.0    0.04    1.00    1.43   -10.94316   146.96457   -37.86948
   952  H   1.0    0.04    1.00    1.43   -13.61847   147.73952   -39.77243
   953  H   1.0    0.04    1.01    1.43   -11.48714   145.32163   -40.76643
   954  N   5.0   -0.13    3.50    2.08    -7.23585   151.62091   -45.19217
   955  C   4.0    0.05    4.58    4.64    -6.08657   153.71588   -46.57545
   956  C   4.0    0.16    3.61    3.17    -7.16460   154.19980   -49.15492
   957  O   6.0   -0.31    1.39    1.80    -7.60976   156.36924   -49.89191
   958  C   4.0   -0.03    4.42    4.41    -3.28222   153.38639   -46.85324
   959  C   4.0    0.16    3.29    3.05    -1.91577   154.76884   -44.89359
   960  O   6.0   -0.30    1.29    1.80    -2.84287   154.99512   -42.75442
   961  N   5.0   -0.17    3.21    1.96     0.28403   155.76613   -45.55877
   962  H   1.0    0.11    1.06    1.44    -6.03151   150.45712   -44.23785
   963  H   1.0    0.05    1.11    1.45    -6.51161   155.36670   -45.41893
   964  H   1.0    0.06    1.04    1.43    -2.80922   151.38794   -46.69072
   965  H   1.0    0.04    1.05    1.44    -2.68865   154.10440   -48.69005
   966  H   1.0    0.10    1.03    1.43     1.32457   156.75311   -44.26998
   967  H   1.0    0.08    1.03    1.43     0.93639   155.54707   -47.35968
   968  N   5.0   -0.13    3.62    2.18    -7.54167   152.13170   -50.51930
   969  C   4.0    0.04    4.47    4.49    -8.64135   152.21470   -53.00240
   970  C   4.0    0.16    3.52    3.12   -10.84904   154.04299   -53.01752
   971  O   6.0   -0.32    1.24    1.80   -11.29444   155.37002   -54.86000
   972  C   4.0   -0.04    4.34    4.28    -9.44457   149.57325   -53.79798
   973  C   4.0   -0.03    4.22    4.04    -7.25281   147.95398   -54.59166
   974  C   4.0    0.23    3.14    3.03    -7.73176   146.70862   -57.12579
   975  O   6.0   -0.34    1.18    1.80    -8.80555   144.61140   -57.12768
   976  O   6.0   -0.33    1.17    1.80    -7.06189   147.81982   -59.11756
   977  H   1.0    0.12    1.13    1.45    -7.09191   150.35114   -49.93160
   978  H   1.0    0.05    1.06    1.44    -7.26818   152.87876   -54.38568
   979  H   1.0    0.07    1.09    1.44   -10.37804   148.65027   -52.21061
   980  H   1.0    0.04    1.04    1.43   -10.74094   149.71726   -55.39102
   981  H   1.0    0.05    1.04    1.43    -5.56452   149.12292   -54.75229
   982  H   1.0    0.05    1.03    1.43    -6.95418   146.47675   -53.18949
   983  N   5.0   -0.13    3.68    2.25   -12.18229   154.15261   -50.91237
   984  C   4.0    0.04    4.49    4.53   -14.15208   155.98078   -50.61001
   985  C   4.0    0.15    3.63    3.19   -13.06580   158.43433   -49.65003
   986  O   6.0   -0.31    1.42    1.80   -13.37894   160.37888   -50.85001
   987  C   4.0   -0.05    4.33    4.26   -16.14469   154.98746   -48.81099
   988  C   4.0   -0.05    4.19    3.99   -17.12509   152.39210   -49.50452
   989  C   4.0   -0.03    4.18    3.96   -19.12633   152.38881   -51.59456
   990  N   5.0   -0.16    3.38    2.01   -21.13485   154.28409   -51.26952
   991  C   4.0    0.07    3.32    3.06   -23.36684   153.93592   -50.12813
   992  N   5.0   -0.21    3.23    1.96   -23.99336   151.72162   -49.09256
   993  N   5.0   -0.22    3.23    1.96   -25.00324   155.85183   -50.01664
   994  H   1.0    0.13    1.20    1.47   -11.92726   152.99279   -49.39492
   995  H   1.0    0.05    1.07    1.44   -15.06794   156.31611   -52.42415
   996  H   1.0    0.05    1.04    1.43   -15.33246   154.86942   -46.92127
   997  H   1.0    0.04    1.04    1.43   -17.74318   156.28591   -48.81099
   998  H   1.0    0.05    1.04    1.43   -15.54321   151.24335   -50.15648
   999  H   1.0    0.04    1.03    1.43   -17.97308   151.54029   -47.83211
  1000  H   1.0    0.03    1.03    1.43   -18.19842   152.76962   -53.39358
  1001  H   1.0    0.02    1.03    1.43   -20.02424   150.53498   -51.64369
[...]
1210   1 H      0.237  0.763  0.000  0.000     0.934     1.514
1211   1 H      0.083  0.917  0.000  0.000     1.947     2.182
1212   1 H      0.086  0.914  0.000  0.000     1.920     2.167
1213   1 H      0.043  0.957  0.000  0.000     2.414     2.430
1214   1 H      0.037  0.963  0.000  0.000     2.496     2.471
1215   1 H      0.057  0.943  0.000  0.000     2.233     2.337
1216   1 H      0.071  0.929  0.000  0.000     2.073     2.252
1217   1 H      0.048  0.952  0.000  0.000     2.343     2.394
1218   1 H      0.037  0.963  0.000  0.000     2.494     2.470
1219   1 H      0.024  0.976  0.000  0.000     2.679     2.560
1220   1 H      0.034  0.966  0.000  0.000     2.529     2.487
1221   7 N     -0.193  1.240  3.953  0.000    25.193     7.455
1222   6 C      0.058  1.038  2.904  0.000    19.580     6.294
1223   6 C      0.299  1.030  2.671  0.000    21.923     7.669
1224   8 O     -0.536  1.744  4.793  0.000    24.604     6.650
1225   6 C     -0.036  1.040  2.996  0.000    21.207     6.554
1226   6 C     -0.079  1.052  3.028  0.000    22.004     6.678
1227   6 C      0.365  1.023  2.612  0.000    20.809     7.466
1228   8 O     -0.649  1.772  4.877  0.000    27.348     7.011
1229   8 O     -0.647  1.756  4.891  0.000    27.314     7.007
1230   1 H      0.234  0.766  0.000  0.000     0.948     1.525
1231   1 H      0.037  0.963  0.000  0.000     2.488     2.466
1232   1 H     -0.002  1.002  0.000  0.000     3.087     2.748
1233   1 H      0.039  0.961  0.000  0.000     2.464     2.455
1234   1 H      0.058  0.942  0.000  0.000     2.225     2.333
1235   1 H     -0.011  1.011  0.000  0.000     3.253     2.821
1236   7 N     -0.191  1.251  3.940  0.000    25.150     7.448
1237   6 C      0.044  1.052  2.904  0.000    19.821     6.337
1238   6 C      0.212  1.089  2.699  0.000    23.517     7.942
1239   8 O     -0.376  1.747  4.629  0.000    21.217     6.176
1240   6 C     -0.008  1.059  2.949  0.000    20.683     6.468
1241   6 C     -0.128  1.045  3.083  0.000    23.018     6.841
1242   6 C     -0.122  1.045  3.077  0.000    22.893     6.823
1243   1 H      0.240  0.760  0.000  0.000     0.924     1.505
1244   1 H      0.038  0.962  0.000  0.000     2.472     2.459
1245   1 H      0.025  0.975  0.000  0.000     2.658     2.550
1246   1 H      0.048  0.952  0.000  0.000     2.345     2.394
1247   1 H      0.017  0.983  0.000  0.000     2.781     2.608
1248   1 H      0.101  0.899  0.000  0.000     1.778     2.085
1249   1 H      0.057  0.943  0.000  0.000     2.229     2.335
1250   1 H      0.069  0.931  0.000  0.000     2.100     2.266
1251   1 H      0.044  0.956  0.000  0.000     2.394     2.420
1252   7 N     -0.421  1.322  4.099  0.000    30.965     8.265
1253   6 C      0.041  1.044  2.915  0.000    19.875     6.345
1254   6 C      0.270  1.046  2.684  0.000    22.441     7.760
1255   8 O     -0.507  1.740  4.767  0.000    23.942     6.560
1256   6 C     -0.010  1.045  2.964  0.000    20.704     6.470
1257   6 C     -0.118  1.047  3.071  0.000    22.806     6.808
1258   6 C     -0.113  1.043  3.070  0.000    22.706     6.791
1259   1 H      0.171  0.829  0.000  0.000     1.268     1.764
1260   1 H      0.052  0.948  0.000  0.000     2.292     2.368
1261   1 H     -0.001  1.001  0.000  0.000     3.082     2.745
1262   1 H      0.035  0.965  0.000  0.000     2.515     2.480
1263   1 H      0.032  0.968  0.000  0.000     2.563     2.504
1264   1 H      0.068  0.932  0.000  0.000     2.107     2.270
1265   1 H      0.026  0.974  0.000  0.000     2.642     2.542
1266   1 H      0.063  0.937  0.000  0.000     2.169     2.303
1267   1 H      0.055  0.945  0.000  0.000     2.256     2.349
1268   7 N     -0.149  1.231  3.918  0.000    24.227     7.310
1269   6 C      0.051  1.034  2.915  0.000    19.695     6.313
1270   6 C      0.207  1.080  2.713  0.000    23.610     7.958
1271   8 O     -0.340  1.740  4.600  0.000    20.525     6.074
1272   6 C     -0.093  1.048  3.045  0.000    22.249     6.712
1273   6 C      0.286  1.036  2.678  0.000    22.151     7.707
1274   8 O     -0.508  1.775  4.734  0.000    23.971     6.564
1275   7 N     -0.272  1.262  4.010  0.000    27.049     7.724
1276   1 H      0.204  0.796  0.000  0.000     1.087     1.633
1277   1 H      0.084  0.916  0.000  0.000     1.933     2.174
1278   1 H      0.095  0.905  0.000  0.000     1.828     2.115
1279   1 H      0.075  0.925  0.000  0.000     2.027     2.227
1280   1 H      0.199  0.801  0.000  0.000     1.109     1.650
1281   1 H      0.215  0.785  0.000  0.000     1.032     1.591
1282   7 N     -0.390  1.304  4.086  0.000    30.096     8.148
1283   6 C      0.038  1.038  2.924  0.000    19.937     6.356
1284   6 C      0.272  1.038  2.690  0.000    22.405     7.752
1285   8 O     -0.509  1.752  4.757  0.000    23.985     6.566
1286   6 C     -0.082  1.043  3.039  0.000    22.047     6.682
1287   6 C      0.278  1.038  2.684  0.000    22.291     7.731
1288   8 O     -0.467  1.742  4.725  0.000    23.056     6.438
1289   7 N     -0.270  1.263  4.007  0.000    26.996     7.717
1290   1 H      0.177  0.823  0.000  0.000     1.232     1.739
1291   1 H      0.071  0.929  0.000  0.000     2.070     2.250
1292   1 H      0.065  0.935  0.000  0.000     2.144     2.290
1293   1 H      0.024  0.976  0.000  0.000     2.667     2.554
1294   1 H      0.232  0.768  0.000  0.000     0.955     1.531
1295   1 H      0.187  0.813  0.000  0.000     1.175     1.698
1296   7 N     -0.182  1.248  3.934  0.000    24.935     7.416
1297   6 C      0.033  1.055  2.911  0.000    20.010     6.369
1298   6 C      0.300  1.030  2.671  0.000    21.918     7.667
1299   8 O     -0.511  1.772  4.739  0.000    24.032     6.573
1300   6 C     -0.051  1.050  3.001  0.000    21.490     6.599
1301   6 C     -0.084  1.062  3.023  0.000    22.104     6.693
1302   6 C      0.370  1.022  2.607  0.000    20.726     7.451
1303   8 O     -0.629  1.757  4.873  0.000    26.849     6.947
1304   8 O     -0.686  1.797  4.889  0.000    28.324     7.135
1305   1 H      0.225  0.775  0.000  0.000     0.988     1.557
1306   1 H      0.022  0.978  0.000  0.000     2.710     2.574
1307   1 H      0.076  0.924  0.000  0.000     2.017     2.221
1308   1 H      0.025  0.975  0.000  0.000     2.661     2.551
1309   1 H     -0.002  1.002  0.000  0.000     3.093     2.750
1310   1 H      0.042  0.958  0.000  0.000     2.421     2.433
1311   7 N     -0.177  1.236  3.941  0.000    24.839     7.402
1312   6 C      0.029  1.049  2.923  0.000    20.089     6.381
1313   6 C      0.278  1.038  2.685  0.000    22.301     7.733
1314   8 O     -0.502  1.756  4.746  0.000    23.824     6.544
1315   6 C     -0.095  1.062  3.032  0.000    22.301     6.723
1316   6 C     -0.086  1.056  3.030  0.000    22.138     6.699
1317   6 C     -0.013  1.054  2.959  0.000    20.888     6.522
1318   7 N     -0.151  1.219  3.933  0.000    24.274     7.317
1319   6 C      0.234  1.017  2.749  0.000    23.093     7.868
1320   7 N     -0.239  1.230  4.009  0.000    26.249     7.609
1321   7 N     -0.251  1.237  4.015  0.000    26.541     7.651
1322   1 H      0.219  0.781  0.000  0.000     1.014     1.577
1323   1 H      0.061  0.939  0.000  0.000     2.186     2.312
1324   1 H      0.088  0.912  0.000  0.000     1.901     2.156
1325   1 H      0.083  0.917  0.000  0.000     1.951     2.184
1326   1 H      0.042  0.958  0.000  0.000     2.422     2.434
1327   1 H      0.103  0.897  0.000  0.000     1.757     2.073
1328   1 H      0.066  0.934  0.000  0.000     2.132     2.284
1329   1 H      0.064  0.936  0.000  0.000     2.148     2.292
1330   1 H      0.246  0.754  0.000  0.000     0.901     1.487
1331   1 H      0.212  0.788  0.000  0.000     1.049     1.604
1332   1 H      0.259  0.741  0.000  0.000     0.850     1.444
1333   1 H      0.269  0.731  0.000  0.000     0.813     1.413
1334   1 H      0.272  0.728  0.000  0.000     0.805     1.405
1335   7 N     -0.173  1.243  3.930  0.000    24.746     7.388
1336   6 C      0.006  1.069  2.925  0.000    20.487     6.446
1337   6 C      0.283  1.037  2.680  0.000    22.209     7.717
1338   8 O     -0.482  1.732  4.751  0.000    23.392     6.484
1339   6 C     -0.088  1.055  3.032  0.000    22.169     6.704
1340   6 C     -0.091  1.058  3.033  0.000    22.240     6.715
1341   6 C     -0.036  1.059  2.976  0.000    21.301     6.587
1342   7 N     -0.148  1.207  3.941  0.000    24.201     7.306
1343   6 C      0.231  1.018  2.751  0.000    23.156     7.878
1344   7 N     -0.251  1.233  4.019  0.000    26.542     7.652
1345   7 N     -0.249  1.245  4.004  0.000    26.489     7.644
1346   1 H      0.220  0.780  0.000  0.000     1.008     1.573
1347   1 H      0.106  0.894  0.000  0.000     1.730     2.057
1348   1 H      0.047  0.953  0.000  0.000     2.364     2.404
1349   1 H      0.075  0.925  0.000  0.000     2.032     2.229
1350   1 H      0.078  0.922  0.000  0.000     2.000     2.212
1351   1 H      0.076  0.924  0.000  0.000     2.018     2.222
1352   1 H      0.102  0.898  0.000  0.000     1.768     2.079
1353   1 H      0.113  0.887  0.000  0.000     1.675     2.024
1354   1 H      0.207  0.793  0.000  0.000     1.070     1.620
1355   1 H      0.255  0.745  0.000  0.000     0.866     1.457
1356   1 H      0.262  0.738  0.000  0.000     0.839     1.434
1357   1 H      0.244  0.756  0.000  0.000     0.906     1.491
1358   1 H      0.236  0.764  0.000  0.000     0.941     1.520
1359   7 N     -0.157  1.241  3.917  0.000    24.404     7.337
1360   6 C      0.026  1.059  2.916  0.000    20.138     6.389
1361   6 C      0.280  1.040  2.681  0.000    22.264     7.726
1362   8 O     -0.461  1.722  4.739  0.000    22.938     6.421
1363   6 C     -0.052  1.047  3.005  0.000    21.504     6.601
1364   6 C     -0.099  1.069  3.031  0.000    22.388     6.736
1365   6 C      0.372  1.017  2.611  0.000    20.700     7.446
1366   8 O     -0.686  1.791  4.895  0.000    28.343     7.138
1367   8 O     -0.641  1.765  4.876  0.000    27.160     6.987
1368   1 H      0.201  0.799  0.000  0.000     1.101     1.644
1369   1 H      0.085  0.915  0.000  0.000     1.927     2.171
1370   1 H      0.016  0.984  0.000  0.000     2.794     2.614
1371   1 H      0.042  0.958  0.000  0.000     2.423     2.434
1372   1 H      0.049  0.951  0.000  0.000     2.330     2.387
1373   1 H      0.042  0.958  0.000  0.000     2.422     2.434
1374   7 N     -0.161  1.243  3.918  0.000    24.476     7.348
1375   6 C      0.024  1.062  2.914  0.000    20.175     6.396
1376   6 C      0.289  1.032  2.679  0.000    22.099     7.698
1377   8 O     -0.482  1.727  4.755  0.000    23.393     6.485
1378   6 C     -0.047  1.048  3.000  0.000    21.412     6.587
1379   6 C     -0.085  1.062  3.023  0.000    22.117     6.696
1380   6 C      0.369  1.025  2.606  0.000    20.737     7.452
1381   8 O     -0.638  1.761  4.878  0.000    27.078     6.977
1382   8 O     -0.661  1.790  4.871  0.000    27.669     7.052
1383   1 H      0.192  0.808  0.000  0.000     1.149     1.679
1384   1 H      0.065  0.935  0.000  0.000     2.139     2.287
1385   1 H      0.039  0.961  0.000  0.000     2.462     2.454
1386   1 H      0.060  0.940  0.000  0.000     2.201     2.320
1387   1 H      0.020  0.980  0.000  0.000     2.734     2.586
1388   1 H      0.014  0.986  0.000  0.000     2.821     2.627
1389   7 N     -0.168  1.245  3.923  0.000    24.636     7.372
1390   6 C      0.027  1.059  2.913  0.000    20.115     6.386
1391   6 C      0.278  1.040  2.683  0.000    22.304     7.734
1392   8 O     -0.495  1.744  4.752  0.000    23.680     6.524
1393   6 C     -0.063  1.056  3.007  0.000    21.697     6.631
1394   6 C     -0.098  1.068  3.030  0.000    22.372     6.735
1395   6 C      0.364  1.027  2.609  0.000    20.821     7.467
1396   8 O     -0.637  1.765  4.872  0.000    27.044     6.972
1397   8 O     -0.652  1.776  4.875  0.000    27.420     7.021
1398   1 H      0.198  0.802  0.000  0.000     1.117     1.656
1399   1 H      0.074  0.926  0.000  0.000     2.047     2.238
1400   1 H      0.037  0.963  0.000  0.000     2.488     2.467
1401   1 H      0.052  0.948  0.000  0.000     2.293     2.368
1402   1 H      0.048  0.952  0.000  0.000     2.350     2.397
1403   1 H      0.029  0.971  0.000  0.000     2.599     2.521
1404   7 N     -0.177  1.248  3.930  0.000    24.840     7.402
1405   6 C      0.020  1.058  2.923  0.000    20.241     6.405
1406   6 C      0.287  1.034  2.679  0.000    22.136     7.705
1407   8 O     -0.488  1.736  4.752  0.000    23.513     6.501
1408   6 C      0.075  1.037  2.889  0.000    19.520     6.325
1409   8 O     -0.477  1.721  4.756  0.000    22.399     6.389
1410   1 H      0.225  0.775  0.000  0.000     0.987     1.557
1411   1 H      0.092  0.908  0.000  0.000     1.859     2.132
1412   1 H      0.063  0.937  0.000  0.000     2.170     2.303
1413   1 H      0.027  0.973  0.000  0.000     2.636     2.539
1414   1 H      0.354  0.646  0.000  0.000     0.580     1.196
1415   7 N     -0.195  1.250  3.945  0.000    25.222     7.459
1416   6 C      0.029  1.054  2.917  0.000    20.083     6.381
1417   6 C      0.278  1.043  2.679  0.000    22.297     7.732
1418   8 O     -0.488  1.742  4.746  0.000    23.511     6.501
1419   6 C     -0.152  1.051  3.101  0.000    23.495     6.911
1420   1 H      0.229  0.771  0.000  0.000     0.967     1.541
1421   1 H      0.067  0.933  0.000  0.000     2.113     2.273
1422   1 H      0.064  0.936  0.000  0.000     2.157     2.297
1423   1 H      0.054  0.946  0.000  0.000     2.272     2.357
1424   1 H      0.082  0.918  0.000  0.000     1.964     2.191
1425   7 N     -0.180  1.250  3.930  0.000    24.908     7.412
1426   6 C      0.026  1.055  2.918  0.000    20.134     6.389
1427   6 C      0.286  1.036  2.678  0.000    22.155     7.708
1428   8 O     -0.505  1.753  4.752  0.000    23.893     6.554
1429   6 C     -0.129  1.043  3.086  0.000    23.027     6.842
1430   1 H      0.220  0.780  0.000  0.000     1.008     1.573
1431   1 H      0.058  0.942  0.000  0.000     2.221     2.330
1432   1 H      0.077  0.923  0.000  0.000     2.010     2.217
1433   1 H      0.068  0.932  0.000  0.000     2.102     2.267
1434   1 H      0.065  0.935  0.000  0.000     2.146     2.291
1435   7 N     -0.173  1.246  3.927  0.000    24.746     7.388
1436   6 C      0.024  1.056  2.920  0.000    20.167     6.395
1437   6 C      0.282  1.037  2.681  0.000    22.225     7.720
1438   8 O     -0.499  1.757  4.742  0.000    23.764     6.536
1439   6 C     -0.138  1.046  3.092  0.000    23.206     6.868
1440   1 H      0.211  0.789  0.000  0.000     1.051     1.606
1441   1 H      0.076  0.924  0.000  0.000     2.017     2.221
1442   1 H      0.086  0.914  0.000  0.000     1.918     2.166
1443   1 H      0.075  0.925  0.000  0.000     2.033     2.230
1444   1 H      0.058  0.942  0.000  0.000     2.228     2.334
1445   7 N     -0.168  1.245  3.923  0.000    24.640     7.372
1446   6 C      0.024  1.055  2.921  0.000    20.179     6.396
1447   6 C      0.294  1.033  2.673  0.000    22.022     7.685
1448   8 O     -0.488  1.740  4.748  0.000    23.513     6.501
1449   6 C     -0.137  1.046  3.091  0.000    23.192     6.865
1450   1 H      0.219  0.781  0.000  0.000     1.016     1.579
1451   1 H      0.081  0.919  0.000  0.000     1.965     2.192
1452   1 H      0.073  0.927  0.000  0.000     2.054     2.241
1453   1 H      0.081  0.919  0.000  0.000     1.972     2.196
1454   1 H      0.061  0.939  0.000  0.000     2.184     2.311
1455   7 N     -0.175  1.240  3.936  0.000    24.794     7.395
1456   6 C      0.034  1.054  2.912  0.000    20.001     6.368
1457   6 C      0.217  1.084  2.699  0.000    23.418     7.925
1458   8 O     -0.373  1.747  4.626  0.000    21.150     6.166
1459   6 C     -0.043  1.050  2.994  0.000    21.345     6.577
1460   6 C     -0.094  1.066  3.028  0.000    22.283     6.721
1461   6 C      0.368  1.026  2.606  0.000    20.762     7.457
1462   8 O     -0.657  1.775  4.881  0.000    27.554     7.038
1463   8 O     -0.655  1.776  4.879  0.000    27.522     7.034
1464   1 H      0.202  0.798  0.000  0.000     1.096     1.640
1465   1 H      0.085  0.915  0.000  0.000     1.925     2.169
1466   1 H      0.051  0.949  0.000  0.000     2.308     2.376
1467   1 H      0.035  0.965  0.000  0.000     2.521     2.483
1468   1 H      0.042  0.958  0.000  0.000     2.424     2.435
1469   1 H      0.037  0.963  0.000  0.000     2.485     2.465
1470   1 H      0.215  0.785  0.000  0.000     1.031     1.590
1471   1 H      0.076  0.924  0.000  0.000     2.017     2.221
1472   1 H      0.113  0.887  0.000  0.000     1.673     2.023
1473   1 H      0.187  0.813  0.000  0.000     1.176     1.698
1474   1 H      0.089  0.911  0.000  0.000     1.886     2.148
1475   1 H      0.188  0.812  0.000  0.000     1.166     1.692
1476   1 H      0.072  0.928  0.000  0.000     2.068     2.249
1477   1 H      0.182  0.818  0.000  0.000     1.202     1.717
1478   1 H      0.101  0.899  0.000  0.000     1.772     2.081
1479   1 H      0.184  0.816  0.000  0.000     1.191     1.709
1480   1 H      0.065  0.935  0.000  0.000     2.141     2.288
1481   1 H      0.191  0.809  0.000  0.000     1.153     1.682
1482   1 H      0.095  0.905  0.000  0.000     1.834     2.118
1483   1 H      0.179  0.821  0.000  0.000     1.220     1.730
1484   1 H      0.049  0.951  0.000  0.000     2.328     2.386
1485   1 H      0.181  0.819  0.000  0.000     1.210     1.723
1486   1 H      0.058  0.942  0.000  0.000     2.222     2.331
1487   1 H      0.210  0.790  0.000  0.000     1.057     1.611
1488   1 H      0.101  0.899  0.000  0.000     1.773     2.082
1489   1 H      0.191  0.809  0.000  0.000     1.153     1.682
1490   1 H      0.076  0.924  0.000  0.000     2.025     2.225
1491   1 H      0.191  0.809  0.000  0.000     1.155     1.683
1492   1 H      0.062  0.938  0.000  0.000     2.178     2.308
1493   1 H      0.156  0.844  0.000  0.000     1.358     1.825
1494   1 H      0.097  0.903  0.000  0.000     1.815     2.106
1495   1 H      0.196  0.804  0.000  0.000     1.125     1.661
1496   1 H      0.092  0.908  0.000  0.000     1.861     2.133

 Mol. C6AA /au·bohr⁶  :   20734192.340788
 Mol. C8AA /au·bohr⁸  :  459143238.006446
 Mol. α(0) /au        :       6766.401476

 
molecular dipole:
                 x           y           z       tot (Debye)
 q only:     -119.144   -1774.545     276.177
   full:     -122.081   -1782.515     274.870    4594.838
molecular quadrupole (traceless):
                xx          xy          yy          xz          yz          zz
 q only:   134383.492  -26975.552 -258189.272    3818.136   61655.878  123805.780
  q+dip:   135646.445  -27758.560 -260606.474    3766.345   61709.972  124960.029
   full:   135653.241  -27751.596 -260608.730    3763.894   61709.044  124955.489
speedup  1.18
cpu  time for grad    7 m 26.5 s
wall time for grad    6 m 17.8 s

SCC energy    :   -2376.4210009
rep           :      27.2043544
ES            :      12.6758532
AES           :      -0.5593016
AXC           :       0.6577397
disp          :      -2.1648709
XB            :       0.0000000
fix           :       0.0000000
Gborn         :       0.0000000
Gsasa         :       0.0000000
Ghb           :       0.0000000
Gshift        :       0.0000000
Gsolv         :      -5.4172628    -3399.38
Etot ala COSMO:   -2376.4210009
grad norm     :       0.9815185
total E       :   -2348.9746945
atomizationE  :     420.9690279   264162.05
(atE without considering molecular charge,
 total energy contains solvation terms)
H-L gap (eV)  :          0.8684

------------------------------------------------------------------------
 * finished run on 2019/05/04 at 20:29:13.128     
------------------------------------------------------------------------
 total:
 * wall-time:     0 d,  0 h,  6 min, 34.106 sec
 *  cpu-time:     0 d,  0 h,  7 min, 36.386 sec
 * ratio c/w:     1.158 speedup
 SCF:
 * wall-time:     0 d,  0 h,  6 min, 25.280 sec
 *  cpu-time:     0 d,  0 h,  7 min, 32.050 sec
 * ratio c/w:     1.173 speedup

