      -----------------------------------------------------------      
     |                   =====================                   |     
     |                           x T B                           |     
     |                   =====================                   |     
     |                         S. Grimme                         |     
     |          Mulliken Center for Theoretical Chemistry        |     
     |                    University of Bonn                     |     
     |                 Version 6.0.1 (SAW181210)                 |     
      -----------------------------------------------------------      

   This program is distributed in the hope that it will be useful,
   but WITHOUT ANY WARRANTY; without even the implied warranty of
   MERCHANTABILITY or FITNESS FOR A PARTICULAR PURPOSE.
   
   FOR NON-COMMERCIAL, ACADEMIA USE ONLY.
   
   Cite this work as:
   S. Grimme, C. Bannwarth, P. Shushkov, J. Comput. Theory Chem., 2017,
   13, 1989-2009.
   C. Bannwarth, S. Ehlert and S. Grimme., ChemRxiv, 2018, preprint.
   http://doi.org/10.26434/chemrxiv.7246238.v1
   
   for sTDA-xTB:
   S. Grimme and C. Bannwarth, J. Chem. Phys., 2016, 145, 054103.
   
   in the mass-spec context:
   V. Asgeirsson, C. Bauer and S. Grimme, Chem. Sci., 2017, 8, 4879.
   
   if GBSA is used:
   P. Shushkov, F. März and S. Grimme, unpublished.
   
   for ANC optimizer:
   S. Grimme, unpublished.
   Rational Function algorithm used in ANCopt:
   F. Eckert, P. Pulay, H.-J. Werner, J. Comput. Chem., 1997, 18, 1473.
   
   with help from (in alphabetical order)
   C. Bannwarth, F. Bohle, G. Brandenburg, E. Caldeweyher, M. Checinski,
   S. Dohm, S. Ehlert, S. Ehrlich, F. März, H. Neugebauer, J. Pisarek,
   P. Pracht, P. Shushkov, and S. Spicher.
   
 * started run on 2019/05/05 at 17:07:41.975     
========================================================================
 # omp threads = 2
========================================================================
number of atoms            : 160
number of electrons        : 424
charge                     : 1
spin                       : .0
first test random number   : .8529

########################################################################
# WARNING! Please study the warnings concerning your input carefully
#  - Process number higher than OMP_NUM_THREADS, I hope you know what you are doing.
########################################################################

           ------------------------------------------------- 
          |                 G F N 2 - x T B                 |
          | Geometry, Frequencies, Noncovalent interactions |
          |            JCTC 2018 parametrisation            |
           ------------------------------------------------- 
 
      method parameters     
 k(s)        :  1.8500
 k(p)        :  2.2300
 k(d)        :  2.2300
 k(f)        :  2.0000
 kEN (H0ij)  : -2.0000
 D4 a1       :  0.5200
 D4 a2       :  5.0000
 D4 s6       :  1.0000
 D4 s8       :  2.7000
 D4 s9       :  5.0000
 alphaj      :  2.0000

 Solvent             : h2o
 Using internal parameter file: .param_gbsa2_h2o
 Gsolv ref. state (COSMO-RS): gsolv [1 M gas/solution]
 temperature (mdtemp)       :    298.150000000000     
 dielectric constant        :    80.2000000000000     
 rho                        :    1.00000000000000     
 mass                       :    18.0000000000000     
 surface tension            :    15.5689454083859     
 probe radius               :   0.975313790000000     
 vdW radii scaling          :    1.00000000000000     
 Gshift (Eh)                :   1.857443126794793E-003
 c1                         :    1.55243817000000     
 soset                      :   0.130326360000000     
 HB correction              :  T

            Z     q(EN)     CN     RAES       Cart. coordinates
     1  N   5.0   -0.21    3.23    1.96    25.38763    20.24221    35.52384
     2  C   4.0    0.03    4.34    4.28    25.64430    18.81957    33.18447
     3  C   4.0    0.15    3.45    3.10    23.86521    19.78131    31.18847
     4  O   6.0   -0.33    1.31    1.80    24.48802    19.88639    28.91824
     5  C   4.0   -0.04    4.29    4.17    25.11510    16.01170    33.64034
     6  C   4.0   -0.05    4.18    3.96    27.41470    14.72289    34.80367
     7  C   4.0   -0.04    4.17    3.94    29.36323    13.96712    32.79204
     8  C   4.0   -0.03    4.13    3.85    32.06610    14.08799    33.81803
     9  N   5.0   -0.11    4.00    2.87    33.88864    13.78119    31.69990
    10  H   1.0    0.09    1.02    1.43    25.08431    19.34080    37.19125
    11  H   1.0    0.04    1.05    1.44    27.57199    19.07710    32.45691
    12  H   1.0    0.05    1.03    1.43    23.49773    15.87200    34.90578
    13  H   1.0    0.05    1.03    1.43    24.62247    15.09872    31.86135
    14  H   1.0    0.04    1.03    1.43    28.27136    16.01215    36.15920
    15  H   1.0    0.05    1.03    1.43    26.80634    13.05078    35.83899
    16  H   1.0    0.05    1.02    1.43    28.95020    12.06460    32.12157
    17  H   1.0    0.05    1.04    1.43    29.22566    15.25510    31.19105
    18  H   1.0    0.04    1.03    1.43    32.39835    15.95276    34.62676
    19  H   1.0    0.05    1.02    1.43    32.38187    12.63472    35.24003
    20  H   1.0    0.07    1.02    1.43    35.71149    13.62174    32.31907
    21  H   1.0    0.07    1.02    1.43    33.44236    12.25598    30.59665
    22  H   1.0    0.06    1.01    1.43    33.70680    15.53727    30.70166
    23  N   5.0   -0.14    3.41    2.02    21.50752    20.23854    31.97268
    24  C   4.0    0.02    4.27    4.13    19.63460    21.10309    30.17353
    25  C   4.0    0.16    3.36    3.07    20.11848    23.75943    29.20253
    26  O   6.0   -0.32    1.34    1.80    19.53266    24.43365    27.03528
    27  H   1.0    0.08    1.05    1.44    20.96903    19.92657    33.79506
    28  H   1.0    0.06    1.03    1.43    19.57531    19.84005    28.53273
    29  H   1.0    0.05    1.03    1.43    17.78912    21.07420    31.09395
    30  N   5.0   -0.14    3.53    2.10    21.23861    25.33135    30.81343
    31  C   4.0    0.03    4.40    4.39    21.78925    27.90293    30.05696
    32  C   4.0    0.16    3.50    3.11    23.85958    27.78168    28.02523
    33  O   6.0   -0.32    1.29    1.80    23.78777    29.04557    26.07874
    34  C   4.0   -0.05    4.33    4.25    22.65851    29.39733    32.41902
    35  C   4.0   -0.02    4.18    3.96    24.15835    31.84410    31.93314
    36  C   4.0   -0.07    4.11    3.83    22.61859    33.84860    30.56384
    37  C   4.0   -0.07    4.13    3.85    25.02994    32.93947    34.42761
    38  H   1.0    0.08    1.07    1.44    21.42747    24.83922    32.65750
    39  H   1.0    0.06    1.05    1.44    20.11991    28.76452    29.18463
    40  H   1.0    0.05    1.03    1.43    20.98557    29.82733    33.54274
    41  H   1.0    0.04    1.03    1.43    23.86052    28.12801    33.51336
    42  H   1.0    0.04    1.06    1.44    25.81373    31.37930    30.77977
    43  H   1.0    0.05    1.00    1.43    23.68953    35.59557    30.42847
    44  H   1.0    0.05    1.00    1.43    22.14747    33.23912    28.65893
    45  H   1.0    0.05    1.00    1.43    20.87163    34.23910    31.57470
    46  H   1.0    0.05    1.00    1.43    26.15934    34.62649    34.11297
    47  H   1.0    0.05    1.00    1.43    23.40570    33.45570    35.57658
    48  H   1.0    0.05    1.00    1.43    26.17272    31.58849    35.47771
    49  N   5.0   -0.14    3.54    2.11    25.76515    26.22747    28.52705
    50  C   4.0    0.03    4.51    4.56    27.84648    26.01726    26.76890
    51  C   4.0    0.16    3.50    3.12    26.84997    24.99090    24.25524
    52  O   6.0   -0.31    1.27    1.80    27.53754    25.79616    22.20000
    53  C   4.0   -0.02    4.26    4.12    29.94295    24.35493    27.85757
    54  C   4.0   -0.06    4.10    3.81    31.87058    23.54590    25.81859
    55  C   4.0   -0.07    4.11    3.83    31.22646    25.75927    30.01964
    56  H   1.0    0.08    1.07    1.44    25.83286    25.29273    30.20080
    57  H   1.0    0.05    1.06    1.44    28.60221    27.90640    26.35633
    58  H   1.0    0.05    1.06    1.44    29.06050    22.65086    28.62601
    59  H   1.0    0.05    1.00    1.43    33.41652    22.52448    26.70018
    60  H   1.0    0.05    1.00    1.43    30.99672    22.34625    24.40252
    61  H   1.0    0.05    1.00    1.43    32.64711    25.19851    24.87334
    62  H   1.0    0.05    1.00    1.43    32.64884    24.56612    30.89795
    63  H   1.0    0.05    1.00    1.43    32.15668    27.46523    29.34489
    64  H   1.0    0.04    1.00    1.43    29.87029    26.26947    31.47304
    65  N   5.0   -0.13    3.47    2.06    25.15340    23.08667    24.40899
    66  C   4.0    0.04    4.40    4.39    24.23667    21.99240    22.03289
    67  C   4.0    0.16    3.48    3.11    22.76834    23.89591    20.49076
    68  O   6.0   -0.31    1.29    1.80    22.88360    23.94771    18.15862
    69  C   4.0    0.05    4.16    3.93    22.39915    19.74090    22.43925
    70  O   6.0   -0.24    2.05    1.83    23.63167    17.75876    23.64044
    71  H   1.0    0.11    1.08    1.44    24.74327    22.20430    26.06349
    72  H   1.0    0.06    1.05    1.44    25.84561    21.34820    20.89853
    73  H   1.0    0.06    1.01    1.43    20.72395    20.38160    23.47219
    74  H   1.0    0.07    1.02    1.43    21.80291    19.06961    20.58190
    75  H   1.0    0.14    1.04    1.43    23.85549    18.18484    25.41562
    76  N   5.0   -0.13    3.48    2.06    21.18689    25.40233    21.79554
    77  C   4.0    0.04    4.37    4.33    19.80307    27.41602    20.51222
    78  C   4.0    0.16    3.49    3.11    21.63098    29.32696    19.34768
    79  O   6.0   -0.31    1.34    1.80    21.24686    30.18251    17.22667
    80  C   4.0   -0.03    4.27    4.14    17.94131    28.83544    22.28252
    81  C   4.0   -0.01    3.51    3.12    17.60466    31.66853    22.03041
    82  C   4.0   -0.02    3.42    3.09    16.30539    32.81180    19.96895
    83  C   4.0   -0.04    3.46    3.10    18.32671    33.25163    23.98888
    84  C   4.0   -0.03    3.39    3.07    15.84773    35.36857    19.91524
    85  C   4.0   -0.03    3.43    3.09    17.83417    35.80409    23.97434
    86  C   4.0    0.08    3.39    3.08    16.54940    36.95062    21.96695
    87  O   6.0   -0.22    2.07    1.83    16.02270    39.49037    22.24515
    88  H   1.0    0.11    1.09    1.44    21.04368    25.21863    23.69591
    89  H   1.0    0.07    1.05    1.44    18.76588    26.55433    18.93922
    90  H   1.0    0.05    1.03    1.43    16.09154    27.95174    22.04562
    91  H   1.0    0.06    1.04    1.43    18.57460    28.46425    24.21103
    92  H   1.0    0.06    1.03    1.43    15.71574    31.65860    18.39308
    93  H   1.0    0.05    1.03    1.43    19.30153    32.45118    25.59246
    94  H   1.0    0.07    1.03    1.43    14.88253    36.20812    18.31903
    95  H   1.0    0.06    1.03    1.43    18.37575    36.96653    25.55241
    96  H   1.0    0.13    1.01    1.43    15.48394    40.23486    20.62318
    97  N   5.0   -0.14    3.50    2.08    23.65285    29.94981    20.71044
    98  C   4.0    0.04    4.48    4.50    25.41439    31.86798    19.70644
    99  C   4.0    0.16    3.39    3.08    26.92284    30.85962    17.43962
   100  O   6.0   -0.27    1.21    1.80    27.91425    32.35974    15.97601
   101  C   4.0   -0.04    4.33    4.25    27.17410    32.82831    21.77326
   102  C   4.0   -0.04    4.07    3.75    25.71914    34.42348    23.58562
   103  S   6.0   -0.02    2.45    3.10    24.86763    37.57042    22.23698
   104  C   4.0   -0.05    3.87    3.42    27.94869    39.15221    22.32354
   105  H   1.0    0.11    1.09    1.44    23.88180    29.36958    22.52948
   106  H   1.0    0.07    1.07    1.44    24.29235    33.45053    18.96532
   107  H   1.0    0.06    1.03    1.43    27.99014    31.19829    22.74629
   108  H   1.0    0.05    1.04    1.43    28.71359    33.87337    20.88237
   109  H   1.0    0.05    1.07    1.44    23.91781    33.56356    24.07413
   110  H   1.0    0.04    1.06    1.44    26.77021    34.77418    25.31499
   111  H   1.0    0.06    1.04    1.43    27.61282    41.13258    21.92998
   112  H   1.0    0.05    1.03    1.43    28.83708    38.92814    24.15405
   113  H   1.0    0.06    1.03    1.43    29.15930    38.35770    20.87000
   114  N   5.0   -0.13    3.47    2.06    27.04298    28.33091    17.20212
   115  C   4.0    0.04    4.37    4.33    28.16886    27.09305    15.01621
   116  C   4.0    0.15    3.41    3.08    26.38558    26.80533    12.75451
   117  O   6.0   -0.27    1.22    1.80    27.20118    25.93366    10.74154
   118  C   4.0   -0.04    4.39    4.36    29.13621    24.40801    15.58375
   119  C   4.0   -0.02    4.16    3.93    31.47867    24.17293    17.23093
   120  C   4.0   -0.07    4.12    3.84    31.55637    21.49141    18.34612
   121  C   4.0   -0.06    4.12    3.85    33.84111    24.53338    15.63230
   122  H   1.0    0.11    1.09    1.44    26.51613    27.20556    18.65719
   123  H   1.0    0.07    1.05    1.44    29.76407    28.24709    14.35661
   124  H   1.0    0.06    1.03    1.43    27.56465    23.39328    16.46583
   125  H   1.0    0.06    1.05    1.44    29.52824    23.52194    13.76592
   126  H   1.0    0.06    1.05    1.44    31.39913    25.54588    18.76802
   127  H   1.0    0.05    1.00    1.43    33.23785    21.23105    19.48955
   128  H   1.0    0.05    1.00    1.43    29.90772    21.14987    19.52295
   129  H   1.0    0.05    1.00    1.43    31.57548    20.10963    16.82924
   130  H   1.0    0.05    1.00    1.43    35.54537    24.40960    16.76458
   131  H   1.0    0.06    1.00    1.43    33.91943    23.08139    14.18197
   132  H   1.0    0.06    1.00    1.43    33.85647    26.34950    14.67416
   133  N   5.0   -0.13    3.42    2.03    23.94695    27.44480    13.11169
   134  C   4.0    0.05    4.27    4.15    21.98741    26.53951    11.40274
   135  C   4.0    0.11    3.21    3.04    21.58385    28.22149     9.09710
   136  O   6.0   -0.24    1.12    1.80    20.16000    27.57303     7.36697
   137  C   4.0    0.05    4.14    3.89    19.45040    26.12339    12.75627
   138  O   6.0   -0.24    2.08    1.84    18.23246    28.38996    13.45676
   139  H   1.0    0.11    1.10    1.44    23.37729    28.16827    14.78833
   140  H   1.0    0.07    1.06    1.44    22.61344    24.71970    10.62798
   141  H   1.0    0.07    1.02    1.43    18.17854    25.14576    11.45915
   142  H   1.0    0.06    1.01    1.43    19.77488    24.91084    14.40552
   143  H   1.0    0.16    1.07    1.44    19.22403    29.22522    14.77595
   144  O   6.0   -0.30    1.99    1.82    15.87343    22.34515    24.14956
   145  H   1.0    0.16    1.03    1.43    17.15850    23.23002    25.11802
   146  H   1.0    0.14    0.97    1.43    14.29781    22.57114    25.02252
   147  O   6.0   -0.27    1.92    1.82    23.47266    19.98828    14.80413
   148  H   1.0    0.14    0.97    1.43    24.33094    20.63681    13.34562
   149  H   1.0    0.16    1.02    1.43    23.19651    21.41871    15.91911
   150  O   6.0   -0.31    1.92    1.82    29.13703    17.45765    27.30442
   151  H   1.0    0.14    0.97    1.43    28.82652    16.86372    25.62116
   152  H   1.0    0.15    1.00    1.43    27.61859    18.34985    27.82266
   153  O   6.0   -0.28    1.94    1.82    13.60189    26.72192    15.83126
   154  H   1.0    0.15    1.00    1.43    15.02335    27.26235    14.79587
   155  H   1.0    0.13    0.97    1.43    13.05512    28.19161    16.74972
   156  O   6.0   -0.27    1.93    1.82    15.69019    22.63364    18.97322
   157  H   1.0    0.15    1.02    1.43    15.49452    22.64518    20.79539
   158  H   1.0    0.15    0.99    1.43    14.55637    23.86018    18.24094
   159  H   1.0    0.09    1.07    1.44    26.80834    21.13396    35.80480
   160  H   1.0    0.08    1.04    1.44    22.47998    29.88030     8.96917

  Z AO/shell   Hii/eV     exponent
  1     Wed Apr 25 08:07:45 CEST 2018   EN: 2.200 GM2: 0.406  GM3: 0.0800  RAES: 1.40
     1s    -10.707211    1.230000
  6     Wed Apr 25 08:07:45 CEST 2018   EN: 2.550 GM2: 0.538  GM3: 0.1500  RAES: 3.00
     2s    -13.970922    2.096432
     2p    -10.063292    1.800000
  7     Wed Apr 25 08:07:45 CEST 2018   EN: 3.040 GM2: 0.461  GM3:-0.0640  RAES: 1.90
     2s    -16.686243    2.339881
     2p    -12.523956    2.014332
  8     Wed Apr 25 08:07:45 CEST 2018   EN: 3.440 GM2: 0.452  GM3:-0.0517  RAES: 1.80
     2s    -20.229985    2.439742
     2p    -15.503117    2.137023
 16     Tue Apr 24 11:44:34 CEST 2018   EN: 2.580 GM2: 0.340  GM3:-0.0502  RAES: 3.10
     3s    -20.029654    1.981333
     3p    -11.377694    2.025643
     3d     -0.420282    1.702555
 no old-style atom pair restraining (fixing) potential

molecular fragmentation (1/2 indicates fragments):
111111111111111111111111111111111111111111111111111111111111111111111111
111111111111111111111111111111111111111111111111111111111111111111111112
2222222222222211
# atoms in fragment 1/2:   145    15
 fragment masses (1/2) :      982.22       90.08
CMA distance (Bohr)    :   7.414
constraining FC (au)   :  0.0500
           ------------------------------------------------- 
          |        Self-Consistent Charge Iterations        |
           ------------------------------------------------- 

 Ncao       : 385
 Nao        : 384
 Nshell     : 234
 Nel        : 424
 T(el)      :   500.0
 intcut     :    35.0
 scfconv/Eh :  0.100E-06
   qconv/e  :  0.100E-04
 intneglect :  0.100E-08
 broydamp   :      0.400
 iter      E             dE          RMSdq      gap      omega  full diag
   1   -244.3796563 -0.244380E+03  0.459E+00    2.84       0.0  T
   2   -244.8638810 -0.484225E+00  0.224E+00    1.63       1.0  T
   3   -244.8927051 -0.288241E-01  0.111E+00    2.04       1.0  T
   4   -244.9329078 -0.402028E-01  0.279E-01    1.68       1.0  T
   5   -244.9345803 -0.167245E-02  0.117E-01    1.79       1.0  T
   6   -244.9350535 -0.473205E-03  0.486E-02    1.76       1.0  T
   7   -244.9351776 -0.124161E-03  0.219E-02    1.77       1.0  T
   8   -244.9351849 -0.723656E-05  0.910E-03    1.78       1.0  T
   9   -244.9351884 -0.351026E-05  0.343E-03    1.78       2.3  T
  10   -244.9351888 -0.426798E-06  0.146E-03    1.78       5.4  T
  11   -244.9351889 -0.472550E-07  0.569E-04    1.78      13.9  T
  12   -244.9351889 -0.963607E-08  0.254E-04    1.78      31.1  T
  13   -244.9351889 -0.354734E-08  0.110E-04    1.78      72.0  T
  14   -244.9351889 -0.371500E-09  0.429E-05    1.78     184.3  T
  15   -244.9351889 -0.460432E-10  0.203E-05    1.78     389.3  T
speedup  1.99
cpu  time for SCC    2.41 s
wall time for SCC    1.21 s

   *** convergence criteria satisfied after 15 iterations ***

          eigenvalues
 #    :         200        201        202        203        204        205        206        207
 occ. :        2.000      2.000      2.000      2.000      2.000      2.000      2.000      2.000
 eps  :       -11.455    -11.377    -11.279    -11.230    -11.190    -11.097    -11.077    -11.052
 #    :         208        209        210        211        212        213        214        215
 occ. :        2.000      2.000      2.000      2.000      2.000      0.000      0.000      0.000
 eps  :       -10.957    -10.818    -10.345    -10.342     -9.712     -7.932     -7.054     -6.878
 #    :         216        217        218        219        220        221        222        223
 occ. :        0.000      0.000      0.000      0.000      0.000      0.000      0.000      0.000
 eps  :        -6.713     -6.565     -6.441     -6.363     -6.271     -6.166     -6.136     -6.055


   #   Z            q   n(s)   n(p)   n(d)      C6AA      α(0)
   1   7 N     -0.398  1.307  4.091  0.000    30.327     8.179
   2   6 C      0.019  1.059  2.922  0.000    20.264     6.411
   3   6 C      0.259  1.054  2.687  0.000    22.640     7.792
   4   8 O     -0.516  1.747  4.769  0.000    24.137     6.587
   5   6 C     -0.076  1.057  3.019  0.000    21.951     6.669
   6   6 C     -0.073  1.050  3.023  0.000    21.898     6.662
   7   6 C     -0.101  1.057  3.044  0.000    22.433     6.743
   8   6 C     -0.050  1.061  2.989  0.000    21.572     6.630
   9   7 N     -0.151  1.236  3.915  0.000    24.249     7.314
  10   1 H      0.168  0.832  0.000  0.000     1.287     1.777
  11   1 H      0.072  0.928  0.000  0.000     2.065     2.247
  12   1 H      0.055  0.945  0.000  0.000     2.264     2.353
  13   1 H      0.056  0.944  0.000  0.000     2.243     2.342
  14   1 H      0.061  0.939  0.000  0.000     2.192     2.315
  15   1 H      0.055  0.945  0.000  0.000     2.258     2.350
  16   1 H      0.071  0.929  0.000  0.000     2.075     2.253
  17   1 H      0.092  0.908  0.000  0.000     1.858     2.132
  18   1 H      0.113  0.887  0.000  0.000     1.669     2.020
  19   1 H      0.112  0.888  0.000  0.000     1.677     2.025
  20   1 H      0.298  0.702  0.000  0.000     0.720     1.329
  21   1 H      0.297  0.703  0.000  0.000     0.724     1.333
  22   1 H      0.305  0.695  0.000  0.000     0.701     1.311
  23   7 N     -0.155  1.238  3.917  0.000    24.347     7.328
  24   6 C     -0.042  1.049  2.993  0.000    21.392     6.596
  25   6 C      0.272  1.041  2.688  0.000    22.408     7.752
  26   8 O     -0.501  1.752  4.749  0.000    23.808     6.542
  27   1 H      0.237  0.763  0.000  0.000     0.936     1.515
  28   1 H      0.105  0.895  0.000  0.000     1.739     2.062
  29   1 H      0.112  0.888  0.000  0.000     1.682     2.028
  30   7 N     -0.170  1.247  3.924  0.000    24.688     7.380
  31   6 C      0.014  1.066  2.920  0.000    20.340     6.422
  32   6 C      0.274  1.042  2.684  0.000    22.364     7.745
  33   8 O     -0.491  1.747  4.744  0.000    23.587     6.512
  34   6 C     -0.089  1.068  3.021  0.000    22.185     6.705
  35   6 C     -0.008  1.053  2.954  0.000    20.680     6.468
  36   6 C     -0.115  1.039  3.076  0.000    22.741     6.799
  37   6 C     -0.120  1.042  3.078  0.000    22.844     6.813
  38   1 H      0.234  0.766  0.000  0.000     0.949     1.526
  39   1 H      0.081  0.919  0.000  0.000     1.969     2.194
  40   1 H      0.075  0.925  0.000  0.000     2.036     2.231
  41   1 H      0.069  0.931  0.000  0.000     2.094     2.263
  42   1 H      0.031  0.969  0.000  0.000     2.566     2.505
  43   1 H      0.040  0.960  0.000  0.000     2.452     2.449
  44   1 H      0.034  0.966  0.000  0.000     2.532     2.489
  45   1 H      0.043  0.957  0.000  0.000     2.405     2.425
  46   1 H      0.042  0.958  0.000  0.000     2.419     2.432
  47   1 H      0.047  0.953  0.000  0.000     2.362     2.404
  48   1 H      0.048  0.952  0.000  0.000     2.344     2.394
  49   7 N     -0.170  1.241  3.929  0.000    24.672     7.377
  50   6 C      0.020  1.063  2.918  0.000    20.240     6.404
  51   6 C      0.278  1.045  2.677  0.000    22.293     7.732
  52   8 O     -0.487  1.751  4.736  0.000    23.504     6.500
  53   6 C     -0.026  1.065  2.961  0.000    20.994     6.517
  54   6 C     -0.120  1.041  3.080  0.000    22.865     6.819
  55   6 C     -0.128  1.042  3.086  0.000    23.009     6.839
  56   1 H      0.216  0.784  0.000  0.000     1.029     1.589
  57   1 H      0.071  0.929  0.000  0.000     2.075     2.253
  58   1 H      0.070  0.930  0.000  0.000     2.083     2.257
  59   1 H      0.074  0.926  0.000  0.000     2.041     2.234
  60   1 H      0.044  0.956  0.000  0.000     2.402     2.423
  61   1 H      0.037  0.963  0.000  0.000     2.483     2.464
  62   1 H      0.071  0.929  0.000  0.000     2.075     2.253
  63   1 H      0.045  0.955  0.000  0.000     2.388     2.417
  64   1 H      0.051  0.949  0.000  0.000     2.309     2.376
  65   7 N     -0.199  1.255  3.944  0.000    25.319     7.473
  66   6 C      0.017  1.063  2.920  0.000    20.291     6.414
  67   6 C      0.271  1.045  2.683  0.000    22.421     7.754
  68   8 O     -0.509  1.753  4.757  0.000    23.992     6.567
  69   6 C      0.071  1.037  2.892  0.000    19.581     6.336
  70   8 O     -0.455  1.712  4.743  0.000    21.942     6.323
  71   1 H      0.231  0.769  0.000  0.000     0.960     1.534
  72   1 H      0.076  0.924  0.000  0.000     2.024     2.225
  73   1 H      0.050  0.950  0.000  0.000     2.317     2.380
  74   1 H      0.060  0.940  0.000  0.000     2.202     2.320
  75   1 H      0.344  0.656  0.000  0.000     0.601     1.218
  76   7 N     -0.177  1.250  3.927  0.000    24.833     7.401
  77   6 C      0.023  1.063  2.915  0.000    20.205     6.401
  78   6 C      0.282  1.042  2.676  0.000    22.234     7.722
  79   8 O     -0.508  1.745  4.762  0.000    23.958     6.563
  80   6 C     -0.082  1.058  3.024  0.000    22.060     6.686
  81   6 C     -0.007  1.084  2.923  0.000    28.193     8.709
  82   6 C     -0.041  1.086  2.955  0.000    29.015     8.833
  83   6 C     -0.041  1.082  2.960  0.000    29.030     8.836
  84   6 C     -0.069  1.081  2.987  0.000    29.709     8.938
  85   6 C     -0.056  1.076  2.980  0.000    29.396     8.891
  86   6 C      0.139  1.053  2.808  0.000    24.968     8.188
  87   8 O     -0.438  1.734  4.704  0.000    21.596     6.273
  88   1 H      0.227  0.773  0.000  0.000     0.978     1.549
  89   1 H      0.088  0.912  0.000  0.000     1.895     2.153
  90   1 H      0.079  0.921  0.000  0.000     1.984     2.203
  91   1 H      0.078  0.922  0.000  0.000     1.998     2.211
  92   1 H      0.041  0.959  0.000  0.000     2.429     2.437
  93   1 H      0.047  0.953  0.000  0.000     2.351     2.398
  94   1 H      0.037  0.963  0.000  0.000     2.483     2.464
  95   1 H      0.056  0.944  0.000  0.000     2.244     2.342
  96   1 H      0.343  0.657  0.000  0.000     0.606     1.223
  97   7 N     -0.187  1.260  3.927  0.000    25.045     7.433
  98   6 C      0.027  1.064  2.908  0.000    20.118     6.386
  99   6 C      0.276  1.043  2.681  0.000    22.328     7.737
 100   8 O     -0.503  1.755  4.747  0.000    23.847     6.547
 101   6 C     -0.059  1.046  3.013  0.000    21.614     6.615
 102   6 C     -0.016  1.067  2.949  0.000    20.856     6.503
 103  16 S     -0.240  1.932  4.260  0.049   151.349    20.706
 104   6 C     -0.060  1.054  3.006  0.000    21.730     6.650
 105   1 H      0.238  0.762  0.000  0.000     0.932     1.513
 106   1 H      0.077  0.923  0.000  0.000     2.006     2.215
 107   1 H      0.067  0.933  0.000  0.000     2.114     2.274
 108   1 H      0.062  0.938  0.000  0.000     2.173     2.305
 109   1 H      0.073  0.927  0.000  0.000     2.051     2.240
 110   1 H      0.070  0.930  0.000  0.000     2.086     2.258
 111   1 H      0.065  0.935  0.000  0.000     2.145     2.291
 112   1 H      0.067  0.933  0.000  0.000     2.117     2.276
 113   1 H      0.048  0.952  0.000  0.000     2.340     2.392
 114   7 N     -0.184  1.247  3.938  0.000    24.999     7.426
 115   6 C      0.026  1.059  2.915  0.000    20.150     6.393
 116   6 C      0.269  1.050  2.680  0.000    22.452     7.760
 117   8 O     -0.503  1.757  4.746  0.000    23.848     6.547
 118   6 C     -0.071  1.058  3.013  0.000    21.835     6.650
 119   6 C     -0.010  1.054  2.955  0.000    20.715     6.474
 120   6 C     -0.116  1.044  3.072  0.000    22.767     6.802
 121   6 C     -0.116  1.041  3.076  0.000    22.776     6.803
 122   1 H      0.221  0.779  0.000  0.000     1.004     1.570
 123   1 H      0.073  0.927  0.000  0.000     2.054     2.241
 124   1 H      0.054  0.946  0.000  0.000     2.273     2.358
 125   1 H      0.061  0.939  0.000  0.000     2.187     2.313
 126   1 H      0.045  0.955  0.000  0.000     2.389     2.417
 127   1 H      0.059  0.941  0.000  0.000     2.209     2.324
 128   1 H      0.036  0.964  0.000  0.000     2.507     2.476
 129   1 H      0.044  0.956  0.000  0.000     2.403     2.424
 130   1 H      0.052  0.948  0.000  0.000     2.300     2.372
 131   1 H      0.041  0.959  0.000  0.000     2.430     2.437
 132   1 H      0.026  0.974  0.000  0.000     2.640     2.541
 133   7 N     -0.184  1.247  3.937  0.000    24.981     7.423
 134   6 C      0.023  1.059  2.918  0.000    20.200     6.401
 135   6 C      0.209  1.084  2.707  0.000    23.575     7.952
 136   8 O     -0.367  1.758  4.609  0.000    21.036     6.149
 137   6 C      0.073  1.038  2.889  0.000    19.570     6.338
 138   8 O     -0.482  1.718  4.764  0.000    22.513     6.405
 139   1 H      0.213  0.787  0.000  0.000     1.042     1.599
 140   1 H      0.098  0.902  0.000  0.000     1.803     2.100
 141   1 H      0.077  0.923  0.000  0.000     2.006     2.215
 142   1 H      0.063  0.937  0.000  0.000     2.159     2.298
 143   1 H      0.341  0.659  0.000  0.000     0.611     1.228
 144   8 O     -0.657  1.771  4.886  0.000    26.594     6.960
 145   1 H      0.324  0.676  0.000  0.000     0.653     1.270
 146   1 H      0.328  0.672  0.000  0.000     0.644     1.260
 147   8 O     -0.639  1.760  4.879  0.000    26.138     6.900
 148   1 H      0.299  0.701  0.000  0.000     0.723     1.336
 149   1 H      0.312  0.688  0.000  0.000     0.686     1.301
 150   8 O     -0.625  1.741  4.884  0.000    25.786     6.854
 151   1 H      0.305  0.695  0.000  0.000     0.706     1.320
 152   1 H      0.303  0.697  0.000  0.000     0.713     1.326
 153   8 O     -0.639  1.764  4.875  0.000    26.146     6.901
 154   1 H      0.317  0.683  0.000  0.000     0.673     1.289
 155   1 H      0.315  0.685  0.000  0.000     0.677     1.292
 156   8 O     -0.669  1.771  4.898  0.000    26.910     7.001
 157   1 H      0.321  0.679  0.000  0.000     0.662     1.278
 158   1 H      0.307  0.693  0.000  0.000     0.699     1.314
 159   1 H      0.185  0.815  0.000  0.000     1.188     1.707
 160   1 H      0.077  0.923  0.000  0.000     2.006     2.215

 Mol. C6AA /au·bohr⁶  :     221962.052672
 Mol. C8AA /au·bohr⁸  :    4978635.180029
 Mol. α(0) /au        :        704.475262

 
molecular dipole:
                 x           y           z       tot (Debye)
 q only:       33.459      12.691      48.120
   full:       33.482      13.174      49.374     155.288
molecular quadrupole (traceless):
                xx          xy          yy          xz          yz          zz
 q only:      191.073     645.393   -1323.515    2161.018    1224.633    1132.442
  q+dip:      151.474     665.134   -1330.466    2199.545    1274.979    1178.992
   full:      153.800     664.593   -1330.233    2197.867    1275.630    1176.432
speedup  1.95
cpu  time for grad    3.43 s
wall time for grad    1.76 s

SCC energy    :    -244.9402858
rep           :       2.7258036
ES            :       0.8238288
AES           :      -0.0386321
AXC           :       0.0699300
disp          :      -0.1963201
XB            :       0.0000000
fix           :       0.0000000
Gborn         :       0.0000000
Gsasa         :       0.0000000
Ghb           :       0.0000000
Gshift        :       0.0000000
Gsolv         :      -0.2304743     -144.62
Etot ala COSMO:    -244.9402858
grad norm     :       0.2506017
total E       :    -242.1982871
atomizationE  :      42.4658261    26647.71
(atE without considering molecular charge,
 total energy contains solvation terms)
H-L gap (eV)  :          1.7799

------------------------------------------------------------------------
 * finished run on 2019/05/05 at 17:07:44.206     
------------------------------------------------------------------------
 total:
 * wall-time:     0 d,  0 h,  0 min,  2.229 sec
 *  cpu-time:     0 d,  0 h,  0 min,  4.112 sec
 * ratio c/w:     1.845 speedup
 SCF:
 * wall-time:     0 d,  0 h,  0 min,  2.003 sec
 *  cpu-time:     0 d,  0 h,  0 min,  3.904 sec
 * ratio c/w:     1.949 speedup

