      -----------------------------------------------------------      
     |                   =====================                   |     
     |                           x T B                           |     
     |                   =====================                   |     
     |                         S. Grimme                         |     
     |          Mulliken Center for Theoretical Chemistry        |     
     |                    University of Bonn                     |     
     |                 Version 6.0.1 (SAW181210)                 |     
      -----------------------------------------------------------      

   This program is distributed in the hope that it will be useful,
   but WITHOUT ANY WARRANTY; without even the implied warranty of
   MERCHANTABILITY or FITNESS FOR A PARTICULAR PURPOSE.
   
   FOR NON-COMMERCIAL, ACADEMIA USE ONLY.
   
   Cite this work as:
   S. Grimme, C. Bannwarth, P. Shushkov, J. Comput. Theory Chem., 2017,
   13, 1989-2009.
   C. Bannwarth, S. Ehlert and S. Grimme., ChemRxiv, 2018, preprint.
   http://doi.org/10.26434/chemrxiv.7246238.v1
   
   for sTDA-xTB:
   S. Grimme and C. Bannwarth, J. Chem. Phys., 2016, 145, 054103.
   
   in the mass-spec context:
   V. Asgeirsson, C. Bauer and S. Grimme, Chem. Sci., 2017, 8, 4879.
   
   if GBSA is used:
   P. Shushkov, F. März and S. Grimme, unpublished.
   
   for ANC optimizer:
   S. Grimme, unpublished.
   Rational Function algorithm used in ANCopt:
   F. Eckert, P. Pulay, H.-J. Werner, J. Comput. Chem., 1997, 18, 1473.
   
   with help from (in alphabetical order)
   C. Bannwarth, F. Bohle, G. Brandenburg, E. Caldeweyher, M. Checinski,
   S. Dohm, S. Ehlert, S. Ehrlich, F. März, H. Neugebauer, J. Pisarek,
   P. Pracht, P. Shushkov, and S. Spicher.
   
 * started run on 2019/05/05 at 17:06:10.633     
========================================================================
 # omp threads = 2
========================================================================
number of atoms            : 507
number of electrons        : 1386
charge                     : 1
spin                       : .0
first test random number   : .9954

########################################################################
# WARNING! Please study the warnings concerning your input carefully
#  - Process number higher than OMP_NUM_THREADS, I hope you know what you are doing.
########################################################################

           ------------------------------------------------- 
          |                 G F N 2 - x T B                 |
          | Geometry, Frequencies, Noncovalent interactions |
          |            JCTC 2018 parametrisation            |
           ------------------------------------------------- 
 
      method parameters     
 k(s)        :  1.8500
 k(p)        :  2.2300
 k(d)        :  2.2300
 k(f)        :  2.0000
 kEN (H0ij)  : -2.0000
 D4 a1       :  0.5200
 D4 a2       :  5.0000
 D4 s6       :  1.0000
 D4 s8       :  2.7000
 D4 s9       :  5.0000
 alphaj      :  2.0000

 Solvent             : h2o
 Using internal parameter file: .param_gbsa2_h2o
 Gsolv ref. state (COSMO-RS): gsolv [1 M gas/solution]
 temperature (mdtemp)       :    298.150000000000     
 dielectric constant        :    80.2000000000000     
 rho                        :    1.00000000000000     
 mass                       :    18.0000000000000     
 surface tension            :    15.5689454083859     
 probe radius               :   0.975313790000000     
 vdW radii scaling          :    1.00000000000000     
 Gshift (Eh)                :   1.857443126794793E-003
 c1                         :    1.55243817000000     
 soset                      :   0.130326360000000     
 HB correction              :  T

            Z     q(EN)     CN     RAES       Cart. coordinates
     1  N   5.0   -0.11    4.08    3.08    45.89094    86.78856    30.36465
     2  C   4.0    0.01    4.23    4.06    45.08691    85.96068    27.81087
     3  C   4.0    0.09    3.17    3.03    46.39957    83.55503    26.80605
     4  O   6.0   -0.30    1.19    1.80    45.59354    82.73109    24.81069
     5  C   4.0    0.04    4.14    3.89    45.51972    88.13486    25.92062
     6  O   6.0   -0.25    2.11    1.84    47.99628    88.97990    26.38417
     7  H   1.0    0.08    1.04    1.43    47.70365    87.52087    30.20747
     8  H   1.0    0.07    1.02    1.43    44.73753    88.23892    30.95297
     9  H   1.0    0.06    0.99    1.43    45.77071    85.22107    31.64170
    10  H   1.0    0.05    1.05    1.44    43.06732    85.49465    27.83061
    11  H   1.0    0.05    1.01    1.43    45.27152    87.43618    23.99295
    12  H   1.0    0.04    1.00    1.43    44.13685    89.65023    26.22853
    13  H   1.0    0.12    1.02    1.43    48.53129    90.16172    25.11401
    14  N   5.0   -0.20    3.20    1.96    24.90546    75.59629    11.63636
    15  C   4.0    0.03    4.17    3.95    25.95514    77.45376     9.82216
    16  C   4.0    0.08    3.18    3.03    24.59827    79.99594    10.17622
    17  O   6.0   -0.32    1.18    1.80    25.71124    82.04068    10.27943
    18  C   4.0   -0.03    4.28    4.16    25.49661    76.32445     7.18746
    19  C   4.0   -0.02    4.13    3.87    27.02342    77.48995     5.07714
    20  C   4.0    0.26    3.07    3.02    26.67937    75.92085     2.53251
    21  O   6.0   -0.26    1.17    1.80    24.65038    74.74216     2.22510
    22  O   6.0   -0.26    1.16    1.80    28.44843    76.00991     1.00276
    23  H   1.0    0.09    1.03    1.43    24.19733    73.97712    10.89884
    24  H   1.0    0.06    1.04    1.43    27.97212    77.73541    10.19200
    25  H   1.0    0.06    1.04    1.43    25.95608    74.31271     7.28287
    26  H   1.0    0.06    1.03    1.43    23.48909    76.48696     6.73568
    27  H   1.0    0.06    1.02    1.43    26.40802    79.41887     4.68001
    28  H   1.0    0.06    1.02    1.43    29.03915    77.50889     5.48979
    29  N   5.0   -0.20    3.12    1.94    26.60130    84.27400    15.71253
    30  C   4.0    0.01    4.14    3.89    29.06286    85.50942    15.46232
    31  C   4.0    0.15    3.32    3.06    31.34477    83.96782    16.25623
    32  O   6.0   -0.32    1.30    1.80    33.47033    84.90397    16.32692
    33  H   1.0    0.11    1.03    1.43    26.12430    82.99630    14.37863
    34  H   1.0    0.07    1.03    1.43    29.36230    86.11188    13.50958
    35  H   1.0    0.05    1.03    1.43    29.00279    87.20703    16.64249
    36  N   5.0   -0.13    3.49    2.07    30.93496    81.53066    16.77513
    37  C   4.0    0.04    4.46    4.47    33.09152    79.91028    17.38709
    38  C   4.0    0.15    3.44    3.09    34.43115    79.14461    15.00262
    39  O   6.0   -0.28    1.25    1.80    33.39004    79.20920    12.91946
    40  C   4.0   -0.03    4.32    4.24    32.19351    77.49990    18.78111
    41  C   4.0   -0.01    3.55    3.14    31.31732    78.10610    21.41659
    42  C   4.0   -0.03    3.50    3.11    32.92725    79.26239    23.08471
    43  C   4.0   -0.04    3.46    3.10    28.87126    77.54849    22.21629
    44  C   4.0   -0.04    3.37    3.07    32.19484    79.86118    25.54849
    45  C   4.0   -0.03    3.38    3.07    28.14398    78.11468    24.67844
    46  C   4.0   -0.04    3.37    3.07    29.77144    79.30728    26.32821
    47  H   1.0    0.08    1.07    1.44    29.28057    80.68479    16.32754
    48  H   1.0    0.06    1.06    1.44    34.37109    81.00278    18.58680
    49  H   1.0    0.05    1.03    1.43    30.68527    76.62674    17.68010
    50  H   1.0    0.05    1.03    1.43    33.79149    76.19687    18.88170
    51  H   1.0    0.06    1.03    1.43    34.83191    79.67629    22.48631
    52  H   1.0    0.06    1.03    1.43    27.56165    76.64339    20.94200
    53  H   1.0    0.06    1.03    1.43    33.50478    80.76160    26.82552
    54  H   1.0    0.06    1.03    1.43    26.26582    77.61304    25.29110
    55  H   1.0    0.06    1.03    1.43    29.18213    79.73580    28.23175
    56  N   5.0   -0.13    3.44    2.04    36.89993    78.45918    15.29779
    57  C   4.0    0.04    4.32    4.23    38.45809    78.04558    13.08871
    58  C   4.0    0.08    3.25    3.04    38.87869    75.21194    12.76393
    59  O   6.0   -0.27    1.13    1.80    39.77735    73.95235    14.53084
    60  C   4.0   -0.04    4.26    4.13    41.05898    79.32604    13.39965
    61  C   4.0   -0.05    4.18    3.95    42.81067    78.81574    11.12496
    62  C   4.0   -0.04    4.16    3.93    45.22971    80.40483    11.13004
    63  C   4.0   -0.03    4.15    3.90    46.64446    80.30783    13.61222
    64  N   5.0   -0.11    4.03    2.96    49.08488    81.67589    13.44670
    65  H   1.0    0.08    1.06    1.44    37.72229    78.45973    17.01712
    66  H   1.0    0.07    1.06    1.44    37.44491    78.80294    11.45855
    67  H   1.0    0.05    1.03    1.43    40.75947    81.35148    13.60090
    68  H   1.0    0.05    1.03    1.43    41.91430    78.58053    15.11726
    69  H   1.0    0.05    1.03    1.43    43.29430    76.81165    11.10370
    70  H   1.0    0.05    1.03    1.43    41.77648    79.20606     9.38953
    71  H   1.0    0.05    1.03    1.43    46.45184    79.73007     9.61603
    72  H   1.0    0.05    1.03    1.43    44.72778    82.36076    10.71809
    73  H   1.0    0.05    1.03    1.43    45.52791    81.20601    15.09363
    74  H   1.0    0.05    1.02    1.43    47.03267    78.35413    14.14174
    75  H   1.0    0.06    1.02    1.43    49.95923    81.68151    15.17727
    76  H   1.0    0.08    1.03    1.43    50.25840    80.79273    12.14044
    77  H   1.0    0.08    1.03    1.43    48.76311    83.49388    12.80474
    78  N   5.0   -0.19    3.21    1.96    53.91888    78.91546     6.79923
    79  C   4.0    0.03    4.29    4.18    53.04288    80.86156     5.07062
    80  C   4.0    0.15    3.41    3.08    51.86912    83.03460     6.64004
    81  O   6.0   -0.31    1.30    1.80    51.38017    82.75689     8.86442
    82  C   4.0   -0.04    4.25    4.10    51.21035    79.92709     3.01207
    83  C   4.0   -0.01    3.67    3.21    48.77004    78.78807     4.00313
    84  C   4.0   -0.00    3.60    3.17    48.43680    76.58923     5.32786
    85  C   4.0    0.01    3.90    3.46    46.31771    79.84320     3.68485
    86  N   5.0   -0.12    3.48    2.07    45.91622    76.10383     5.66004
    87  C   4.0    0.03    3.89    3.45    44.57366    78.06815     4.68327
    88  C   4.0   -0.04    3.39    3.08    45.49791    82.06309     2.55280
    89  C   4.0   -0.05    3.37    3.07    41.95103    78.43268     4.49787
    90  C   4.0   -0.04    3.36    3.07    42.92586    82.47287     2.40264
    91  C   4.0   -0.04    3.38    3.07    41.19497    80.61654     3.27409
    92  H   1.0    0.10    1.03    1.43    53.06142    78.81709     8.51725
    93  H   1.0    0.05    1.05    1.44    54.71415    81.60608     4.10029
    94  H   1.0    0.04    1.03    1.43    50.75927    81.51235     1.78713
    95  H   1.0    0.05    1.03    1.43    52.21851    78.50040     1.91367
    96  H   1.0    0.05    1.02    1.43    49.82354    75.24560     5.94788
    97  H   1.0    0.08    1.05    1.44    45.11600    74.56992     6.46178
    98  H   1.0    0.06    1.03    1.43    46.81119    83.45169     1.84475
    99  H   1.0    0.06    1.02    1.43    40.61805    77.05261     5.17773
   100  H   1.0    0.07    1.03    1.43    42.16833    84.16015     1.55049
   101  H   1.0    0.06    1.03    1.43    39.19984    80.98845     3.01959
   102  N   5.0   -0.14    3.43    2.04    51.43901    85.15473     5.37384
   103  C   4.0    0.04    4.45    4.46    50.38380    87.34866     6.64744
   104  C   4.0    0.15    3.47    3.10    47.95404    88.16353     5.28657
   105  O   6.0   -0.32    1.29    1.80    48.01618    88.75244     3.00947
   106  C   4.0   -0.04    4.25    4.09    52.11879    89.68976     6.59318
   107  C   4.0   -0.04    4.23    4.07    50.86344    91.64467     8.37529
   108  C   4.0   -0.04    4.15    3.91    52.54497    93.88999     9.01476
   109  C   4.0   -0.03    4.13    3.86    51.26591    95.50124    11.03731
   110  N   5.0   -0.11    4.01    2.89    53.08062    97.30205    12.23157
   111  H   1.0    0.08    1.06    1.44    52.07729    85.34822     3.57423
   112  H   1.0    0.06    1.07    1.44    49.99692    86.75754     8.58133
   113  H   1.0    0.05    1.02    1.43    53.98577    89.17082     7.28992
   114  H   1.0    0.06    1.02    1.43    52.28172    90.41321     4.67752
   115  H   1.0    0.06    1.03    1.43    49.11240    92.33063     7.52977
   116  H   1.0    0.04    1.04    1.43    50.39576    90.67274    10.12885
   117  H   1.0    0.05    1.03    1.43    54.34272    93.16630     9.72785
   118  H   1.0    0.05    1.02    1.43    52.91433    95.00100     7.32377
   119  H   1.0    0.06    1.02    1.43    49.71397    96.55067    10.17832
   120  H   1.0    0.04    1.02    1.43    50.50654    94.29632    12.52615
   121  H   1.0    0.08    1.05    1.44    52.29939    98.18696    13.82998
   122  H   1.0    0.06    1.02    1.43    54.65404    96.32599    12.82797
   123  H   1.0    0.07    1.02    1.43    53.64453    98.63444    10.93499
   124  N   5.0   -0.15    3.40    2.02    45.87145    88.16650     6.70998
   125  C   4.0    0.04    4.36    4.31    43.45235    88.96222     5.56148
   126  C   4.0    0.16    3.44    3.09    43.45280    91.80393     4.82240
   127  O   6.0   -0.30    1.26    1.80    44.18869    93.45567     6.30872
   128  C   4.0    0.04    4.15    3.89    41.29887    88.42210     7.40102
   129  O   6.0   -0.26    2.16    1.85    39.00651    89.49355     6.55397
   130  H   1.0    0.10    1.10    1.44    45.94320    87.70942     8.59693
   131  H   1.0    0.06    1.06    1.44    43.16851    87.88073     3.82368
   132  H   1.0    0.05    1.01    1.43    41.07987    86.37020     7.59431
   133  H   1.0    0.05    1.01    1.43    41.79134    89.23157     9.24415
   134  H   1.0    0.15    1.10    1.44    37.87200    89.71510     8.00284
   135  N   5.0   -0.14    3.48    2.07    42.34159    92.31743     2.61258
   136  C   4.0    0.05    4.35    4.30    42.10230    94.88062     1.77230
   137  C   4.0    0.15    3.45    3.09    40.54309    96.53307     3.53321
   138  O   6.0   -0.31    1.25    1.80    40.78538    98.86181     3.51517
   139  C   4.0   -0.06    4.10    3.81    40.86794    95.00843    -0.88143
   140  H   1.0    0.12    1.13    1.45    41.84217    90.89814     1.40232
   141  H   1.0    0.07    1.05    1.44    43.97574    95.77085     1.66372
   142  H   1.0    0.06    1.00    1.43    40.66897    96.96879    -1.45691
   143  H   1.0    0.06    1.00    1.43    42.04042    94.00863    -2.23290
   144  H   1.0    0.05    1.00    1.43    39.01229    94.13051    -0.80832
   145  N   5.0   -0.13    3.51    2.08    38.92985    95.31718     5.03879
   146  C   4.0    0.03    4.46    4.47    37.33759    96.70904     6.80776
   147  C   4.0    0.14    3.41    3.08    38.14825    96.38454     9.56287
   148  O   6.0   -0.33    1.33    1.80    36.71851    97.09437    11.29081
   149  C   4.0    0.06    4.22    4.04    34.53146    96.18974     6.43381
   150  O   6.0   -0.25    2.15    1.85    34.03413    93.54206     6.27883
   151  C   4.0   -0.06    4.07    3.75    33.52435    97.39845     4.00505
   152  H   1.0    0.10    1.07    1.44    38.61645    93.43410     4.85222
   153  H   1.0    0.05    1.08    1.44    37.66159    98.71899     6.38897
   154  H   1.0    0.05    1.04    1.43    33.53559    96.98459     8.07956
   155  H   1.0    0.14    1.04    1.44    34.77758    92.65662     7.71105
   156  H   1.0    0.05    1.00    1.43    31.54421    96.93106     3.77624
   157  H   1.0    0.04    1.00    1.43    33.74937    99.43408     4.07589
   158  H   1.0    0.06    1.00    1.43    34.52427    96.62826     2.38924
   159  N   5.0   -0.14    3.44    2.04    40.42982    95.42709    10.05773
   160  C   4.0    0.04    4.40    4.38    41.29738    95.14786    12.66588
   161  C   4.0    0.16    3.49    3.11    40.90818    97.55312    14.23167
   162  O   6.0   -0.31    1.27    1.80    40.10762    97.46296    16.43803
   163  C   4.0   -0.03    4.31    4.22    44.14429    94.48437    12.64609
   164  C   4.0   -0.01    3.56    3.14    45.06224    93.95286    15.33155
   165  C   4.0   -0.04    3.45    3.10    44.60747    91.63686    16.49555
   166  C   4.0   -0.03    3.46    3.10    46.32202    95.83964    16.65539
   167  C   4.0   -0.04    3.38    3.07    45.47372    91.20305    18.92455
   168  C   4.0   -0.03    3.38    3.07    47.22604    95.36232    19.06303
   169  C   4.0   -0.03    3.38    3.07    46.79606    93.05287    20.19289
   170  H   1.0    0.11    1.09    1.44    41.65806    94.94735     8.65139
   171  H   1.0    0.05    1.05    1.44    40.21930    93.65361    13.61201
   172  H   1.0    0.05    1.03    1.43    44.40185    92.83646    11.43737
   173  H   1.0    0.05    1.03    1.43    45.17582    96.07271    11.84432
   174  H   1.0    0.06    1.03    1.43    43.55544    90.18805    15.51703
   175  H   1.0    0.07    1.03    1.43    46.60392    97.67875    15.81815
   176  H   1.0    0.06    1.03    1.43    45.09059    89.40765    19.80564
   177  H   1.0    0.07    1.03    1.43    48.19683    96.83814    20.08389
   178  H   1.0    0.06    1.03    1.43    47.45788    92.76667    22.09949
   179  N   5.0   -0.14    3.49    2.07    41.64523    99.78098    13.16079
   180  C   4.0    0.05    4.43    4.43    41.52126   102.03036    14.74029
   181  C   4.0    0.15    3.42    3.09    38.85157   103.09800    14.91361
   182  O   6.0   -0.29    1.25    1.80    38.38145   104.91216    16.30723
   183  C   4.0   -0.02    4.26    4.12    43.22437   104.16936    13.70848
   184  C   4.0    0.25    3.10    3.02    46.07973   103.43858    13.88944
   185  O   6.0   -0.32    1.27    1.80    46.76336   102.25452    15.83924
   186  O   6.0   -0.29    1.18    1.80    47.43802   104.13082    12.10994
   187  H   1.0    0.11    1.11    1.44    42.35096    99.94127    11.37496
   188  H   1.0    0.08    1.06    1.44    42.11689   101.54570    16.66720
   189  H   1.0    0.06    1.03    1.43    42.72947   104.58262    11.75942
   190  H   1.0    0.07    1.03    1.43    42.96162   105.86677    14.84187
   191  N   5.0   -0.14    3.53    2.10    37.06221   102.01263    13.51280
   192  C   4.0    0.04    4.45    4.46    34.39672   102.56822    13.89089
   193  C   4.0    0.15    3.40    3.08    33.15542   100.76277    15.71894
   194  O   6.0   -0.33    1.31    1.80    31.10211   101.35005    16.61697
   195  C   4.0   -0.04    4.26    4.11    32.97484   102.59438    11.30149
   196  C   4.0   -0.02    3.69    3.23    34.13147   104.65321     9.74000
   197  C   4.0   -0.01    3.60    3.17    35.81194   104.55148     7.79405
   198  C   4.0    0.01    3.87    3.42    33.46198   107.28408    10.01241
   199  N   5.0   -0.12    3.45    2.05    36.28098   106.88619     6.78306
   200  C   4.0    0.04    3.90    3.46    34.91160   108.59774     8.17680
   201  C   4.0   -0.04    3.39    3.07    31.98882   108.65823    11.72796
   202  C   4.0   -0.04    3.40    3.08    34.76975   111.20668     7.92750
   203  C   4.0   -0.03    3.37    3.07    31.92593   111.26498    11.49847
   204  C   4.0   -0.03    3.36    3.07    33.26428   112.52877     9.59539
   205  H   1.0    0.11    1.11    1.45    37.45424   100.43674    12.49598
   206  H   1.0    0.06    1.07    1.44    34.29148   104.46344    14.71476
   207  H   1.0    0.05    1.03    1.43    33.21291   100.75207    10.41316
   208  H   1.0    0.05    1.03    1.43    30.98963   102.97586    11.66684
   209  H   1.0    0.05    1.02    1.43    36.73459   102.91016     7.03573
   210  H   1.0    0.08    1.04    1.43    37.60112   107.35516     5.47158
   211  H   1.0    0.06    1.02    1.43    30.92215   107.70986    13.18398
   212  H   1.0    0.06    1.03    1.43    35.82934   112.15449     6.46679
   213  H   1.0    0.06    1.03    1.43    30.78266   112.35090    12.79383
   214  H   1.0    0.06    1.03    1.43    33.12775   114.55694     9.45813
   215  N   5.0   -0.14    3.53    2.10    34.25529    98.56186    16.19650
   216  C   4.0    0.04    4.53    4.58    33.22911    96.81123    18.07851
   217  C   4.0    0.14    3.45    3.10    34.40586    97.30639    20.66302
   218  O   6.0   -0.33    1.33    1.80    33.08689    96.91405    22.57128
   219  C   4.0   -0.02    4.29    4.18    33.76878    94.10848    17.26784
   220  C   4.0   -0.07    4.12    3.85    33.06790    92.23150    19.33826
   221  C   4.0   -0.07    4.13    3.86    32.42445    93.64065    14.76332
   222  H   1.0    0.11    1.09    1.44    35.96695    98.14229    15.46697
   223  H   1.0    0.06    1.06    1.44    31.20068    97.15397    18.24014
   224  H   1.0    0.05    1.06    1.44    35.82110    93.98147    16.98355
   225  H   1.0    0.05    1.00    1.43    33.33330    90.31509    18.64623
   226  H   1.0    0.06    1.00    1.43    34.24348    92.49809    21.00033
   227  H   1.0    0.05    1.00    1.43    31.10648    92.47246    19.90366
   228  H   1.0    0.05    1.00    1.43    32.60138    91.67100    14.20997
   229  H   1.0    0.05    1.00    1.43    30.42342    94.05738    14.96334
   230  H   1.0    0.06    1.01    1.43    33.21172    94.85513    13.30832
   231  N   5.0   -0.14    3.43    2.04    36.78333    98.07160    20.76433
   232  C   4.0    0.04    4.37    4.33    37.96333    98.61378    23.28691
   233  C   4.0    0.25    3.17    3.03    38.87798   101.40100    23.67186
   234  O   6.0   -0.29    1.22    1.80    39.98547   102.33818    21.80713
   235  C   4.0   -0.02    4.36    4.31    40.38610    97.01656    23.44611
   236  C   4.0   -0.01    3.58    3.15    39.70878    94.29545    23.70413
   237  C   4.0   -0.04    3.45    3.10    38.63239    93.43589    25.93911
   238  C   4.0   -0.04    3.46    3.10    39.95012    92.65314    21.65574
   239  C   4.0   -0.04    3.43    3.09    37.91116    90.90311    26.13322
   240  C   4.0   -0.05    3.41    3.08    39.21395    90.13957    21.83910
   241  C   4.0    0.07    3.44    3.09    38.19488    89.27086    24.08704
   242  O   6.0   -0.24    2.12    1.84    37.39920    86.83564    24.40211
   243  O   6.0   -0.25    1.15    1.80    38.57333   102.51436    25.74112
   244  H   1.0    0.11    1.09    1.44    37.85439    98.36616    19.22064
   245  H   1.0    0.07    1.06    1.44    36.59740    98.12551    24.74499
   246  H   1.0    0.06    1.03    1.43    41.50382    97.37173    21.74635
   247  H   1.0    0.06    1.03    1.43    41.46432    97.67516    25.08243
   248  H   1.0    0.07    1.03    1.43    38.35923    94.73489    27.48499
   249  H   1.0    0.06    1.03    1.43    40.71034    93.37595    19.90572
   250  H   1.0    0.06    1.03    1.43    37.02017    90.21528    27.82611
   251  H   1.0    0.06    1.03    1.43    39.39506    88.90573    20.22807
   252  H   1.0    0.15    1.13    1.45    37.28968    85.97282    22.73701
   253  O   6.0   -0.32    2.06    1.83    46.54237    83.64353    19.76619
   254  H   1.0    0.13    0.96    1.42    47.61545    82.13729    19.57997
   255  H   1.0    0.16    1.02    1.43    46.26004    83.72989    21.56954
   256  O   6.0   -0.33    2.08    1.84    37.09103    84.38654    20.22010
   257  H   1.0    0.15    1.02    1.43    38.79891    84.17380    19.55072
   258  H   1.0    0.15    1.00    1.43    36.01840    84.89424    18.83099
   259  O   6.0   -0.32    2.07    1.84    35.93174    90.46099    10.34285
   260  H   1.0    0.15    1.00    1.43    36.02889    88.77732    11.12886
   261  H   1.0    0.13    0.97    1.43    35.97667    91.64920    11.71330
   262  O   6.0   -0.29    1.96    1.82    36.57164    86.13290     3.71077
   263  H   1.0    0.15    1.04    1.43    37.45350    87.52510     4.52162
   264  H   1.0    0.16    1.01    1.43    35.90369    86.78277     2.15537
   265  O   6.0   -0.32    2.02    1.83    28.20606    95.81286    23.29615
   266  H   1.0    0.16    1.04    1.43    29.96368    96.21422    22.94771
   267  H   1.0    0.17    1.03    1.43    27.28019    97.38287    23.43725
   268  O   6.0   -0.29    2.00    1.83    31.02342    82.49319     9.57805
   269  H   1.0    0.15    1.02    1.43    31.27489    84.30314     9.91053
   270  H   1.0    0.16    1.01    1.43    29.23943    82.20095     9.79540
   271  O   6.0   -0.30    1.98    1.82    51.69079   100.56680    16.26095
   272  H   1.0    0.14    0.97    1.43    52.55792   101.61374    15.05709
   273  H   1.0    0.17    1.02    1.43    49.93444   101.12896    16.20081
   274  O   6.0   -0.28    1.93    1.82    47.04255    97.90530     6.15865
   275  H   1.0    0.15    0.97    1.43    46.93095    98.55622     4.46747
   276  H   1.0    0.15    1.00    1.43    45.76110    98.78916     7.11192
   277  O   6.0   -0.31    1.98    1.82    26.32772    99.34329    17.24668
   278  H   1.0    0.16    1.02    1.43    27.93848   100.17864    16.96739
   279  H   1.0    0.15    0.97    1.43    26.07800    99.26155    19.04391
   280  O   6.0   -0.29    1.96    1.82    45.40089   102.34839    21.07327
   281  H   1.0    0.16    1.00    1.43    45.80215   102.31708    19.27694
   282  H   1.0    0.16    1.00    1.43    43.57447   102.29362    21.22108
   283  O   6.0   -0.33    1.99    1.83    46.42184    86.91956    11.85060
   284  H   1.0    0.12    0.97    1.43    47.10590    88.34426    12.75232
   285  H   1.0    0.14    1.00    1.43    44.76603    86.62828    12.59695
   286  O   6.0   -0.32    2.04    1.83    43.05457   100.88757     8.29389
   287  H   1.0    0.15    1.01    1.43    43.54551   102.63368     8.00383
   288  H   1.0    0.15    0.99    1.43    42.16628   100.37390     6.77073
   289  O   6.0   -0.32    2.05    1.83    29.21025    91.32539     7.78006
   290  H   1.0    0.14    0.99    1.43    30.77595    92.10138     7.21197
   291  H   1.0    0.15    1.00    1.43    28.06947    91.45416     6.34615
   292  O   6.0   -0.33    2.08    1.84    37.05566    85.66664    12.27570
   293  H   1.0    0.16    1.03    1.43    37.06482    84.49914    10.85031
   294  H   1.0    0.16    1.00    1.43    35.69690    85.18608    13.39466
   295  O   6.0   -0.29    1.92    1.82    35.52258    77.40887     7.11931
   296  H   1.0    0.15    0.97    1.43    34.49512    78.39403     8.25767
   297  H   1.0    0.14    0.97    1.43    34.63014    77.38750     5.51677
   298  O   6.0   -0.30    1.97    1.82    44.47477   105.91217     7.57880
   299  H   1.0    0.15    0.98    1.43    45.76972   105.63180     8.84904
   300  H   1.0    0.13    0.97    1.43    43.77531   107.55293     7.91769
   301  O   6.0   -0.31    2.00    1.83    49.59108    93.31774     0.54519
   302  H   1.0    0.14    0.97    1.43    49.20680    94.40271     1.95329
   303  H   1.0    0.16    1.00    1.43    49.06330    91.63411     1.03088
   304  O   6.0   -0.33    2.04    1.83    41.85148    83.24336    18.71140
   305  H   1.0    0.16    1.08    1.44    43.66925    83.43813    19.04218
   306  H   1.0    0.13    0.97    1.43    41.40038    81.50931    19.05304
   307  O   6.0   -0.31    2.02    1.83    31.67850    87.58332    10.00405
   308  H   1.0    0.14    0.98    1.43    32.97900    87.67312     8.73851
   309  H   1.0    0.16    1.03    1.43    30.41226    88.80518     9.47064
   310  O   6.0   -0.31    2.00    1.83    37.42420    82.74917     8.13950
   311  H   1.0    0.13    0.98    1.43    38.57803    81.64288     7.28460
   312  H   1.0    0.15    0.99    1.43    36.30253    83.36164     6.82767
   313  O   6.0   -0.31    1.99    1.83    47.17060    99.99146    -0.12549
   314  H   1.0    0.14    0.97    1.43    48.56770   100.88141    -0.86999
   315  H   1.0    0.14    0.97    1.43    45.66695   100.67008    -0.89130
   316  O   6.0   -0.32    1.97    1.82    41.56950    86.30396    14.27760
   317  H   1.0    0.15    1.00    1.43    41.55922    85.33443    15.82776
   318  H   1.0    0.16    1.05    1.44    39.90395    86.11793    13.52918
   319  O   6.0   -0.28    1.92    1.82    48.18544    99.42904    24.54468
   320  H   1.0    0.14    0.97    1.43    49.73582   100.37368    24.58905
   321  H   1.0    0.15    1.01    1.43    47.08964   100.37323    23.41609
   322  O   6.0   -0.30    1.93    1.82    29.35216    98.70326    -1.36264
   323  H   1.0    0.13    0.97    1.43    28.14335    99.81573    -0.58118
   324  H   1.0    0.14    0.97    1.43    28.38702    97.50457    -2.31840
   325  O   6.0   -0.29    1.94    1.82    33.30089    91.86386     1.36264
   326  H   1.0    0.17    1.03    1.43    33.65991    90.26077     0.58118
   327  H   1.0    0.14    0.97    1.43    31.78022    91.62737     2.31840
   328  O   6.0   -0.30    1.96    1.82    25.93928    91.84468     3.46836
   329  H   1.0    0.15    0.97    1.43    24.30001    92.59076     3.22574
   330  H   1.0    0.14    0.98    1.43    25.85585    90.08772     3.00586
   331  O   6.0   -0.31    1.98    1.82    25.74062    87.51187     8.99464
   332  H   1.0    0.13    0.97    1.43    24.10671    87.87918     8.26187
   333  H   1.0    0.15    0.99    1.43    25.76373    85.72477     9.33940
   334  O   6.0   -0.31    1.99    1.83    47.16307    95.77683    -3.05686
   335  H   1.0    0.15    1.03    1.43    47.09086    97.28603    -2.01577
   336  H   1.0    0.16    1.03    1.43    48.24820    94.63591    -2.12119
   337  O   6.0   -0.28    1.95    1.82    32.73516    82.99204     4.72633
   338  H   1.0    0.15    1.02    1.43    32.15723    82.67165     6.45649
   339  H   1.0    0.15    0.98    1.43    31.81881    84.45217     4.14024
   340  O   6.0   -0.29    1.94    1.82    28.50212    86.92133     4.14225
   341  H   1.0    0.14    0.97    1.43    27.39744    85.48057     4.10853
   342  H   1.0    0.14    0.99    1.43    28.34204    87.58542     5.84951
   343  O   6.0   -0.28    1.92    1.82    43.32572   106.65098     0.12549
   344  H   1.0    0.14    0.97    1.43    44.79500   107.41593     0.86999
   345  H   1.0    0.14    0.97    1.43    43.16160   105.00948     0.89130
   346  N   5.0   -0.20    3.20    1.95    37.26783    82.64911    -4.85360
   347  C   4.0    0.04    4.20    4.01    37.62641    84.99286    -3.43755
   348  C   4.0    0.09    3.22    3.04    35.04351    86.25201    -2.94946
   349  O   6.0   -0.31    1.21    1.80    34.51160    87.51489    -1.05847
   350  C   4.0   -0.03    4.31    4.21    39.15503    86.84826    -4.99834
   351  C   4.0   -0.04    4.21    4.02    42.03972    86.45614    -4.70821
   352  C   4.0    0.15    3.23    3.04    42.97307    87.51182    -2.23469
   353  O   6.0   -0.32    1.34    1.80    41.55567    88.49308    -0.71299
   354  N   5.0   -0.19    3.19    1.95    45.47423    87.48052    -1.86802
   355  H   1.0    0.09    1.02    1.43    38.38028    82.36887    -6.39144
   356  H   1.0    0.06    1.05    1.44    38.49114    84.61512    -1.59622
   357  H   1.0    0.04    1.03    1.43    38.61480    86.64631    -6.97437
   358  H   1.0    0.06    1.04    1.43    38.71167    88.76393    -4.37691
   359  H   1.0    0.04    1.03    1.43    42.48647    84.45037    -4.84604
   360  H   1.0    0.05    1.03    1.43    43.01681    87.42512    -6.24148
   361  H   1.0    0.08    1.02    1.43    46.73894    86.86481    -3.15884
   362  H   1.0    0.12    1.05    1.44    46.19064    88.12706    -0.21272
   363  N   5.0   -0.21    3.19    1.95    24.34872   101.74824     4.84625
   364  C   4.0    0.03    4.22    4.04    24.06683    98.98963     4.68360
   365  C   4.0    0.09    3.18    3.03    21.75353    98.09349     3.21735
   366  O   6.0   -0.28    1.13    1.80    21.21366    95.82261     3.14368
   367  C   4.0   -0.03    4.27    4.15    24.07493    97.94475     7.39881
   368  C   4.0   -0.05    4.20    4.00    26.82172    97.98396     8.36912
   369  C   4.0   -0.01    4.19    3.98    26.97412    97.22801    11.16927
   370  N   5.0   -0.14    3.41    2.03    26.37173    94.54164    11.35363
   371  C   4.0    0.10    3.33    3.06    25.10538    93.48675    13.27283
   372  N   5.0   -0.18    3.26    1.97    24.35827    94.82663    15.28122
   373  N   5.0   -0.18    3.24    1.97    24.51857    91.04850    13.12364
   374  H   1.0    0.09    1.03    1.43    23.75900   102.57964     6.46399
   375  H   1.0    0.05    1.06    1.44    25.69470    98.25423     3.63234
   376  H   1.0    0.05    1.03    1.43    22.87340    99.12156     8.57904
   377  H   1.0    0.06    1.03    1.43    23.34738    96.02329     7.37428
   378  H   1.0    0.05    1.03    1.43    27.96460    96.70449     7.23491
   379  H   1.0    0.04    1.03    1.43    27.55782    99.89468     8.16716
   380  H   1.0    0.04    1.02    1.43    28.87593    97.59393    11.89510
   381  H   1.0    0.05    1.03    1.43    25.62338    98.34307    12.24587
   382  H   1.0    0.10    1.09    1.44    27.16966    93.38434    10.03479
   383  H   1.0    0.11    1.07    1.44    24.95843    96.60734    15.65084
   384  H   1.0    0.09    1.04    1.43    23.27703    93.91000    16.56211
   385  H   1.0    0.11    1.05    1.44    25.06237    89.96212    11.63448
   386  H   1.0    0.09    1.03    1.43    23.47317    90.27224    14.51868
   387  N   5.0   -0.19    3.19    1.95    25.61657    91.60448    25.44095
   388  C   4.0    0.03    4.40    4.37    27.29043    90.42248    27.36916
   389  C   4.0    0.15    3.43    3.09    28.10516    92.25371    29.40659
   390  O   6.0   -0.28    1.22    1.80    27.99706    91.64449    31.65187
   391  C   4.0   -0.03    4.31    4.21    29.61724    89.12417    26.20301
   392  C   4.0   -0.05    4.17    3.93    28.69379    86.92184    24.52344
   393  C   4.0   -0.06    4.13    3.86    31.40075    88.27240    28.33145
   394  C   4.0   -0.07    4.00    3.62    30.82813    85.81782    22.87370
   395  H   1.0    0.11    1.05    1.44    26.38501    92.95358    24.31312
   396  H   1.0    0.06    1.06    1.44    26.13004    88.97309    28.28330
   397  H   1.0    0.05    1.05    1.44    30.61319    90.49182    25.00912
   398  H   1.0    0.04    1.02    1.43    27.91171    85.42855    25.70897
   399  H   1.0    0.04    1.03    1.43    27.20989    87.59660    23.26536
   400  H   1.0    0.05    1.00    1.43    32.83998    87.01488    27.58781
   401  H   1.0    0.05    1.00    1.43    32.35577    89.90282    29.14500
   402  H   1.0    0.06    1.00    1.43    30.35551    87.33893    29.82971
   403  H   1.0    0.05    1.00    1.43    30.07290    84.30060    21.71460
   404  H   1.0    0.05    1.00    1.43    31.58420    87.27680    21.64343
   405  H   1.0    0.05    1.00    1.43    32.36026    85.07125    24.01165
   406  N   5.0   -0.13    3.48    2.07    28.99030    94.50454    28.65713
   407  C   4.0    0.05    4.30    4.19    30.16826    96.37070    30.26574
   408  C   4.0    0.11    3.23    3.04    28.28658    98.44931    30.97694
   409  O   6.0   -0.27    1.18    1.80    26.95264    99.45794    29.35512
   410  C   4.0   -0.02    4.35    4.29    32.27259    97.58870    28.69446
   411  C   4.0    0.26    3.11    3.03    34.24282    99.06854    30.15143
   412  O   6.0   -0.26    1.19    1.80    33.48373   100.19177    32.08225
   413  O   6.0   -0.27    1.19    1.80    36.40935    98.88348    29.29334
   414  H   1.0    0.10    1.10    1.44    28.80019    94.97865    26.79652
   415  H   1.0    0.07    1.05    1.44    30.93427    95.45416    31.94877
   416  H   1.0    0.06    1.03    1.43    33.25269    96.12587    27.61229
   417  H   1.0    0.06    1.03    1.43    31.41454    98.86838    27.31452
   418  N   5.0   -0.19    3.24    1.96    28.67130   104.04689    27.07091
   419  C   4.0    0.03    4.21    4.02    27.99993   103.83092    24.42252
   420  C   4.0    0.10    3.23    3.04    25.50423   102.30966    24.40493
   421  O   6.0   -0.29    1.22    1.80    25.45361   100.14448    23.58988
   422  C   4.0   -0.03    4.28    4.15    29.97021   102.38582    22.90289
   423  C   4.0   -0.03    4.16    3.91    32.52091   103.77935    22.65538
   424  C   4.0   -0.00    4.20    4.00    32.41803   106.08011    20.92844
   425  N   5.0   -0.13    3.38    2.01    34.84765   107.34620    20.62065
   426  C   4.0    0.11    3.35    3.06    35.72398   109.08770    22.21797
   427  N   5.0   -0.17    3.26    1.97    34.37573   109.96371    24.13203
   428  N   5.0   -0.16    3.24    1.97    37.88132   110.26916    21.63388
   429  H   1.0    0.12    1.07    1.44    28.32255   102.50780    28.15808
   430  H   1.0    0.04    1.05    1.44    27.69527   105.72959    23.66643
   431  H   1.0    0.06    1.03    1.43    30.32387   100.57112    23.80641
   432  H   1.0    0.06    1.03    1.43    29.21636   102.03760    21.01615
   433  H   1.0    0.06    1.02    1.43    33.20448   104.30419    24.53379
   434  H   1.0    0.07    1.03    1.43    33.91134   102.44719    21.90362
   435  H   1.0    0.06    1.03    1.43    31.80363   105.45050    19.05991
   436  H   1.0    0.04    1.03    1.43    31.05451   107.45919    21.63356
   437  H   1.0    0.11    1.07    1.44    36.09981   106.55072    19.41030
   438  H   1.0    0.09    1.03    1.43    32.73401   109.17128    24.72892
   439  H   1.0    0.10    1.04    1.43    35.10526   111.33696    25.22616
   440  H   1.0    0.10    1.02    1.43    39.18333   109.39634    20.48321
   441  H   1.0    0.10    1.04    1.43    38.66382   111.39629    22.95405
   442  N   5.0   -0.20    3.23    1.96    34.26531   106.30596    -2.61258
   443  C   4.0    0.04    4.24    4.08    36.36546   104.81713    -1.77230
   444  C   4.0    0.15    3.41    3.08    37.01692   102.64058    -3.53321
   445  O   6.0   -0.29    1.22    1.80    39.15481   101.68605    -3.51517
   446  C   4.0   -0.07    4.10    3.80    35.85896   103.68424     0.88143
   447  H   1.0    0.09    1.02    1.43    32.78646   106.58308    -1.40232
   448  H   1.0    0.06    1.05    1.44    38.07314   105.99446    -1.66372
   449  H   1.0    0.06    1.00    1.43    37.45720   102.53173     1.45691
   450  H   1.0    0.05    1.00    1.43    35.57935   105.19953     2.23290
   451  H   1.0    0.05    1.00    1.43    34.17084   102.51615     0.80832
   452  N   5.0   -0.14    3.45    2.05    35.15730   101.85142    -5.03879
   453  C   4.0    0.04    4.37    4.33    35.56656    99.77656    -6.80776
   454  C   4.0    0.08    3.19    3.03    35.69086   100.64086    -9.56287
   455  O   6.0   -0.30    1.17    1.80    35.59072    99.04775   -11.29081
   456  C   4.0    0.06    4.22    4.04    33.71376    97.60603    -6.43381
   457  O   6.0   -0.23    2.11    1.84    31.17215    98.49917    -6.27883
   458  C   4.0   -0.05    4.07    3.75    34.25699    96.12949    -4.00505
   459  H   1.0    0.09    1.07    1.44    33.36981   102.52155    -4.85222
   460  H   1.0    0.06    1.08    1.44    37.46922    99.05217    -6.38897
   461  H   1.0    0.06    1.04    1.43    33.90419    96.34615    -8.07956
   462  H   1.0    0.13    1.01    1.43    30.77706    99.58573    -7.71105
   463  H   1.0    0.06    1.00    1.43    32.86214    94.64833    -3.77624
   464  H   1.0    0.04    1.00    1.43    36.13241    95.30655    -4.07589
   465  H   1.0    0.06    1.00    1.43    34.08994    97.38054    -2.38924
   466  N   5.0   -0.19    3.22    1.96    40.02191    96.88627   -13.51280
   467  C   4.0    0.04    4.25    4.11    39.17032    94.30009   -13.89089
   468  C   4.0    0.10    3.20    3.04    36.98610    94.12782   -15.71894
   469  O   6.0   -0.26    1.13    1.80    36.46806    92.05597   -16.61697
   470  C   4.0   -0.03    4.26    4.11    38.48203    93.05563   -11.30149
   471  C   4.0   -0.02    3.69    3.23    40.84335    93.02789    -9.74000
   472  C   4.0   -0.01    3.61    3.17    41.59548    94.53408    -7.79405
   473  C   4.0    0.00    3.87    3.42    42.78701    91.13266   -10.01241
   474  N   5.0   -0.12    3.47    2.06    43.85192    93.77293    -6.78306
   475  C   4.0    0.04    3.90    3.47    44.64948    91.73123    -8.17680
   476  C   4.0   -0.04    3.39    3.07    43.24048    89.16979   -11.72796
   477  C   4.0   -0.04    3.40    3.08    46.83797    90.30392    -7.92750
   478  C   4.0   -0.03    3.37    3.07    45.46654    87.81195   -11.49847
   479  C   4.0   -0.04    3.36    3.07    47.23019    88.33910    -9.59539
   480  H   1.0    0.12    1.06    1.44    38.85317    98.01373   -12.49598
   481  H   1.0    0.06    1.06    1.44    40.75901    93.26135   -14.71476
   482  H   1.0    0.05    1.03    1.43    37.00559    94.18296   -10.41316
   483  H   1.0    0.06    1.03    1.43    37.81981    91.14565   -11.66684
   484  H   1.0    0.05    1.02    1.43    40.63539    96.15379    -7.03573
   485  H   1.0    0.10    1.08    1.44    44.91813    94.68172    -5.47158
   486  H   1.0    0.06    1.02    1.43    41.88582    88.72021   -13.18398
   487  H   1.0    0.06    1.03    1.43    48.18859    90.74765    -6.46679
   488  H   1.0    0.06    1.03    1.43    45.83534    86.27889   -12.79383
   489  H   1.0    0.06    1.03    1.43    48.91837    87.20677    -9.45813
   490  H   1.0    0.06    1.04    1.43    47.81642    82.77386    27.78246
   491  H   1.0    0.10    1.07    1.44    26.12185    75.11404    12.72280
   492  H   1.0    0.06    1.05    1.44    22.71605    80.04812    10.33624
   493  H   1.0    0.09    1.08    1.44    26.53607    83.43209    17.18885
   494  H   1.0    0.06    1.04    1.43    38.43153    74.37133    11.13161
   495  H   1.0    0.09    1.08    1.44    53.69512    77.38512     6.09174
   496  H   1.0    0.09    1.07    1.44    25.03763    90.40701    24.38102
   497  H   1.0    0.08    1.04    1.43    28.12790    99.00493    32.77616
   498  H   1.0    0.10    1.08    1.44    30.33845   104.35281    27.21085
   499  H   1.0    0.07    1.04    1.43    23.91535   103.09328    25.06254
   500  H   1.0    0.10    1.07    1.44    37.56327    81.31954    -3.83502
   501  H   1.0    0.07    1.05    1.44    33.65136    86.07393    -4.21487
   502  H   1.0    0.09    1.07    1.44    25.99097   102.16138     4.68851
   503  H   1.0    0.07    1.04    1.43    20.66644    99.34521     2.31044
   504  H   1.0    0.10    1.08    1.44    34.80070   107.87141    -3.00663
   505  H   1.0    0.07    1.04    1.43    35.85192   102.47914    -9.97011
   506  H   1.0    0.10    1.08    1.44    41.50845    96.87943   -12.68655
   507  H   1.0    0.07    1.04    1.44    36.00491    95.67927   -16.16764

  Z AO/shell   Hii/eV     exponent
  1     Wed Apr 25 08:07:45 CEST 2018   EN: 2.200 GM2: 0.406  GM3: 0.0800  RAES: 1.40
     1s    -10.707211    1.230000
  6     Wed Apr 25 08:07:45 CEST 2018   EN: 2.550 GM2: 0.538  GM3: 0.1500  RAES: 3.00
     2s    -13.970922    2.096432
     2p    -10.063292    1.800000
  7     Wed Apr 25 08:07:45 CEST 2018   EN: 3.040 GM2: 0.461  GM3:-0.0640  RAES: 1.90
     2s    -16.686243    2.339881
     2p    -12.523956    2.014332
  8     Wed Apr 25 08:07:45 CEST 2018   EN: 3.440 GM2: 0.452  GM3:-0.0517  RAES: 1.80
     2s    -20.229985    2.439742
     2p    -15.503117    2.137023
 no old-style atom pair restraining (fixing) potential

molecular fragmentation (1/2 indicates fragments):
111111111111122222222222222222222222222222222222222222222222222222222222
222222222222222222222222222222222222222222222222222222222222222222222222
222222222222222222222222222222222222222222222222222222222222222222222222
222222222222222222222222222222222222222222222222222222222222222222222222
222222222222222222222222222222222222222222222222222222222222222222222222
222222222222222222222222222222222222222222222222222222222222222222222222
222222222222222222222222222222222222222222222222222222222122222222222222
222
# atoms in fragment 1/2:    14   493
 fragment masses (1/2) :       90.10     3365.71
CMA distance (Bohr)    :  19.785
constraining FC (au)   :  0.0500
           ------------------------------------------------- 
          |        Self-Consistent Charge Iterations        |
           ------------------------------------------------- 

 Ncao       : 1218
 Nao        : 1218
 Nshell     : 744
 Nel        : 1386
 T(el)      :   500.0
 intcut     :    35.0
 scfconv/Eh :  0.100E-06
   qconv/e  :  0.100E-04
 intneglect :  0.100E-08
 broydamp   :      0.400
 iter      E             dE          RMSdq      gap      omega  full diag
   1   -808.6737604 -0.808674E+03  0.495E+00    2.60       0.0  T
   2   -810.3478486 -0.167409E+01  0.243E+00    1.35       1.0  T
   3   -810.4549640 -0.107115E+00  0.123E+00    1.55       1.0  T
   4   -810.6209329 -0.165969E+00  0.329E-01    0.90       1.0  T
   5   -810.6267352 -0.580235E-02  0.167E-01    1.08       1.0  T
   6   -810.6325609 -0.582568E-02  0.688E-02    1.12       1.0  T
   7   -810.6332957 -0.734846E-03  0.360E-02    1.10       1.0  T
   8   -810.6334160 -0.120306E-03  0.172E-02    1.12       1.0  T
   9   -810.6334584 -0.423689E-04  0.781E-03    1.13       1.0  T
  10   -810.6334665 -0.805778E-05  0.433E-03    1.13       1.0  T
  11   -810.6334691 -0.261623E-05  0.201E-03    1.13       2.2  T
  12   -810.6334698 -0.666101E-06  0.904E-04    1.13       4.9  T
  13   -810.6334699 -0.105731E-06  0.424E-04    1.13      10.5  T
  14   -810.6334699 -0.203930E-07  0.211E-04    1.13      21.0  T
  15   -810.6334699 -0.801003E-08  0.800E-05    1.13      55.5  T
  16   -810.6334699 -0.859245E-09  0.402E-05    1.13     110.3  T
speedup  1.93
cpu  time for SCC   33.88 s
wall time for SCC   17.53 s

   *** convergence criteria satisfied after 16 iterations ***

          eigenvalues
 #    :         681        682        683        684        685        686        687        688
 occ. :        2.000      2.000      2.000      2.000      2.000      2.000      2.000      2.000
 eps  :        -9.901     -9.901     -9.897     -9.887     -9.813     -9.802     -9.800     -9.741
 #    :         689        690        691        692        693        694        695        696
 occ. :        2.000      2.000      2.000      2.000      2.000      0.000      0.000      0.000
 eps  :        -9.626     -9.605     -9.578     -9.560     -9.506     -8.372     -8.277     -8.153
 #    :         697        698        699        700        701        702        703        704
 occ. :        0.000      0.000      0.000      0.000      0.000      0.000      0.000      0.000
 eps  :        -8.041     -7.980     -7.749     -7.722     -7.612     -7.479     -6.559     -6.371


   #   Z            q   n(s)   n(p)   n(d)      C6AA      α(0)
   1   7 N     -0.154  1.235  3.919  0.000    24.322     7.325
   2   6 C     -0.017  1.067  2.950  0.000    20.902     6.513
   3   6 C      0.196  1.086  2.718  0.000    23.825     7.994
   4   8 O     -0.315  1.735  4.580  0.000    20.055     6.004
   5   6 C      0.060  1.039  2.901  0.000    19.781     6.372
   6   8 O     -0.457  1.693  4.764  0.000    21.983     6.329
   7   1 H      0.321  0.679  0.000  0.000     0.654     1.267
   8   1 H      0.299  0.701  0.000  0.000     0.716     1.326
   9   1 H      0.315  0.685  0.000  0.000     0.670     1.282
  10   1 H      0.151  0.849  0.000  0.000     1.382     1.839
  11   1 H      0.095  0.905  0.000  0.000     1.833     2.117
  12   1 H      0.054  0.946  0.000  0.000     2.266     2.354
  13   1 H      0.335  0.665  0.000  0.000     0.625     1.242
  14   7 N     -0.393  1.318  4.075  0.000    30.184     8.160
  15   6 C      0.034  1.064  2.901  0.000    20.023     6.375
  16   6 C      0.194  1.101  2.704  0.000    23.852     7.998
  17   8 O     -0.364  1.733  4.631  0.000    20.983     6.141
  18   6 C     -0.042  1.053  2.989  0.000    21.323     6.573
  19   6 C     -0.099  1.067  3.033  0.000    22.403     6.740
  20   6 C      0.368  1.029  2.602  0.000    20.753     7.455
  21   8 O     -0.659  1.780  4.878  0.000    27.606     7.044
  22   8 O     -0.640  1.772  4.868  0.000    27.130     6.983
  23   1 H      0.159  0.841  0.000  0.000     1.344     1.816
  24   1 H      0.067  0.933  0.000  0.000     2.116     2.275
  25   1 H      0.036  0.964  0.000  0.000     2.502     2.474
  26   1 H      0.040  0.960  0.000  0.000     2.450     2.448
  27   1 H      0.023  0.977  0.000  0.000     2.695     2.567
  28   1 H      0.037  0.963  0.000  0.000     2.495     2.470
  29   7 N     -0.378  1.316  4.062  0.000    29.760     8.102
  30   6 C     -0.045  1.054  2.991  0.000    21.459     6.611
  31   6 C      0.266  1.049  2.684  0.000    22.507     7.769
  32   8 O     -0.495  1.729  4.767  0.000    23.682     6.525
  33   1 H      0.147  0.853  0.000  0.000     1.424     1.869
  34   1 H      0.118  0.882  0.000  0.000     1.631     1.997
  35   1 H      0.089  0.911  0.000  0.000     1.886     2.147
  36   7 N     -0.164  1.238  3.926  0.000    24.540     7.357
  37   6 C      0.012  1.064  2.924  0.000    20.377     6.427
  38   6 C      0.264  1.043  2.692  0.000    22.542     7.775
  39   8 O     -0.474  1.759  4.715  0.000    23.226     6.461
  40   6 C     -0.078  1.057  3.021  0.000    21.977     6.673
  41   6 C      0.011  1.076  2.913  0.000    27.760     8.642
  42   6 C     -0.044  1.080  2.963  0.000    29.090     8.845
  43   6 C     -0.045  1.081  2.964  0.000    29.125     8.850
  44   6 C     -0.031  1.083  2.948  0.000    28.777     8.797
  45   6 C     -0.033  1.079  2.954  0.000    28.830     8.805
  46   6 C     -0.032  1.077  2.955  0.000    28.806     8.801
  47   1 H      0.185  0.815  0.000  0.000     1.184     1.704
  48   1 H      0.110  0.890  0.000  0.000     1.695     2.036
  49   1 H      0.045  0.955  0.000  0.000     2.384     2.414
  50   1 H      0.068  0.932  0.000  0.000     2.110     2.271
  51   1 H      0.066  0.934  0.000  0.000     2.129     2.282
  52   1 H      0.027  0.973  0.000  0.000     2.633     2.537
  53   1 H      0.047  0.953  0.000  0.000     2.353     2.399
  54   1 H      0.022  0.978  0.000  0.000     2.701     2.570
  55   1 H      0.024  0.976  0.000  0.000     2.671     2.556
  56   7 N     -0.174  1.242  3.932  0.000    24.762     7.390
  57   6 C      0.017  1.058  2.925  0.000    20.296     6.415
  58   6 C      0.201  1.091  2.709  0.000    23.731     7.978
  59   8 O     -0.375  1.761  4.614  0.000    21.192     6.172
  60   6 C     -0.099  1.065  3.034  0.000    22.384     6.736
  61   6 C     -0.074  1.048  3.026  0.000    21.922     6.666
  62   6 C     -0.098  1.050  3.047  0.000    22.362     6.732
  63   6 C     -0.060  1.057  3.003  0.000    21.757     6.658
  64   7 N     -0.143  1.228  3.915  0.000    24.082     7.289
  65   1 H      0.215  0.785  0.000  0.000     1.031     1.591
  66   1 H      0.105  0.895  0.000  0.000     1.739     2.063
  67   1 H      0.111  0.889  0.000  0.000     1.686     2.030
  68   1 H      0.083  0.917  0.000  0.000     1.951     2.184
  69   1 H      0.037  0.963  0.000  0.000     2.494     2.469
  70   1 H      0.055  0.945  0.000  0.000     2.255     2.348
  71   1 H      0.067  0.933  0.000  0.000     2.115     2.274
  72   1 H      0.097  0.903  0.000  0.000     1.817     2.108
  73   1 H      0.134  0.866  0.000  0.000     1.502     1.917
  74   1 H      0.110  0.890  0.000  0.000     1.697     2.037
  75   1 H      0.295  0.705  0.000  0.000     0.729     1.338
  76   1 H      0.284  0.716  0.000  0.000     0.764     1.369
  77   1 H      0.302  0.698  0.000  0.000     0.708     1.318
  78   7 N     -0.392  1.323  4.069  0.000    30.159     8.156
  79   6 C      0.024  1.062  2.914  0.000    20.194     6.401
  80   6 C      0.263  1.046  2.691  0.000    22.569     7.780
  81   8 O     -0.456  1.708  4.747  0.000    22.822     6.405
  82   6 C     -0.075  1.055  3.020  0.000    21.926     6.667
  83   6 C     -0.036  1.069  2.967  0.000    28.844     8.808
  84   6 C     -0.012  1.065  2.947  0.000    28.269     8.720
  85   6 C     -0.021  1.070  2.951  0.000    28.325     8.715
  86   7 N     -0.109  1.224  3.884  0.000    23.371     7.180
  87   6 C      0.042  1.062  2.896  0.000    26.943     8.507
  88   6 C     -0.044  1.077  2.968  0.000    29.096     8.845
  89   6 C     -0.062  1.076  2.986  0.000    29.541     8.912
  90   6 C     -0.050  1.080  2.970  0.000    29.230     8.866
  91   6 C     -0.046  1.083  2.962  0.000    29.135     8.852
  92   1 H      0.175  0.825  0.000  0.000     1.244     1.747
  93   1 H      0.038  0.962  0.000  0.000     2.481     2.463
  94   1 H      0.043  0.957  0.000  0.000     2.407     2.426
  95   1 H      0.040  0.960  0.000  0.000     2.445     2.445
  96   1 H      0.042  0.958  0.000  0.000     2.424     2.434
  97   1 H      0.188  0.812  0.000  0.000     1.167     1.692
  98   1 H      0.029  0.971  0.000  0.000     2.601     2.522
  99   1 H      0.033  0.967  0.000  0.000     2.541     2.493
 100   1 H      0.025  0.975  0.000  0.000     2.655     2.548
 101   1 H      0.027  0.973  0.000  0.000     2.626     2.534
 102   7 N     -0.162  1.237  3.925  0.000    24.505     7.352
 103   6 C     -0.004  1.071  2.932  0.000    20.645     6.468
 104   6 C      0.268  1.048  2.685  0.000    22.481     7.765
 105   8 O     -0.520  1.748  4.772  0.000    24.243     6.601
 106   6 C     -0.082  1.060  3.023  0.000    22.069     6.688
 107   6 C     -0.089  1.058  3.031  0.000    22.193     6.706
 108   6 C     -0.092  1.053  3.039  0.000    22.245     6.715
 109   6 C     -0.049  1.059  2.990  0.000    21.539     6.624
 110   7 N     -0.159  1.237  3.922  0.000    24.432     7.341
 111   1 H      0.192  0.808  0.000  0.000     1.149     1.679
 112   1 H      0.115  0.885  0.000  0.000     1.655     2.012
 113   1 H      0.070  0.930  0.000  0.000     2.091     2.261
 114   1 H      0.061  0.939  0.000  0.000     2.191     2.315
 115   1 H      0.062  0.938  0.000  0.000     2.172     2.305
 116   1 H      0.074  0.926  0.000  0.000     2.047     2.237
 117   1 H      0.079  0.921  0.000  0.000     1.989     2.205
 118   1 H      0.071  0.929  0.000  0.000     2.080     2.255
 119   1 H      0.109  0.891  0.000  0.000     1.702     2.040
 120   1 H      0.113  0.887  0.000  0.000     1.669     2.020
 121   1 H      0.283  0.717  0.000  0.000     0.766     1.371
 122   1 H      0.294  0.706  0.000  0.000     0.732     1.341
 123   1 H      0.280  0.720  0.000  0.000     0.778     1.381
 124   7 N     -0.182  1.269  3.913  0.000    24.946     7.418
 125   6 C      0.005  1.069  2.926  0.000    20.506     6.449
 126   6 C      0.266  1.048  2.686  0.000    22.510     7.769
 127   8 O     -0.488  1.743  4.744  0.000    23.511     6.501
 128   6 C      0.053  1.042  2.904  0.000    19.893     6.389
 129   8 O     -0.505  1.727  4.778  0.000    22.994     6.473
 130   1 H      0.257  0.743  0.000  0.000     0.858     1.451
 131   1 H      0.077  0.923  0.000  0.000     2.012     2.218
 132   1 H      0.079  0.921  0.000  0.000     1.988     2.205
 133   1 H      0.069  0.931  0.000  0.000     2.097     2.265
 134   1 H      0.361  0.639  0.000  0.000     0.562     1.178
 135   7 N     -0.191  1.258  3.933  0.000    25.145     7.447
 136   6 C      0.028  1.052  2.920  0.000    20.106     6.384
 137   6 C      0.276  1.045  2.679  0.000    22.338     7.740
 138   8 O     -0.516  1.750  4.766  0.000    24.151     6.589
 139   6 C     -0.130  1.043  3.087  0.000    23.061     6.847
 140   1 H      0.248  0.752  0.000  0.000     0.890     1.478
 141   1 H      0.083  0.917  0.000  0.000     1.946     2.182
 142   1 H      0.063  0.937  0.000  0.000     2.166     2.302
 143   1 H      0.073  0.927  0.000  0.000     2.057     2.243
 144   1 H      0.059  0.941  0.000  0.000     2.214     2.327
 145   7 N     -0.169  1.238  3.931  0.000    24.665     7.376
 146   6 C      0.005  1.062  2.933  0.000    20.496     6.446
 147   6 C      0.254  1.050  2.696  0.000    22.729     7.807
 148   8 O     -0.515  1.750  4.765  0.000    24.123     6.585
 149   6 C      0.108  1.046  2.847  0.000    18.911     6.210
 150   8 O     -0.464  1.718  4.746  0.000    22.133     6.351
 151   6 C     -0.136  1.042  3.094  0.000    23.180     6.865
 152   1 H      0.235  0.765  0.000  0.000     0.945     1.523
 153   1 H      0.087  0.913  0.000  0.000     1.912     2.163
 154   1 H      0.047  0.953  0.000  0.000     2.356     2.400
 155   1 H      0.337  0.663  0.000  0.000     0.620     1.237
 156   1 H      0.080  0.920  0.000  0.000     1.982     2.201
 157   1 H      0.046  0.954  0.000  0.000     2.366     2.405
 158   1 H      0.069  0.931  0.000  0.000     2.099     2.266
 159   7 N     -0.169  1.251  3.918  0.000    24.653     7.374
 160   6 C      0.022  1.065  2.913  0.000    20.213     6.402
 161   6 C      0.283  1.049  2.669  0.000    22.214     7.718
 162   8 O     -0.520  1.762  4.758  0.000    24.224     6.599
 163   6 C     -0.097  1.065  3.033  0.000    22.352     6.730
 164   6 C      0.002  1.082  2.916  0.000    27.972     8.675
 165   6 C     -0.059  1.086  2.973  0.000    29.461     8.901
 166   6 C     -0.042  1.082  2.961  0.000    29.047     8.838
 167   6 C     -0.039  1.081  2.958  0.000    28.966     8.826
 168   6 C     -0.032  1.080  2.951  0.000    28.788     8.799
 169   6 C     -0.036  1.077  2.959  0.000    28.906     8.817
 170   1 H      0.241  0.759  0.000  0.000     0.920     1.503
 171   1 H      0.093  0.907  0.000  0.000     1.846     2.125
 172   1 H      0.106  0.894  0.000  0.000     1.728     2.055
 173   1 H      0.064  0.936  0.000  0.000     2.158     2.297
 174   1 H      0.098  0.902  0.000  0.000     1.802     2.099
 175   1 H      0.018  0.982  0.000  0.000     2.761     2.598
 176   1 H      0.077  0.923  0.000  0.000     2.012     2.218
 177   1 H      0.020  0.980  0.000  0.000     2.727     2.582
 178   1 H      0.026  0.974  0.000  0.000     2.639     2.540
 179   7 N     -0.216  1.267  3.949  0.000    25.709     7.531
 180   6 C      0.049  1.052  2.899  0.000    19.751     6.328
 181   6 C      0.269  1.049  2.682  0.000    22.453     7.760
 182   8 O     -0.529  1.753  4.776  0.000    24.437     6.628
 183   6 C     -0.105  1.070  3.035  0.000    22.497     6.753
 184   6 C      0.369  1.023  2.608  0.000    20.741     7.453
 185   8 O     -0.615  1.768  4.847  0.000    26.495     6.901
 186   8 O     -0.593  1.755  4.837  0.000    25.936     6.828
 187   1 H      0.241  0.759  0.000  0.000     0.919     1.502
 188   1 H      0.062  0.938  0.000  0.000     2.180     2.309
 189   1 H      0.053  0.947  0.000  0.000     2.278     2.360
 190   1 H      0.033  0.967  0.000  0.000     2.539     2.492
 191   7 N     -0.193  1.252  3.941  0.000    25.178     7.452
 192   6 C      0.025  1.063  2.913  0.000    20.161     6.393
 193   6 C      0.265  1.042  2.693  0.000    22.520     7.771
 194   8 O     -0.500  1.731  4.770  0.000    23.790     6.540
 195   6 C     -0.076  1.057  3.020  0.000    21.955     6.671
 196   6 C     -0.034  1.066  2.968  0.000    28.792     8.800
 197   6 C     -0.007  1.065  2.943  0.000    28.152     8.701
 198   6 C     -0.022  1.077  2.945  0.000    28.435     8.739
 199   7 N     -0.114  1.226  3.887  0.000    23.475     7.196
 200   6 C      0.042  1.064  2.895  0.000    26.932     8.503
 201   6 C     -0.044  1.081  2.964  0.000    29.097     8.845
 202   6 C     -0.059  1.072  2.987  0.000    29.474     8.902
 203   6 C     -0.047  1.079  2.968  0.000    29.169     8.856
 204   6 C     -0.042  1.078  2.964  0.000    29.043     8.838
 205   1 H      0.218  0.782  0.000  0.000     1.019     1.581
 206   1 H      0.079  0.921  0.000  0.000     1.991     2.207
 207   1 H      0.071  0.929  0.000  0.000     2.074     2.252
 208   1 H      0.084  0.916  0.000  0.000     1.943     2.180
 209   1 H      0.043  0.957  0.000  0.000     2.408     2.427
 210   1 H      0.191  0.809  0.000  0.000     1.155     1.683
 211   1 H      0.033  0.967  0.000  0.000     2.537     2.491
 212   1 H      0.029  0.971  0.000  0.000     2.598     2.520
 213   1 H      0.027  0.973  0.000  0.000     2.627     2.535
 214   1 H      0.026  0.974  0.000  0.000     2.639     2.540
 215   7 N     -0.175  1.245  3.930  0.000    24.789     7.395
 216   6 C      0.020  1.066  2.914  0.000    20.238     6.404
 217   6 C      0.279  1.041  2.681  0.000    22.287     7.731
 218   8 O     -0.534  1.757  4.776  0.000    24.544     6.642
 219   6 C     -0.016  1.057  2.959  0.000    20.821     6.489
 220   6 C     -0.120  1.037  3.083  0.000    22.858     6.817
 221   6 C     -0.151  1.046  3.106  0.000    23.475     6.908
 222   1 H      0.210  0.790  0.000  0.000     1.057     1.611
 223   1 H      0.094  0.906  0.000  0.000     1.843     2.123
 224   1 H      0.043  0.957  0.000  0.000     2.412     2.429
 225   1 H      0.077  0.923  0.000  0.000     2.006     2.215
 226   1 H      0.022  0.978  0.000  0.000     2.706     2.573
 227   1 H      0.051  0.949  0.000  0.000     2.310     2.377
 228   1 H      0.093  0.907  0.000  0.000     1.852     2.128
 229   1 H      0.062  0.938  0.000  0.000     2.180     2.309
 230   1 H      0.065  0.935  0.000  0.000     2.144     2.290
 231   7 N     -0.190  1.265  3.925  0.000    25.127     7.445
 232   6 C      0.035  1.077  2.888  0.000    19.998     6.369
 233   6 C      0.365  1.030  2.605  0.000    20.810     7.466
 234   8 O     -0.633  1.756  4.877  0.000    26.945     6.960
 235   6 C     -0.041  1.045  2.996  0.000    21.289     6.566
 236   6 C     -0.001  1.078  2.923  0.000    28.051     8.688
 237   6 C     -0.039  1.081  2.958  0.000    28.971     8.826
 238   6 C     -0.047  1.084  2.963  0.000    29.171     8.857
 239   6 C     -0.069  1.074  2.995  0.000    29.723     8.940
 240   6 C     -0.084  1.081  3.003  0.000    30.091     8.995
 241   6 C      0.145  1.047  2.809  0.000    24.847     8.169
 242   8 O     -0.461  1.726  4.735  0.000    22.069     6.342
 243   8 O     -0.643  1.790  4.853  0.000    27.204     6.993
 244   1 H      0.220  0.780  0.000  0.000     1.011     1.575
 245   1 H      0.032  0.968  0.000  0.000     2.562     2.503
 246   1 H      0.037  0.963  0.000  0.000     2.485     2.465
 247   1 H      0.006  0.994  0.000  0.000     2.953     2.687
 248   1 H     -0.010  1.010  0.000  0.000     3.238     2.814
 249   1 H      0.046  0.954  0.000  0.000     2.366     2.405
 250   1 H      0.027  0.973  0.000  0.000     2.629     2.536
 251   1 H      0.098  0.902  0.000  0.000     1.801     2.099
 252   1 H      0.368  0.632  0.000  0.000     0.547     1.162
 253   8 O     -0.607  1.761  4.846  0.000    25.353     6.796
 254   1 H      0.341  0.659  0.000  0.000     0.609     1.226
 255   1 H      0.323  0.677  0.000  0.000     0.656     1.272
 256   8 O     -0.645  1.763  4.882  0.000    26.285     6.920
 257   1 H      0.346  0.654  0.000  0.000     0.598     1.214
 258   1 H      0.319  0.681  0.000  0.000     0.668     1.283
 259   8 O     -0.631  1.747  4.884  0.000    25.941     6.874
 260   1 H      0.354  0.646  0.000  0.000     0.578     1.195
 261   1 H      0.306  0.694  0.000  0.000     0.702     1.316
 262   8 O     -0.657  1.755  4.902  0.000    26.596     6.960
 263   1 H      0.324  0.676  0.000  0.000     0.652     1.269
 264   1 H      0.282  0.718  0.000  0.000     0.777     1.384
 265   8 O     -0.640  1.745  4.895  0.000    26.152     6.902
 266   1 H      0.313  0.687  0.000  0.000     0.682     1.297
 267   1 H      0.312  0.688  0.000  0.000     0.685     1.300
 268   8 O     -0.655  1.773  4.882  0.000    26.533     6.952
 269   1 H      0.336  0.664  0.000  0.000     0.621     1.238
 270   1 H      0.293  0.707  0.000  0.000     0.741     1.352
 271   8 O     -0.627  1.755  4.872  0.000    25.852     6.862
 272   1 H      0.323  0.677  0.000  0.000     0.655     1.271
 273   1 H      0.312  0.688  0.000  0.000     0.685     1.300
 274   8 O     -0.618  1.743  4.875  0.000    25.618     6.831
 275   1 H      0.295  0.705  0.000  0.000     0.737     1.348
 276   1 H      0.301  0.699  0.000  0.000     0.717     1.330
 277   8 O     -0.615  1.732  4.883  0.000    25.557     6.823
 278   1 H      0.323  0.677  0.000  0.000     0.656     1.272
 279   1 H      0.298  0.702  0.000  0.000     0.728     1.340
 280   8 O     -0.631  1.749  4.881  0.000    25.932     6.873
 281   1 H      0.320  0.680  0.000  0.000     0.665     1.281
 282   1 H      0.292  0.708  0.000  0.000     0.747     1.357
 283   8 O     -0.618  1.747  4.872  0.000    25.624     6.832
 284   1 H      0.315  0.685  0.000  0.000     0.678     1.293
 285   1 H      0.342  0.658  0.000  0.000     0.608     1.225
 286   8 O     -0.626  1.750  4.876  0.000    25.822     6.858
 287   1 H      0.329  0.671  0.000  0.000     0.641     1.258
 288   1 H      0.319  0.681  0.000  0.000     0.667     1.283
 289   8 O     -0.622  1.748  4.875  0.000    25.729     6.846
 290   1 H      0.326  0.674  0.000  0.000     0.647     1.263
 291   1 H      0.327  0.673  0.000  0.000     0.646     1.262
 292   8 O     -0.623  1.736  4.887  0.000    25.732     6.846
 293   1 H      0.342  0.658  0.000  0.000     0.607     1.224
 294   1 H      0.313  0.687  0.000  0.000     0.683     1.298
 295   8 O     -0.611  1.741  4.870  0.000    25.444     6.808
 296   1 H      0.315  0.685  0.000  0.000     0.677     1.292
 297   1 H      0.293  0.707  0.000  0.000     0.741     1.353
 298   8 O     -0.630  1.749  4.881  0.000    25.911     6.870
 299   1 H      0.322  0.678  0.000  0.000     0.658     1.274
 300   1 H      0.322  0.678  0.000  0.000     0.657     1.273
 301   8 O     -0.620  1.755  4.865  0.000    25.667     6.838
 302   1 H      0.315  0.685  0.000  0.000     0.678     1.293
 303   1 H      0.327  0.673  0.000  0.000     0.645     1.261
 304   8 O     -0.670  1.765  4.905  0.000    26.932     7.004
 305   1 H      0.352  0.648  0.000  0.000     0.582     1.199
 306   1 H      0.306  0.694  0.000  0.000     0.703     1.317
 307   8 O     -0.647  1.758  4.889  0.000    26.346     6.928
 308   1 H      0.317  0.683  0.000  0.000     0.673     1.289
 309   1 H      0.340  0.660  0.000  0.000     0.612     1.229
 310   8 O     -0.604  1.726  4.878  0.000    25.292     6.788
 311   1 H      0.297  0.703  0.000  0.000     0.730     1.342
 312   1 H      0.323  0.677  0.000  0.000     0.655     1.272
 313   8 O     -0.619  1.753  4.866  0.000    25.641     6.834
 314   1 H      0.346  0.654  0.000  0.000     0.598     1.214
 315   1 H      0.314  0.686  0.000  0.000     0.681     1.296
 316   8 O     -0.670  1.751  4.919  0.000    26.935     7.005
 317   1 H      0.315  0.685  0.000  0.000     0.677     1.293
 318   1 H      0.319  0.681  0.000  0.000     0.667     1.283
 319   8 O     -0.652  1.763  4.889  0.000    26.465     6.943
 320   1 H      0.328  0.672  0.000  0.000     0.644     1.260
 321   1 H      0.301  0.699  0.000  0.000     0.717     1.330
 322   8 O     -0.621  1.759  4.862  0.000    25.697     6.842
 323   1 H      0.306  0.694  0.000  0.000     0.704     1.318
 324   1 H      0.315  0.685  0.000  0.000     0.676     1.292
 325   8 O     -0.629  1.751  4.878  0.000    25.893     6.868
 326   1 H      0.306  0.694  0.000  0.000     0.705     1.318
 327   1 H      0.307  0.693  0.000  0.000     0.700     1.314
 328   8 O     -0.624  1.740  4.884  0.000    25.776     6.852
 329   1 H      0.314  0.686  0.000  0.000     0.682     1.297
 330   1 H      0.319  0.681  0.000  0.000     0.667     1.283
 331   8 O     -0.606  1.741  4.865  0.000    25.321     6.791
 332   1 H      0.321  0.679  0.000  0.000     0.661     1.277
 333   1 H      0.313  0.687  0.000  0.000     0.683     1.298
 334   8 O     -0.677  1.764  4.913  0.000    27.095     7.025
 335   1 H      0.310  0.690  0.000  0.000     0.691     1.306
 336   1 H      0.321  0.679  0.000  0.000     0.661     1.277
 337   8 O     -0.664  1.776  4.888  0.000    26.777     6.984
 338   1 H      0.321  0.679  0.000  0.000     0.662     1.278
 339   1 H      0.302  0.698  0.000  0.000     0.715     1.328
 340   8 O     -0.637  1.767  4.870  0.000    26.078     6.892
 341   1 H      0.289  0.711  0.000  0.000     0.754     1.364
 342   1 H      0.346  0.654  0.000  0.000     0.598     1.215
 343   8 O     -0.642  1.768  4.873  0.000    26.204     6.909
 344   1 H      0.333  0.667  0.000  0.000     0.629     1.246
 345   1 H      0.308  0.692  0.000  0.000     0.696     1.311
 346   7 N     -0.400  1.324  4.076  0.000    30.385     8.187
 347   6 C      0.046  1.054  2.901  0.000    19.828     6.343
 348   6 C      0.195  1.103  2.702  0.000    23.830     7.995
 349   8 O     -0.370  1.743  4.626  0.000    21.085     6.156
 350   6 C     -0.059  1.050  3.009  0.000    21.631     6.620
 351   6 C     -0.102  1.056  3.047  0.000    22.452     6.745
 352   6 C      0.289  1.035  2.675  0.000    22.092     7.696
 353   8 O     -0.469  1.727  4.742  0.000    23.113     6.446
 354   7 N     -0.278  1.259  4.019  0.000    27.175     7.742
 355   1 H      0.169  0.831  0.000  0.000     1.281     1.773
 356   1 H      0.072  0.928  0.000  0.000     2.065     2.247
 357   1 H      0.055  0.945  0.000  0.000     2.255     2.349
 358   1 H      0.064  0.936  0.000  0.000     2.158     2.297
 359   1 H      0.071  0.929  0.000  0.000     2.079     2.255
 360   1 H      0.076  0.924  0.000  0.000     2.025     2.226
 361   1 H      0.209  0.791  0.000  0.000     1.060     1.613
 362   1 H      0.237  0.763  0.000  0.000     0.936     1.515
 363   7 N     -0.402  1.321  4.081  0.000    30.429     8.193
 364   6 C      0.028  1.061  2.911  0.000    20.116     6.389
 365   6 C      0.195  1.093  2.712  0.000    23.841     7.996
 366   8 O     -0.393  1.759  4.634  0.000    21.545     6.223
 367   6 C     -0.080  1.061  3.019  0.000    22.023     6.681
 368   6 C     -0.089  1.059  3.030  0.000    22.193     6.706
 369   6 C     -0.029  1.054  2.975  0.000    21.169     6.566
 370   7 N     -0.158  1.221  3.936  0.000    24.410     7.338
 371   6 C      0.222  1.023  2.755  0.000    23.320     7.906
 372   7 N     -0.272  1.242  4.030  0.000    27.041     7.723
 373   7 N     -0.263  1.239  4.023  0.000    26.814     7.691
 374   1 H      0.166  0.834  0.000  0.000     1.299     1.785
 375   1 H      0.092  0.908  0.000  0.000     1.862     2.134
 376   1 H      0.055  0.945  0.000  0.000     2.255     2.348
 377   1 H      0.073  0.927  0.000  0.000     2.057     2.243
 378   1 H      0.081  0.919  0.000  0.000     1.970     2.195
 379   1 H      0.062  0.938  0.000  0.000     2.172     2.305
 380   1 H      0.069  0.931  0.000  0.000     2.099     2.266
 381   1 H      0.083  0.917  0.000  0.000     1.946     2.181
 382   1 H      0.252  0.748  0.000  0.000     0.874     1.465
 383   1 H      0.250  0.750  0.000  0.000     0.884     1.473
 384   1 H      0.229  0.771  0.000  0.000     0.970     1.543
 385   1 H      0.260  0.740  0.000  0.000     0.847     1.442
 386   1 H      0.233  0.767  0.000  0.000     0.953     1.529
 387   7 N     -0.432  1.347  4.085  0.000    31.271     8.305
 388   6 C      0.026  1.068  2.906  0.000    20.144     6.392
 389   6 C      0.278  1.048  2.674  0.000    22.298     7.732
 390   8 O     -0.533  1.756  4.777  0.000    24.526     6.640
 391   6 C     -0.021  1.069  2.952  0.000    20.905     6.503
 392   6 C     -0.064  1.055  3.009  0.000    21.722     6.636
 393   6 C     -0.106  1.037  3.069  0.000    22.584     6.777
 394   6 C     -0.118  1.040  3.078  0.000    22.817     6.812
 395   1 H      0.185  0.815  0.000  0.000     1.183     1.704
 396   1 H      0.047  0.953  0.000  0.000     2.359     2.402
 397   1 H      0.033  0.967  0.000  0.000     2.538     2.492
 398   1 H      0.032  0.968  0.000  0.000     2.565     2.504
 399   1 H      0.041  0.959  0.000  0.000     2.439     2.442
 400   1 H      0.070  0.930  0.000  0.000     2.085     2.258
 401   1 H      0.006  0.994  0.000  0.000     2.961     2.691
 402   1 H      0.033  0.967  0.000  0.000     2.546     2.495
 403   1 H      0.040  0.960  0.000  0.000     2.446     2.446
 404   1 H      0.052  0.948  0.000  0.000     2.297     2.370
 405   1 H      0.057  0.943  0.000  0.000     2.229     2.335
 406   7 N     -0.191  1.252  3.939  0.000    25.139     7.447
 407   6 C      0.054  1.050  2.896  0.000    19.682     6.319
 408   6 C      0.207  1.088  2.704  0.000    23.599     7.956
 409   8 O     -0.375  1.743  4.633  0.000    21.196     6.173
 410   6 C     -0.070  1.071  2.999  0.000    21.833     6.650
 411   6 C      0.375  1.011  2.614  0.000    20.651     7.437
 412   8 O     -0.660  1.773  4.887  0.000    27.640     7.049
 413   8 O     -0.621  1.771  4.850  0.000    26.632     6.919
 414   1 H      0.232  0.768  0.000  0.000     0.956     1.531
 415   1 H      0.045  0.955  0.000  0.000     2.378     2.412
 416   1 H      0.044  0.956  0.000  0.000     2.394     2.420
 417   1 H      0.032  0.968  0.000  0.000     2.559     2.501
 418   7 N     -0.376  1.309  4.067  0.000    29.707     8.095
 419   6 C      0.031  1.059  2.910  0.000    20.079     6.383
 420   6 C      0.205  1.097  2.698  0.000    23.653     7.965
 421   8 O     -0.354  1.740  4.615  0.000    20.792     6.113
 422   6 C     -0.071  1.051  3.020  0.000    21.859     6.656
 423   6 C     -0.047  1.041  3.005  0.000    21.409     6.588
 424   6 C     -0.023  1.052  2.971  0.000    21.068     6.549
 425   7 N     -0.138  1.216  3.922  0.000    23.986     7.274
 426   6 C      0.242  1.020  2.738  0.000    22.952     7.844
 427   7 N     -0.241  1.224  4.017  0.000    26.289     7.615
 428   7 N     -0.261  1.259  4.002  0.000    26.771     7.684
 429   1 H      0.153  0.847  0.000  0.000     1.383     1.842
 430   1 H      0.082  0.918  0.000  0.000     1.959     2.189
 431   1 H      0.045  0.955  0.000  0.000     2.385     2.415
 432   1 H      0.074  0.926  0.000  0.000     2.042     2.234
 433   1 H      0.019  0.981  0.000  0.000     2.756     2.596
 434   1 H      0.016  0.984  0.000  0.000     2.799     2.616
 435   1 H      0.096  0.904  0.000  0.000     1.821     2.110
 436   1 H      0.089  0.911  0.000  0.000     1.885     2.147
 437   1 H      0.220  0.780  0.000  0.000     1.010     1.574
 438   1 H      0.241  0.759  0.000  0.000     0.918     1.501
 439   1 H      0.260  0.740  0.000  0.000     0.845     1.440
 440   1 H      0.234  0.766  0.000  0.000     0.949     1.526
 441   1 H      0.252  0.748  0.000  0.000     0.874     1.464
 442   7 N     -0.398  1.309  4.089  0.000    30.307     8.176
 443   6 C      0.034  1.052  2.914  0.000    20.013     6.372
 444   6 C      0.267  1.050  2.683  0.000    22.496     7.767
 445   8 O     -0.510  1.754  4.756  0.000    24.004     6.569
 446   6 C     -0.126  1.045  3.081  0.000    22.981     6.835
 447   1 H      0.173  0.827  0.000  0.000     1.256     1.756
 448   1 H      0.042  0.958  0.000  0.000     2.426     2.436
 449   1 H      0.056  0.944  0.000  0.000     2.246     2.344
 450   1 H      0.057  0.943  0.000  0.000     2.234     2.337
 451   1 H      0.060  0.940  0.000  0.000     2.195     2.317
 452   7 N     -0.165  1.237  3.928  0.000    24.570     7.362
 453   6 C      0.011  1.062  2.927  0.000    20.392     6.430
 454   6 C      0.182  1.091  2.727  0.000    24.092     8.038
 455   8 O     -0.380  1.766  4.614  0.000    21.287     6.186
 456   6 C      0.118  1.045  2.837  0.000    18.747     6.183
 457   8 O     -0.460  1.721  4.739  0.000    22.059     6.340
 458   6 C     -0.131  1.041  3.090  0.000    23.077     6.850
 459   1 H      0.228  0.772  0.000  0.000     0.973     1.545
 460   1 H      0.116  0.884  0.000  0.000     1.646     2.007
 461   1 H      0.034  0.966  0.000  0.000     2.526     2.485
 462   1 H      0.317  0.683  0.000  0.000     0.672     1.287
 463   1 H      0.077  0.923  0.000  0.000     2.008     2.216
 464   1 H      0.052  0.948  0.000  0.000     2.299     2.371
 465   1 H      0.079  0.921  0.000  0.000     1.990     2.206
 466   7 N     -0.398  1.326  4.072  0.000    30.313     8.177
 467   6 C      0.040  1.060  2.900  0.000    19.919     6.357
 468   6 C      0.202  1.086  2.712  0.000    23.700     7.973
 469   8 O     -0.400  1.758  4.641  0.000    21.676     6.242
 470   6 C     -0.061  1.054  3.006  0.000    21.664     6.626
 471   6 C     -0.038  1.067  2.971  0.000    28.889     8.815
 472   6 C     -0.003  1.064  2.939  0.000    28.055     8.687
 473   6 C     -0.027  1.079  2.948  0.000    28.549     8.756
 474   7 N     -0.126  1.243  3.883  0.000    23.734     7.236
 475   6 C      0.044  1.064  2.892  0.000    26.884     8.495
 476   6 C     -0.044  1.079  2.965  0.000    29.082     8.843
 477   6 C     -0.063  1.074  2.989  0.000    29.555     8.914
 478   6 C     -0.049  1.077  2.971  0.000    29.215     8.863
 479   6 C     -0.047  1.077  2.970  0.000    29.178     8.858
 480   1 H      0.166  0.834  0.000  0.000     1.295     1.783
 481   1 H      0.070  0.930  0.000  0.000     2.084     2.258
 482   1 H      0.042  0.958  0.000  0.000     2.419     2.432
 483   1 H      0.048  0.952  0.000  0.000     2.339     2.392
 484   1 H      0.030  0.970  0.000  0.000     2.587     2.515
 485   1 H      0.228  0.772  0.000  0.000     0.975     1.546
 486   1 H      0.016  0.984  0.000  0.000     2.789     2.612
 487   1 H      0.047  0.953  0.000  0.000     2.358     2.401
 488   1 H      0.017  0.983  0.000  0.000     2.781     2.608
 489   1 H      0.032  0.968  0.000  0.000     2.560     2.502
 490   1 H      0.122  0.878  0.000  0.000     1.595     1.975
 491   1 H      0.188  0.812  0.000  0.000     1.170     1.694
 492   1 H      0.085  0.915  0.000  0.000     1.925     2.170
 493   1 H      0.166  0.834  0.000  0.000     1.295     1.782
 494   1 H      0.062  0.938  0.000  0.000     2.173     2.305
 495   1 H      0.172  0.828  0.000  0.000     1.260     1.758
 496   1 H      0.189  0.811  0.000  0.000     1.162     1.688
 497   1 H      0.062  0.938  0.000  0.000     2.178     2.308
 498   1 H      0.170  0.830  0.000  0.000     1.272     1.767
 499   1 H      0.094  0.906  0.000  0.000     1.844     2.124
 500   1 H      0.178  0.822  0.000  0.000     1.224     1.733
 501   1 H      0.075  0.925  0.000  0.000     2.031     2.229
 502   1 H      0.184  0.816  0.000  0.000     1.188     1.708
 503   1 H      0.071  0.929  0.000  0.000     2.073     2.251
 504   1 H      0.178  0.822  0.000  0.000     1.227     1.735
 505   1 H      0.084  0.916  0.000  0.000     1.933     2.174
 506   1 H      0.183  0.817  0.000  0.000     1.196     1.713
 507   1 H      0.070  0.930  0.000  0.000     2.088     2.260

 Mol. C6AA /au·bohr⁶  :    2238209.715021
 Mol. C8AA /au·bohr⁸  :   49071950.594407
 Mol. α(0) /au        :       2246.226844

 
molecular dipole:
                 x           y           z       tot (Debye)
 q only:       65.238      84.948      14.060
   full:       64.922      85.756      14.157     275.753
molecular quadrupole (traceless):
                xx          xy          yy          xz          yz          zz
 q only:      360.905    8047.227    5354.601    1447.947    1145.800   -5715.506
  q+dip:      212.669    8110.921    5576.944    1451.304    1197.945   -5789.612
   full:      215.848    8113.459    5574.965    1452.708    1193.335   -5790.813
speedup  1.92
cpu  time for grad   45.35 s
wall time for grad   23.66 s

SCC energy    :    -810.6537049
rep           :       9.2182466
ES            :       3.1991995
AES           :      -0.3045685
AXC           :       0.2149451
disp          :      -0.6384689
XB            :       0.0000000
fix           :       0.0000000
Gborn         :       0.0000000
Gsasa         :       0.0000000
Ghb           :       0.0000000
Gshift        :       0.0000000
Gsolv         :      -0.7821093     -490.78
Etot ala COSMO:    -810.6537049
grad norm     :       0.7081403
total E       :    -801.3597795
atomizationE  :     135.1489129    84807.22
(atE without considering molecular charge,
 total energy contains solvation terms)
H-L gap (eV)  :          1.1340

------------------------------------------------------------------------
 * finished run on 2019/05/05 at 17:06:35.911     
------------------------------------------------------------------------
 total:
 * wall-time:     0 d,  0 h,  0 min, 25.276 sec
 *  cpu-time:     0 d,  0 h,  0 min, 48.238 sec
 * ratio c/w:     1.908 speedup
 SCF:
 * wall-time:     0 d,  0 h,  0 min, 24.891 sec
 *  cpu-time:     0 d,  0 h,  0 min, 47.742 sec
 * ratio c/w:     1.918 speedup

