      -----------------------------------------------------------      
     |                   =====================                   |     
     |                           x T B                           |     
     |                   =====================                   |     
     |                         S. Grimme                         |     
     |          Mulliken Center for Theoretical Chemistry        |     
     |                    University of Bonn                     |     
     |                 Version 6.0.1 (SAW181210)                 |     
      -----------------------------------------------------------      

   This program is distributed in the hope that it will be useful,
   but WITHOUT ANY WARRANTY; without even the implied warranty of
   MERCHANTABILITY or FITNESS FOR A PARTICULAR PURPOSE.
   
   FOR NON-COMMERCIAL, ACADEMIA USE ONLY.
   
   Cite this work as:
   S. Grimme, C. Bannwarth, P. Shushkov, J. Comput. Theory Chem., 2017,
   13, 1989-2009.
   C. Bannwarth, S. Ehlert and S. Grimme., ChemRxiv, 2018, preprint.
   http://doi.org/10.26434/chemrxiv.7246238.v1
   
   for sTDA-xTB:
   S. Grimme and C. Bannwarth, J. Chem. Phys., 2016, 145, 054103.
   
   in the mass-spec context:
   V. Asgeirsson, C. Bauer and S. Grimme, Chem. Sci., 2017, 8, 4879.
   
   if GBSA is used:
   P. Shushkov, F. März and S. Grimme, unpublished.
   
   for ANC optimizer:
   S. Grimme, unpublished.
   Rational Function algorithm used in ANCopt:
   F. Eckert, P. Pulay, H.-J. Werner, J. Comput. Chem., 1997, 18, 1473.
   
   with help from (in alphabetical order)
   C. Bannwarth, F. Bohle, G. Brandenburg, E. Caldeweyher, M. Checinski,
   S. Dohm, S. Ehlert, S. Ehrlich, F. März, H. Neugebauer, J. Pisarek,
   P. Pracht, P. Shushkov, and S. Spicher.
   
 * started run on 2019/05/11 at 23:18:25.749     
========================================================================
 # omp threads = 2
========================================================================
number of atoms            : 267
number of electrons        : 766
charge                     : -2
spin                       : .0
first test random number   : .6337

########################################################################
# WARNING! Please study the warnings concerning your input carefully
#  - Process number higher than OMP_NUM_THREADS, I hope you know what you are doing.
########################################################################

           ------------------------------------------------- 
          |                 G F N 2 - x T B                 |
          | Geometry, Frequencies, Noncovalent interactions |
          |            JCTC 2018 parametrisation            |
           ------------------------------------------------- 
 
      method parameters     
 k(s)        :  1.8500
 k(p)        :  2.2300
 k(d)        :  2.2300
 k(f)        :  2.0000
 kEN (H0ij)  : -2.0000
 D4 a1       :  0.5200
 D4 a2       :  5.0000
 D4 s6       :  1.0000
 D4 s8       :  2.7000
 D4 s9       :  5.0000
 alphaj      :  2.0000

 Solvent             : h2o
 Using internal parameter file: .param_gbsa2_h2o
 Gsolv ref. state (COSMO-RS): gsolv [1 M gas/solution]
 temperature (mdtemp)       :    298.150000000000     
 dielectric constant        :    80.2000000000000     
 rho                        :    1.00000000000000     
 mass                       :    18.0000000000000     
 surface tension            :    15.5689454083859     
 probe radius               :   0.975313790000000     
 vdW radii scaling          :    1.00000000000000     
 Gshift (Eh)                :   1.857443126794793E-003
 c1                         :    1.55243817000000     
 soset                      :   0.130326360000000     
 HB correction              :  T

            Z     q(EN)     CN     RAES       Cart. coordinates
     1  N   5.0   -0.22    3.26    1.97    19.56266   144.63879   -12.98088
     2  C   4.0    0.02    4.28    4.16    20.69841   142.44767   -11.82066
     3  C   4.0    0.15    3.45    3.09    21.81854   140.75518   -13.89232
     4  O   6.0   -0.31    1.27    1.80    23.58738   139.28186   -13.52339
     5  C   4.0   -0.05    4.19    3.98    18.89081   140.88846   -10.13579
     6  C   4.0   -0.06    4.11    3.83    17.67392   142.25588    -7.83348
     7  C   4.0   -0.02    4.11    3.82    16.27045   140.58920    -5.89255
     8  N   5.0   -0.15    3.34    2.00    17.85070   140.15843    -3.64109
     9  C   4.0    0.08    3.28    3.05    18.67841   138.08894    -2.40120
    10  N   5.0   -0.20    3.20    1.96    17.67680   135.74782    -2.60216
    11  N   5.0   -0.20    3.23    1.96    20.59616   138.37537    -0.74870
    12  H   1.0    0.07    1.02    1.43    17.80081   145.15362   -12.41992
    13  H   1.0    0.04    1.05    1.44    22.29503   143.07300   -10.63681
    14  H   1.0    0.04    1.02    1.43    17.43195   140.10066   -11.35836
    15  H   1.0    0.05    1.03    1.43    20.03338   139.31264    -9.44677
    16  H   1.0    0.04    1.03    1.43    19.15703   143.27926    -6.82739
    17  H   1.0    0.03    1.03    1.43    16.36687   143.67623    -8.53268
    18  H   1.0    0.03    1.03    1.43    14.56496   141.51789    -5.26255
    19  H   1.0    0.03    1.02    1.43    15.75421   138.77311    -6.70778
    20  H   1.0    0.06    1.07    1.44    18.50013   141.85163    -2.97639
    21  H   1.0    0.07    1.03    1.43    16.25650   135.45419    -3.83719
    22  H   1.0    0.07    1.03    1.43    18.65777   134.24150    -1.97090
    23  H   1.0    0.07    1.03    1.43    21.32910   140.10400    -0.44353
    24  H   1.0    0.07    1.03    1.43    21.18800   136.92028     0.32994
    25  N   5.0   -0.15    3.51    2.08    20.77138   141.04373   -16.13812
    26  C   4.0    0.04    4.60    4.67    21.61551   139.47065   -18.18520
    27  C   4.0    0.15    3.53    3.13    23.62589   140.71238   -19.80204
    28  O   6.0   -0.30    1.49    1.80    25.78752   139.91187   -19.75641
    29  C   4.0   -0.05    4.28    4.16    19.41955   138.40511   -19.73361
    30  C   4.0   -0.04    4.19    3.98    20.26985   135.85876   -20.71372
    31  C   4.0    0.24    3.24    3.04    21.90823   134.55663   -18.55825
    32  O   6.0   -0.28    1.17    1.80    24.14922   134.14905   -19.14014
    33  O   6.0   -0.29    1.17    1.80    20.84661   134.09567   -16.49940
    34  H   1.0    0.08    1.08    1.44    19.22168   142.12616   -16.39390
    35  H   1.0    0.09    1.18    1.46    22.61721   137.93476   -17.24697
    36  H   1.0    0.04    1.03    1.43    17.82294   138.19624   -18.44461
    37  H   1.0    0.03    1.02    1.43    18.88689   139.71456   -21.23522
    38  H   1.0    0.04    1.02    1.43    18.65425   134.67978   -21.17975
    39  H   1.0    0.05    1.03    1.43    21.51520   136.06875   -22.33993
    40  N   5.0   -0.15    3.52    2.09    22.93733   142.62729   -21.27653
    41  C   4.0    0.03    4.47    4.50    24.81217   144.26543   -22.37903
    42  C   4.0    0.17    3.59    3.16    27.27314   144.02290   -20.93170
    43  O   6.0   -0.30    1.24    1.80    29.19973   143.42773   -22.07634
    44  C   4.0   -0.04    4.31    4.21    23.84374   146.97053   -22.30630
    45  C   4.0   -0.04    4.18    3.97    21.41337   147.21526   -23.86608
    46  C   4.0    0.24    3.08    3.02    20.05964   149.78861   -23.26430
    47  O   6.0   -0.30    1.14    1.80    17.73074   149.72708   -22.79392
    48  O   6.0   -0.29    1.17    1.80    21.48321   151.68474   -23.32345
    49  H   1.0    0.07    1.08    1.44    21.21864   143.41108   -20.94907
    50  H   1.0    0.05    1.05    1.44    25.18804   143.68058   -24.33648
    51  H   1.0    0.06    1.03    1.43    23.48167   147.51368   -20.34675
    52  H   1.0    0.06    1.03    1.43    25.26731   148.27038   -23.03217
    53  H   1.0    0.04    1.02    1.43    21.87891   147.16214   -25.87471
    54  H   1.0    0.04    1.03    1.43    20.06791   145.71364   -23.45374
    55  N   5.0   -0.12    3.53    2.10    27.12387   144.59924   -18.48238
    56  C   4.0    0.04    4.37    4.32    29.21060   144.36474   -16.74471
    57  C   4.0    0.16    3.50    3.11    30.18963   141.64630   -16.68229
    58  O   6.0   -0.30    1.32    1.80    32.28049   141.25683   -17.59163
    59  C   4.0   -0.05    4.20    4.00    28.60140   145.33119   -14.08579
    60  C   4.0   -0.04    4.09    3.78    29.62955   147.97566   -13.41779
    61  C   4.0    0.24    3.03    3.02    28.32476   150.42743   -14.62836
    62  O   6.0   -0.30    1.15    1.80    28.49791   152.42850   -13.33475
    63  O   6.0   -0.29    1.15    1.80    27.28356   150.25940   -16.74037
    64  H   1.0    0.08    1.07    1.44    25.45135   145.10487   -17.71816
    65  H   1.0    0.06    1.06    1.44    30.79456   145.45134   -17.54704
    66  H   1.0    0.05    1.03    1.43    26.55547   145.30500   -13.83381
    67  H   1.0    0.04    1.03    1.43    29.40363   144.00235   -12.71959
    68  H   1.0    0.04    1.02    1.43    29.49483   148.23621   -11.37515
    69  H   1.0    0.04    1.02    1.43    31.62539   148.07840   -13.93775
    70  N   5.0   -0.14    3.42    2.03    28.96688   139.71954   -15.54587
    71  C   4.0    0.04    4.41    4.39    30.38661   137.34697   -15.38239
    72  C   4.0    0.17    3.35    3.07    30.88906   135.92912   -17.90042
    73  O   6.0   -0.30    1.21    1.80    32.19248   134.00477   -17.86768
    74  C   4.0    0.04    4.11    3.82    29.52030   135.52330   -13.28072
    75  O   6.0   -0.23    2.03    1.83    27.21761   134.26771   -13.64235
    76  H   1.0    0.11    1.07    1.44    27.11154   139.74543   -15.08082
    77  H   1.0    0.05    1.08    1.44    32.31725   137.92228   -14.85243
    78  H   1.0    0.05    1.02    1.43    30.94189   134.02992   -13.18695
    79  H   1.0    0.04    1.01    1.43    29.49075   136.59107   -11.49821
    80  H   1.0    0.15    1.02    1.43    25.88362   135.46842   -13.98565
    81  N   5.0   -0.12    3.52    2.09    30.07918   137.15653   -19.95342
    82  C   4.0    0.04    4.32    4.23    30.21920   136.34632   -22.57971
    83  C   4.0    0.15    3.48    3.11    32.81495   136.95145   -23.62689
    84  O   6.0   -0.31    1.23    1.80    34.26607   135.27638   -24.32393
    85  C   4.0   -0.06    4.15    3.91    28.27694   137.72076   -24.21542
    86  H   1.0    0.13    1.17    1.46    28.73597   138.48002   -19.66140
    87  H   1.0    0.06    1.05    1.44    29.96173   134.28857   -22.65860
    88  H   1.0    0.04    1.00    1.43    28.57335   137.21368   -26.18167
    89  H   1.0    0.06    1.00    1.43    26.39509   137.14262   -23.63023
    90  H   1.0    0.07    1.01    1.43    28.46679   139.74608   -23.97778
    91  N   5.0   -0.15    3.51    2.08    33.37096   139.42147   -23.73982
    92  C   4.0    0.04    4.33    4.25    35.90684   140.15970   -24.42346
    93  C   4.0    0.15    3.32    3.06    37.86066   140.00107   -22.20125
    94  O   6.0   -0.31    1.21    1.80    40.04857   140.67542   -22.48607
    95  C   4.0   -0.07    4.07    3.74    35.83823   142.51752   -26.05400
    96  H   1.0    0.11    1.07    1.44    32.22851   140.71802   -22.91807
    97  H   1.0    0.06    1.08    1.44    36.59607   138.59390   -25.61814
    98  H   1.0    0.05    1.00    1.43    37.75277   143.15036   -26.44508
    99  H   1.0    0.04    1.00    1.43    34.89207   142.08443   -27.82288
   100  H   1.0    0.05    1.00    1.43    34.80830   144.01409   -25.09328
   101  N   5.0   -0.13    3.43    2.04    37.11526   138.68602   -20.13905
   102  C   4.0    0.04    4.32    4.23    38.91352   137.63708   -18.30548
   103  C   4.0    0.15    3.45    3.09    40.44514   135.47883   -19.47840
   104  O   6.0   -0.32    1.28    1.80    42.75266   135.59030   -19.59002
   105  C   4.0   -0.07    4.12    3.85    37.68172   136.52335   -15.93991
   106  H   1.0    0.10    1.08    1.44    35.25695   138.41031   -19.80965
   107  H   1.0    0.06    1.05    1.44    40.24808   139.14200   -17.80890
   108  H   1.0    0.04    1.01    1.43    39.11979   135.56548   -14.83358
   109  H   1.0    0.04    1.00    1.43    36.84853   138.02460   -14.81087
   110  H   1.0    0.06    1.00    1.43    36.20756   135.18117   -16.43906
   111  N   5.0   -0.14    3.49    2.07    39.06828   133.49568   -20.23399
   112  C   4.0    0.04    4.35    4.30    40.16421   131.25664   -21.39995
   113  C   4.0    0.16    3.51    3.12    41.54832   132.10974   -23.74770
   114  O   6.0   -0.30    1.35    1.80    43.84260   131.91241   -23.85976
   115  C   4.0   -0.07    4.11    3.83    38.20845   129.25146   -21.98275
   116  H   1.0    0.09    1.07    1.44    37.16258   133.64249   -20.26534
   117  H   1.0    0.07    1.07    1.44    41.58382   130.44586   -20.11703
   118  H   1.0    0.05    1.00    1.43    39.13165   127.67119   -22.90704
   119  H   1.0    0.05    1.00    1.43    37.36284   128.59359   -20.23132
   120  H   1.0    0.05    1.00    1.43    36.72035   129.98258   -23.20222
   121  N   5.0   -0.15    3.47    2.06    40.12243   133.16533   -25.55519
   122  C   4.0    0.04    4.37    4.32    41.16161   134.12179   -27.91595
   123  C   4.0    0.16    3.44    3.09    43.64185   135.61772   -27.56268
   124  O   6.0   -0.30    1.24    1.80    45.11921   135.83526   -29.32783
   125  C   4.0   -0.04    4.24    4.07    39.15826   135.65631   -29.33770
   126  C   4.0   -0.03    4.15    3.89    39.83471   136.24591   -32.08745
   127  C   4.0    0.25    3.08    3.02    37.78918   135.33305   -34.04588
   128  O   6.0   -0.30    1.16    1.80    37.51469   136.70187   -35.95330
   129  O   6.0   -0.29    1.17    1.80    36.64940   133.31946   -33.57185
   130  H   1.0    0.09    1.07    1.44    38.23272   133.32784   -25.31774
   131  H   1.0    0.06    1.05    1.44    41.68848   132.50475   -29.11527
   132  H   1.0    0.06    1.04    1.43    37.39736   134.56852   -29.32821
   133  H   1.0    0.04    1.03    1.43    38.82758   137.42100   -28.31685
   134  H   1.0    0.05    1.02    1.43    40.09310   138.26764   -32.38400
   135  H   1.0    0.06    1.03    1.43    41.58979   135.30221   -32.61475
   136  N   5.0   -0.13    3.51    2.08    44.11965   136.61417   -25.27601
   137  C   4.0    0.04    4.59    4.65    46.60322   137.52269   -24.69822
   138  C   4.0    0.15    3.62    3.18    48.29148   135.90682   -23.03464
   139  O   6.0   -0.31    1.49    1.80    50.26044   135.20842   -24.06671
   140  C   4.0   -0.02    4.30    4.20    46.64421   140.21991   -23.73623
   141  C   4.0   -0.08    4.18    3.97    49.28676   140.83286   -22.75753
   142  C   4.0   -0.07    4.15    3.90    45.92674   141.86209   -25.98197
   143  H   1.0    0.11    1.08    1.44    42.83379   136.56048   -23.87473
   144  H   1.0    0.07    1.11    1.45    47.57094   137.47788   -26.53752
   145  H   1.0    0.06    1.05    1.44    45.23498   140.42988   -22.23694
   146  H   1.0    0.03    1.00    1.43    49.43813   142.84077   -22.35180
   147  H   1.0    0.05    1.01    1.43    49.70804   139.79873   -21.03787
   148  H   1.0    0.04    1.00    1.43    50.67896   140.33874   -24.18379
   149  H   1.0    0.04    1.00    1.43    45.79399   143.84037   -25.43954
   150  H   1.0    0.04    1.00    1.43    47.31311   141.66838   -27.48201
   151  H   1.0    0.05    1.00    1.43    44.08899   141.29216   -26.70650
   152  N   5.0   -0.15    3.44    2.04    47.98150   135.51514   -20.56191
   153  C   4.0    0.04    4.43    4.42    49.79303   133.78091   -19.38569
   154  C   4.0    0.18    3.59    3.16    50.64030   131.78175   -21.32537
   155  O   6.0   -0.30    1.29    1.80    52.88674   131.19980   -21.44287
   156  C   4.0   -0.05    4.18    3.95    48.87698   132.45134   -16.97949
   157  C   4.0   -0.03    4.13    3.86    46.25333   131.18325   -17.22270
   158  C   4.0    0.24    3.04    3.02    45.89961   128.23185   -17.60594
   159  O   6.0   -0.30    1.15    1.80    47.39984   126.75782   -16.54384
   160  O   6.0   -0.30    1.18    1.80    43.99560   127.60063   -18.86314
   161  H   1.0    0.11    1.09    1.44    46.31485   135.88838   -19.71219
   162  H   1.0    0.05    1.05    1.44    51.51540   134.84603   -18.92796
   163  H   1.0    0.05    1.03    1.43    50.29423   131.04645   -16.44990
   164  H   1.0    0.04    1.03    1.43    48.76142   133.86067   -15.48289
   165  H   1.0    0.04    1.03    1.43    45.21691   131.50631   -15.46079
   166  H   1.0    0.07    1.04    1.43    45.16132   132.07557   -18.72028
   167  N   5.0   -0.13    3.52    2.09    48.85366   130.63659   -22.72414
   168  C   4.0    0.04    4.44    4.44    49.41121   128.59888   -24.49611
   169  C   4.0    0.16    3.58    3.16    51.74057   129.09956   -26.07585
   170  O   6.0   -0.32    1.27    1.80    53.34781   127.45989   -26.42002
   171  C   4.0   -0.03    4.29    4.18    47.31446   128.15209   -26.44170
   172  C   4.0   -0.03    4.19    3.98    47.97270   125.98418   -28.24416
   173  C   4.0    0.25    3.06    3.02    47.50610   126.53437   -31.14470
   174  O   6.0   -0.29    1.16    1.80    47.69599   128.75425   -31.89757
   175  O   6.0   -0.30    1.16    1.80    47.11275   124.58658   -32.44675
   176  H   1.0    0.11    1.10    1.44    47.01203   131.09944   -22.53401
   177  H   1.0    0.06    1.07    1.44    49.71832   126.86511   -23.40286
   178  H   1.0    0.06    1.02    1.43    45.54514   127.77548   -25.44156
   179  H   1.0    0.07    1.03    1.43    47.00628   129.88242   -27.53383
   180  H   1.0    0.06    1.05    1.44    49.96818   125.50661   -28.08705
   181  H   1.0    0.05    1.03    1.43    46.84916   124.31941   -27.80306
   182  N   5.0   -0.13    3.57    2.13    51.71131   131.32066   -27.22269
   183  C   4.0    0.04    4.44    4.44    53.78945   132.22830   -28.70136
   184  C   4.0    0.15    3.58    3.15    56.26980   132.14434   -27.18716
   185  O   6.0   -0.31    1.31    1.80    58.11184   130.90784   -27.84549
   186  C   4.0   -0.04    4.33    4.26    53.18606   134.91400   -29.49128
   187  C   4.0   -0.05    4.25    4.09    55.56585   136.27988   -30.37626
   188  C   4.0   -0.02    4.19    3.98    55.02477   138.14796   -32.49573
   189  N   5.0   -0.14    3.39    2.02    54.25488   136.79070   -34.78205
   190  C   4.0    0.09    3.32    3.06    54.63508   137.50319   -37.17774
   191  N   5.0   -0.20    3.23    1.96    55.76984   139.68962   -37.74273
   192  N   5.0   -0.20    3.22    1.96    53.89043   135.95084   -39.04700
   193  H   1.0    0.11    1.12    1.45    50.40943   132.61195   -26.69657
   194  H   1.0    0.05    1.05    1.44    54.02737   130.97561   -30.34138
   195  H   1.0    0.05    1.03    1.43    51.70788   134.86123   -30.92782
   196  H   1.0    0.06    1.04    1.43    52.38698   135.90468   -27.86901
   197  H   1.0    0.03    1.03    1.43    56.42890   137.30281   -28.82260
   198  H   1.0    0.05    1.04    1.43    56.93812   134.90762   -31.07852
   199  H   1.0    0.04    1.02    1.43    53.53493   139.46543   -31.93739
   200  H   1.0    0.03    1.03    1.43    56.74640   139.21185   -32.89782
   201  H   1.0    0.08    1.07    1.44    53.37526   135.12281   -34.47961
   202  H   1.0    0.07    1.03    1.43    56.59024   140.75436   -36.39424
   203  H   1.0    0.07    1.03    1.43    56.19428   140.14970   -39.53829
   204  H   1.0    0.08    1.03    1.43    52.87552   134.38333   -38.67702
   205  H   1.0    0.07    1.03    1.43    53.91644   136.55449   -40.85095
   206  N   5.0   -0.14    3.57    2.13    56.40456   133.65224   -25.18064
   207  C   4.0    0.05    4.56    4.62    58.79228   133.74576   -23.90646
   208  C   4.0    0.17    3.43    3.09    59.35684   131.36074   -22.37685
   209  O   6.0   -0.30    1.23    1.80    61.34869   131.10909   -21.23051
   210  C   4.0    0.05    4.21    4.02    59.20978   136.25306   -22.55061
   211  O   6.0   -0.25    2.11    1.84    57.39504   136.42289   -20.59199
   212  C   4.0   -0.09    4.06    3.73    59.06803   138.45081   -24.46846
   213  H   1.0    0.11    1.06    1.44    54.86203   134.44454   -24.38416
   214  H   1.0    0.05    1.09    1.44    60.24045   133.66355   -25.40170
   215  H   1.0    0.04    1.04    1.43    61.10486   136.18365   -21.69697
   216  H   1.0    0.11    1.02    1.43    57.74069   137.92757   -19.61793
   217  H   1.0    0.03    1.00    1.43    59.73562   140.19264   -23.60396
   218  H   1.0    0.03    1.00    1.43    60.23812   138.06824   -26.10645
   219  H   1.0    0.04    1.00    1.43    57.12215   138.73301   -25.05766
   220  N   5.0   -0.12    3.58    2.14    57.74856   129.45509   -22.73428
   221  C   4.0    0.04    4.47    4.49    58.45159   126.91803   -21.99601
   222  C   4.0    0.15    3.55    3.14    60.20944   125.82728   -24.00269
   223  O   6.0   -0.29    1.25    1.80    62.23176   124.83729   -23.43868
   224  C   4.0   -0.04    4.32    4.24    56.15249   125.19819   -21.82761
   225  C   4.0   -0.05    4.24    4.07    56.95356   122.43211   -21.71311
   226  C   4.0   -0.02    4.20    4.00    54.67113   120.70511   -21.41430
   227  N   5.0   -0.14    3.41    2.02    53.13040   120.68497   -23.69333
   228  C   4.0    0.09    3.33    3.06    50.70434   121.30074   -23.90315
   229  N   5.0   -0.19    3.27    1.97    49.58809   122.76815   -22.19269
   230  N   5.0   -0.19    3.24    1.97    49.35720   120.37071   -25.82119
   231  H   1.0    0.12    1.11    1.45    55.90734   129.78662   -23.10829
   232  H   1.0    0.06    1.05    1.44    59.49262   126.97400   -20.20413
   233  H   1.0    0.05    1.03    1.43    55.06944   125.71583   -20.14821
   234  H   1.0    0.07    1.05    1.44    54.97083   125.51654   -23.48377
   235  H   1.0    0.05    1.04    1.43    57.94334   121.90598   -23.43970
   236  H   1.0    0.04    1.03    1.43    58.22772   122.13538   -20.12364
   237  H   1.0    0.03    1.02    1.43    55.31649   118.76956   -21.08665
   238  H   1.0    0.04    1.03    1.43    53.53186   121.26822   -19.79293
   239  H   1.0    0.07    1.07    1.44    53.95169   119.78050   -25.16465
   240  H   1.0    0.09    1.03    1.43    50.56291   123.55211   -20.75827
   241  H   1.0    0.09    1.03    1.43    47.71238   123.08923   -22.22031
   242  H   1.0    0.07    1.03    1.43    50.11482   119.14822   -27.06598
   243  H   1.0    0.08    1.03    1.43    47.53340   120.85160   -26.06353
   244  N   5.0   -0.14    3.51    2.09    59.28974   125.95086   -26.34160
   245  C   4.0    0.04    4.34    4.27    60.76155   125.12205   -28.49893
   246  C   4.0    0.10    3.29    3.05    63.46540   126.08011   -28.17236
   247  O   6.0   -0.30    1.12    1.80    65.23148   124.57849   -28.17745
   248  C   4.0   -0.05    4.25    4.10    59.56784   125.94999   -30.99266
   249  C   4.0   -0.06    4.16    3.93    58.04823   123.84119   -32.27756
   250  C   4.0   -0.04    4.17    3.94    55.80291   123.03293   -30.66930
   251  C   4.0   -0.04    4.10    3.81    54.65277   120.50133   -31.42741
   252  N   5.0   -0.12    3.98    2.81    52.79029   120.60504   -33.53053
   253  H   1.0    0.11    1.09    1.44    57.65048   126.87891   -26.67120
   254  H   1.0    0.05    1.06    1.44    60.91597   123.04878   -28.45907
   255  H   1.0    0.06    1.04    1.43    58.36065   127.58058   -30.63479
   256  H   1.0    0.04    1.03    1.43    61.06020   126.54343   -32.28424
   257  H   1.0    0.03    1.02    1.43    57.42829   124.50641   -34.12654
   258  H   1.0    0.03    1.03    1.43    59.29190   122.22266   -32.55098
   259  H   1.0    0.04    1.04    1.43    56.46594   122.82019   -28.73523
   260  H   1.0    0.05    1.02    1.43    54.35067   124.50001   -30.67072
   261  H   1.0    0.03    1.02    1.43    56.15731   119.18692   -31.92387
   262  H   1.0    0.03    1.03    1.43    53.65178   119.75323   -29.78827
   263  H   1.0    0.05    1.02    1.43    51.51603   119.15261   -33.35966
   264  H   1.0    0.07    1.02    1.43    51.76451   122.24968   -33.51699
   265  H   1.0    0.04    0.98    1.43    53.49748   120.25038   -35.39867
   266  H   1.0    0.09    1.07    1.44    20.53221   146.00449   -12.68523
   267  H   1.0    0.06    1.04    1.43    63.79311   127.92846   -27.95494

  Z AO/shell   Hii/eV     exponent
  1     Wed Apr 25 08:07:45 CEST 2018   EN: 2.200 GM2: 0.406  GM3: 0.0800  RAES: 1.40
     1s    -10.707211    1.230000
  6     Wed Apr 25 08:07:45 CEST 2018   EN: 2.550 GM2: 0.538  GM3: 0.1500  RAES: 3.00
     2s    -13.970922    2.096432
     2p    -10.063292    1.800000
  7     Wed Apr 25 08:07:45 CEST 2018   EN: 3.040 GM2: 0.461  GM3:-0.0640  RAES: 1.90
     2s    -16.686243    2.339881
     2p    -12.523956    2.014332
  8     Wed Apr 25 08:07:45 CEST 2018   EN: 3.440 GM2: 0.452  GM3:-0.0517  RAES: 1.80
     2s    -20.229985    2.439742
     2p    -15.503117    2.137023
 no old-style atom pair restraining (fixing) potential
           ------------------------------------------------- 
          |        Self-Consistent Charge Iterations        |
           ------------------------------------------------- 

 Ncao       : 675
 Nao        : 675
 Nshell     : 403
 Nel        : 766
 T(el)      :   500.0
 intcut     :    35.0
 scfconv/Eh :  0.100E-06
   qconv/e  :  0.100E-04
 intneglect :  0.100E-08
 broydamp   :      0.400
 iter      E             dE          RMSdq      gap      omega  full diag
   1   -443.4186889 -0.443419E+03  0.494E+00    3.59       0.0  T
   2   -444.6680462 -0.124936E+01  0.226E+00    2.61       1.0  T
   3   -444.7520210 -0.839749E-01  0.129E+00    2.70       1.0  T
   4   -444.8250068 -0.729857E-01  0.288E-01    1.99       1.0  T
   5   -444.8291713 -0.416454E-02  0.150E-01    2.20       1.0  T
   6   -444.8297973 -0.625983E-03  0.520E-02    2.21       1.0  T
   7   -444.8299624 -0.165046E-03  0.223E-02    2.26       1.0  T
   8   -444.8299765 -0.141393E-04  0.893E-03    2.27       1.0  T
   9   -444.8299814 -0.486613E-05  0.359E-03    2.28       1.7  T
  10   -444.8299817 -0.330080E-06  0.120E-03    2.28       5.1  T
  11   -444.8299818 -0.960071E-07  0.482E-04    2.28      12.7  T
  12   -444.8299818 -0.932988E-08  0.207E-04    2.28      29.5  T
  13   -444.8299818 -0.132695E-08  0.838E-05    2.28      73.0  T
  14   -444.8299818 -0.303316E-09  0.329E-05    2.28     185.8  T
speedup  1.70
cpu  time for SCC    8.02 s
wall time for SCC    4.71 s

   *** convergence criteria satisfied after 14 iterations ***

          eigenvalues
 #    :         371        372        373        374        375        376        377        378
 occ. :        2.000      2.000      2.000      2.000      2.000      2.000      2.000      2.000
 eps  :       -10.436    -10.385    -10.383    -10.355    -10.289    -10.227    -10.168     -9.966
 #    :         379        380        381        382        383        384        385        386
 occ. :        2.000      2.000      2.000      2.000      2.000      0.000      0.000      0.000
 eps  :        -9.898     -9.802     -9.788     -9.704     -9.635     -7.356     -7.054     -6.831
 #    :         387        388        389        390        391        392        393        394
 occ. :        0.000      0.000      0.000      0.000      0.000      0.000      0.000      0.000
 eps  :        -6.766     -6.674     -6.636     -6.585     -6.527     -6.511     -6.473     -6.357


   #   Z            q   n(s)   n(p)   n(d)      C6AA      α(0)
   1   7 N     -0.405  1.319  4.086  0.000    30.518     8.205
   2   6 C      0.034  1.059  2.908  0.000    20.026     6.374
   3   6 C      0.270  1.048  2.681  0.000    22.437     7.758
   4   8 O     -0.520  1.753  4.767  0.000    24.238     6.601
   5   6 C     -0.075  1.057  3.018  0.000    21.936     6.669
   6   6 C     -0.079  1.056  3.023  0.000    22.012     6.681
   7   6 C     -0.023  1.058  2.966  0.000    21.085     6.555
   8   7 N     -0.146  1.215  3.931  0.000    24.159     7.300
   9   6 C      0.229  1.030  2.741  0.000    23.184     7.883
  10   7 N     -0.247  1.241  4.007  0.000    26.442     7.637
  11   7 N     -0.257  1.241  4.016  0.000    26.673     7.670
  12   1 H      0.186  0.814  0.000  0.000     1.181     1.703
  13   1 H      0.038  0.962  0.000  0.000     2.472     2.459
  14   1 H      0.051  0.949  0.000  0.000     2.310     2.377
  15   1 H      0.062  0.938  0.000  0.000     2.171     2.304
  16   1 H      0.070  0.930  0.000  0.000     2.084     2.257
  17   1 H      0.066  0.934  0.000  0.000     2.134     2.284
  18   1 H      0.103  0.897  0.000  0.000     1.755     2.072
  19   1 H      0.087  0.913  0.000  0.000     1.909     2.161
  20   1 H      0.230  0.770  0.000  0.000     0.963     1.537
  21   1 H      0.242  0.758  0.000  0.000     0.915     1.499
  22   1 H      0.259  0.741  0.000  0.000     0.848     1.442
  23   1 H      0.247  0.753  0.000  0.000     0.897     1.483
  24   1 H      0.262  0.738  0.000  0.000     0.840     1.436
  25   7 N     -0.186  1.251  3.935  0.000    25.035     7.431
  26   6 C      0.023  1.053  2.925  0.000    20.176     6.392
  27   6 C      0.275  1.042  2.683  0.000    22.355     7.743
  28   8 O     -0.481  1.742  4.739  0.000    23.367     6.481
  29   6 C     -0.064  1.055  3.010  0.000    21.727     6.635
  30   6 C     -0.099  1.066  3.032  0.000    22.379     6.735
  31   6 C      0.374  1.027  2.600  0.000    20.670     7.440
  32   8 O     -0.646  1.782  4.864  0.000    27.267     7.001
  33   8 O     -0.633  1.765  4.868  0.000    26.940     6.959
  34   1 H      0.223  0.777  0.000  0.000     0.996     1.563
  35   1 H      0.098  0.902  0.000  0.000     1.808     2.102
  36   1 H      0.067  0.933  0.000  0.000     2.116     2.275
  37   1 H      0.039  0.961  0.000  0.000     2.457     2.451
  38   1 H      0.038  0.962  0.000  0.000     2.478     2.461
  39   1 H      0.006  0.994  0.000  0.000     2.958     2.690
  40   7 N     -0.185  1.263  3.922  0.000    25.010     7.427
  41   6 C      0.028  1.060  2.912  0.000    20.099     6.382
  42   6 C      0.294  1.035  2.671  0.000    22.010     7.683
  43   8 O     -0.501  1.736  4.765  0.000    23.807     6.542
  44   6 C     -0.045  1.049  2.996  0.000    21.374     6.581
  45   6 C     -0.098  1.071  3.026  0.000    22.365     6.734
  46   6 C      0.368  1.027  2.605  0.000    20.760     7.456
  47   8 O     -0.636  1.771  4.865  0.000    27.017     6.969
  48   8 O     -0.644  1.783  4.862  0.000    27.231     6.996
  49   1 H      0.210  0.790  0.000  0.000     1.057     1.611
  50   1 H      0.070  0.930  0.000  0.000     2.087     2.259
  51   1 H      0.028  0.972  0.000  0.000     2.621     2.532
  52   1 H      0.048  0.952  0.000  0.000     2.350     2.397
  53   1 H      0.035  0.965  0.000  0.000     2.516     2.481
  54   1 H      0.030  0.970  0.000  0.000     2.583     2.513
  55   7 N     -0.175  1.239  3.936  0.000    24.791     7.395
  56   6 C      0.039  1.056  2.905  0.000    19.930     6.358
  57   6 C      0.274  1.050  2.676  0.000    22.372     7.746
  58   8 O     -0.488  1.740  4.748  0.000    23.522     6.503
  59   6 C     -0.056  1.056  3.000  0.000    21.587     6.615
  60   6 C     -0.103  1.078  3.025  0.000    22.489     6.754
  61   6 C      0.363  1.034  2.603  0.000    20.842     7.470
  62   8 O     -0.645  1.777  4.868  0.000    27.245     6.998
  63   8 O     -0.642  1.784  4.859  0.000    27.187     6.991
  64   1 H      0.184  0.816  0.000  0.000     1.193     1.711
  65   1 H      0.067  0.933  0.000  0.000     2.117     2.275
  66   1 H      0.035  0.965  0.000  0.000     2.517     2.481
  67   1 H      0.059  0.941  0.000  0.000     2.214     2.327
  68   1 H      0.048  0.952  0.000  0.000     2.342     2.393
  69   1 H      0.028  0.972  0.000  0.000     2.615     2.529
  70   7 N     -0.182  1.249  3.933  0.000    24.943     7.417
  71   6 C      0.011  1.072  2.918  0.000    20.398     6.430
  72   6 C      0.281  1.044  2.675  0.000    22.246     7.723
  73   8 O     -0.501  1.742  4.759  0.000    23.817     6.543
  74   6 C      0.074  1.037  2.889  0.000    19.571     6.340
  75   8 O     -0.450  1.708  4.742  0.000    21.844     6.309
  76   1 H      0.208  0.792  0.000  0.000     1.068     1.619
  77   1 H      0.084  0.916  0.000  0.000     1.941     2.179
  78   1 H      0.084  0.916  0.000  0.000     1.939     2.178
  79   1 H      0.059  0.941  0.000  0.000     2.214     2.327
  80   1 H      0.308  0.692  0.000  0.000     0.698     1.313
  81   7 N     -0.203  1.262  3.941  0.000    25.418     7.488
  82   6 C      0.038  1.054  2.909  0.000    19.951     6.361
  83   6 C      0.273  1.045  2.682  0.000    22.383     7.748
  84   8 O     -0.502  1.741  4.761  0.000    23.827     6.544
  85   6 C     -0.122  1.042  3.080  0.000    22.884     6.820
  86   1 H      0.238  0.762  0.000  0.000     0.932     1.512
  87   1 H      0.059  0.941  0.000  0.000     2.212     2.326
  88   1 H      0.062  0.938  0.000  0.000     2.178     2.308
  89   1 H      0.057  0.943  0.000  0.000     2.240     2.340
  90   1 H      0.070  0.930  0.000  0.000     2.090     2.261
  91   7 N     -0.177  1.252  3.925  0.000    24.838     7.402
  92   6 C      0.025  1.062  2.914  0.000    20.166     6.395
  93   6 C      0.265  1.055  2.680  0.000    22.526     7.771
  94   8 O     -0.463  1.734  4.729  0.000    22.986     6.428
  95   6 C     -0.124  1.038  3.086  0.000    22.941     6.830
  96   1 H      0.216  0.784  0.000  0.000     1.027     1.587
  97   1 H      0.075  0.925  0.000  0.000     2.030     2.228
  98   1 H      0.081  0.919  0.000  0.000     1.974     2.197
  99   1 H      0.067  0.933  0.000  0.000     2.120     2.277
 100   1 H      0.065  0.935  0.000  0.000     2.144     2.290
 101   7 N     -0.189  1.243  3.947  0.000    25.106     7.442
 102   6 C      0.025  1.062  2.913  0.000    20.170     6.396
 103   6 C      0.274  1.044  2.682  0.000    22.376     7.746
 104   8 O     -0.478  1.729  4.750  0.000    23.312     6.473
 105   6 C     -0.132  1.044  3.089  0.000    23.095     6.851
 106   1 H      0.184  0.816  0.000  0.000     1.190     1.709
 107   1 H      0.088  0.912  0.000  0.000     1.901     2.156
 108   1 H      0.081  0.919  0.000  0.000     1.972     2.196
 109   1 H      0.070  0.930  0.000  0.000     2.083     2.257
 110   1 H      0.063  0.937  0.000  0.000     2.162     2.299
 111   7 N     -0.179  1.250  3.929  0.000    24.876     7.408
 112   6 C      0.022  1.057  2.920  0.000    20.206     6.401
 113   6 C      0.284  1.038  2.678  0.000    22.197     7.715
 114   8 O     -0.477  1.730  4.747  0.000    23.289     6.470
 115   6 C     -0.128  1.041  3.087  0.000    23.007     6.839
 116   1 H      0.200  0.800  0.000  0.000     1.105     1.647
 117   1 H      0.106  0.894  0.000  0.000     1.735     2.060
 118   1 H      0.073  0.927  0.000  0.000     2.048     2.238
 119   1 H      0.077  0.923  0.000  0.000     2.007     2.215
 120   1 H      0.051  0.949  0.000  0.000     2.306     2.375
 121   7 N     -0.196  1.252  3.944  0.000    25.263     7.465
 122   6 C      0.035  1.062  2.903  0.000    20.001     6.370
 123   6 C      0.282  1.042  2.676  0.000    22.221     7.719
 124   8 O     -0.469  1.732  4.737  0.000    23.105     6.445
 125   6 C     -0.046  1.050  2.995  0.000    21.390     6.585
 126   6 C     -0.096  1.068  3.029  0.000    22.343     6.731
 127   6 C      0.368  1.028  2.603  0.000    20.755     7.455
 128   8 O     -0.640  1.769  4.871  0.000    27.123     6.982
 129   8 O     -0.646  1.776  4.870  0.000    27.282     7.003
 130   1 H      0.202  0.798  0.000  0.000     1.097     1.641
 131   1 H      0.059  0.941  0.000  0.000     2.214     2.327
 132   1 H      0.042  0.958  0.000  0.000     2.423     2.434
 133   1 H      0.022  0.978  0.000  0.000     2.699     2.569
 134   1 H      0.029  0.971  0.000  0.000     2.594     2.519
 135   1 H      0.041  0.959  0.000  0.000     2.442     2.444
 136   7 N     -0.163  1.231  3.932  0.000    24.523     7.355
 137   6 C      0.026  1.055  2.919  0.000    20.130     6.385
 138   6 C      0.276  1.051  2.672  0.000    22.325     7.739
 139   8 O     -0.484  1.727  4.757  0.000    23.425     6.489
 140   6 C     -0.019  1.057  2.962  0.000    20.875     6.498
 141   6 C     -0.125  1.042  3.083  0.000    22.950     6.830
 142   6 C     -0.117  1.041  3.075  0.000    22.778     6.802
 143   1 H      0.168  0.832  0.000  0.000     1.285     1.776
 144   1 H      0.097  0.903  0.000  0.000     1.812     2.105
 145   1 H      0.038  0.962  0.000  0.000     2.471     2.458
 146   1 H      0.070  0.930  0.000  0.000     2.088     2.260
 147   1 H      0.041  0.959  0.000  0.000     2.431     2.438
 148   1 H      0.061  0.939  0.000  0.000     2.192     2.315
 149   1 H      0.058  0.942  0.000  0.000     2.221     2.331
 150   1 H      0.064  0.936  0.000  0.000     2.157     2.297
 151   1 H      0.023  0.977  0.000  0.000     2.682     2.561
 152   7 N     -0.182  1.258  3.924  0.000    24.949     7.418
 153   6 C      0.028  1.066  2.906  0.000    20.107     6.384
 154   6 C      0.296  1.044  2.660  0.000    21.981     7.677
 155   8 O     -0.499  1.727  4.772  0.000    23.760     6.535
 156   6 C     -0.063  1.055  3.008  0.000    21.704     6.633
 157   6 C     -0.104  1.071  3.033  0.000    22.495     6.755
 158   6 C      0.363  1.031  2.605  0.000    20.835     7.469
 159   8 O     -0.624  1.762  4.862  0.000    26.721     6.930
 160   8 O     -0.639  1.776  4.864  0.000    27.108     6.981
 161   1 H      0.219  0.781  0.000  0.000     1.014     1.577
 162   1 H      0.080  0.920  0.000  0.000     1.982     2.202
 163   1 H      0.057  0.943  0.000  0.000     2.237     2.339
 164   1 H      0.054  0.946  0.000  0.000     2.272     2.357
 165   1 H      0.014  0.986  0.000  0.000     2.832     2.632
 166   1 H      0.026  0.974  0.000  0.000     2.645     2.544
 167   7 N     -0.207  1.250  3.956  0.000    25.499     7.500
 168   6 C      0.029  1.058  2.913  0.000    20.090     6.382
 169   6 C      0.280  1.038  2.682  0.000    22.263     7.728
 170   8 O     -0.479  1.713  4.766  0.000    23.318     6.474
 171   6 C     -0.048  1.047  3.001  0.000    21.423     6.588
 172   6 C     -0.116  1.075  3.042  0.000    22.729     6.789
 173   6 C      0.363  1.028  2.609  0.000    20.842     7.471
 174   8 O     -0.639  1.783  4.856  0.000    27.093     6.979
 175   8 O     -0.632  1.759  4.873  0.000    26.916     6.956
 176   1 H      0.201  0.799  0.000  0.000     1.103     1.645
 177   1 H      0.056  0.944  0.000  0.000     2.250     2.346
 178   1 H      0.014  0.986  0.000  0.000     2.820     2.626
 179   1 H      0.025  0.975  0.000  0.000     2.652     2.547
 180   1 H      0.065  0.935  0.000  0.000     2.146     2.291
 181   1 H      0.034  0.966  0.000  0.000     2.525     2.485
 182   7 N     -0.168  1.244  3.924  0.000    24.627     7.370
 183   6 C      0.021  1.059  2.919  0.000    20.214     6.401
 184   6 C      0.267  1.045  2.688  0.000    22.499     7.769
 185   8 O     -0.462  1.731  4.732  0.000    22.965     6.425
 186   6 C     -0.088  1.053  3.035  0.000    22.169     6.702
 187   6 C     -0.090  1.052  3.038  0.000    22.213     6.709
 188   6 C     -0.028  1.056  2.972  0.000    21.159     6.564
 189   7 N     -0.139  1.210  3.928  0.000    24.005     7.277
 190   6 C      0.231  1.023  2.746  0.000    23.150     7.877
 191   7 N     -0.246  1.230  4.016  0.000    26.412     7.633
 192   7 N     -0.260  1.238  4.021  0.000    26.737     7.680
 193   1 H      0.200  0.800  0.000  0.000     1.104     1.646
 194   1 H      0.086  0.914  0.000  0.000     1.914     2.164
 195   1 H      0.066  0.934  0.000  0.000     2.128     2.281
 196   1 H      0.060  0.940  0.000  0.000     2.203     2.321
 197   1 H      0.077  0.923  0.000  0.000     2.009     2.216
 198   1 H      0.081  0.919  0.000  0.000     1.968     2.194
 199   1 H      0.084  0.916  0.000  0.000     1.939     2.177
 200   1 H      0.101  0.899  0.000  0.000     1.772     2.082
 201   1 H      0.217  0.783  0.000  0.000     1.022     1.584
 202   1 H      0.248  0.752  0.000  0.000     0.892     1.479
 203   1 H      0.260  0.740  0.000  0.000     0.846     1.441
 204   1 H      0.240  0.760  0.000  0.000     0.924     1.506
 205   1 H      0.257  0.743  0.000  0.000     0.856     1.449
 206   7 N     -0.158  1.232  3.926  0.000    24.427     7.340
 207   6 C      0.016  1.061  2.923  0.000    20.291     6.410
 208   6 C      0.282  1.040  2.679  0.000    22.229     7.721
 209   8 O     -0.505  1.748  4.757  0.000    23.903     6.555
 210   6 C      0.116  1.045  2.839  0.000    18.787     6.189
 211   8 O     -0.499  1.739  4.760  0.000    22.872     6.456
 212   6 C     -0.145  1.050  3.096  0.000    23.365     6.893
 213   1 H      0.207  0.793  0.000  0.000     1.072     1.622
 214   1 H      0.096  0.904  0.000  0.000     1.818     2.108
 215   1 H      0.037  0.963  0.000  0.000     2.485     2.465
 216   1 H      0.341  0.659  0.000  0.000     0.609     1.226
 217   1 H      0.067  0.933  0.000  0.000     2.116     2.275
 218   1 H      0.071  0.929  0.000  0.000     2.077     2.254
 219   1 H      0.062  0.938  0.000  0.000     2.173     2.305
 220   7 N     -0.186  1.245  3.941  0.000    25.031     7.431
 221   6 C      0.023  1.058  2.919  0.000    20.175     6.394
 222   6 C      0.277  1.040  2.683  0.000    22.312     7.736
 223   8 O     -0.497  1.755  4.742  0.000    23.719     6.530
 224   6 C     -0.091  1.056  3.035  0.000    22.231     6.711
 225   6 C     -0.082  1.053  3.030  0.000    22.067     6.687
 226   6 C     -0.031  1.057  2.975  0.000    21.210     6.572
 227   7 N     -0.134  1.208  3.927  0.000    23.915     7.263
 228   6 C      0.233  1.018  2.749  0.000    23.116     7.872
 229   7 N     -0.228  1.215  4.012  0.000    25.980     7.570
 230   7 N     -0.242  1.226  4.016  0.000    26.317     7.619
 231   1 H      0.214  0.786  0.000  0.000     1.037     1.595
 232   1 H      0.063  0.937  0.000  0.000     2.170     2.304
 233   1 H      0.042  0.958  0.000  0.000     2.421     2.433
 234   1 H      0.085  0.915  0.000  0.000     1.928     2.172
 235   1 H      0.077  0.923  0.000  0.000     2.012     2.218
 236   1 H      0.071  0.929  0.000  0.000     2.070     2.250
 237   1 H      0.110  0.890  0.000  0.000     1.694     2.035
 238   1 H      0.075  0.925  0.000  0.000     2.030     2.228
 239   1 H      0.252  0.748  0.000  0.000     0.875     1.466
 240   1 H      0.221  0.779  0.000  0.000     1.007     1.572
 241   1 H      0.216  0.784  0.000  0.000     1.026     1.586
 242   1 H      0.269  0.731  0.000  0.000     0.814     1.413
 243   1 H      0.228  0.772  0.000  0.000     0.972     1.545
 244   7 N     -0.165  1.243  3.922  0.000    24.573     7.362
 245   6 C      0.020  1.063  2.917  0.000    20.246     6.407
 246   6 C      0.215  1.081  2.704  0.000    23.456     7.932
 247   8 O     -0.369  1.755  4.615  0.000    21.080     6.156
 248   6 C     -0.087  1.056  3.030  0.000    22.148     6.700
 249   6 C     -0.087  1.056  3.030  0.000    22.153     6.701
 250   6 C     -0.098  1.052  3.045  0.000    22.359     6.732
 251   6 C     -0.050  1.058  2.992  0.000    21.576     6.631
 252   7 N     -0.138  1.227  3.910  0.000    23.973     7.272
 253   1 H      0.228  0.772  0.000  0.000     0.972     1.544
 254   1 H      0.100  0.900  0.000  0.000     1.785     2.089
 255   1 H      0.083  0.917  0.000  0.000     1.948     2.183
 256   1 H      0.069  0.931  0.000  0.000     2.095     2.263
 257   1 H      0.076  0.924  0.000  0.000     2.018     2.222
 258   1 H      0.076  0.924  0.000  0.000     2.018     2.222
 259   1 H      0.084  0.916  0.000  0.000     1.942     2.179
 260   1 H      0.066  0.934  0.000  0.000     2.135     2.285
 261   1 H      0.140  0.860  0.000  0.000     1.462     1.891
 262   1 H      0.104  0.896  0.000  0.000     1.747     2.067
 263   1 H      0.295  0.705  0.000  0.000     0.729     1.338
 264   1 H      0.272  0.728  0.000  0.000     0.804     1.404
 265   1 H      0.307  0.693  0.000  0.000     0.693     1.304
 266   1 H      0.167  0.833  0.000  0.000     1.289     1.778
 267   1 H      0.059  0.941  0.000  0.000     2.213     2.326

 Mol. C6AA /au·bohr⁶  :     680337.585425
 Mol. C8AA /au·bohr⁸  :   15033887.527723
 Mol. α(0) /au        :       1223.717066

 
molecular dipole:
                 x           y           z       tot (Debye)
 q only:      -43.780    -298.173      46.271
   full:      -48.846    -295.797      47.990     771.741
molecular quadrupole (traceless):
                xx          xy          yy          xz          yz          zz
 q only:    22095.876  -10192.140  -43757.729     535.706   10453.150   21661.853
  q+dip:    21378.413  -11045.080  -42870.527     840.080   10728.867   21492.113
   full:    21377.015  -11042.180  -42869.610     839.805   10728.187   21492.595
speedup  1.73
cpu  time for grad   10.75 s
wall time for grad    6.20 s

SCC energy    :    -444.8367646
rep           :       4.8050144
ES            :       2.3636207
AES           :      -0.1250900
AXC           :       0.0986523
disp          :      -0.3528496
XB            :       0.0000000
fix           :       0.0000000
Gborn         :       0.0000000
Gsasa         :       0.0000000
Ghb           :       0.0000000
Gshift        :       0.0000000
Gsolv         :      -0.9045732     -567.63
Etot ala COSMO:    -444.8367646
grad norm     :       0.2504676
total E       :    -440.0038401
atomizationE  :      76.8051596    48195.97
(atE without considering molecular charge,
 total energy contains solvation terms)
H-L gap (eV)  :          2.2787

------------------------------------------------------------------------
 * finished run on 2019/05/11 at 23:18:32.880     
------------------------------------------------------------------------
 total:
 * wall-time:     0 d,  0 h,  0 min,  7.130 sec
 *  cpu-time:     0 d,  0 h,  0 min, 11.824 sec
 * ratio c/w:     1.658 speedup
 SCF:
 * wall-time:     0 d,  0 h,  0 min,  6.833 sec
 *  cpu-time:     0 d,  0 h,  0 min, 11.635 sec
 * ratio c/w:     1.703 speedup

