      -----------------------------------------------------------      
     |                   =====================                   |     
     |                           x T B                           |     
     |                   =====================                   |     
     |                         S. Grimme                         |     
     |          Mulliken Center for Theoretical Chemistry        |     
     |                    University of Bonn                     |     
     |                 Version 6.0.1 (SAW181210)                 |     
      -----------------------------------------------------------      

   This program is distributed in the hope that it will be useful,
   but WITHOUT ANY WARRANTY; without even the implied warranty of
   MERCHANTABILITY or FITNESS FOR A PARTICULAR PURPOSE.
   
   FOR NON-COMMERCIAL, ACADEMIA USE ONLY.
   
   Cite this work as:
   S. Grimme, C. Bannwarth, P. Shushkov, J. Comput. Theory Chem., 2017,
   13, 1989-2009.
   C. Bannwarth, S. Ehlert and S. Grimme., ChemRxiv, 2018, preprint.
   http://doi.org/10.26434/chemrxiv.7246238.v1
   
   for sTDA-xTB:
   S. Grimme and C. Bannwarth, J. Chem. Phys., 2016, 145, 054103.
   
   in the mass-spec context:
   V. Asgeirsson, C. Bauer and S. Grimme, Chem. Sci., 2017, 8, 4879.
   
   if GBSA is used:
   P. Shushkov, F. März and S. Grimme, unpublished.
   
   for ANC optimizer:
   S. Grimme, unpublished.
   Rational Function algorithm used in ANCopt:
   F. Eckert, P. Pulay, H.-J. Werner, J. Comput. Chem., 1997, 18, 1473.
   
   with help from (in alphabetical order)
   C. Bannwarth, F. Bohle, G. Brandenburg, E. Caldeweyher, M. Checinski,
   S. Dohm, S. Ehlert, S. Ehrlich, F. März, H. Neugebauer, J. Pisarek,
   P. Pracht, P. Shushkov, and S. Spicher.
   
 * started run on 2019/05/05 at 21:29:07.538     
========================================================================
 # omp threads = 2
========================================================================
number of atoms            : 518
number of electrons        : 1422
charge                     : -3
spin                       : .0
first test random number   : .8018

########################################################################
# WARNING! Please study the warnings concerning your input carefully
#  - Process number higher than OMP_NUM_THREADS, I hope you know what you are doing.
########################################################################

           ------------------------------------------------- 
          |                 G F N 2 - x T B                 |
          | Geometry, Frequencies, Noncovalent interactions |
          |            JCTC 2018 parametrisation            |
           ------------------------------------------------- 
 
      method parameters     
 k(s)        :  1.8500
 k(p)        :  2.2300
 k(d)        :  2.2300
 k(f)        :  2.0000
 kEN (H0ij)  : -2.0000
 D4 a1       :  0.5200
 D4 a2       :  5.0000
 D4 s6       :  1.0000
 D4 s8       :  2.7000
 D4 s9       :  5.0000
 alphaj      :  2.0000

 Solvent             : h2o
 Using internal parameter file: .param_gbsa2_h2o
 Gsolv ref. state (COSMO-RS): gsolv [1 M gas/solution]
 temperature (mdtemp)       :    298.150000000000     
 dielectric constant        :    80.2000000000000     
 rho                        :    1.00000000000000     
 mass                       :    18.0000000000000     
 surface tension            :    15.5689454083859     
 probe radius               :   0.975313790000000     
 vdW radii scaling          :    1.00000000000000     
 Gshift (Eh)                :   1.857443126794793E-003
 c1                         :    1.55243817000000     
 soset                      :   0.130326360000000     
 HB correction              :  T

            Z     q(EN)     CN     RAES       Cart. coordinates
     1  N   5.0   -0.20    3.26    1.97    84.31390    83.72431   171.74207
     2  C   4.0    0.02    4.26    4.12    82.86259    81.81191   173.02520
     3  C   4.0    0.06    3.22    3.04    80.27178    81.59837   171.81199
     4  O   6.0   -0.31    1.14    1.80    79.13983    83.48620   171.01075
     5  C   4.0   -0.05    4.41    4.40    82.59803    82.54134   175.78798
     6  C   4.0   -0.03    4.24    4.08    85.03578    83.22920   177.13535
     7  C   4.0   -0.08    4.12    3.84    84.64083    83.79234   179.90947
     8  C   4.0   -0.08    4.17    3.94    86.84991    81.05035   176.88213
     9  H   1.0    0.08    1.03    1.43    83.92651    85.50632   172.36568
    10  H   1.0    0.03    1.06    1.44    83.77911    79.97131   172.89859
    11  H   1.0    0.04    1.04    1.43    81.35081    84.17595   175.90514
    12  H   1.0    0.03    1.04    1.43    81.76844    80.94830   176.79709
    13  H   1.0    0.03    1.06    1.44    85.79356    84.94129   176.27553
    14  H   1.0    0.04    1.00    1.43    86.45496    84.27044   180.76174
    15  H   1.0    0.03    1.00    1.43    83.33880    85.37782   180.09277
    16  H   1.0    0.03    1.00    1.43    83.85092    82.12560   180.82599
    17  H   1.0    0.04    1.00    1.43    88.60736    81.52656   177.84400
    18  H   1.0    0.03    1.00    1.43    86.01088    79.37605   177.74006
    19  H   1.0    0.03    1.01    1.43    87.21274    80.70831   174.88280
    20  N   5.0   -0.15    3.43    2.04    75.14684    67.22322   177.00874
    21  C   4.0    0.02    4.41    4.39    76.66429    69.50790   177.30354
    22  C   4.0    0.07    3.24    3.04    79.31180    69.13562   176.41726
    23  O   6.0   -0.30    1.16    1.80    80.47965    67.22322   176.99740
    24  C   4.0   -0.04    4.38    4.35    76.65106    70.00679   180.17214
    25  C   4.0   -0.04    4.30    4.20    76.13895    67.49912   181.31543
    26  C   4.0   -0.01    4.27    4.15    74.37205    66.20277   179.47105
    27  H   1.0    0.02    1.05    1.44    75.77234    71.06881   176.29820
    28  H   1.0    0.04    1.03    1.43    78.48221    70.73433   180.77118
    29  H   1.0    0.03    1.03    1.43    75.16763    71.35416   180.64646
    30  H   1.0    0.05    1.03    1.43    77.89639    66.44465   181.51763
    31  H   1.0    0.03    1.03    1.43    75.24322    67.73345   183.15413
    32  H   1.0    0.04    1.02    1.43    74.62528    64.15998   179.52774
    33  H   1.0    0.02    1.02    1.43    72.41052    66.68087   179.87734
    34  N   5.0   -0.20    3.24    1.96    86.10536    73.35916   172.41482
    35  C   4.0    0.02    4.24    4.09    87.31101    75.56447   171.28287
    36  C   4.0    0.06    3.29    3.05    88.39382    74.82181   168.72418
    37  O   6.0   -0.30    1.14    1.80    88.78310    72.57681   168.20640
    38  C   4.0   -0.06    4.31    4.22    89.47663    76.47721   172.92693
    39  C   4.0   -0.04    4.32    4.24    91.69706    74.68764   172.78142
    40  C   4.0   -0.02    4.27    4.15    93.85702    75.44731   174.42548
    41  N   5.0   -0.14    3.48    2.06    95.05888    73.18531   175.32310
    42  C   4.0    0.10    3.37    3.07    96.92782    73.13806   176.94638
    43  N   5.0   -0.18    3.34    2.00    97.95205    75.24511   177.74006
    44  N   5.0   -0.18    3.33    1.99    97.86135    70.94409   177.69282
    45  H   1.0    0.09    1.03    1.43    87.29589    71.86061   172.63969
    46  H   1.0    0.03    1.05    1.44    85.92962    77.07625   171.05043
    47  H   1.0    0.03    1.03    1.43    90.09079    78.33481   172.28065
    48  H   1.0    0.03    1.03    1.43    88.85113    76.58492   174.88658
    49  H   1.0    0.05    1.05    1.44    91.08290    72.81303   173.37480
    50  H   1.0    0.05    1.05    1.44    92.37547    74.62528   170.83878
    51  H   1.0    0.03    1.03    1.43    95.21573    76.55658   173.34645
    52  H   1.0    0.05    1.03    1.43    93.17672    76.53957   176.03364
    53  H   1.0    0.07    1.08    1.44    94.41260    71.49778   174.65036
    54  H   1.0    0.08    1.04    1.43    97.29632    76.93830   177.09378
    55  H   1.0    0.09    1.03    1.43    99.40714    75.19409   179.00429
    56  H   1.0    0.08    1.03    1.43    97.12624    69.30003   177.00496
    57  H   1.0    0.14    1.25    1.48    99.31644    70.89496   178.95705
    58  N   5.0   -0.19    3.25    1.97    85.60648    64.69477   178.43737
    59  C   4.0    0.03    4.40    4.37    86.18095    64.77981   181.10000
    60  C   4.0    0.14    3.43    3.09    85.22097    62.49513   182.49839
    61  O   6.0   -0.30    1.23    1.80    83.40683    61.25358   181.69904
    62  C   4.0   -0.03    4.43    4.44    85.02444    67.06259   182.26596
    63  C   4.0   -0.01    3.58    3.16    86.21497    69.46822   181.47227
    64  C   4.0   -0.03    3.46    3.10    88.46941    70.26757   182.56642
    65  C   4.0   -0.04    3.47    3.10    85.03389    71.01212   179.69404
    66  C   4.0   -0.02    3.36    3.07    89.54088    72.54658   181.86156
    67  C   4.0   -0.05    3.36    3.07    86.09591    73.29113   178.97028
    68  C   4.0   -0.04    3.36    3.07    88.34658    74.07537   180.07010
    69  H   1.0    0.11    1.05    1.44    84.21753    65.91175   177.88557
    70  H   1.0    0.04    1.07    1.44    88.23130    64.83650   181.29464
    71  H   1.0    0.05    1.05    1.44    83.03645    67.14196   181.73494
    72  H   1.0    0.06    1.05    1.44    85.20018    66.92087   184.31253
    73  H   1.0    0.07    1.04    1.43    89.38593    69.10539   183.97049
    74  H   1.0    0.06    1.04    1.43    83.26322    70.42064   178.86823
    75  H   1.0    0.07    1.03    1.43    91.30400    73.14562   182.69870
    76  H   1.0    0.04    1.03    1.43    85.18129    74.44953   177.56054
    77  H   1.0    0.06    1.03    1.43    89.17239    75.86494   179.54097
    78  N   5.0   -0.15    3.36    2.01    86.48331    61.93577   184.59977
    79  C   4.0    0.02    4.15    3.90    85.83324    59.81172   186.23249
    80  C   4.0    0.09    3.13    3.03    86.83480    57.33051   185.19314
    81  O   6.0   -0.29    1.12    1.80    88.21241    55.99069   186.44603
    82  H   1.0    0.11    1.09    1.44    87.99887    62.94110   185.23661
    83  H   1.0    0.06    1.03    1.43    86.63827    60.11218   188.10332
    84  H   1.0    0.05    1.03    1.43    83.78478    59.67377   186.39879
    85  N   5.0   -0.20    3.20    1.96    90.27032    57.28137   179.86790
    86  C   4.0    0.03    4.24    4.09    92.58523    57.99191   178.57532
    87  C   4.0    0.07    3.21    3.04    92.93861    56.56706   176.09600
    88  O   6.0   -0.30    1.15    1.80    95.03810    55.83006   175.45350
    89  C   4.0   -0.02    4.32    4.24    94.89637    57.56105   180.24584
    90  C   4.0    0.05    3.71    3.25    94.87936    59.00669   182.66091
    91  N   5.0   -0.17    2.60    1.91    96.09823    58.13931   184.79252
    92  C   4.0   -0.00    3.62    3.18    93.80411    61.23468   183.29586
    93  C   4.0    0.06    3.56    3.15    95.76942    59.77581   186.64634
    94  N   5.0   -0.10    3.48    2.06    94.39748    61.68065   185.78274
    95  H   1.0    0.09    1.02    1.43    89.14971    58.77993   180.32899
    96  H   1.0    0.04    1.06    1.44    92.41894    59.99880   178.14069
    97  H   1.0    0.05    1.04    1.43    94.99841    55.55983   180.72016
    98  H   1.0    0.06    1.04    1.43    96.57822    58.12230   179.19704
    99  H   1.0    0.05    1.01    1.43    92.68917    62.43655   182.07887
   100  H   1.0    0.04    1.01    1.43    96.49697    59.59251   188.54552
   101  H   1.0    0.09    1.05    1.44    93.86647    63.23023   186.79941
   102  N   5.0   -0.22    3.20    1.96    73.45554    83.86226   172.45450
   103  C   4.0    0.03    4.26    4.12    72.92641    82.84748   174.94138
   104  C   4.0    0.08    3.27    3.05    71.27668    84.62004   176.42859
   105  O   6.0   -0.31    1.13    1.80    69.23200    83.89438   177.22228
   106  C   4.0   -0.04    4.34    4.27    75.34148    82.24465   176.37757
   107  C   4.0   -0.02    3.59    3.16    74.99944    82.15962   179.19893
   108  C   4.0   -0.04    3.47    3.10    73.72577    80.17729   180.37434
   109  C   4.0   -0.05    3.48    3.11    75.94242    84.06824   180.69560
   110  C   4.0   -0.04    3.41    3.08    73.41963    80.09414   182.98594
   111  C   4.0   -0.05    3.46    3.10    75.65896    84.01722   183.29586
   112  C   4.0    0.07    3.44    3.09    74.40418    82.03867   184.44481
   113  O   6.0   -0.24    2.10    1.84    74.17552    82.12371   187.03752
   114  H   1.0    0.10    1.03    1.43    75.20731    84.63894   172.25230
   115  H   1.0    0.04    1.06    1.44    71.92675    81.06357   174.69949
   116  H   1.0    0.04    1.03    1.43    76.03123    80.40028   175.77097
   117  H   1.0    0.04    1.04    1.43    76.74366    83.69407   175.95616
   118  H   1.0    0.04    1.03    1.43    72.95854    78.66929   179.23295
   119  H   1.0    0.04    1.03    1.43    76.92129    85.63293   179.82443
   120  H   1.0    0.05    1.03    1.43    72.43131    78.53890   183.86278
   121  H   1.0    0.04    1.03    1.43    76.42241    85.53089   184.43158
   122  H   1.0    0.12    1.03    1.43    74.99755    83.64683   187.69703
   123  N   5.0   -0.20    3.22    1.96    73.57270    59.82116   191.00972
   124  C   4.0    0.03    4.27    4.13    73.41396    61.76191   192.99960
   125  C   4.0    0.16    3.36    3.07    75.99533    62.55182   194.04273
   126  O   6.0   -0.29    1.20    1.80    76.15029    64.14675   195.75482
   127  C   4.0    0.03    4.13    3.86    71.66030    60.91343   195.17468
   128  O   6.0   -0.22    2.03    1.83    72.72421    58.91221   196.61276
   129  H   1.0    0.09    1.02    1.43    72.79035    58.12230   191.47270
   130  H   1.0    0.03    1.06    1.44    72.54847    63.43243   192.16245
   131  H   1.0    0.05    1.01    1.43    71.33338    62.51969   196.42189
   132  H   1.0    0.03    1.01    1.43    69.87640    60.27092   194.36965
   133  H   1.0    0.11    1.01    1.43    71.56392    58.42277   197.97147
   134  N   5.0   -0.13    3.53    2.10    77.95875    61.31783   193.06007
   135  C   4.0    0.03    4.38    4.34    80.61382    61.90175   193.50983
   136  C   4.0    0.15    3.42    3.08    81.50388    63.74046   191.46703
   137  O   6.0   -0.31    1.28    1.80    82.74732    65.59428   192.00561
   138  C   4.0   -0.04    4.23    4.06    82.17662    59.44700   193.52306
   139  C   4.0   -0.04    4.14    3.87    81.47364    57.57239   195.65089
   140  C   4.0    0.24    3.08    3.02    79.16629    55.81495   195.15011
   141  O   6.0   -0.29    1.20    1.80    77.80758    56.07195   193.21692
   142  O   6.0   -0.29    1.16    1.80    78.65039    54.14443   196.76016
   143  H   1.0    0.10    1.10    1.44    77.75655    59.81361   191.87332
   144  H   1.0    0.05    1.06    1.44    80.92184    62.75213   195.35987
   145  H   1.0    0.05    1.03    1.43    81.89505    58.48135   191.72593
   146  H   1.0    0.04    1.03    1.43    84.16461    59.93644   193.75738
   147  H   1.0    0.04    1.03    1.43    83.09692    56.35163   195.98915
   148  H   1.0    0.04    1.04    1.43    81.04468    58.66087   197.34597
   149  N   5.0   -0.14    3.40    2.02    80.79523    63.24913   189.11810
   150  C   4.0    0.01    4.27    4.14    81.13538    65.07460   187.08665
   151  C   4.0    0.15    3.36    3.07    79.87872    67.58416   187.66868
   152  O   6.0   -0.29    1.22    1.80    81.06357    69.62128   187.48160
   153  H   1.0    0.07    1.05    1.44    79.97509    61.59940   188.54930
   154  H   1.0    0.06    1.03    1.43    83.14794    65.40530   186.79374
   155  H   1.0    0.04    1.03    1.43    80.32091    64.32438   185.34999
   156  N   5.0   -0.15    3.49    2.07    77.48632    67.40275   188.44725
   157  C   4.0    0.03    4.44    4.45    76.01423    69.60239   189.24472
   158  C   4.0    0.16    3.55    3.14    77.41829    70.96677   191.24782
   159  O   6.0   -0.28    1.26    1.80    77.53735    73.27979   191.20058
   160  C   4.0   -0.05    4.40    4.38    73.44987    68.87862   190.31619
   161  C   4.0   -0.03    4.18    3.96    71.32582    68.18131   188.47938
   162  C   4.0   -0.09    4.10    3.81    69.08460    67.17976   189.99116
   163  C   4.0   -0.08    4.10    3.80    70.53213    70.39607   186.82398
   164  H   1.0    0.07    1.06    1.44    76.50367    65.74735   188.54930
   165  H   1.0    0.05    1.06    1.44    75.68730    70.77402   187.58365
   166  H   1.0    0.04    1.04    1.43    73.72766    67.24401   191.53884
   167  H   1.0    0.05    1.04    1.43    72.76579    70.47733   191.42168
   168  H   1.0    0.03    1.06    1.44    72.00612    66.72622   187.19058
   169  H   1.0    0.03    1.00    1.43    67.56715    66.68087   188.69103
   170  H   1.0    0.03    1.00    1.43    69.67986    65.51491   191.04940
   171  H   1.0    0.03    1.00    1.43    68.44209    68.64430   191.28940
   172  H   1.0    0.03    1.00    1.43    69.02224    69.78380   185.56353
   173  H   1.0    0.04    1.00    1.43    69.86506    71.92864   188.02773
   174  H   1.0    0.04    1.00    1.43    72.15541    71.02535   185.72227
   175  N   5.0   -0.13    3.50    2.08    78.48977    69.55136   193.02984
   176  C   4.0    0.05    4.48    4.50    79.93730    70.81181   194.99704
   177  C   4.0    0.17    3.55    3.14    82.16906    72.17808   193.85754
   178  O   6.0   -0.33    1.63    1.81    82.49032    74.32670   194.40745
   179  C   4.0   -0.04    4.25    4.10    80.77634    69.13751   197.21369
   180  C   4.0   -0.02    3.70    3.24    82.09914    70.75512   199.20357
   181  C   4.0   -0.01    3.59    3.16    81.00121    72.01557   201.17833
   182  C   4.0    0.00    3.93    3.50    84.71641    71.39952   199.26782
   183  N   5.0   -0.11    3.49    2.07    82.79645    73.33459   202.49736
   184  C   4.0    0.04    3.93    3.51    85.09058    72.99444   201.35219
   185  C   4.0   -0.05    3.44    3.09    86.77433    70.76457   197.78061
   186  C   4.0   -0.03    3.43    3.09    87.44329    73.94687   201.97958
   187  C   4.0   -0.05    3.40    3.08    89.10625    71.70376   198.42122
   188  C   4.0   -0.05    3.41    3.08    89.42561    73.27790   200.49425
   189  H   1.0    0.10    1.06    1.44    78.39339    67.62951   193.15456
   190  H   1.0    0.06    1.07    1.44    78.62961    72.14218   195.87009
   191  H   1.0    0.06    1.03    1.43    79.13227    68.24178   198.06974
   192  H   1.0    0.05    1.03    1.43    82.09158    67.70132   196.54284
   193  H   1.0    0.05    1.01    1.43    79.01133    71.97588   201.62998
   194  H   1.0    0.09    1.04    1.43    82.47520    74.39662   204.07339
   195  H   1.0    0.05    1.03    1.43    86.54945    69.55703   196.15166
   196  H   1.0    0.07    1.03    1.43    87.69273    75.17519   203.58963
   197  H   1.0    0.04    1.03    1.43    90.72763    71.20676   197.28739
   198  H   1.0    0.04    1.03    1.43    91.28888    73.98466   200.93456
   199  N   5.0   -0.13    3.47    2.06    83.60337    71.01590   192.16812
   200  C   4.0    0.04    4.37    4.33    85.85781    72.24044   191.12499
   201  C   4.0    0.17    3.38    3.07    85.33058    74.78024   189.74927
   202  O   6.0   -0.31    1.34    1.80    86.47764    75.32448   187.90301
   203  C   4.0   -0.03    4.26    4.13    87.29211    70.34316   189.43747
   204  C   4.0   -0.03    4.14    3.88    88.75476    68.26824   190.84153
   205  C   4.0    0.24    3.09    3.02    89.60891    66.04403   189.15023
   206  O   6.0   -0.32    1.25    1.80    88.97964    66.04214   186.88445
   207  O   6.0   -0.30    1.16    1.80    90.88448    64.22423   190.03651
   208  H   1.0    0.12    1.09    1.44    83.27077    69.24523   191.48215
   209  H   1.0    0.05    1.06    1.44    87.07290    72.78657   192.69724
   210  H   1.0    0.07    1.03    1.43    85.92584    69.40585   188.21293
   211  H   1.0    0.07    1.03    1.43    88.65460    71.39007   188.30174
   212  H   1.0    0.05    1.03    1.43    90.44417    69.10161   191.67490
   213  H   1.0    0.05    1.03    1.43    87.54722    67.49723   192.32119
   214  N   5.0   -0.13    3.51    2.08    83.58825    76.34682   190.62799
   215  C   4.0    0.04    4.36    4.30    83.55612    79.03212   189.90234
   216  C   4.0    0.14    3.29    3.05    82.55646    80.98421   191.99427
   217  O   6.0   -0.29    1.25    1.80    80.31524    81.73065   191.89789
   218  C   4.0   -0.01    4.28    4.15    82.04434    79.46676   187.37200
   219  C   4.0   -0.04    4.20    4.00    83.15361    78.25733   184.96071
   220  C   4.0   -0.07    4.15    3.91    81.77600    82.31079   186.87311
   221  C   4.0   -0.06    4.01    3.63    81.98765    75.81203   184.09143
   222  H   1.0    0.13    1.19    1.46    82.17662    75.83659   191.83742
   223  H   1.0    0.07    1.07    1.44    85.55923    79.46676   189.69825
   224  H   1.0    0.06    1.06    1.44    80.25099    78.51433   187.71404
   225  H   1.0    0.03    1.04    1.43    82.94007    79.60471   183.41680
   226  H   1.0    0.06    1.05    1.44    85.15105    77.88317   185.29897
   227  H   1.0    0.04    1.00    1.43    80.72909    82.58858   185.12133
   228  H   1.0    0.07    1.03    1.43    80.75933    83.17440   188.44347
   229  H   1.0    0.04    1.00    1.43    83.65250    83.14227   186.70870
   230  H   1.0    0.04    1.00    1.43    82.94952    75.18086   182.38312
   231  H   1.0    0.07    1.00    1.43    82.19930    74.40229   185.57865
   232  H   1.0    0.04    1.00    1.43    79.99021    76.12383   183.69837
   233  N   5.0   -0.13    3.36    2.00    84.02477    81.80246   193.92368
   234  C   4.0    0.03    4.38    4.35    86.30189    80.62894   195.12176
   235  C   4.0    0.15    3.38    3.07    88.64893    80.59303   193.55518
   236  O   6.0   -0.27    1.25    1.80    88.82846    82.08214   191.79396
   237  C   4.0   -0.03    4.40    4.37    85.76710    77.97009   196.14033
   238  C   4.0   -0.01    4.34    4.27    83.24999    77.72065   197.48392
   239  C   4.0    0.24    3.18    3.03    83.15928    79.25700   199.81017
   240  O   6.0   -0.30    1.22    1.80    85.20585    79.84659   200.82685
   241  O   6.0   -0.28    1.19    1.80    81.02389    79.86549   200.58118
   242  H   1.0    0.09    1.06    1.44    83.65439    83.47108   194.81374
   243  H   1.0    0.06    1.07    1.44    86.72330    81.87994   196.70346
   244  H   1.0    0.06    1.06    1.44    85.76899    76.64539   194.56240
   245  H   1.0    0.05    1.04    1.43    87.24676    77.46743   197.48203
   246  H   1.0    0.07    1.05    1.44    81.74577    78.35938   196.23103
   247  H   1.0    0.07    1.06    1.44    82.94763    75.74966   197.99982
   248  N   5.0   -0.14    3.40    2.02    90.47063    78.97165   194.24304
   249  C   4.0    0.05    4.37    4.33    92.74775    78.41985   192.65756
   250  C   4.0    0.18    3.52    3.12    92.30177    77.66585   189.86644
   251  O   6.0   -0.28    1.34    1.80    91.85391    75.53802   189.26550
   252  C   4.0   -0.03    4.31    4.22    94.35591    76.34115   193.90478
   253  C   4.0    0.17    3.25    3.04    96.70862    75.70053   192.38166
   254  O   6.0   -0.27    1.28    1.80    97.20561    76.82492   190.38233
   255  N   5.0   -0.18    3.17    1.95    98.15426    73.88451   193.30196
   256  H   1.0    0.07    1.06    1.44    90.45173    77.98521   195.89844
   257  H   1.0    0.07    1.06    1.44    93.72474    80.23209   192.56307
   258  H   1.0    0.04    1.03    1.43    94.95684    76.98177   195.76805
   259  H   1.0    0.05    1.03    1.43    93.22396    74.62906   194.08052
   260  H   1.0    0.09    1.02    1.43    99.76052    73.36483   192.37032
   261  H   1.0    0.08    1.03    1.43    97.66482    73.00200   194.94413
   262  N   5.0   -0.12    3.65    2.21    92.60224    79.38928   188.15812
   263  C   4.0    0.05    4.60    4.66    91.74242    78.82236   185.68069
   264  C   4.0    0.14    3.56    3.14    93.76820    78.45575   183.74183
   265  O   6.0   -0.32    1.27    1.80    93.13703    77.59971   181.67258
   266  C   4.0   -0.03    4.42    4.42    89.96796    80.84815   184.83032
   267  C   4.0    0.15    3.34    3.06    91.01487    83.38794   185.30842
   268  O   6.0   -0.29    1.33    1.80    91.69706    83.94919   187.45326
   269  N   5.0   -0.19    3.19    1.95    91.31156    84.89216   183.32798
   270  H   1.0    0.11    1.12    1.45    93.40159    81.12405   188.42268
   271  H   1.0    0.08    1.11    1.45    90.81267    76.98744   185.79975
   272  H   1.0    0.04    1.05    1.44    89.63159    80.65539   182.80642
   273  H   1.0    0.05    1.04    1.43    88.19162    80.67429   185.85833
   274  H   1.0    0.09    1.02    1.43    92.02776    86.66661   183.56420
   275  H   1.0    0.07    1.03    1.43    90.82212    84.27611   181.56865
   276  N   5.0   -0.09    3.73    2.31    96.15304    79.25700   184.26907
   277  C   4.0    0.04    4.74    4.80    97.99741    78.19308   182.60989
   278  C   4.0    0.16    3.47    3.10    99.37880    76.23910   184.12356
   279  O   6.0   -0.31    1.25    1.80   101.54064    76.62272   184.86433
   280  C   4.0   -0.04    4.38    4.34    99.59990    80.47587   181.80297
   281  C   4.0   -0.04    4.34    4.26    99.46384    82.24465   183.96860
   282  C   4.0   -0.00    4.39    4.36    97.30010    81.39239   185.65802
   283  H   1.0    0.05    1.11    1.45    97.26797    77.41073   180.84866
   284  H   1.0    0.06    1.03    1.43   101.54064    79.88439   181.45338
   285  H   1.0    0.04    1.03    1.43    98.80621    81.32625   180.10411
   286  H   1.0    0.05    1.06    1.44   101.24396    82.18796   185.00417
   287  H   1.0    0.04    1.03    1.43    99.11613    84.14950   183.26751
   288  H   1.0    0.06    1.07    1.44    98.00875    80.77067   187.48916
   289  H   1.0    0.06    1.02    1.43    95.93383    82.91173   185.91124
   290  N   5.0   -0.11    3.52    2.09    98.01253    74.18875   184.65835
   291  C   4.0    0.04    4.49    4.53    99.10857    71.95321   185.82998
   292  C   4.0    0.15    3.54    3.13   100.60712    70.66252   183.82498
   293  O   6.0   -0.32    1.58    1.80    99.99674    70.81181   181.60266
   294  C   4.0    0.05    4.25    4.11    97.11113    69.98600   186.65579
   295  O   6.0   -0.23    2.10    1.84    95.15526    71.20676   188.03907
   296  C   4.0   -0.07    4.07    3.75    98.27520    67.85250   188.26017
   297  H   1.0    0.10    1.06    1.44    96.12658    74.02246   184.29741
   298  H   1.0    0.05    1.05    1.44   100.17626    72.53146   187.49483
   299  H   1.0    0.05    1.05    1.44    96.31933    69.10728   184.97016
   300  H   1.0    0.12    1.01    1.43    93.88347    69.96710   188.56630
   301  H   1.0    0.05    1.00    1.43    96.81633    66.50513   188.80630
   302  H   1.0    0.06    1.02    1.43    99.72273    66.86606   187.17736
   303  H   1.0    0.05    1.00    1.43    99.13124    68.63674   189.96092
   304  N   5.0   -0.14    3.57    2.13   102.50440    69.29625   184.65268
   305  C   4.0    0.03    4.49    4.52   103.86879    67.61250   183.01429
   306  C   4.0    0.13    3.40    3.08   103.39069    64.92909   183.97994
   307  O   6.0   -0.31    1.22    1.80   103.07510    64.49824   186.32698
   308  C   4.0   -0.02    4.24    4.09   106.72416    68.31926   182.97083
   309  C   4.0   -0.08    4.09    3.79   107.18337    70.53402   181.17559
   310  C   4.0   -0.08    4.11    3.83   107.75217    68.96366   185.61266
   311  H   1.0    0.08    1.07    1.44   103.14313    69.31893   186.47060
   312  H   1.0    0.05    1.07    1.44   103.18849    67.71644   181.07354
   313  H   1.0    0.04    1.06    1.44   107.75406    66.66575   182.30186
   314  H   1.0    0.03    1.00    1.43   109.19214    70.99322   181.17748
   315  H   1.0    0.04    1.00    1.43   106.58810    69.99545   179.27830
   316  H   1.0    0.05    1.00    1.43   106.09110    72.15730   181.81998
   317  H   1.0    0.03    1.00    1.43   109.74961    69.43987   185.45770
   318  H   1.0    0.04    1.00    1.43   106.70527    70.56804   186.36666
   319  H   1.0    0.05    1.00    1.43   107.51407    67.32905   186.84287
   320  N   5.0   -0.14    3.44    2.04   103.21494    63.14708   182.20549
   321  C   4.0    0.03    4.45    4.46   103.93682    60.50902   182.80642
   322  C   4.0    0.25    3.30    3.05   104.31287    59.16165   180.41403
   323  O   6.0   -0.30    1.28    1.80   103.11668    59.89486   178.59989
   324  C   4.0   -0.03    4.34    4.27   101.96772    59.08228   184.34466
   325  C   4.0   -0.05    4.23    4.07   103.18849    57.33429   186.24572
   326  C   4.0   -0.05    4.22    4.04   101.42915    55.28393   187.10177
   327  C   4.0   -0.04    4.17    3.94   100.82255    53.48680   184.94370
   328  N   5.0   -0.13    4.02    2.92    99.61690    51.19835   185.99628
   329  O   6.0   -0.31    1.21    1.80   105.79253    57.37019   180.30820
   330  H   1.0    0.09    1.07    1.44   102.60645    63.43810   180.40080
   331  H   1.0    0.04    1.07    1.44   105.63757    60.55627   183.96671
   332  H   1.0    0.06    1.03    1.43   100.79231    60.43155   185.36511
   333  H   1.0    0.05    1.05    1.44   100.80365    57.95034   183.07665
   334  H   1.0    0.04    1.04    1.43   104.83633    56.44611   185.38778
   335  H   1.0    0.04    1.03    1.43   103.75540    58.42277   187.89923
   336  H   1.0    0.03    1.03    1.43   102.31543    54.20679   188.61922
   337  H   1.0    0.04    1.03    1.43    99.66982    56.12297   187.76695
   338  H   1.0    0.05    1.02    1.43    99.52242    54.38442   183.62278
   339  H   1.0    0.04    1.02    1.43   102.55543    52.94634   183.96860
   340  H   1.0    0.04    1.01    1.43    99.18605    49.93979   184.54875
   341  H   1.0    0.04    1.02    1.43   100.83389    50.31962   187.26428
   342  H   1.0    0.05    1.02    1.43    97.95961    51.68211   186.93547
   343  N   5.0   -0.20    3.20    1.95   106.65093    83.57401   174.28187
   344  C   4.0    0.02    4.32    4.24   106.06455    85.48365   176.23206
   345  C   4.0    0.14    3.45    3.09   106.85664    84.44808   178.79831
   346  O   6.0   -0.30    1.25    1.80   106.56116    82.20531   179.20649
   347  C   4.0   -0.05    4.30    4.20   103.26941    86.22459   176.26986
   348  C   4.0   -0.05    4.04    3.69   102.83401    88.98535   175.56310
   349  S   6.0   -0.07    2.43    3.10    99.60362    90.14779   175.81443
   350  C   4.0   -0.08    3.87    3.42    97.83430    88.17551   173.68660
   351  H   1.0    0.07    1.02    1.43   105.11206    82.66227   173.56188
   352  H   1.0    0.02    1.07    1.44   107.09046    87.21524   175.79365
   353  H   1.0    0.04    1.03    1.43   102.24739    85.05155   174.91870
   354  H   1.0    0.05    1.04    1.43   102.52342    85.92648   178.16714
   355  H   1.0    0.03    1.07    1.44   103.99290    90.15356   176.80276
   356  H   1.0    0.03    1.07    1.44   103.41600    89.24504   173.60345
   357  H   1.0    0.03    1.04    1.43    95.85647    88.75225   173.72440
   358  H   1.0    0.03    1.04    1.43    98.59236    88.39246   171.78365
   359  H   1.0    0.03    1.04    1.43    98.00441    86.21381   174.29131
   360  N   5.0   -0.09    3.64    2.20   107.90612    86.05042   180.49717
   361  C   4.0    0.03    4.57    4.63   108.96670    85.14351   182.92169
   362  C   4.0    0.14    3.43    3.09   107.04073    85.25827   185.05141
   363  O   6.0   -0.31    1.29    1.80   105.03746    86.38431   184.69615
   364  C   4.0   -0.06    4.36    4.31   111.10370    86.99297   183.40168
   365  C   4.0   -0.05    4.31    4.21   110.08769    89.43215   182.35477
   366  C   4.0   -0.02    4.32    4.23   108.23954    88.81244   180.25151
   367  H   1.0    0.04    1.05    1.44   109.69134    83.22388   182.74217
   368  H   1.0    0.03    1.03    1.43   111.48432    87.14200   185.41991
   369  H   1.0    0.03    1.02    1.43   112.80534    86.39894   182.40580
   370  H   1.0    0.04    1.03    1.43   109.13102    90.46235   183.85900
   371  H   1.0    0.02    1.03    1.43   111.65256    90.55144   181.61778
   372  H   1.0    0.04    1.02    1.43   106.45128    89.79688   180.53119
   373  H   1.0    0.02    1.02    1.43   109.02973    89.29669   178.41281
   374  N   5.0   -0.15    3.40    2.02   107.48248    84.02784   187.19247
   375  C   4.0    0.03    4.48    4.51   105.40508    83.72160   189.00283
   376  C   4.0    0.15    3.37    3.07   105.85557    84.61146   191.71270
   377  O   6.0   -0.29    1.21    1.80   107.10709    83.31719   193.18668
   378  C   4.0   -0.03    4.30    4.19   104.51665    80.96580   189.02929
   379  C   4.0   -0.03    4.29    4.18   101.66244    80.65200   189.08598
   380  C   4.0    0.25    3.15    3.03   100.56461    81.03707   191.70514
   381  O   6.0   -0.29    1.18    1.80    98.39299    81.93955   191.89600
   382  O   6.0   -0.27    1.20    1.80   101.87737    80.43844   193.57408
   383  H   1.0    0.07    1.05    1.44   109.17184    83.25760   187.70837
   384  H   1.0    0.05    1.15    1.45   103.98919    85.05621   188.32820
   385  H   1.0    0.05    1.03    1.43   105.21497    80.03238   187.33042
   386  H   1.0    0.07    1.05    1.44   105.27995    80.04287   190.70547
   387  H   1.0    0.04    1.11    1.45   100.80769    82.04013   187.82553
   388  H   1.0    0.08    1.04    1.43   101.18236    78.74710   188.46615
   389  N   5.0   -0.13    3.41    2.02   104.74263    86.76182   192.40245
   390  C   4.0    0.02    4.31    4.22   103.48816    88.50075   190.58075
   391  C   4.0    0.25    3.20    3.04   103.67280    91.22429   191.54829
   392  O   6.0   -0.28    1.21    1.80   103.97281    91.69479   193.82919
   393  C   4.0   -0.06    4.09    3.78   100.71120    87.79540   190.15178
   394  O   6.0   -0.30    1.19    1.80   103.52297    93.00190   190.05541
   395  H   1.0    0.11    1.06    1.44   104.66080    87.38732   194.22414
   396  H   1.0    0.06    1.07    1.44   104.43604    88.33972   188.75906
   397  H   1.0    0.05    1.00    1.43    99.88313    89.12014   188.81008
   398  H   1.0    0.05    1.00    1.43   100.61408    85.88107   189.39967
   399  H   1.0    0.06    1.00    1.43    99.70891    87.89620   191.94891
   400  N   5.0   -0.19    3.21    1.96   111.85529    89.81033   197.40455
   401  C   4.0    0.03    4.27    4.14   111.94035    88.43452   194.96681
   402  C   4.0    0.14    3.38    3.07   114.54074    87.07283   194.89689
   403  O   6.0   -0.30    1.25    1.80   116.00276    87.25431   196.73181
   404  C   4.0    0.04    4.16    3.92   111.58687    90.27515   192.66512
   405  O   6.0   -0.24    2.09    1.84   109.48751    91.93018   193.11298
   406  C   4.0   -0.08    4.05    3.70   111.11055    88.89833   190.12911
   407  H   1.0    0.10    1.04    1.43   113.61669    90.26846   198.03950
   408  H   1.0    0.06    1.05    1.44   110.41883    87.05017   194.86287
   409  H   1.0    0.03    1.04    1.43   113.34765    91.32935   192.47993
   410  H   1.0    0.12    1.01    1.43   109.26854    93.07781   191.67679
   411  H   1.0    0.04    1.00    1.43   110.88158    90.27431   188.61355
   412  H   1.0    0.03    1.01    1.43   112.70388    87.67075   189.68313
   413  H   1.0    0.05    1.00    1.43   109.40118    87.75554   190.25761
   414  N   5.0   -0.15    3.41    2.02   115.09286    85.67831   192.85787
   415  C   4.0    0.03    4.23    4.06   117.71028    84.98105   192.22859
   416  C   4.0    0.08    3.21    3.04   119.35344    87.36221   191.92813
   417  O   6.0   -0.31    1.11    1.80   121.65449    87.20547   192.26261
   418  C   4.0   -0.08    4.09    3.79   117.80628    83.37854   189.83620
   419  H   1.0    0.07    1.06    1.44   113.78593    85.00579   191.61065
   420  H   1.0    0.05    1.06    1.44   118.47911    83.82582   193.75171
   421  H   1.0    0.04    1.00    1.43   119.76695    82.89681   189.42991
   422  H   1.0    0.04    1.00    1.43   116.71011    81.66133   190.13478
   423  H   1.0    0.03    1.00    1.43   117.00923    84.45843   188.27340
   424  N   5.0   -0.23    3.14    1.94    88.02532    73.87884   214.50846
   425  C   4.0    0.00    4.17    3.94    86.40016    73.66908   212.30693
   426  C   4.0    0.14    3.30    3.05    87.52833    72.17241   210.16965
   427  O   6.0   -0.31    1.22    1.80    86.75732    72.54847   208.00214
   428  H   1.0    0.07    1.02    1.43    89.18373    75.41896   214.47067
   429  H   1.0    0.03    1.03    1.43    84.64083    72.75445   212.86251
   430  H   1.0    0.04    1.03    1.43    85.98064    75.55880   211.60395
   431  N   5.0   -0.13    3.48    2.07    89.33113    70.49056   210.76680
   432  C   4.0    0.03    4.43    4.42    90.62559    68.91831   208.89031
   433  C   4.0    0.16    3.56    3.14    88.94562    66.71111   208.31205
   434  O   6.0   -0.29    1.29    1.80    87.79856    65.71333   210.03170
   435  C   4.0   -0.05    4.29    4.17    93.10491    67.82037   209.93155
   436  C   4.0   -0.06    4.16    3.93    95.15715    69.71199   210.66665
   437  C   4.0   -0.06    4.17    3.95    95.89603    71.48266   208.49913
   438  C   4.0   -0.04    4.13    3.87    94.67716    74.07915   208.77125
   439  N   5.0   -0.12    4.00    2.87    94.69417    75.50967   206.36374
   440  H   1.0    0.07    1.06    1.44    89.94529    70.17119   212.56582
   441  H   1.0    0.04    1.06    1.44    91.04889    70.05214   207.22357
   442  H   1.0    0.05    1.03    1.43    92.65893    66.73000   211.62096
   443  H   1.0    0.04    1.03    1.43    93.90993    66.58827   208.49157
   444  H   1.0    0.03    1.03    1.43    94.47307    70.87039   212.22567
   445  H   1.0    0.03    1.03    1.43    96.84279    68.68020   211.24490
   446  H   1.0    0.03    1.03    1.43    97.94072    71.72833   208.48968
   447  H   1.0    0.04    1.03    1.43    95.27809    70.66441   206.71334
   448  H   1.0    0.04    1.03    1.43    92.71940    73.84860   209.36652
   449  H   1.0    0.03    1.02    1.43    95.71651    75.17141   210.17532
   450  H   1.0    0.05    1.01    1.43    93.84946    77.26522   206.61886
   451  H   1.0    0.05    1.02    1.43    96.54232    75.77423   205.75147
   452  H   1.0    0.05    1.02    1.43    93.70206    74.51945   204.98613
   453  N   5.0   -0.09    3.64    2.20    88.80200    65.90041   205.90832
   454  C   4.0    0.03    4.49    4.53    87.36581    63.54770   205.42455
   455  C   4.0    0.07    3.19    3.03    88.42784    61.23846   206.82106
   456  O   6.0   -0.29    1.15    1.80    90.36481    61.46523   208.12308
   457  C   4.0   -0.05    4.35    4.28    87.47163    63.29637   202.55595
   458  C   4.0   -0.04    4.30    4.20    87.55100    65.99868   201.67344
   459  C   4.0   -0.02    4.33    4.25    89.20829    67.35361   203.55750
   460  H   1.0    0.04    1.05    1.44    85.40616    63.76880   206.01981
   461  H   1.0    0.04    1.03    1.43    89.16483    62.27025   201.98714
   462  H   1.0    0.03    1.02    1.43    85.79356    62.32694   201.85864
   463  H   1.0    0.04    1.03    1.43    88.35981    66.09317   199.78183
   464  H   1.0    0.04    1.03    1.43    85.64805    66.78858   201.66588
   465  H   1.0    0.04    1.02    1.43    91.18495    67.28369   202.98302
   466  H   1.0    0.05    1.02    1.43    88.60925    69.31137   203.78994
   467  N   5.0   -0.22    3.16    1.95    76.64162    59.82116   206.20690
   468  C   4.0    0.03    4.16    3.93    76.80035    61.76191   204.21701
   469  C   4.0    0.08    3.18    3.03    74.21899    62.55182   203.17389
   470  O   6.0   -0.28    1.12    1.80    74.06403    64.14675   201.46179
   471  C   4.0    0.03    4.13    3.86    78.55402    60.91343   202.04194
   472  O   6.0   -0.23    2.03    1.83    77.49010    58.91221   200.60386
   473  H   1.0    0.08    1.02    1.43    77.42396    58.12230   205.74391
   474  H   1.0    0.03    1.06    1.44    77.66585    63.43243   205.05416
   475  H   1.0    0.05    1.01    1.43    78.88094    62.51969   200.79472
   476  H   1.0    0.03    1.01    1.43    80.33792    60.27092   202.84696
   477  H   1.0    0.12    1.03    1.43    78.65039    58.42277   199.24515
   478  N   5.0   -0.22    3.20    1.96    72.72799    67.40275   208.76936
   479  C   4.0    0.03    4.25    4.09    74.20009    69.60239   207.97190
   480  C   4.0    0.08    3.27    3.05    72.79602    70.96677   205.96879
   481  O   6.0   -0.30    1.13    1.80    72.67697    73.27979   206.01603
   482  C   4.0   -0.05    4.39    4.36    76.76445    68.87862   206.90043
   483  C   4.0   -0.03    4.18    3.96    78.88850    68.18131   208.73724
   484  C   4.0   -0.08    4.10    3.81    81.12971    67.17976   207.22546
   485  C   4.0   -0.08    4.10    3.80    79.68218    70.39607   210.39264
   486  H   1.0    0.07    1.03    1.43    73.71065    65.74735   208.66732
   487  H   1.0    0.04    1.06    1.44    74.52701    70.77402   209.63297
   488  H   1.0    0.04    1.04    1.43    76.48666    67.24401   205.67777
   489  H   1.0    0.05    1.04    1.43    77.44853    70.47733   205.79494
   490  H   1.0    0.03    1.06    1.44    78.20820    66.72622   210.02603
   491  H   1.0    0.05    1.00    1.43    82.64716    66.68087   208.52559
   492  H   1.0    0.03    1.00    1.43    80.53445    65.51491   206.16721
   493  H   1.0    0.05    1.00    1.43    81.77222    68.64430   205.92722
   494  H   1.0    0.04    1.00    1.43    81.19208    69.78380   211.65309
   495  H   1.0    0.05    1.00    1.43    80.34926    71.92864   209.18888
   496  H   1.0    0.03    1.00    1.43    78.05891    71.02535   211.49435
   497  H   1.0    0.08    1.08    1.44    85.97236    83.43949   171.98899
   498  H   1.0    0.04    1.04    1.44    79.44269    79.90838   171.64574
   499  H   1.0    0.07    1.11    1.45    73.83093    67.54447   175.98028
   500  H   1.0    0.04    1.05    1.44    80.14258    70.45044   175.34389
   501  H   1.0    0.08    1.08    1.44    85.50611    73.76688   173.95339
   502  H   1.0    0.04    1.04    1.43    88.79643    76.15406   167.44587
   503  H   1.0    0.09    1.07    1.44    86.99798    65.09115   177.54342
   504  H   1.0    0.06    1.05    1.44    86.36120    56.77657   183.44960
   505  H   1.0    0.09    1.08    1.44    89.35485    56.25349   178.86893
   506  H   1.0    0.04    1.04    1.44    91.45116    56.22776   174.98092
   507  H   1.0    0.09    1.07    1.44    73.33466    82.62153   171.29754
   508  H   1.0    0.04    1.05    1.44    71.85294    86.38779   176.76631
   509  H   1.0    0.08    1.07    1.44    72.76462    60.36867   189.61695
   510  H   1.0    0.07    1.07    1.44   107.43672    84.32261   172.97240
   511  H   1.0    0.10    1.08    1.44   110.97026    91.25002   197.21335
   512  H   1.0    0.04    1.04    1.43   118.55283    89.01066   191.46695
   513  H   1.0    0.08    1.07    1.44    87.06968    73.99816   215.91027
   514  H   1.0    0.04    1.04    1.43    87.55965    59.56607   206.67806
   515  H   1.0    0.08    1.07    1.44    77.44970    60.36867   207.59966
   516  H   1.0    0.05    1.04    1.43    72.64144    61.78096   203.87259
   517  H   1.0    0.08    1.07    1.44    72.23452    67.60503   210.38433
   518  H   1.0    0.06    1.05    1.44    71.94879    70.00051   204.58329

  Z AO/shell   Hii/eV     exponent
  1     Wed Apr 25 08:07:45 CEST 2018   EN: 2.200 GM2: 0.406  GM3: 0.0800  RAES: 1.40
     1s    -10.707211    1.230000
  6     Wed Apr 25 08:07:45 CEST 2018   EN: 2.550 GM2: 0.538  GM3: 0.1500  RAES: 3.00
     2s    -13.970922    2.096432
     2p    -10.063292    1.800000
  7     Wed Apr 25 08:07:45 CEST 2018   EN: 3.040 GM2: 0.461  GM3:-0.0640  RAES: 1.90
     2s    -16.686243    2.339881
     2p    -12.523956    2.014332
  8     Wed Apr 25 08:07:45 CEST 2018   EN: 3.440 GM2: 0.452  GM3:-0.0517  RAES: 1.80
     2s    -20.229985    2.439742
     2p    -15.503117    2.137023
 16     Tue Apr 24 11:44:34 CEST 2018   EN: 2.580 GM2: 0.340  GM3:-0.0502  RAES: 3.10
     3s    -20.029654    1.981333
     3p    -11.377694    2.025643
     3d     -0.420282    1.702555
 no old-style atom pair restraining (fixing) potential

molecular fragmentation (1/2 indicates fragments):
111111111111111111122222222222222222222222222222222222222222222222222222
222222222222222222222222222222222222222222222222222222222222222222222222
222222222222222222222222222222222222222222222222222222222222222222222222
222222222222222222222222222222222222222222222222222222222222222222222222
222222222222222222222222222222222222222222222222222222222222222222222222
222222222222222222222222222222222222222222222222222222222222222222222222
222222222222222222222222222222222222222222222222222222222222222211222222
22222222222222
# atoms in fragment 1/2:    21   497
 fragment masses (1/2) :      115.17     3490.00
CMA distance (Bohr)    :  19.174
constraining FC (au)   :  0.0500
           ------------------------------------------------- 
          |        Self-Consistent Charge Iterations        |
           ------------------------------------------------- 

 Ncao       : 1283
 Nao        : 1282
 Nshell     : 772
 Nel        : 1422
 T(el)      :   500.0
 intcut     :    35.0
 scfconv/Eh :  0.100E-06
   qconv/e  :  0.100E-04
 intneglect :  0.100E-08
 broydamp   :      0.400
 iter      E             dE          RMSdq      gap      omega  full diag
   1   -813.5062311 -0.813506E+03  0.474E+00    3.06       0.0  T
   2   -815.6782910 -0.217206E+01  0.221E+00    1.62       1.0  T
   3   -815.8219787 -0.143688E+00  0.127E+00    1.88       1.0  T
   4   -815.9551593 -0.133181E+00  0.277E-01    1.05       1.0  T
   5   -815.9644673 -0.930799E-02  0.137E-01    1.21       1.0  T
   6   -815.9659137 -0.144640E-02  0.622E-02    1.26       1.0  T
   7   -815.9664494 -0.535750E-03  0.295E-02    1.29       1.0  T
   8   -815.9665674 -0.117979E-03  0.155E-02    1.32       1.0  T
   9   -815.9666046 -0.372662E-04  0.725E-03    1.33       1.0  T
  10   -815.9666115 -0.681898E-05  0.374E-03    1.33       1.2  T
  11   -815.9666133 -0.180528E-05  0.172E-03    1.33       2.5  T
  12   -815.9666137 -0.462665E-06  0.887E-04    1.33       5.0  T
  13   -815.9666138 -0.102627E-06  0.411E-04    1.33      10.7  T
  14   -815.9666139 -0.183210E-07  0.187E-04    1.33      23.5  T
  15   -815.9666139 -0.501552E-08  0.773E-05    1.33      56.9  T
  16   -815.9666139 -0.654609E-09  0.395E-05    1.33     111.3  T
speedup  1.96
cpu  time for SCC   38.69 s
wall time for SCC   19.76 s

   *** convergence criteria satisfied after 16 iterations ***

          eigenvalues
 #    :         699        700        701        702        703        704        705        706
 occ. :        2.000      2.000      2.000      2.000      2.000      2.000      2.000      2.000
 eps  :        -9.986     -9.978     -9.976     -9.944     -9.934     -9.887     -9.875     -9.818
 #    :         707        708        709        710        711        712        713        714
 occ. :        2.000      2.000      2.000      2.000      2.000      0.000      0.000      0.000
 eps  :        -9.676     -9.652     -9.558     -9.553     -9.444     -8.111     -8.066     -7.955
 #    :         715        716        717        718        719        720        721        722
 occ. :        0.000      0.000      0.000      0.000      0.000      0.000      0.000      0.000
 eps  :        -7.935     -7.855     -7.791     -7.716     -7.709     -7.681     -7.620     -7.029


   #   Z            q   n(s)   n(p)   n(d)      C6AA      α(0)
   1   7 N     -0.377  1.318  4.059  0.000    29.741     8.099
   2   6 C      0.040  1.048  2.911  0.000    19.913     6.356
   3   6 C      0.193  1.091  2.716  0.000    23.878     8.003
   4   8 O     -0.368  1.760  4.608  0.000    21.045     6.151
   5   6 C     -0.068  1.055  3.013  0.000    21.784     6.642
   6   6 C     -0.013  1.050  2.963  0.000    20.778     6.483
   7   6 C     -0.116  1.043  3.073  0.000    22.759     6.801
   8   6 C     -0.122  1.043  3.080  0.000    22.881     6.818
   9   1 H      0.164  0.836  0.000  0.000     1.309     1.792
  10   1 H      0.054  0.946  0.000  0.000     2.265     2.354
  11   1 H      0.039  0.961  0.000  0.000     2.463     2.454
  12   1 H      0.039  0.961  0.000  0.000     2.461     2.453
  13   1 H      0.043  0.957  0.000  0.000     2.404     2.425
  14   1 H      0.034  0.966  0.000  0.000     2.530     2.487
  15   1 H      0.039  0.961  0.000  0.000     2.463     2.454
  16   1 H      0.034  0.966  0.000  0.000     2.531     2.488
  17   1 H      0.035  0.965  0.000  0.000     2.519     2.482
  18   1 H      0.041  0.959  0.000  0.000     2.437     2.441
  19   1 H      0.057  0.943  0.000  0.000     2.233     2.337
  20   7 N     -0.284  1.295  3.990  0.000    27.328     7.764
  21   6 C      0.032  1.055  2.913  0.000    20.021     6.368
  22   6 C      0.201  1.080  2.719  0.000    23.724     7.977
  23   8 O     -0.363  1.757  4.606  0.000    20.956     6.138
  24   6 C     -0.047  1.048  3.000  0.000    21.390     6.579
  25   6 C     -0.051  1.041  3.011  0.000    21.469     6.592
  26   6 C      0.008  1.048  2.945  0.000    20.487     6.451
  27   1 H      0.043  0.957  0.000  0.000     2.404     2.424
  28   1 H      0.023  0.977  0.000  0.000     2.691     2.565
  29   1 H      0.050  0.950  0.000  0.000     2.319     2.382
  30   1 H      0.031  0.969  0.000  0.000     2.572     2.508
  31   1 H      0.030  0.970  0.000  0.000     2.589     2.516
  32   1 H      0.050  0.950  0.000  0.000     2.321     2.383
  33   1 H      0.034  0.966  0.000  0.000     2.534     2.489
  34   7 N     -0.377  1.322  4.055  0.000    29.745     8.100
  35   6 C      0.034  1.053  2.913  0.000    20.016     6.372
  36   6 C      0.195  1.088  2.717  0.000    23.833     7.996
  37   8 O     -0.372  1.764  4.607  0.000    21.122     6.162
  38   6 C     -0.084  1.057  3.027  0.000    22.089     6.689
  39   6 C     -0.076  1.046  3.030  0.000    21.940     6.666
  40   6 C     -0.028  1.047  2.981  0.000    21.130     6.556
  41   7 N     -0.149  1.211  3.938  0.000    24.228     7.310
  42   6 C      0.236  1.009  2.755  0.000    23.052     7.861
  43   7 N     -0.246  1.223  4.023  0.000    26.411     7.633
  44   7 N     -0.301  1.263  4.039  0.000    27.764     7.826
  45   1 H      0.161  0.839  0.000  0.000     1.329     1.806
  46   1 H      0.067  0.933  0.000  0.000     2.122     2.278
  47   1 H      0.063  0.937  0.000  0.000     2.160     2.298
  48   1 H      0.068  0.932  0.000  0.000     2.110     2.272
  49   1 H      0.060  0.940  0.000  0.000     2.196     2.317
  50   1 H      0.067  0.933  0.000  0.000     2.121     2.278
  51   1 H      0.088  0.912  0.000  0.000     1.897     2.154
  52   1 H      0.081  0.919  0.000  0.000     1.966     2.193
  53   1 H      0.226  0.774  0.000  0.000     0.982     1.552
  54   1 H      0.242  0.758  0.000  0.000     0.914     1.498
  55   1 H      0.221  0.779  0.000  0.000     1.005     1.571
  56   1 H      0.233  0.767  0.000  0.000     0.951     1.527
  57   1 H      0.291  0.709  0.000  0.000     0.737     1.343
  58   7 N     -0.390  1.317  4.073  0.000    30.089     8.147
  59   6 C      0.057  1.040  2.903  0.000    19.628     6.308
  60   6 C      0.264  1.047  2.689  0.000    22.547     7.776
  61   8 O     -0.486  1.746  4.741  0.000    23.479     6.497
  62   6 C     -0.054  1.043  3.011  0.000    21.524     6.601
  63   6 C      0.015  1.081  2.904  0.000    27.676     8.629
  64   6 C     -0.036  1.083  2.953  0.000    28.893     8.815
  65   6 C     -0.046  1.080  2.965  0.000    29.136     8.852
  66   6 C     -0.025  1.081  2.944  0.000    28.634     8.775
  67   6 C     -0.040  1.079  2.962  0.000    29.002     8.831
  68   6 C     -0.039  1.084  2.956  0.000    28.977     8.827
  69   1 H      0.180  0.820  0.000  0.000     1.214     1.726
  70   1 H      0.016  0.984  0.000  0.000     2.790     2.612
  71   1 H      0.036  0.964  0.000  0.000     2.508     2.477
  72   1 H      0.027  0.973  0.000  0.000     2.632     2.537
  73   1 H      0.020  0.980  0.000  0.000     2.730     2.584
  74   1 H      0.031  0.969  0.000  0.000     2.572     2.508
  75   1 H      0.013  0.987  0.000  0.000     2.846     2.638
  76   1 H      0.049  0.951  0.000  0.000     2.333     2.388
  77   1 H      0.061  0.939  0.000  0.000     2.185     2.312
  78   7 N     -0.185  1.249  3.936  0.000    25.005     7.427
  79   6 C     -0.015  1.044  2.970  0.000    20.917     6.526
  80   6 C      0.206  1.080  2.714  0.000    23.626     7.960
  81   8 O     -0.335  1.742  4.593  0.000    20.431     6.060
  82   1 H      0.211  0.789  0.000  0.000     1.053     1.608
  83   1 H      0.071  0.929  0.000  0.000     2.077     2.254
  84   1 H      0.086  0.914  0.000  0.000     1.921     2.167
  85   7 N     -0.367  1.322  4.045  0.000    29.473     8.063
  86   6 C      0.039  1.051  2.910  0.000    19.936     6.360
  87   6 C      0.192  1.086  2.722  0.000    23.888     8.004
  88   8 O     -0.369  1.758  4.611  0.000    21.078     6.155
  89   6 C     -0.076  1.048  3.028  0.000    21.941     6.667
  90   6 C      0.058  1.065  2.877  0.000    26.589     8.451
  91   7 N     -0.290  1.455  3.834  0.000    28.314     7.892
  92   6 C     -0.023  1.051  2.972  0.000    28.528     8.760
  93   6 C      0.087  1.058  2.855  0.000    26.040     8.370
  94   7 N     -0.080  1.234  3.845  0.000    22.784     7.089
  95   1 H      0.136  0.864  0.000  0.000     1.502     1.920
  96   1 H      0.058  0.942  0.000  0.000     2.225     2.332
  97   1 H      0.090  0.910  0.000  0.000     1.875     2.141
  98   1 H      0.072  0.928  0.000  0.000     2.066     2.248
  99   1 H      0.006  0.994  0.000  0.000     2.961     2.691
 100   1 H      0.049  0.951  0.000  0.000     2.332     2.388
 101   1 H      0.154  0.846  0.000  0.000     1.374     1.836
 102   7 N     -0.388  1.322  4.065  0.000    30.028     8.138
 103   6 C      0.042  1.048  2.910  0.000    19.887     6.352
 104   6 C      0.209  1.085  2.706  0.000    23.569     7.951
 105   8 O     -0.379  1.758  4.622  0.000    21.268     6.183
 106   6 C     -0.075  1.057  3.018  0.000    21.923     6.664
 107   6 C     -0.006  1.079  2.928  0.000    28.176     8.707
 108   6 C     -0.043  1.085  2.958  0.000    29.072     8.842
 109   6 C     -0.045  1.082  2.963  0.000    29.119     8.850
 110   6 C     -0.058  1.075  2.983  0.000    29.431     8.896
 111   6 C     -0.072  1.079  2.994  0.000    29.806     8.953
 112   6 C      0.146  1.048  2.806  0.000    24.820     8.165
 113   8 O     -0.449  1.732  4.717  0.000    21.823     6.306
 114   1 H      0.174  0.826  0.000  0.000     1.250     1.752
 115   1 H      0.058  0.942  0.000  0.000     2.225     2.333
 116   1 H      0.059  0.941  0.000  0.000     2.212     2.326
 117   1 H      0.055  0.945  0.000  0.000     2.256     2.349
 118   1 H      0.051  0.949  0.000  0.000     2.310     2.377
 119   1 H      0.047  0.953  0.000  0.000     2.363     2.404
 120   1 H      0.043  0.957  0.000  0.000     2.415     2.430
 121   1 H      0.037  0.963  0.000  0.000     2.493     2.469
 122   1 H      0.330  0.670  0.000  0.000     0.637     1.254
 123   7 N     -0.396  1.327  4.070  0.000    30.276     8.172
 124   6 C      0.029  1.063  2.909  0.000    20.106     6.387
 125   6 C      0.271  1.046  2.682  0.000    22.413     7.752
 126   8 O     -0.515  1.760  4.755  0.000    24.116     6.584
 127   6 C      0.087  1.037  2.875  0.000    19.349     6.303
 128   8 O     -0.496  1.745  4.750  0.000    22.802     6.446
 129   1 H      0.171  0.829  0.000  0.000     1.265     1.762
 130   1 H      0.046  0.954  0.000  0.000     2.369     2.407
 131   1 H      0.035  0.965  0.000  0.000     2.513     2.479
 132   1 H      0.043  0.957  0.000  0.000     2.405     2.425
 133   1 H      0.337  0.663  0.000  0.000     0.620     1.237
 134   7 N     -0.182  1.248  3.934  0.000    24.934     7.416
 135   6 C      0.025  1.059  2.916  0.000    20.160     6.395
 136   6 C      0.275  1.040  2.685  0.000    22.351     7.742
 137   8 O     -0.485  1.743  4.742  0.000    23.459     6.494
 138   6 C     -0.063  1.055  3.007  0.000    21.705     6.633
 139   6 C     -0.094  1.070  3.024  0.000    22.297     6.724
 140   6 C      0.359  1.031  2.610  0.000    20.910     7.483
 141   8 O     -0.619  1.769  4.851  0.000    26.600     6.915
 142   8 O     -0.646  1.776  4.869  0.000    27.269     7.001
 143   1 H      0.236  0.764  0.000  0.000     0.941     1.520
 144   1 H      0.065  0.935  0.000  0.000     2.141     2.288
 145   1 H      0.050  0.950  0.000  0.000     2.319     2.381
 146   1 H      0.050  0.950  0.000  0.000     2.322     2.383
 147   1 H      0.049  0.951  0.000  0.000     2.331     2.388
 148   1 H      0.023  0.977  0.000  0.000     2.688     2.564
 149   7 N     -0.177  1.240  3.937  0.000    24.842     7.402
 150   6 C     -0.021  1.048  2.973  0.000    21.018     6.539
 151   6 C      0.280  1.037  2.683  0.000    22.258     7.725
 152   8 O     -0.496  1.775  4.721  0.000    23.693     6.526
 153   1 H      0.222  0.778  0.000  0.000     1.002     1.568
 154   1 H      0.078  0.922  0.000  0.000     1.996     2.209
 155   1 H      0.098  0.902  0.000  0.000     1.804     2.100
 156   7 N     -0.186  1.249  3.937  0.000    25.042     7.432
 157   6 C      0.026  1.054  2.920  0.000    20.138     6.389
 158   6 C      0.295  1.027  2.678  0.000    22.006     7.683
 159   8 O     -0.506  1.756  4.750  0.000    23.912     6.556
 160   6 C     -0.076  1.056  3.021  0.000    21.943     6.666
 161   6 C     -0.017  1.056  2.961  0.000    20.848     6.494
 162   6 C     -0.122  1.047  3.075  0.000    22.889     6.821
 163   6 C     -0.120  1.044  3.076  0.000    22.858     6.817
 164   1 H      0.213  0.787  0.000  0.000     1.042     1.599
 165   1 H      0.085  0.915  0.000  0.000     1.932     2.174
 166   1 H      0.042  0.958  0.000  0.000     2.426     2.436
 167   1 H      0.060  0.940  0.000  0.000     2.195     2.317
 168   1 H      0.039  0.961  0.000  0.000     2.461     2.453
 169   1 H      0.072  0.928  0.000  0.000     2.068     2.249
 170   1 H      0.034  0.966  0.000  0.000     2.530     2.488
 171   1 H      0.050  0.950  0.000  0.000     2.314     2.379
 172   1 H      0.068  0.932  0.000  0.000     2.105     2.269
 173   1 H      0.045  0.955  0.000  0.000     2.383     2.414
 174   1 H      0.034  0.966  0.000  0.000     2.534     2.489
 175   7 N     -0.187  1.244  3.943  0.000    25.048     7.433
 176   6 C      0.037  1.055  2.908  0.000    19.945     6.357
 177   6 C      0.300  1.021  2.678  0.000    21.904     7.664
 178   8 O     -0.466  1.730  4.735  0.000    23.033     6.435
 179   6 C     -0.067  1.051  3.016  0.000    21.786     6.645
 180   6 C     -0.042  1.070  2.972  0.000    28.977     8.828
 181   6 C      0.001  1.064  2.935  0.000    27.971     8.675
 182   6 C     -0.015  1.069  2.946  0.000    28.169     8.689
 183   7 N     -0.102  1.226  3.876  0.000    23.230     7.158
 184   6 C      0.060  1.058  2.882  0.000    26.545     8.443
 185   6 C     -0.040  1.074  2.967  0.000    29.003     8.831
 186   6 C     -0.045  1.070  2.976  0.000    29.125     8.850
 187   6 C     -0.053  1.072  2.981  0.000    29.312     8.879
 188   6 C     -0.053  1.071  2.982  0.000    29.327     8.881
 189   1 H      0.191  0.809  0.000  0.000     1.154     1.683
 190   1 H      0.057  0.943  0.000  0.000     2.237     2.339
 191   1 H      0.060  0.940  0.000  0.000     2.195     2.317
 192   1 H      0.047  0.953  0.000  0.000     2.357     2.401
 193   1 H      0.031  0.969  0.000  0.000     2.579     2.511
 194   1 H      0.181  0.819  0.000  0.000     1.210     1.723
 195   1 H      0.005  0.995  0.000  0.000     2.980     2.700
 196   1 H      0.054  0.946  0.000  0.000     2.274     2.358
 197   1 H      0.024  0.976  0.000  0.000     2.674     2.557
 198   1 H      0.049  0.951  0.000  0.000     2.331     2.387
 199   7 N     -0.197  1.253  3.944  0.000    25.274     7.467
 200   6 C      0.045  1.062  2.893  0.000    19.822     6.341
 201   6 C      0.295  1.036  2.669  0.000    21.997     7.680
 202   8 O     -0.461  1.719  4.742  0.000    22.940     6.422
 203   6 C     -0.041  1.043  2.998  0.000    21.308     6.572
 204   6 C     -0.084  1.060  3.023  0.000    22.099     6.694
 205   6 C      0.360  1.032  2.608  0.000    20.890     7.480
 206   8 O     -0.608  1.755  4.853  0.000    26.310     6.877
 207   8 O     -0.646  1.772  4.874  0.000    27.266     7.001
 208   1 H      0.216  0.784  0.000  0.000     1.030     1.590
 209   1 H      0.032  0.968  0.000  0.000     2.556     2.500
 210   1 H      0.041  0.959  0.000  0.000     2.435     2.440
 211   1 H      0.051  0.949  0.000  0.000     2.305     2.374
 212   1 H      0.016  0.984  0.000  0.000     2.790     2.612
 213   1 H      0.026  0.974  0.000  0.000     2.640     2.541
 214   7 N     -0.215  1.259  3.956  0.000    25.690     7.528
 215   6 C      0.043  1.072  2.885  0.000    19.884     6.354
 216   6 C      0.274  1.068  2.658  0.000    22.373     7.744
 217   8 O     -0.483  1.756  4.726  0.000    23.400     6.486
 218   6 C     -0.011  1.065  2.946  0.000    20.743     6.479
 219   6 C     -0.068  1.053  3.015  0.000    21.798     6.647
 220   6 C     -0.119  1.046  3.073  0.000    22.832     6.813
 221   6 C     -0.095  1.035  3.061  0.000    22.381     6.747
 222   1 H      0.224  0.776  0.000  0.000     0.990     1.559
 223   1 H      0.031  0.969  0.000  0.000     2.571     2.508
 224   1 H      0.035  0.965  0.000  0.000     2.516     2.481
 225   1 H      0.051  0.949  0.000  0.000     2.313     2.379
 226   1 H      0.049  0.951  0.000  0.000     2.332     2.388
 227   1 H      0.062  0.938  0.000  0.000     2.177     2.307
 228   1 H      0.052  0.948  0.000  0.000     2.297     2.370
 229   1 H      0.031  0.969  0.000  0.000     2.574     2.509
 230   1 H      0.047  0.953  0.000  0.000     2.361     2.403
 231   1 H      0.012  0.988  0.000  0.000     2.851     2.640
 232   1 H      0.036  0.964  0.000  0.000     2.498     2.472
 233   7 N     -0.183  1.254  3.929  0.000    24.957     7.420
 234   6 C      0.026  1.060  2.913  0.000    20.141     6.392
 235   6 C      0.278  1.037  2.686  0.000    22.300     7.733
 236   8 O     -0.489  1.748  4.740  0.000    23.534     6.504
 237   6 C     -0.048  1.049  2.999  0.000    21.427     6.589
 238   6 C     -0.073  1.051  3.022  0.000    21.887     6.660
 239   6 C      0.372  1.016  2.612  0.000    20.692     7.445
 240   8 O     -0.651  1.759  4.892  0.000    27.413     7.020
 241   8 O     -0.670  1.771  4.899  0.000    27.893     7.081
 242   1 H      0.213  0.787  0.000  0.000     1.040     1.598
 243   1 H      0.071  0.929  0.000  0.000     2.079     2.255
 244   1 H      0.034  0.966  0.000  0.000     2.537     2.491
 245   1 H      0.045  0.955  0.000  0.000     2.380     2.413
 246   1 H      0.014  0.986  0.000  0.000     2.830     2.631
 247   1 H      0.051  0.949  0.000  0.000     2.304     2.374
 248   7 N     -0.208  1.263  3.945  0.000    25.528     7.504
 249   6 C      0.034  1.063  2.903  0.000    20.018     6.373
 250   6 C      0.306  1.023  2.671  0.000    21.809     7.650
 251   8 O     -0.485  1.723  4.762  0.000    23.456     6.494
 252   6 C     -0.093  1.060  3.033  0.000    22.264     6.717
 253   6 C      0.300  1.032  2.668  0.000    21.912     7.665
 254   8 O     -0.516  1.768  4.748  0.000    24.145     6.588
 255   7 N     -0.272  1.261  4.011  0.000    27.047     7.724
 256   1 H      0.206  0.794  0.000  0.000     1.075     1.624
 257   1 H      0.053  0.947  0.000  0.000     2.279     2.361
 258   1 H      0.079  0.921  0.000  0.000     1.988     2.205
 259   1 H      0.077  0.923  0.000  0.000     2.008     2.216
 260   1 H      0.225  0.775  0.000  0.000     0.985     1.555
 261   1 H      0.249  0.751  0.000  0.000     0.885     1.474
 262   7 N     -0.177  1.234  3.943  0.000    24.829     7.401
 263   6 C      0.048  1.034  2.918  0.000    19.740     6.320
 264   6 C      0.245  1.052  2.704  0.000    22.905     7.840
 265   8 O     -0.464  1.722  4.742  0.000    23.011     6.431
 266   6 C     -0.093  1.049  3.044  0.000    22.241     6.710
 267   6 C      0.290  1.026  2.684  0.000    22.082     7.695
 268   8 O     -0.515  1.769  4.746  0.000    24.115     6.584
 269   7 N     -0.279  1.268  4.012  0.000    27.219     7.748
 270   1 H      0.213  0.787  0.000  0.000     1.040     1.598
 271   1 H      0.096  0.904  0.000  0.000     1.826     2.113
 272   1 H      0.086  0.914  0.000  0.000     1.918     2.166
 273   1 H      0.073  0.927  0.000  0.000     2.055     2.242
 274   1 H      0.242  0.758  0.000  0.000     0.913     1.497
 275   1 H      0.238  0.762  0.000  0.000     0.931     1.511
 276   7 N     -0.099  1.240  3.860  0.000    23.185     7.151
 277   6 C     -0.000  1.058  2.943  0.000    20.539     6.444
 278   6 C      0.281  1.033  2.686  0.000    22.250     7.725
 279   8 O     -0.476  1.746  4.729  0.000    23.259     6.466
 280   6 C     -0.072  1.050  3.022  0.000    21.845     6.650
 281   6 C     -0.061  1.042  3.019  0.000    21.651     6.620
 282   6 C     -0.005  1.057  2.948  0.000    20.712     6.486
 283   1 H      0.099  0.901  0.000  0.000     1.794     2.095
 284   1 H      0.076  0.924  0.000  0.000     2.023     2.224
 285   1 H      0.070  0.930  0.000  0.000     2.087     2.259
 286   1 H      0.056  0.944  0.000  0.000     2.247     2.344
 287   1 H      0.047  0.953  0.000  0.000     2.354     2.399
 288   1 H      0.074  0.926  0.000  0.000     2.043     2.235
 289   1 H      0.035  0.965  0.000  0.000     2.515     2.480
 290   7 N     -0.162  1.230  3.931  0.000    24.498     7.351
 291   6 C      0.026  1.054  2.920  0.000    20.141     6.389
 292   6 C      0.271  1.034  2.695  0.000    22.424     7.757
 293   8 O     -0.465  1.702  4.762  0.000    22.986     6.429
 294   6 C      0.123  1.045  2.832  0.000    18.648     6.163
 295   8 O     -0.464  1.732  4.732  0.000    22.143     6.352
 296   6 C     -0.137  1.048  3.089  0.000    23.208     6.871
 297   1 H      0.192  0.808  0.000  0.000     1.147     1.678
 298   1 H      0.062  0.938  0.000  0.000     2.180     2.309
 299   1 H      0.025  0.975  0.000  0.000     2.660     2.551
 300   1 H      0.295  0.705  0.000  0.000     0.735     1.347
 301   1 H      0.051  0.949  0.000  0.000     2.310     2.377
 302   1 H      0.076  0.924  0.000  0.000     2.016     2.220
 303   1 H      0.059  0.941  0.000  0.000     2.213     2.327
 304   7 N     -0.145  1.235  3.911  0.000    24.141     7.297
 305   6 C      0.008  1.067  2.925  0.000    20.449     6.438
 306   6 C      0.259  1.051  2.690  0.000    22.635     7.791
 307   8 O     -0.509  1.771  4.739  0.000    23.994     6.567
 308   6 C     -0.020  1.065  2.954  0.000    20.890     6.501
 309   6 C     -0.125  1.047  3.078  0.000    22.949     6.831
 310   6 C     -0.124  1.043  3.080  0.000    22.936     6.830
 311   1 H      0.220  0.780  0.000  0.000     1.008     1.573
 312   1 H      0.082  0.918  0.000  0.000     1.959     2.189
 313   1 H      0.049  0.951  0.000  0.000     2.334     2.389
 314   1 H      0.067  0.933  0.000  0.000     2.124     2.279
 315   1 H      0.056  0.944  0.000  0.000     2.251     2.346
 316   1 H      0.045  0.955  0.000  0.000     2.379     2.412
 317   1 H      0.068  0.932  0.000  0.000     2.109     2.271
 318   1 H      0.042  0.958  0.000  0.000     2.425     2.435
 319   1 H      0.049  0.951  0.000  0.000     2.337     2.391
 320   7 N     -0.191  1.259  3.933  0.000    25.152     7.449
 321   6 C      0.022  1.067  2.911  0.000    20.203     6.399
 322   6 C      0.384  1.000  2.616  0.000    20.499     7.411
 323   8 O     -0.632  1.751  4.880  0.000    26.906     6.955
 324   6 C     -0.062  1.050  3.012  0.000    21.675     6.626
 325   6 C     -0.064  1.044  3.020  0.000    21.719     6.634
 326   6 C     -0.095  1.053  3.042  0.000    22.301     6.722
 327   6 C     -0.047  1.058  2.989  0.000    21.499     6.617
 328   7 N     -0.149  1.238  3.911  0.000    24.211     7.308
 329   8 O     -0.644  1.756  4.888  0.000    27.229     6.996
 330   1 H      0.211  0.789  0.000  0.000     1.054     1.608
 331   1 H      0.032  0.968  0.000  0.000     2.556     2.500
 332   1 H      0.043  0.957  0.000  0.000     2.412     2.429
 333   1 H      0.046  0.954  0.000  0.000     2.374     2.409
 334   1 H      0.050  0.950  0.000  0.000     2.315     2.379
 335   1 H      0.048  0.952  0.000  0.000     2.347     2.396
 336   1 H      0.085  0.915  0.000  0.000     1.929     2.172
 337   1 H      0.076  0.924  0.000  0.000     2.018     2.222
 338   1 H      0.107  0.893  0.000  0.000     1.722     2.052
 339   1 H      0.112  0.888  0.000  0.000     1.681     2.027
 340   1 H      0.306  0.694  0.000  0.000     0.696     1.307
 341   1 H      0.304  0.696  0.000  0.000     0.703     1.313
 342   1 H      0.300  0.700  0.000  0.000     0.714     1.324
 343   7 N     -0.390  1.336  4.054  0.000    30.088     8.147
 344   6 C      0.030  1.059  2.911  0.000    20.082     6.383
 345   6 C      0.264  1.049  2.687  0.000    22.539     7.774
 346   8 O     -0.485  1.747  4.738  0.000    23.454     6.493
 347   6 C     -0.062  1.054  3.008  0.000    21.674     6.626
 348   6 C     -0.009  1.067  2.942  0.000    20.747     6.486
 349  16 S     -0.256  1.923  4.274  0.059   152.038    20.753
 350   6 C     -0.060  1.053  3.007  0.000    21.722     6.649
 351   1 H      0.168  0.832  0.000  0.000     1.283     1.774
 352   1 H      0.038  0.962  0.000  0.000     2.472     2.459
 353   1 H      0.060  0.940  0.000  0.000     2.203     2.321
 354   1 H      0.027  0.973  0.000  0.000     2.624     2.533
 355   1 H      0.043  0.957  0.000  0.000     2.407     2.426
 356   1 H      0.059  0.941  0.000  0.000     2.213     2.326
 357   1 H      0.079  0.921  0.000  0.000     1.994     2.208
 358   1 H      0.071  0.929  0.000  0.000     2.079     2.255
 359   1 H      0.059  0.941  0.000  0.000     2.208     2.324
 360   7 N     -0.095  1.240  3.855  0.000    23.099     7.138
 361   6 C      0.020  1.062  2.918  0.000    20.223     6.399
 362   6 C      0.281  1.040  2.678  0.000    22.236     7.722
 363   8 O     -0.499  1.756  4.743  0.000    23.760     6.535
 364   6 C     -0.076  1.052  3.024  0.000    21.932     6.664
 365   6 C     -0.066  1.045  3.021  0.000    21.734     6.632
 366   6 C     -0.005  1.054  2.951  0.000    20.720     6.491
 367   1 H      0.078  0.922  0.000  0.000     2.003     2.213
 368   1 H      0.051  0.949  0.000  0.000     2.305     2.374
 369   1 H      0.085  0.915  0.000  0.000     1.927     2.171
 370   1 H      0.040  0.960  0.000  0.000     2.447     2.446
 371   1 H      0.079  0.921  0.000  0.000     1.992     2.207
 372   1 H      0.055  0.945  0.000  0.000     2.260     2.351
 373   1 H      0.074  0.926  0.000  0.000     2.046     2.237
 374   7 N     -0.191  1.253  3.938  0.000    25.151     7.448
 375   6 C      0.019  1.059  2.922  0.000    20.253     6.407
 376   6 C      0.279  1.043  2.678  0.000    22.278     7.729
 377   8 O     -0.510  1.746  4.764  0.000    24.002     6.568
 378   6 C     -0.056  1.051  3.005  0.000    21.583     6.613
 379   6 C     -0.101  1.065  3.036  0.000    22.429     6.742
 380   6 C      0.373  1.023  2.604  0.000    20.686     7.443
 381   8 O     -0.672  1.777  4.894  0.000    27.951     7.088
 382   8 O     -0.663  1.770  4.893  0.000    27.718     7.059
 383   1 H      0.206  0.794  0.000  0.000     1.076     1.625
 384   1 H      0.079  0.921  0.000  0.000     1.994     2.208
 385   1 H      0.051  0.949  0.000  0.000     2.312     2.378
 386   1 H      0.052  0.948  0.000  0.000     2.294     2.369
 387   1 H      0.051  0.949  0.000  0.000     2.306     2.375
 388   1 H      0.046  0.954  0.000  0.000     2.376     2.411
 389   7 N     -0.197  1.263  3.934  0.000    25.271     7.466
 390   6 C      0.018  1.075  2.907  0.000    20.282     6.415
 391   6 C      0.373  1.017  2.610  0.000    20.687     7.444
 392   8 O     -0.630  1.765  4.865  0.000    26.873     6.950
 393   6 C     -0.092  1.038  3.054  0.000    22.311     6.736
 394   8 O     -0.628  1.751  4.877  0.000    26.812     6.942
 395   1 H      0.197  0.803  0.000  0.000     1.120     1.658
 396   1 H      0.047  0.953  0.000  0.000     2.356     2.400
 397   1 H      0.052  0.948  0.000  0.000     2.299     2.371
 398   1 H      0.033  0.967  0.000  0.000     2.548     2.496
 399   1 H      0.023  0.977  0.000  0.000     2.692     2.566
 400   7 N     -0.395  1.339  4.056  0.000    30.223     8.165
 401   6 C      0.024  1.068  2.908  0.000    20.204     6.405
 402   6 C      0.264  1.056  2.680  0.000    22.546     7.775
 403   8 O     -0.475  1.756  4.719  0.000    23.243     6.464
 404   6 C      0.114  1.053  2.833  0.000    18.825     6.198
 405   8 O     -0.488  1.747  4.741  0.000    22.636     6.423
 406   6 C     -0.126  1.049  3.078  0.000    22.989     6.839
 407   1 H      0.182  0.818  0.000  0.000     1.205     1.720
 408   1 H      0.043  0.957  0.000  0.000     2.408     2.427
 409   1 H      0.025  0.975  0.000  0.000     2.659     2.550
 410   1 H      0.315  0.685  0.000  0.000     0.678     1.293
 411   1 H      0.059  0.941  0.000  0.000     2.213     2.327
 412   1 H      0.062  0.938  0.000  0.000     2.178     2.308
 413   1 H      0.021  0.979  0.000  0.000     2.721     2.580
 414   7 N     -0.186  1.247  3.939  0.000    25.030     7.430
 415   6 C      0.026  1.062  2.912  0.000    20.158     6.395
 416   6 C      0.206  1.087  2.707  0.000    23.628     7.960
 417   8 O     -0.351  1.755  4.596  0.000    20.722     6.103
 418   6 C     -0.135  1.048  3.088  0.000    23.163     6.863
 419   1 H      0.204  0.796  0.000  0.000     1.085     1.632
 420   1 H      0.105  0.895  0.000  0.000     1.739     2.062
 421   1 H      0.097  0.903  0.000  0.000     1.811     2.104
 422   1 H      0.084  0.916  0.000  0.000     1.935     2.176
 423   1 H      0.070  0.930  0.000  0.000     2.088     2.260
 424   7 N     -0.390  1.317  4.072  0.000    30.086     8.146
 425   6 C     -0.009  1.041  2.968  0.000    20.826     6.512
 426   6 C      0.268  1.043  2.689  0.000    22.473     7.762
 427   8 O     -0.524  1.765  4.759  0.000    24.323     6.612
 428   1 H      0.171  0.829  0.000  0.000     1.269     1.765
 429   1 H      0.056  0.944  0.000  0.000     2.252     2.347
 430   1 H      0.038  0.962  0.000  0.000     2.474     2.460
 431   7 N     -0.163  1.240  3.922  0.000    24.517     7.354
 432   6 C      0.013  1.059  2.928  0.000    20.365     6.426
 433   6 C      0.280  1.037  2.684  0.000    22.269     7.729
 434   8 O     -0.488  1.744  4.744  0.000    23.525     6.503
 435   6 C     -0.078  1.056  3.023  0.000    21.986     6.674
 436   6 C     -0.082  1.054  3.029  0.000    22.073     6.689
 437   6 C     -0.098  1.055  3.043  0.000    22.373     6.734
 438   6 C     -0.053  1.059  2.994  0.000    21.615     6.636
 439   7 N     -0.136  1.230  3.907  0.000    23.947     7.268
 440   1 H      0.231  0.769  0.000  0.000     0.961     1.536
 441   1 H      0.068  0.932  0.000  0.000     2.109     2.271
 442   1 H      0.067  0.933  0.000  0.000     2.118     2.276
 443   1 H      0.066  0.934  0.000  0.000     2.124     2.279
 444   1 H      0.072  0.928  0.000  0.000     2.064     2.247
 445   1 H      0.081  0.919  0.000  0.000     1.964     2.192
 446   1 H      0.088  0.912  0.000  0.000     1.896     2.153
 447   1 H      0.070  0.930  0.000  0.000     2.084     2.257
 448   1 H      0.103  0.897  0.000  0.000     1.757     2.073
 449   1 H      0.129  0.871  0.000  0.000     1.539     1.940
 450   1 H      0.295  0.705  0.000  0.000     0.728     1.337
 451   1 H      0.303  0.697  0.000  0.000     0.706     1.316
 452   1 H      0.265  0.735  0.000  0.000     0.826     1.424
 453   7 N     -0.097  1.242  3.855  0.000    23.137     7.144
 454   6 C      0.027  1.064  2.910  0.000    20.105     6.380
 455   6 C      0.198  1.087  2.716  0.000    23.781     7.986
 456   8 O     -0.351  1.758  4.594  0.000    20.731     6.105
 457   6 C     -0.066  1.052  3.014  0.000    21.739     6.634
 458   6 C     -0.062  1.044  3.018  0.000    21.666     6.622
 459   6 C     -0.013  1.056  2.957  0.000    20.848     6.509
 460   1 H      0.076  0.924  0.000  0.000     2.016     2.220
 461   1 H      0.069  0.931  0.000  0.000     2.100     2.266
 462   1 H      0.054  0.946  0.000  0.000     2.275     2.359
 463   1 H      0.055  0.945  0.000  0.000     2.262     2.352
 464   1 H      0.043  0.957  0.000  0.000     2.407     2.426
 465   1 H      0.076  0.924  0.000  0.000     2.017     2.221
 466   1 H      0.067  0.933  0.000  0.000     2.116     2.275
 467   7 N     -0.388  1.321  4.066  0.000    30.032     8.139
 468   6 C      0.036  1.058  2.906  0.000    19.984     6.369
 469   6 C      0.201  1.092  2.707  0.000    23.725     7.977
 470   8 O     -0.378  1.773  4.605  0.000    21.247     6.180
 471   6 C      0.094  1.034  2.872  0.000    19.237     6.285
 472   8 O     -0.470  1.721  4.749  0.000    22.261     6.369
 473   1 H      0.174  0.826  0.000  0.000     1.252     1.753
 474   1 H      0.067  0.933  0.000  0.000     2.117     2.275
 475   1 H      0.023  0.977  0.000  0.000     2.681     2.561
 476   1 H      0.035  0.965  0.000  0.000     2.517     2.481
 477   1 H      0.293  0.707  0.000  0.000     0.744     1.355
 478   7 N     -0.396  1.332  4.064  0.000    30.270     8.171
 479   6 C      0.040  1.047  2.912  0.000    19.911     6.356
 480   6 C      0.208  1.083  2.709  0.000    23.595     7.956
 481   8 O     -0.395  1.760  4.635  0.000    21.586     6.229
 482   6 C     -0.063  1.055  3.009  0.000    21.696     6.629
 483   6 C     -0.012  1.056  2.956  0.000    20.760     6.481
 484   6 C     -0.106  1.041  3.065  0.000    22.574     6.774
 485   6 C     -0.110  1.041  3.069  0.000    22.667     6.789
 486   1 H      0.162  0.838  0.000  0.000     1.321     1.801
 487   1 H      0.059  0.941  0.000  0.000     2.209     2.324
 488   1 H      0.039  0.961  0.000  0.000     2.459     2.452
 489   1 H      0.029  0.971  0.000  0.000     2.605     2.524
 490   1 H      0.044  0.956  0.000  0.000     2.398     2.422
 491   1 H      0.054  0.946  0.000  0.000     2.266     2.354
 492   1 H      0.027  0.973  0.000  0.000     2.627     2.535
 493   1 H      0.032  0.968  0.000  0.000     2.551     2.498
 494   1 H      0.049  0.951  0.000  0.000     2.333     2.388
 495   1 H      0.030  0.970  0.000  0.000     2.586     2.515
 496   1 H      0.047  0.953  0.000  0.000     2.361     2.403
 497   1 H      0.186  0.814  0.000  0.000     1.182     1.703
 498   1 H      0.070  0.930  0.000  0.000     2.087     2.259
 499   1 H      0.185  0.815  0.000  0.000     1.188     1.707
 500   1 H      0.070  0.930  0.000  0.000     2.086     2.258
 501   1 H      0.171  0.829  0.000  0.000     1.264     1.761
 502   1 H      0.078  0.922  0.000  0.000     1.995     2.209
 503   1 H      0.183  0.817  0.000  0.000     1.196     1.713
 504   1 H      0.092  0.908  0.000  0.000     1.864     2.135
 505   1 H      0.189  0.811  0.000  0.000     1.162     1.688
 506   1 H      0.073  0.927  0.000  0.000     2.047     2.237
 507   1 H      0.192  0.808  0.000  0.000     1.146     1.676
 508   1 H      0.071  0.929  0.000  0.000     2.070     2.250
 509   1 H      0.197  0.803  0.000  0.000     1.119     1.657
 510   1 H      0.192  0.808  0.000  0.000     1.146     1.677
 511   1 H      0.182  0.818  0.000  0.000     1.204     1.719
 512   1 H      0.074  0.926  0.000  0.000     2.042     2.235
 513   1 H      0.187  0.813  0.000  0.000     1.173     1.696
 514   1 H      0.085  0.915  0.000  0.000     1.924     2.169
 515   1 H      0.197  0.803  0.000  0.000     1.121     1.659
 516   1 H      0.096  0.904  0.000  0.000     1.823     2.111
 517   1 H      0.197  0.803  0.000  0.000     1.119     1.657
 518   1 H      0.069  0.931  0.000  0.000     2.096     2.264

 Mol. C6AA /au·bohr⁶  :    2542199.615872
 Mol. C8AA /au·bohr⁸  :   56831509.103487
 Mol. α(0) /au        :       2390.633973

 
molecular dipole:
                 x           y           z       tot (Debye)
 q only:     -264.592    -238.788    -579.471
   full:     -266.156    -236.936    -577.132    1724.043
molecular quadrupole (traceless):
                xx          xy          yy          xz          yz          zz
 q only:    41663.409  -32183.454   48361.684  -76526.781  -69401.300  -90025.093
  q+dip:    40787.910  -32052.865   48352.357  -76696.045  -68612.218  -89140.267
   full:    40788.698  -32052.915   48351.529  -76700.133  -68614.762  -89140.226
speedup  1.97
cpu  time for grad   50.00 s
wall time for grad   25.43 s

SCC energy    :    -815.9861757
rep           :       9.9113909
ES            :       3.2091379
AES           :      -0.0656784
AXC           :       0.2746331
disp          :      -0.6810046
XB            :       0.0000000
fix           :       0.0000000
Gborn         :       0.0000000
Gsasa         :       0.0000000
Ghb           :       0.0000000
Gshift        :       0.0000000
Gsolv         :      -1.0537980     -661.27
Etot ala COSMO:    -815.9861757
grad norm     :       0.8511418
total E       :    -806.0138538
atomizationE  :     146.5004278    91930.41
(atE without considering molecular charge,
 total energy contains solvation terms)
H-L gap (eV)  :          1.3330

------------------------------------------------------------------------
 * finished run on 2019/05/05 at 21:29:34.597     
------------------------------------------------------------------------
 total:
 * wall-time:     0 d,  0 h,  0 min, 27.058 sec
 *  cpu-time:     0 d,  0 h,  0 min, 52.710 sec
 * ratio c/w:     1.948 speedup
 SCF:
 * wall-time:     0 d,  0 h,  0 min, 26.499 sec
 *  cpu-time:     0 d,  0 h,  0 min, 52.113 sec
 * ratio c/w:     1.967 speedup

