      -----------------------------------------------------------      
     |                   =====================                   |     
     |                           x T B                           |     
     |                   =====================                   |     
     |                         S. Grimme                         |     
     |          Mulliken Center for Theoretical Chemistry        |     
     |                    University of Bonn                     |     
     |                 Version 6.0.1 (SAW181210)                 |     
      -----------------------------------------------------------      

   This program is distributed in the hope that it will be useful,
   but WITHOUT ANY WARRANTY; without even the implied warranty of
   MERCHANTABILITY or FITNESS FOR A PARTICULAR PURPOSE.
   
   FOR NON-COMMERCIAL, ACADEMIA USE ONLY.
   
   Cite this work as:
   S. Grimme, C. Bannwarth, P. Shushkov, J. Comput. Theory Chem., 2017,
   13, 1989-2009.
   C. Bannwarth, S. Ehlert and S. Grimme., ChemRxiv, 2018, preprint.
   http://doi.org/10.26434/chemrxiv.7246238.v1
   
   for sTDA-xTB:
   S. Grimme and C. Bannwarth, J. Chem. Phys., 2016, 145, 054103.
   
   in the mass-spec context:
   V. Asgeirsson, C. Bauer and S. Grimme, Chem. Sci., 2017, 8, 4879.
   
   if GBSA is used:
   P. Shushkov, F. März and S. Grimme, unpublished.
   
   for ANC optimizer:
   S. Grimme, unpublished.
   Rational Function algorithm used in ANCopt:
   F. Eckert, P. Pulay, H.-J. Werner, J. Comput. Chem., 1997, 18, 1473.
   
   with help from (in alphabetical order)
   C. Bannwarth, F. Bohle, G. Brandenburg, E. Caldeweyher, M. Checinski,
   S. Dohm, S. Ehlert, S. Ehrlich, F. März, H. Neugebauer, J. Pisarek,
   P. Pracht, P. Shushkov, and S. Spicher.
   
 * started run on 2019/05/08 at 07:14:17.390     
========================================================================
 # omp threads = 2
========================================================================
number of atoms            : 219
number of electrons        : 566
charge                     : 0
spin                       : .0
first test random number   : .4685

########################################################################
# WARNING! Please study the warnings concerning your input carefully
#  - Process number higher than OMP_NUM_THREADS, I hope you know what you are doing.
########################################################################

           ------------------------------------------------- 
          |                 G F N 2 - x T B                 |
          | Geometry, Frequencies, Noncovalent interactions |
          |            JCTC 2018 parametrisation            |
           ------------------------------------------------- 
 
      method parameters     
 k(s)        :  1.8500
 k(p)        :  2.2300
 k(d)        :  2.2300
 k(f)        :  2.0000
 kEN (H0ij)  : -2.0000
 D4 a1       :  0.5200
 D4 a2       :  5.0000
 D4 s6       :  1.0000
 D4 s8       :  2.7000
 D4 s9       :  5.0000
 alphaj      :  2.0000

 Solvent             : h2o
 Using internal parameter file: .param_gbsa2_h2o
 Gsolv ref. state (COSMO-RS): gsolv [1 M gas/solution]
 temperature (mdtemp)       :    298.150000000000     
 dielectric constant        :    80.2000000000000     
 rho                        :    1.00000000000000     
 mass                       :    18.0000000000000     
 surface tension            :    15.5689454083859     
 probe radius               :   0.975313790000000     
 vdW radii scaling          :    1.00000000000000     
 Gshift (Eh)                :   1.857443126794793E-003
 c1                         :    1.55243817000000     
 soset                      :   0.130326360000000     
 HB correction              :  T

            Z     q(EN)     CN     RAES       Cart. coordinates
     1  N   5.0   -0.19    3.25    1.97    10.26423    69.86660    -6.97829
     2  C   4.0    0.03    4.31    4.22    10.51491    67.39689    -5.82108
     3  C   4.0    0.08    3.25    3.04     8.01378    66.79619    -4.50817
     4  O   6.0   -0.28    1.14    1.80     6.83498    68.44775    -3.37398
     5  C   4.0   -0.03    4.33    4.26    12.68269    67.35817    -3.87655
     6  C   4.0   -0.05    4.19    3.99    15.19788    67.98753    -5.16798
     7  C   4.0   -0.08    4.13    3.87    12.78590    64.76742    -2.61137
     8  C   4.0   -0.08    4.01    3.64    17.30747    68.56267    -3.29322
     9  H   1.0    0.09    1.02    1.43    10.04977    71.33041    -5.75405
    10  H   1.0    0.04    1.05    1.44    10.87293    66.00602    -7.30428
    11  H   1.0    0.04    1.05    1.44    12.28037    68.82517    -2.47158
    12  H   1.0    0.04    1.03    1.43    15.73986    66.39917    -6.36593
    13  H   1.0    0.04    1.03    1.43    14.92821    69.63258    -6.38523
    14  H   1.0    0.03    1.00    1.43    14.36576    64.65952    -1.30789
    15  H   1.0    0.04    1.00    1.43    11.06735    64.36471    -1.56208
    16  H   1.0    0.04    1.00    1.43    13.01900    63.31129    -4.03987
    17  H   1.0    0.04    1.00    1.43    19.01166    69.10006    -4.30571
    18  H   1.0    0.04    1.00    1.43    16.77545    70.11200    -2.05303
    19  H   1.0    0.03    1.00    1.43    17.74313    66.92069    -2.14177
    20  N   5.0   -0.20    3.21    1.96    18.84167    56.28875    17.18456
    21  C   4.0    0.03    4.33    4.26    19.94838    58.66163    16.39225
    22  C   4.0    0.15    3.40    3.08    20.37749    58.72461    13.53974
    23  O   6.0   -0.30    1.22    1.80    21.14209    56.88185    12.35217
    24  C   4.0   -0.04    4.27    4.13    22.47773    59.13897    17.74134
    25  C   4.0   -0.05    4.20    3.99    22.03310    59.63656    20.55006
    26  C   4.0   -0.01    4.21    4.02    24.46743    60.00292    22.06755
    27  N   5.0   -0.14    3.40    2.02    26.08339    57.79153    22.01198
    28  C   4.0    0.09    3.36    3.07    25.49471    55.61054    23.11764
    29  N   5.0   -0.18    3.25    1.97    23.60323    55.40105    24.72809
    30  N   5.0   -0.18    3.24    1.97    26.92149    53.56892    22.63850
    31  H   1.0    0.09    1.02    1.43    19.67280    54.66212    16.59791
    32  H   1.0    0.05    1.06    1.44    18.61664    60.15599    16.90896
    33  H   1.0    0.05    1.03    1.43    23.67162    57.47948    17.46802
    34  H   1.0    0.05    1.03    1.43    23.40812    60.75142    16.85112
    35  H   1.0    0.04    1.03    1.43    20.87584    61.32587    20.77515
    36  H   1.0    0.04    1.03    1.43    20.97974    58.05612    21.34453
    37  H   1.0    0.04    1.03    1.43    25.55286    61.56521    21.28547
    38  H   1.0    0.04    1.03    1.43    23.94972    60.43813    24.01728
    39  H   1.0    0.09    1.09    1.44    27.55679    57.84453    20.79287
    40  H   1.0    0.08    1.01    1.43    22.64454    56.92640    25.50366
    41  H   1.0    0.08    1.04    1.43    23.34966    53.67272    25.51919
    42  H   1.0    0.09    1.03    1.43    28.21937    53.56367    21.25207
    43  H   1.0    0.09    1.03    1.43    26.45775    51.91308    23.46027
    44  N   5.0   -0.14    3.51    2.08    19.82653    60.94794    12.47776
    45  C   4.0    0.03    4.41    4.40    20.39322    61.57283     9.87606
    46  C   4.0    0.15    3.43    3.09    22.72635    63.26490     9.96082
    47  O   6.0   -0.33    1.32    1.80    22.75624    65.14282    11.33408
    48  C   4.0   -0.04    4.36    4.31    18.13036    62.97347     8.73753
    49  C   4.0   -0.03    4.17    3.94    18.33631    63.53964     5.90943
    50  C   4.0   -0.08    4.10    3.81    18.16606    61.14006     4.32186
    51  C   4.0   -0.08    4.11    3.82    16.21183    65.35142     5.16746
    52  H   1.0    0.11    1.11    1.45    19.34722    62.42470    13.60013
    53  H   1.0    0.06    1.06    1.44    20.81487    59.82772     8.86415
    54  H   1.0    0.04    1.03    1.43    16.43918    61.84370     9.07828
    55  H   1.0    0.05    1.03    1.43    17.94031    64.76178     9.74967
    56  H   1.0    0.04    1.05    1.44    20.16319    64.44504     5.54314
    57  H   1.0    0.04    1.00    1.43    18.31442    61.59421     2.32447
    58  H   1.0    0.05    1.00    1.43    19.67395    59.82394     4.77934
    59  H   1.0    0.03    1.00    1.43    16.35875    60.21626     4.63634
    60  H   1.0    0.03    1.00    1.43    16.30003    65.76999     3.15820
    61  H   1.0    0.04    1.00    1.43    14.38435    64.50658     5.58110
    62  H   1.0    0.04    1.00    1.43    16.34730    67.11973     6.20144
    63  N   5.0   -0.14    3.46    2.05    24.68610    62.50778     8.57998
    64  C   4.0    0.03    4.31    4.23    27.03681    63.87470     8.38460
    65  C   4.0    0.07    3.22    3.04    27.33628    65.01301     5.74552
    66  O   6.0   -0.31    1.17    1.80    26.67106    63.84173     3.85683
    67  C   4.0   -0.03    4.33    4.26    29.33969    62.13296     8.78510
    68  C   4.0   -0.01    3.55    3.14    29.69149    61.46249    11.51438
    69  C   4.0   -0.03    3.46    3.10    28.49191    59.38176    12.57016
    70  C   4.0   -0.05    3.48    3.11    31.20213    62.95248    13.05594
    71  C   4.0   -0.03    3.44    3.09    28.77319    58.82476    15.10351
    72  C   4.0   -0.05    3.43    3.09    31.47155    62.43691    15.60148
    73  C   4.0    0.07    3.44    3.09    30.24262    60.36541    16.64712
    74  O   6.0   -0.26    2.14    1.85    30.42029    59.77847    19.14405
    75  H   1.0    0.11    1.10    1.44    24.51664    60.93351     7.49675
    76  H   1.0    0.05    1.06    1.44    27.04141    65.37955     9.80223
    77  H   1.0    0.05    1.03    1.43    29.09734    60.42310     7.64480
    78  H   1.0    0.04    1.03    1.43    31.03282    63.08857     8.08122
    79  H   1.0    0.07    1.03    1.43    27.34258    58.17787    11.38514
    80  H   1.0    0.05    1.03    1.43    32.20692    64.52465    12.22803
    81  H   1.0    0.06    1.03    1.43    27.87151    57.17358    15.88495
    82  H   1.0    0.05    1.03    1.43    32.68907    63.62448    16.72913
    83  H   1.0    0.12    1.03    1.43    31.50671    60.97818    20.00177
    84  N   5.0   -0.20    3.22    1.96    29.60895    68.77874    15.07107
    85  C   4.0    0.03    4.32    4.24    26.91417    68.32090    15.34358
    86  C   4.0    0.15    3.44    3.09    25.52199    70.64841    14.29528
    87  O   6.0   -0.30    1.24    1.80    26.05646    72.77601    15.02673
    88  C   4.0   -0.04    4.32    4.24    26.21745    67.96093    18.12547
    89  C   4.0   -0.03    4.05    3.72    23.39796    67.39518    18.46631
    90  S   6.0   -0.04    2.48    3.10    21.92127    69.38211    20.82955
    91  C   4.0   -0.05    3.88    3.43    21.62692    72.38701    19.18846
    92  H   1.0    0.09    1.03    1.43    30.61427    69.23989    16.62312
    93  H   1.0    0.05    1.05    1.44    26.41576    66.64312    14.23661
    94  H   1.0    0.04    1.03    1.43    27.35327    66.42434    18.89365
    95  H   1.0    0.05    1.05    1.44    26.70669    69.70148    19.12473
    96  H   1.0    0.06    1.08    1.44    22.36072    67.66304    16.71020
    97  H   1.0    0.04    1.08    1.44    23.06201    65.47265    19.11511
    98  H   1.0    0.05    1.05    1.44    20.85834    73.70828    20.54993
    99  H   1.0    0.06    1.04    1.43    23.45739    73.02600    18.52086
   100  H   1.0    0.06    1.04    1.43    20.33627    72.18583    17.60398
   101  N   5.0   -0.16    3.50    2.08    23.64139    70.12011    12.70184
   102  C   4.0    0.03    4.49    4.52    21.87841    72.01065    11.84919
   103  C   4.0    0.14    3.39    3.08    19.19627    71.51244    12.81912
   104  O   6.0   -0.30    1.23    1.80    17.73791    73.27604    13.12571
   105  C   4.0   -0.02    4.32    4.23    21.91753    72.42317     8.96388
   106  C   4.0   -0.04    4.19    3.98    21.65098    69.94002     7.49876
   107  C   4.0   -0.07    4.11    3.83    24.35012    73.79603     8.24604
   108  C   4.0   -0.08    4.02    3.65    20.79892    70.37199     4.78083
   109  H   1.0    0.10    1.12    1.45    23.50796    68.36020    11.96315
   110  H   1.0    0.06    1.08    1.44    22.45887    73.79156    12.74262
   111  H   1.0    0.05    1.06    1.44    20.29109    73.62501     8.52215
   112  H   1.0    0.05    1.03    1.43    23.45798    68.93636     7.50272
   113  H   1.0    0.05    1.03    1.43    20.26737    68.73045     8.43669
   114  H   1.0    0.04    1.00    1.43    24.41265    74.12055     6.22333
   115  H   1.0    0.05    1.00    1.43    24.47309    75.60415     9.21317
   116  H   1.0    0.05    1.00    1.43    25.97985    72.66026     8.78779
   117  H   1.0    0.04    1.00    1.43    20.75269    68.58941     3.76208
   118  H   1.0    0.04    1.00    1.43    18.92172    71.19749     4.74969
   119  H   1.0    0.04    1.00    1.43    22.07882    71.63483     3.79388
   120  N   5.0   -0.14    3.47    2.06    18.55585    69.11636    13.36890
   121  C   4.0    0.03    4.31    4.22    16.17556    68.52845    14.59719
   122  C   4.0    0.07    3.22    3.04    16.58889    66.34317    16.44311
   123  O   6.0   -0.32    1.20    1.80    18.13081    64.68246    15.98795
   124  C   4.0   -0.03    4.29    4.17    14.17513    67.76207    12.62718
   125  C   4.0   -0.04    4.23    4.05    11.49516    67.77641    13.67483
   126  C   4.0    0.15    3.22    3.04     9.61977    66.84923    11.70268
   127  O   6.0   -0.32    1.26    1.80    10.25249    66.24299     9.56321
   128  N   5.0   -0.19    3.18    1.95     7.23484    66.74413    12.53101
   129  H   1.0    0.10    1.08    1.44    19.78286    67.66112    13.15717
   130  H   1.0    0.05    1.06    1.44    15.55305    70.24142    15.57761
   131  H   1.0    0.06    1.03    1.43    14.28197    69.09497    11.05676
   132  H   1.0    0.05    1.03    1.43    14.59951    65.87997    11.90312
   133  H   1.0    0.04    1.03    1.43    11.33761    66.54237    15.32209
   134  H   1.0    0.05    1.03    1.43    10.96006    69.68667    14.23974
   135  H   1.0    0.08    1.03    1.43     6.82471    67.23677    14.31995
   136  H   1.0    0.09    1.02    1.43     5.81159    65.98404    11.48949
   137  N   5.0   -0.19    3.24    1.97     3.95762    62.14392     6.44953
   138  C   4.0    0.03    4.42    4.41     6.51557    63.07842     6.30166
   139  C   4.0    0.15    3.43    3.09     6.79940    64.81788     4.01890
   140  O   6.0   -0.29    1.23    1.80     5.46840    64.59685     2.14093
   141  C   4.0   -0.02    4.27    4.14     8.49593    60.93838     6.15367
   142  C   4.0   -0.08    4.12    3.83     8.55643    59.51824     8.65871
   143  C   4.0   -0.07    4.12    3.84     7.98730    59.12832     3.97237
   144  H   1.0    0.09    1.02    1.43     3.25231    61.26865     4.89480
   145  H   1.0    0.06    1.07    1.44     6.88723    64.16319     8.01647
   146  H   1.0    0.04    1.06    1.44    10.32688    61.85222     5.86129
   147  H   1.0    0.04    1.00    1.43     9.88562    57.95716     8.55684
   148  H   1.0    0.05    1.00    1.43     9.13910    60.78604    10.16580
   149  H   1.0    0.04    1.00    1.43     6.68828    58.77246     9.08728
   150  H   1.0    0.04    1.00    1.43     9.57559    57.84651     3.75387
   151  H   1.0    0.04    1.00    1.43     6.30850    58.00650     4.34827
   152  H   1.0    0.05    1.00    1.43     7.73159    60.15281     2.21019
   153  N   5.0   -0.14    3.36    2.00     8.68205    66.49479     4.26155
   154  C   4.0    0.02    4.15    3.90     9.48999    68.06296     2.19373
   155  C   4.0    0.09    3.10    3.02     9.10669    70.88959     2.60575
   156  O   6.0   -0.27    1.11    1.80     9.89632    71.99062     4.48779
   157  H   1.0    0.11    1.09    1.44     9.56171    66.67132     5.95458
   158  H   1.0    0.04    1.03    1.43    11.52037    67.77395     1.89129
   159  H   1.0    0.07    1.05    1.44     8.43304    67.45810     0.53294
   160  N   5.0   -0.19    3.25    1.97    29.12443    61.98310    -3.35555
   161  C   4.0    0.03    4.41    4.39    26.92950    61.77689    -1.73200
   162  C   4.0    0.15    3.45    3.09    26.74170    59.02655    -0.88192
   163  O   6.0   -0.29    1.24    1.80    27.20949    57.30971    -2.37732
   164  C   4.0   -0.02    4.33    4.25    24.48588    62.53352    -3.13500
   165  C   4.0   -0.05    4.18    3.97    24.63710    65.20007    -4.26421
   166  C   4.0   -0.08    4.13    3.87    22.22265    62.24238    -1.37348
   167  C   4.0   -0.08    4.02    3.65    24.91146    67.32084    -2.33869
   168  H   1.0    0.10    1.03    1.43    29.39301    60.57988    -4.63253
   169  H   1.0    0.06    1.07    1.44    27.21911    62.99848    -0.09727
   170  H   1.0    0.05    1.06    1.44    24.27547    61.19785    -4.70429
   171  H   1.0    0.04    1.03    1.43    26.23719    65.26654    -5.56723
   172  H   1.0    0.04    1.03    1.43    22.91260    65.48970    -5.36121
   173  H   1.0    0.03    1.00    1.43    20.53769    63.01300    -2.26018
   174  H   1.0    0.05    1.00    1.43    21.87740    60.25712    -0.96486
   175  H   1.0    0.05    1.00    1.43    22.56821    63.20678     0.40642
   176  H   1.0    0.04    1.00    1.43    24.82455    69.12886    -3.30563
   177  H   1.0    0.04    1.00    1.43    23.41495    67.24707    -0.93821
   178  H   1.0    0.05    1.00    1.43    26.72190    67.17251    -1.39166
   179  N   5.0   -0.14    3.44    2.04    26.02537    58.63284     1.51000
   180  C   4.0    0.04    4.42    4.41    25.93697    56.11677     2.60156
   181  C   4.0    0.15    3.43    3.09    23.98142    55.99568     4.70981
   182  O   6.0   -0.32    1.30    1.80    23.60366    57.82353     6.10299
   183  C   4.0   -0.02    4.25    4.10    28.51399    55.33743     3.67100
   184  C   4.0    0.26    3.08    3.02    28.87245    52.39709     3.82728
   185  O   6.0   -0.28    1.22    1.80    26.95912    51.05137     3.55852
   186  O   6.0   -0.27    1.16    1.80    31.06620    51.66070     4.19753
   187  H   1.0    0.11    1.08    1.44    25.86124    60.12801     2.69807
   188  H   1.0    0.07    1.06    1.44    25.41486    54.78400     1.10634
   189  H   1.0    0.06    1.02    1.43    30.03043    56.06310     2.47112
   190  H   1.0    0.06    1.02    1.43    28.82461    56.09546     5.57162
   191  N   5.0   -0.14    3.47    2.06    22.68995    53.83315     4.89525
   192  C   4.0    0.04    4.31    4.22    20.88316    53.37856     6.91124
   193  C   4.0    0.09    3.21    3.04    21.85060    51.17363     8.52111
   194  O   6.0   -0.26    1.12    1.80    22.32476    49.10021     7.61729
   195  C   4.0   -0.04    4.34    4.27    18.27711    52.79540     5.78307
   196  C   4.0   -0.02    4.17    3.94    16.10125    52.97737     7.69024
   197  C   4.0   -0.08    4.11    3.82    15.64420    55.69921     8.52434
   198  C   4.0   -0.08    4.11    3.82    13.68344    51.93788     6.50468
   199  H   1.0    0.12    1.10    1.44    23.47681    52.31054     4.02886
   200  H   1.0    0.07    1.07    1.44    20.83063    55.09984     8.04990
   201  H   1.0    0.04    1.03    1.43    17.94981    54.11478     4.22970
   202  H   1.0    0.06    1.03    1.43    18.36062    50.87973     5.01543
   203  H   1.0    0.05    1.05    1.44    16.59464    51.82847     9.34001
   204  H   1.0    0.04    1.00    1.43    14.02369    55.78691     9.78238
   205  H   1.0    0.05    1.00    1.43    17.27195    56.45555     9.51675
   206  H   1.0    0.03    1.00    1.43    15.27216    56.87595     6.88361
   207  H   1.0    0.04    1.00    1.43    12.14129    51.99887     7.85764
   208  H   1.0    0.04    1.00    1.43    13.15997    53.07495     4.87457
   209  H   1.0    0.04    1.00    1.43    13.95399    49.99632     5.89702
   210  H   1.0    0.09    1.08    1.44    11.65465    70.20702    -7.89665
   211  H   1.0    0.05    1.04    1.43     7.31490    65.04134    -4.56410
   212  H   1.0    0.09    1.08    1.44    18.84902    56.19790    18.88287
   213  H   1.0    0.05    1.04    1.43    28.08354    66.73639     5.53907
   214  H   1.0    0.09    1.08    1.44    30.36393    67.38046    14.46494
   215  H   1.0    0.05    1.04    1.44    15.59211    66.25924    18.04638
   216  H   1.0    0.09    1.08    1.44     3.84213    61.00175     7.70439
   217  H   1.0    0.07    1.05    1.44     8.18245    71.91570     1.31581
   218  H   1.0    0.09    1.09    1.44    29.02539    63.41703    -4.26471
   219  H   1.0    0.06    1.05    1.44    22.11439    51.40402    10.37809

  Z AO/shell   Hii/eV     exponent
  1     Wed Apr 25 08:07:45 CEST 2018   EN: 2.200 GM2: 0.406  GM3: 0.0800  RAES: 1.40
     1s    -10.707211    1.230000
  6     Wed Apr 25 08:07:45 CEST 2018   EN: 2.550 GM2: 0.538  GM3: 0.1500  RAES: 3.00
     2s    -13.970922    2.096432
     2p    -10.063292    1.800000
  7     Wed Apr 25 08:07:45 CEST 2018   EN: 3.040 GM2: 0.461  GM3:-0.0640  RAES: 1.90
     2s    -16.686243    2.339881
     2p    -12.523956    2.014332
  8     Wed Apr 25 08:07:45 CEST 2018   EN: 3.440 GM2: 0.452  GM3:-0.0517  RAES: 1.80
     2s    -20.229985    2.439742
     2p    -15.503117    2.137023
 16     Tue Apr 24 11:44:34 CEST 2018   EN: 2.580 GM2: 0.340  GM3:-0.0502  RAES: 3.10
     3s    -20.029654    1.981333
     3p    -11.377694    2.025643
     3d     -0.420282    1.702555
 no old-style atom pair restraining (fixing) potential

molecular fragmentation (1/2 indicates fragments):
111111111111111111122222222222222222222222222222222222222222222222222222
222222222222222222222222222222222222222222222222222222222222222222222222
222222222222222222222222222222222222222222222222222222222222222221122222
222
# atoms in fragment 1/2:    21   198
 fragment masses (1/2) :      115.17     1310.66
CMA distance (Bohr)    :  17.682
constraining FC (au)   :  0.0500
           ------------------------------------------------- 
          |        Self-Consistent Charge Iterations        |
           ------------------------------------------------- 

 Ncao       : 522
 Nao        : 521
 Nshell     : 319
 Nel        : 566
 T(el)      :   500.0
 intcut     :    35.0
 scfconv/Eh :  0.100E-06
   qconv/e  :  0.100E-04
 intneglect :  0.100E-08
 broydamp   :      0.400
 iter      E             dE          RMSdq      gap      omega  full diag
   1   -320.8995886 -0.320900E+03  0.444E+00    3.06       0.0  T
   2   -321.6419828 -0.742394E+00  0.208E+00    1.70       1.0  T
   3   -321.6893855 -0.474028E-01  0.120E+00    1.81       1.0  T
   4   -321.7387891 -0.494036E-01  0.245E-01    1.25       1.0  T
   5   -321.7412039 -0.241477E-02  0.125E-01    1.42       1.0  T
   6   -321.7417619 -0.558025E-03  0.536E-02    1.40       1.0  T
   7   -321.7418951 -0.133246E-03  0.242E-02    1.38       1.0  T
   8   -321.7419147 -0.196079E-04  0.119E-02    1.37       1.0  T
   9   -321.7419219 -0.712717E-05  0.586E-03    1.36       1.2  T
  10   -321.7419230 -0.112576E-05  0.246E-03    1.36       2.7  T
  11   -321.7419233 -0.268075E-06  0.107E-03    1.36       6.3  T
  12   -321.7419233 -0.311331E-07  0.469E-04    1.36      14.4  T
  13   -321.7419233 -0.104130E-07  0.241E-04    1.36      28.1  T
  14   -321.7419233 -0.186060E-08  0.100E-04    1.36      67.3  T
  15   -321.7419233 -0.580087E-09  0.421E-05    1.36     160.7  T
  16   -321.7419233 -0.720775E-10  0.195E-05    1.36     347.3  T
speedup  1.86
cpu  time for SCC    2.24 s
wall time for SCC    1.20 s

   *** convergence criteria satisfied after 16 iterations ***

          eigenvalues
 #    :         271        272        273        274        275        276        277        278
 occ. :        2.000      2.000      2.000      2.000      2.000      2.000      2.000      2.000
 eps  :       -10.797    -10.784    -10.783    -10.724    -10.638    -10.577    -10.055    -10.004
 #    :         279        280        281        282        283        284        285        286
 occ. :        2.000      2.000      2.000      2.000      2.000      0.000      0.000      0.000
 eps  :       -10.004     -9.918     -9.848     -9.800     -9.771     -8.414     -8.322     -7.972
 #    :         287        288        289        290        291        292        293        294
 occ. :        0.000      0.000      0.000      0.000      0.000      0.000      0.000      0.000
 eps  :        -7.931     -7.713     -6.536     -6.524     -6.416     -6.266     -6.229     -6.133


   #   Z            q   n(s)   n(p)   n(d)      C6AA      α(0)
   1   7 N     -0.385  1.324  4.061  0.000    29.964     8.130
   2   6 C      0.033  1.060  2.907  0.000    20.031     6.375
   3   6 C      0.203  1.087  2.710  0.000    23.684     7.970
   4   8 O     -0.372  1.759  4.613  0.000    21.124     6.162
   5   6 C     -0.023  1.069  2.954  0.000    20.947     6.509
   6   6 C     -0.060  1.050  3.011  0.000    21.660     6.626
   7   6 C     -0.118  1.039  3.079  0.000    22.821     6.811
   8   6 C     -0.108  1.036  3.072  0.000    22.622     6.783
   9   1 H      0.163  0.837  0.000  0.000     1.315     1.796
  10   1 H      0.056  0.944  0.000  0.000     2.247     2.344
  11   1 H      0.036  0.964  0.000  0.000     2.504     2.475
  12   1 H      0.039  0.961  0.000  0.000     2.464     2.455
  13   1 H      0.038  0.962  0.000  0.000     2.477     2.461
  14   1 H      0.053  0.947  0.000  0.000     2.284     2.363
  15   1 H      0.032  0.968  0.000  0.000     2.563     2.503
  16   1 H      0.047  0.953  0.000  0.000     2.355     2.400
  17   1 H      0.044  0.956  0.000  0.000     2.393     2.419
  18   1 H      0.041  0.959  0.000  0.000     2.441     2.443
  19   1 H      0.038  0.962  0.000  0.000     2.476     2.461
  20   7 N     -0.391  1.319  4.071  0.000    30.113     8.150
  21   6 C      0.020  1.062  2.917  0.000    20.247     6.408
  22   6 C      0.271  1.046  2.684  0.000    22.426     7.755
  23   8 O     -0.506  1.755  4.751  0.000    23.924     6.558
  24   6 C     -0.073  1.055  3.018  0.000    21.884     6.660
  25   6 C     -0.085  1.054  3.031  0.000    22.122     6.696
  26   6 C     -0.026  1.053  2.974  0.000    21.123     6.557
  27   7 N     -0.139  1.211  3.928  0.000    24.009     7.277
  28   6 C      0.233  1.018  2.749  0.000    23.118     7.872
  29   7 N     -0.240  1.235  4.006  0.000    26.281     7.614
  30   7 N     -0.265  1.238  4.027  0.000    26.875     7.699
  31   1 H      0.153  0.847  0.000  0.000     1.379     1.840
  32   1 H      0.062  0.938  0.000  0.000     2.175     2.306
  33   1 H      0.047  0.953  0.000  0.000     2.356     2.400
  34   1 H      0.031  0.969  0.000  0.000     2.576     2.510
  35   1 H      0.069  0.931  0.000  0.000     2.102     2.267
  36   1 H      0.066  0.934  0.000  0.000     2.128     2.281
  37   1 H      0.082  0.918  0.000  0.000     1.957     2.188
  38   1 H      0.090  0.910  0.000  0.000     1.875     2.142
  39   1 H      0.231  0.769  0.000  0.000     0.963     1.537
  40   1 H      0.254  0.746  0.000  0.000     0.868     1.459
  41   1 H      0.250  0.750  0.000  0.000     0.883     1.472
  42   1 H      0.238  0.762  0.000  0.000     0.930     1.511
  43   1 H      0.248  0.752  0.000  0.000     0.890     1.478
  44   7 N     -0.191  1.256  3.935  0.000    25.133     7.446
  45   6 C      0.019  1.060  2.922  0.000    20.267     6.411
  46   6 C      0.269  1.049  2.682  0.000    22.449     7.759
  47   8 O     -0.492  1.725  4.766  0.000    23.601     6.513
  48   6 C     -0.076  1.060  3.016  0.000    21.937     6.667
  49   6 C     -0.008  1.054  2.953  0.000    20.680     6.468
  50   6 C     -0.114  1.039  3.075  0.000    22.742     6.799
  51   6 C     -0.113  1.041  3.072  0.000    22.714     6.795
  52   1 H      0.228  0.772  0.000  0.000     0.974     1.546
  53   1 H      0.077  0.923  0.000  0.000     2.007     2.216
  54   1 H      0.065  0.935  0.000  0.000     2.137     2.286
  55   1 H      0.055  0.945  0.000  0.000     2.263     2.353
  56   1 H      0.020  0.980  0.000  0.000     2.736     2.587
  57   1 H      0.037  0.963  0.000  0.000     2.484     2.465
  58   1 H      0.033  0.967  0.000  0.000     2.545     2.495
  59   1 H      0.045  0.955  0.000  0.000     2.386     2.416
  60   1 H      0.038  0.962  0.000  0.000     2.478     2.462
  61   1 H      0.048  0.952  0.000  0.000     2.342     2.393
  62   1 H      0.044  0.956  0.000  0.000     2.398     2.421
  63   7 N     -0.165  1.243  3.921  0.000    24.565     7.361
  64   6 C      0.034  1.055  2.912  0.000    20.019     6.372
  65   6 C      0.193  1.090  2.717  0.000    23.869     8.001
  66   8 O     -0.358  1.754  4.604  0.000    20.851     6.122
  67   6 C     -0.063  1.053  3.010  0.000    21.699     6.630
  68   6 C     -0.001  1.075  2.926  0.000    28.057     8.688
  69   6 C     -0.034  1.082  2.952  0.000    28.858     8.810
  70   6 C     -0.045  1.083  2.962  0.000    29.111     8.848
  71   6 C     -0.060  1.074  2.987  0.000    29.493     8.906
  72   6 C     -0.076  1.077  2.998  0.000    29.888     8.965
  73   6 C      0.141  1.044  2.815  0.000    24.917     8.181
  74   8 O     -0.411  1.697  4.713  0.000    21.055     6.194
  75   1 H      0.226  0.774  0.000  0.000     0.982     1.552
  76   1 H      0.085  0.915  0.000  0.000     1.926     2.170
  77   1 H      0.046  0.954  0.000  0.000     2.373     2.409
  78   1 H      0.061  0.939  0.000  0.000     2.187     2.313
  79   1 H      0.025  0.975  0.000  0.000     2.651     2.546
  80   1 H      0.044  0.956  0.000  0.000     2.393     2.419
  81   1 H      0.061  0.939  0.000  0.000     2.191     2.315
  82   1 H      0.059  0.941  0.000  0.000     2.215     2.328
  83   1 H      0.360  0.640  0.000  0.000     0.564     1.180
  84   7 N     -0.393  1.317  4.076  0.000    30.190     8.160
  85   6 C      0.032  1.061  2.907  0.000    20.054     6.378
  86   6 C      0.277  1.045  2.678  0.000    22.311     7.735
  87   8 O     -0.496  1.752  4.743  0.000    23.689     6.526
  88   6 C     -0.067  1.057  3.009  0.000    21.751     6.636
  89   6 C     -0.016  1.064  2.952  0.000    20.866     6.505
  90  16 S     -0.216  1.907  4.259  0.050   150.276    20.632
  91   6 C     -0.049  1.050  2.999  0.000    21.525     6.618
  92   1 H      0.166  0.834  0.000  0.000     1.296     1.783
  93   1 H      0.028  0.972  0.000  0.000     2.610     2.527
  94   1 H      0.058  0.942  0.000  0.000     2.224     2.332
  95   1 H      0.055  0.945  0.000  0.000     2.256     2.349
  96   1 H      0.036  0.964  0.000  0.000     2.501     2.473
  97   1 H      0.078  0.922  0.000  0.000     2.002     2.212
  98   1 H      0.059  0.941  0.000  0.000     2.205     2.322
  99   1 H      0.051  0.949  0.000  0.000     2.302     2.373
 100   1 H      0.029  0.971  0.000  0.000     2.607     2.525
 101   7 N     -0.204  1.253  3.952  0.000    25.445     7.492
 102   6 C      0.018  1.063  2.920  0.000    20.278     6.412
 103   6 C      0.271  1.046  2.683  0.000    22.427     7.755
 104   8 O     -0.491  1.751  4.740  0.000    23.588     6.512
 105   6 C     -0.021  1.065  2.956  0.000    20.908     6.504
 106   6 C     -0.058  1.048  3.010  0.000    21.618     6.620
 107   6 C     -0.113  1.040  3.073  0.000    22.707     6.794
 108   6 C     -0.110  1.037  3.073  0.000    22.660     6.788
 109   1 H      0.225  0.775  0.000  0.000     0.986     1.556
 110   1 H      0.077  0.923  0.000  0.000     2.006     2.215
 111   1 H      0.047  0.953  0.000  0.000     2.356     2.401
 112   1 H      0.030  0.970  0.000  0.000     2.591     2.517
 113   1 H      0.035  0.965  0.000  0.000     2.520     2.483
 114   1 H      0.055  0.945  0.000  0.000     2.264     2.353
 115   1 H      0.041  0.959  0.000  0.000     2.441     2.443
 116   1 H      0.040  0.960  0.000  0.000     2.442     2.444
 117   1 H      0.042  0.958  0.000  0.000     2.420     2.433
 118   1 H      0.042  0.958  0.000  0.000     2.422     2.434
 119   1 H      0.045  0.955  0.000  0.000     2.386     2.416
 120   7 N     -0.179  1.239  3.940  0.000    24.874     7.407
 121   6 C      0.024  1.060  2.916  0.000    20.173     6.396
 122   6 C      0.196  1.090  2.714  0.000    23.812     7.992
 123   8 O     -0.342  1.739  4.603  0.000    20.556     6.079
 124   6 C     -0.060  1.051  3.009  0.000    21.644     6.623
 125   6 C     -0.109  1.059  3.049  0.000    22.569     6.763
 126   6 C      0.289  1.036  2.675  0.000    22.100     7.697
 127   8 O     -0.487  1.743  4.744  0.000    23.497     6.499
 128   7 N     -0.284  1.263  4.020  0.000    27.327     7.764
 129   1 H      0.213  0.787  0.000  0.000     1.040     1.598
 130   1 H      0.091  0.909  0.000  0.000     1.872     2.139
 131   1 H      0.072  0.928  0.000  0.000     2.059     2.244
 132   1 H      0.072  0.928  0.000  0.000     2.060     2.244
 133   1 H      0.081  0.919  0.000  0.000     1.968     2.194
 134   1 H      0.083  0.917  0.000  0.000     1.948     2.183
 135   1 H      0.233  0.767  0.000  0.000     0.951     1.528
 136   1 H      0.221  0.779  0.000  0.000     1.005     1.570
 137   7 N     -0.387  1.316  4.072  0.000    30.027     8.138
 138   6 C      0.022  1.063  2.916  0.000    20.219     6.404
 139   6 C      0.272  1.045  2.682  0.000    22.395     7.750
 140   8 O     -0.500  1.753  4.747  0.000    23.789     6.539
 141   6 C     -0.019  1.063  2.956  0.000    20.872     6.498
 142   6 C     -0.114  1.040  3.073  0.000    22.730     6.797
 143   6 C     -0.105  1.035  3.070  0.000    22.553     6.771
 144   1 H      0.151  0.849  0.000  0.000     1.392     1.848
 145   1 H      0.058  0.942  0.000  0.000     2.224     2.332
 146   1 H      0.028  0.972  0.000  0.000     2.612     2.527
 147   1 H      0.049  0.951  0.000  0.000     2.330     2.387
 148   1 H      0.045  0.955  0.000  0.000     2.379     2.412
 149   1 H      0.040  0.960  0.000  0.000     2.450     2.448
 150   1 H      0.040  0.960  0.000  0.000     2.455     2.450
 151   1 H      0.040  0.960  0.000  0.000     2.449     2.447
 152   1 H      0.027  0.973  0.000  0.000     2.631     2.537
 153   7 N     -0.178  1.240  3.938  0.000    24.856     7.405
 154   6 C     -0.019  1.042  2.977  0.000    20.983     6.535
 155   6 C      0.204  1.085  2.711  0.000    23.670     7.967
 156   8 O     -0.361  1.755  4.606  0.000    20.909     6.131
 157   1 H      0.227  0.773  0.000  0.000     0.976     1.548
 158   1 H      0.101  0.899  0.000  0.000     1.776     2.084
 159   1 H      0.087  0.913  0.000  0.000     1.904     2.158
 160   7 N     -0.396  1.320  4.075  0.000    30.252     8.169
 161   6 C      0.024  1.063  2.913  0.000    20.184     6.398
 162   6 C      0.280  1.047  2.673  0.000    22.266     7.727
 163   8 O     -0.522  1.760  4.762  0.000    24.283     6.607
 164   6 C     -0.019  1.065  2.954  0.000    20.880     6.499
 165   6 C     -0.058  1.050  3.007  0.000    21.612     6.619
 166   6 C     -0.112  1.039  3.073  0.000    22.696     6.793
 167   6 C     -0.113  1.035  3.078  0.000    22.721     6.798
 168   1 H      0.147  0.853  0.000  0.000     1.420     1.867
 169   1 H      0.065  0.935  0.000  0.000     2.146     2.291
 170   1 H      0.019  0.981  0.000  0.000     2.755     2.596
 171   1 H      0.028  0.972  0.000  0.000     2.621     2.532
 172   1 H      0.043  0.957  0.000  0.000     2.407     2.426
 173   1 H      0.053  0.947  0.000  0.000     2.281     2.362
 174   1 H      0.021  0.979  0.000  0.000     2.725     2.581
 175   1 H      0.050  0.950  0.000  0.000     2.324     2.384
 176   1 H      0.045  0.955  0.000  0.000     2.382     2.413
 177   1 H      0.049  0.951  0.000  0.000     2.337     2.390
 178   1 H      0.039  0.961  0.000  0.000     2.456     2.451
 179   7 N     -0.192  1.254  3.938  0.000    25.156     7.449
 180   6 C      0.043  1.052  2.905  0.000    19.851     6.344
 181   6 C      0.270  1.048  2.682  0.000    22.433     7.756
 182   8 O     -0.481  1.720  4.761  0.000    23.376     6.482
 183   6 C     -0.089  1.071  3.019  0.000    22.204     6.709
 184   6 C      0.371  1.023  2.606  0.000    20.706     7.447
 185   8 O     -0.629  1.766  4.863  0.000    26.841     6.946
 186   8 O     -0.632  1.770  4.862  0.000    26.912     6.955
 187   1 H      0.220  0.780  0.000  0.000     1.010     1.575
 188   1 H      0.048  0.952  0.000  0.000     2.339     2.392
 189   1 H      0.031  0.969  0.000  0.000     2.576     2.510
 190   1 H      0.023  0.977  0.000  0.000     2.690     2.565
 191   7 N     -0.171  1.258  3.913  0.000    24.707     7.382
 192   6 C      0.029  1.059  2.912  0.000    20.091     6.383
 193   6 C      0.205  1.086  2.709  0.000    23.638     7.962
 194   8 O     -0.366  1.763  4.603  0.000    21.004     6.145
 195   6 C     -0.070  1.060  3.009  0.000    21.824     6.650
 196   6 C     -0.009  1.056  2.953  0.000    20.711     6.473
 197   6 C     -0.118  1.041  3.077  0.000    22.804     6.809
 198   6 C     -0.117  1.042  3.075  0.000    22.790     6.806
 199   1 H      0.210  0.790  0.000  0.000     1.055     1.609
 200   1 H      0.101  0.899  0.000  0.000     1.780     2.086
 201   1 H      0.061  0.939  0.000  0.000     2.187     2.313
 202   1 H      0.050  0.950  0.000  0.000     2.324     2.384
 203   1 H      0.031  0.969  0.000  0.000     2.576     2.510
 204   1 H      0.053  0.947  0.000  0.000     2.280     2.361
 205   1 H      0.044  0.956  0.000  0.000     2.402     2.423
 206   1 H      0.044  0.956  0.000  0.000     2.393     2.419
 207   1 H      0.054  0.946  0.000  0.000     2.265     2.353
 208   1 H      0.044  0.956  0.000  0.000     2.390     2.418
 209   1 H      0.036  0.964  0.000  0.000     2.508     2.477
 210   1 H      0.184  0.816  0.000  0.000     1.191     1.709
 211   1 H      0.064  0.936  0.000  0.000     2.154     2.295
 212   1 H      0.195  0.805  0.000  0.000     1.132     1.667
 213   1 H      0.091  0.909  0.000  0.000     1.866     2.136
 214   1 H      0.178  0.822  0.000  0.000     1.225     1.733
 215   1 H      0.101  0.899  0.000  0.000     1.773     2.082
 216   1 H      0.184  0.816  0.000  0.000     1.189     1.708
 217   1 H      0.078  0.922  0.000  0.000     2.000     2.212
 218   1 H      0.189  0.811  0.000  0.000     1.166     1.691
 219   1 H      0.083  0.917  0.000  0.000     1.951     2.184

 Mol. C6AA /au·bohr⁶  :     425439.519699
 Mol. C8AA /au·bohr⁸  :    9494826.536048
 Mol. α(0) /au        :        979.034713

 
molecular dipole:
                 x           y           z       tot (Debye)
 q only:       -3.559       2.981      21.776
   full:       -2.181       2.486      21.000      54.035
molecular quadrupole (traceless):
                xx          xy          yy          xz          yz          zz
 q only:     -605.499    -115.579      51.153     735.045    1811.216     554.346
  q+dip:     -516.400       4.037     -24.077     722.205    1739.118     540.477
   full:     -512.357       2.087     -28.181     721.680    1737.647     540.538
speedup  1.88
cpu  time for grad    2.77 s
wall time for grad    1.47 s

SCC energy    :    -321.7543570
rep           :       4.0631096
ES            :       0.8740314
AES           :      -0.0123188
AXC           :       0.1273825
disp          :      -0.2640957
XB            :       0.0000000
fix           :       0.0000000
Gborn         :       0.0000000
Gsasa         :       0.0000000
Ghb           :       0.0000000
Gshift        :       0.0000000
Gsolv         :      -0.2370876     -148.77
Etot ala COSMO:    -321.7543570
grad norm     :       0.5021247
total E       :    -317.6690721
atomizationE  :      59.4529455    37307.29
(atE without considering molecular charge,
 total energy contains solvation terms)
H-L gap (eV)  :          1.3577

------------------------------------------------------------------------
 * finished run on 2019/05/08 at 07:14:19.100     
------------------------------------------------------------------------
 total:
 * wall-time:     0 d,  0 h,  0 min,  1.709 sec
 *  cpu-time:     0 d,  0 h,  0 min,  3.140 sec
 * ratio c/w:     1.837 speedup
 SCF:
 * wall-time:     0 d,  0 h,  0 min,  1.569 sec
 *  cpu-time:     0 d,  0 h,  0 min,  2.967 sec
 * ratio c/w:     1.891 speedup

