      -----------------------------------------------------------      
     |                   =====================                   |     
     |                           x T B                           |     
     |                   =====================                   |     
     |                         S. Grimme                         |     
     |          Mulliken Center for Theoretical Chemistry        |     
     |                    University of Bonn                     |     
     |                 Version 6.0.1 (SAW181210)                 |     
      -----------------------------------------------------------      

   This program is distributed in the hope that it will be useful,
   but WITHOUT ANY WARRANTY; without even the implied warranty of
   MERCHANTABILITY or FITNESS FOR A PARTICULAR PURPOSE.
   
   FOR NON-COMMERCIAL, ACADEMIA USE ONLY.
   
   Cite this work as:
   S. Grimme, C. Bannwarth, P. Shushkov, J. Comput. Theory Chem., 2017,
   13, 1989-2009.
   C. Bannwarth, S. Ehlert and S. Grimme., ChemRxiv, 2018, preprint.
   http://doi.org/10.26434/chemrxiv.7246238.v1
   
   for sTDA-xTB:
   S. Grimme and C. Bannwarth, J. Chem. Phys., 2016, 145, 054103.
   
   in the mass-spec context:
   V. Asgeirsson, C. Bauer and S. Grimme, Chem. Sci., 2017, 8, 4879.
   
   if GBSA is used:
   P. Shushkov, F. März and S. Grimme, unpublished.
   
   for ANC optimizer:
   S. Grimme, unpublished.
   Rational Function algorithm used in ANCopt:
   F. Eckert, P. Pulay, H.-J. Werner, J. Comput. Chem., 1997, 18, 1473.
   
   with help from (in alphabetical order)
   C. Bannwarth, F. Bohle, G. Brandenburg, E. Caldeweyher, M. Checinski,
   S. Dohm, S. Ehlert, S. Ehrlich, F. März, H. Neugebauer, J. Pisarek,
   P. Pracht, P. Shushkov, and S. Spicher.
   
 * started run on 2019/05/05 at 12:29:10.868     
========================================================================
 # omp threads = 2
========================================================================
number of atoms            : 361
number of electrons        : 958
charge                     : 2
spin                       : .0
first test random number   : .0063

########################################################################
# WARNING! Please study the warnings concerning your input carefully
#  - Process number higher than OMP_NUM_THREADS, I hope you know what you are doing.
########################################################################

           ------------------------------------------------- 
          |                 G F N 2 - x T B                 |
          | Geometry, Frequencies, Noncovalent interactions |
          |            JCTC 2018 parametrisation            |
           ------------------------------------------------- 
 
      method parameters     
 k(s)        :  1.8500
 k(p)        :  2.2300
 k(d)        :  2.2300
 k(f)        :  2.0000
 kEN (H0ij)  : -2.0000
 D4 a1       :  0.5200
 D4 a2       :  5.0000
 D4 s6       :  1.0000
 D4 s8       :  2.7000
 D4 s9       :  5.0000
 alphaj      :  2.0000

 Solvent             : h2o
 Using internal parameter file: .param_gbsa2_h2o
 Gsolv ref. state (COSMO-RS): gsolv [1 M gas/solution]
 temperature (mdtemp)       :    298.150000000000     
 dielectric constant        :    80.2000000000000     
 rho                        :    1.00000000000000     
 mass                       :    18.0000000000000     
 surface tension            :    15.5689454083859     
 probe radius               :   0.975313790000000     
 vdW radii scaling          :    1.00000000000000     
 Gshift (Eh)                :   1.857443126794793E-003
 c1                         :    1.55243817000000     
 soset                      :   0.130326360000000     
 HB correction              :  T

            Z     q(EN)     CN     RAES       Cart. coordinates
     1  N   5.0   -0.21    3.23    1.96     4.76400    53.07106   188.92724
     2  C   4.0    0.03    4.31    4.21     5.03990    53.89120   186.33265
     3  C   4.0    0.15    3.42    3.09     2.44153    54.40521   185.16102
     4  O   6.0   -0.30    1.23    1.80     2.09949    56.20801   183.71538
     5  C   4.0   -0.04    4.27    4.14     6.47609    51.89376   184.80764
     6  C   4.0   -0.03    4.17    3.95     7.07891    52.66855   182.08454
     7  C   4.0    0.25    3.11    3.02     6.77467    50.51237   180.17403
     8  O   6.0   -0.25    1.17    1.80     7.58725    48.34864   180.72016
     9  O   6.0   -0.26    1.17    1.80     5.71642    51.00370   178.11234
    10  H   1.0    0.09    1.03    1.43     5.79201    51.50070   189.36566
    11  H   1.0    0.05    1.06    1.44     6.14350    55.62975   186.27029
    12  H   1.0    0.06    1.03    1.43     8.26377    51.50448   185.75439
    13  H   1.0    0.06    1.04    1.43     5.33470    50.18167   184.72827
    14  H   1.0    0.06    1.04    1.43     5.80524    54.18789   181.52707
    15  H   1.0    0.05    1.03    1.43     9.03100    53.31862   181.99573
    16  N   5.0   -0.14    3.51    2.08     0.60282    52.83107   185.80730
    17  C   4.0    0.03    4.55    4.61    -1.89162    53.07295   184.69237
    18  C   4.0    0.15    3.52    3.12    -3.37694    55.17433   185.89801
    19  O   6.0   -0.32    1.27    1.80    -4.62794    56.62186   184.59788
    20  C   4.0   -0.03    4.39    4.35    -3.47143    50.67300   185.04385
    21  C   4.0   -0.04    4.19    3.98    -2.23744    48.41667   183.71160
    22  C   4.0   -0.07    4.18    3.95    -6.18129    51.12276   184.12545
    23  C   4.0   -0.06    4.04    3.69    -4.04590    46.21514   183.28263
    24  H   1.0    0.08    1.06    1.44     0.77857    51.39110   187.07720
    25  H   1.0    0.06    1.06    1.44    -1.54391    53.43767   182.69493
    26  H   1.0    0.04    1.06    1.44    -3.54702    50.21758   187.05074
    27  H   1.0    0.05    1.03    1.43    -1.54013    49.02894   181.87289
    28  H   1.0    0.05    1.03    1.43    -0.67463    47.73448   184.86622
    29  H   1.0    0.04    1.01    1.43    -7.27356    49.39744   184.39001
    30  H   1.0    0.05    1.01    1.43    -7.01466    52.65721   185.21960
    31  H   1.0    0.05    1.00    1.43    -6.13783    51.62731   182.12801
    32  H   1.0    0.06    1.00    1.43    -3.03490    44.69202   182.33210
    33  H   1.0    0.05    1.00    1.43    -4.74888    45.56129   185.10433
    34  H   1.0    0.05    1.01    1.43    -5.61627    46.85575   182.11289
    35  N   5.0   -0.15    3.53    2.10    -3.26356    55.28960   188.40190
    36  C   4.0    0.03    4.38    4.34    -4.88683    56.94500   189.87588
    37  C   4.0    0.15    3.45    3.09    -4.06858    59.68888   189.66990
    38  O   6.0   -0.32    1.24    1.80    -5.59170    61.42932   189.97415
    39  C   4.0   -0.07    4.15    3.90    -4.86982    56.12486   192.57441
    40  H   1.0    0.08    1.07    1.44    -2.05224    54.24647   189.47904
    41  H   1.0    0.05    1.06    1.44    -6.81435    56.80516   189.16346
    42  H   1.0    0.05    1.01    1.43    -6.09059    57.37586   193.66289
    43  H   1.0    0.04    1.00    1.43    -5.56524    54.18978   192.69158
    44  H   1.0    0.05    1.00    1.43    -2.94230    56.22313   193.29251
    45  N   5.0   -0.14    3.52    2.09    -1.62894    60.05171   189.21826
    46  C   4.0    0.03    4.38    4.34    -0.60660    62.51780   188.60032
    47  C   4.0    0.16    3.51    3.12    -2.02390    63.63085   186.34966
    48  O   6.0   -0.32    1.51    1.80    -2.96876    65.75112   186.46493
    49  C   4.0   -0.06    4.19    3.97     2.13539    62.26080   187.97482
    50  H   1.0    0.08    1.07    1.44    -0.29858    58.65709   189.26739
    51  H   1.0    0.05    1.06    1.44    -0.79935    63.78014   190.21603
    52  H   1.0    0.07    1.02    1.43     2.89506    64.11840   187.51184
    53  H   1.0    0.05    1.00    1.43     3.12561    61.48412   189.60565
    54  H   1.0    0.06    1.01    1.43     2.33948    60.99657   186.36099
    55  N   5.0   -0.13    3.49    2.07    -2.11082    62.15876   184.30686
    56  C   4.0    0.04    4.36    4.32    -3.50922    62.73512   181.99951
    57  C   4.0    0.16    3.46    3.10    -5.89217    64.27714   182.56264
    58  O   6.0   -0.29    1.23    1.80    -6.57247    65.97033   181.13968
    59  C   4.0   -0.04    4.26    4.13    -4.16118    60.23124   180.66158
    60  C   4.0   -0.05    4.11    3.83    -5.16651    60.37863   177.93660
    61  C   4.0   -0.05    4.10    3.81    -6.86915    58.06372   177.28275
    62  C   4.0   -0.03    4.07    3.75    -8.44519    58.42277   174.82800
    63  N   5.0   -0.11    3.98    2.80   -10.74687    56.75981   174.60123
    64  H   1.0    0.09    1.07    1.44    -1.18675    60.47123   184.18781
    65  H   1.0    0.07    1.06    1.44    -2.35838    63.88974   180.74095
    66  H   1.0    0.06    1.03    1.43    -2.45097    59.08606   180.60111
    67  H   1.0    0.07    1.05    1.44    -5.60871    59.27881   181.77652
    68  H   1.0    0.05    1.03    1.43    -6.29090    62.09073   177.71550
    69  H   1.0    0.05    1.02    1.43    -3.57914    60.40509   176.62513
    70  H   1.0    0.05    1.02    1.43    -5.67107    56.40832   177.02386
    71  H   1.0    0.05    1.03    1.43    -8.18629    57.74625   178.83422
    72  H   1.0    0.05    1.02    1.43    -9.09147    60.37674   174.75052
    73  H   1.0    0.05    1.02    1.43    -7.23387    58.01648   173.21228
    74  H   1.0    0.07    1.01    1.43   -12.12259    57.65932   173.52220
    75  H   1.0    0.07    1.01    1.43   -10.26688    55.06283   173.73573
    76  H   1.0    0.08    1.06    1.44   -11.48197    56.38186   176.38513
    77  N   5.0   -0.13    3.55    2.11    -7.12427    63.73668   184.67725
    78  C   4.0    0.04    4.43    4.42    -9.49776    64.99901   185.30086
    79  C   4.0    0.15    3.37    3.07    -9.30879    67.37440   186.96571
    80  O   6.0   -0.29    1.26    1.80   -11.11537    68.81059   187.16224
    81  C   4.0   -0.03    4.32    4.24   -11.37615    63.08094   186.39501
    82  C   4.0   -0.01    3.57    3.15   -11.89394    60.99091   184.54308
    83  C   4.0   -0.04    3.48    3.11   -13.57390    61.36507   182.55320
    84  C   4.0   -0.04    3.46    3.10   -10.64672    58.68355   184.71504
    85  C   4.0   -0.03    3.42    3.09   -14.03877    59.50369   180.79197
    86  C   4.0   -0.05    3.43    3.09   -11.08702    56.79949   182.96327
    87  C   4.0    0.06    3.45    3.10   -12.78778    57.22468   180.98850
    88  O   6.0   -0.23    2.15    1.85   -13.25643    55.37842   179.20082
    89  H   1.0    0.10    1.08    1.44    -6.53845    62.44788   185.98494
    90  H   1.0    0.07    1.08    1.44   -10.28389    65.71522   183.53774
    91  H   1.0    0.05    1.04    1.43   -10.59002    62.25513   188.10899
    92  H   1.0    0.05    1.03    1.43   -13.15438    64.02958   186.82209
    93  H   1.0    0.06    1.03    1.43   -14.53577    63.15653   182.38501
    94  H   1.0    0.06    1.03    1.43    -9.32202    58.36230   186.23249
    95  H   1.0    0.07    1.03    1.43   -15.36725    59.82494   179.27641
    96  H   1.0    0.05    1.03    1.43   -10.12137    55.00803   183.11822
    97  H   1.0    0.12    1.02    1.43   -12.24542    53.87042   179.56743
    98  N   5.0   -0.13    3.50    2.08    -7.13938    67.82604   188.13167
    99  C   4.0    0.04    4.43    4.42    -6.88616    69.98600   189.83053
   100  C   4.0    0.15    3.40    3.08    -6.29090    72.49934   188.49071
   101  O   6.0   -0.32    1.39    1.80    -4.47676    72.65618   187.04885
   102  C   4.0   -0.05    4.28    4.16    -4.89817    69.38885   191.82230
   103  C   4.0   -0.05    4.20    4.01    -5.42351    66.92464   193.20936
   104  C   4.0   -0.05    4.16    3.92    -3.68308    66.60906   195.49782
   105  C   4.0   -0.03    4.11    3.82    -4.40873    64.29982   197.08519
   106  N   5.0   -0.11    3.98    2.82    -2.33381    63.47778   198.83696
   107  H   1.0    0.12    1.15    1.45    -5.54824    66.75457   187.94647
   108  H   1.0    0.05    1.09    1.44    -8.71731    70.29970   190.71870
   109  H   1.0    0.05    1.03    1.43    -3.05947    69.22822   190.90767
   110  H   1.0    0.04    1.03    1.43    -4.86226    70.90819   193.21125
   111  H   1.0    0.04    1.03    1.43    -7.37371    66.91709   193.87265
   112  H   1.0    0.06    1.03    1.43    -5.10793    65.34105   191.93191
   113  H   1.0    0.04    1.03    1.43    -1.74422    66.36340   194.84964
   114  H   1.0    0.05    1.03    1.43    -3.81914    68.28147   196.69213
   115  H   1.0    0.05    1.02    1.43    -6.06035    64.76091   198.22658
   116  H   1.0    0.05    1.02    1.43    -4.83959    62.72756   195.82663
   117  H   1.0    0.08    1.01    1.43    -2.91018    61.90931   199.87253
   118  H   1.0    0.07    1.01    1.43    -0.72943    63.00535   197.80328
   119  H   1.0    0.07    1.01    1.43    -1.88784    64.93287   200.08040
   120  N   5.0   -0.14    3.45    2.05    -7.81402    74.45331   188.98015
   121  C   4.0    0.04    4.38    4.34    -7.41339    76.95342   187.85010
   122  C   4.0    0.15    3.43    3.09    -7.60615    76.85326   184.93803
   123  O   6.0   -0.31    1.32    1.80    -6.34003    78.26867   183.58688
   124  C   4.0   -0.02    4.29    4.19    -4.82258    78.03434   188.63622
   125  C   4.0    0.05    3.69    3.23    -4.24810    77.82080   191.41034
   126  N   5.0   -0.14    2.58    1.90    -5.25155    79.42329   193.20369
   127  C   4.0   -0.00    3.60    3.17    -2.71932    76.20131   192.69158
   128  C   4.0    0.07    3.56    3.14    -4.40684    78.78645   195.46569
   129  N   5.0   -0.11    3.47    2.06    -2.87994    76.83437   195.21247
   130  H   1.0    0.08    1.05    1.44    -9.34281    74.36450   190.15178
   131  H   1.0    0.05    1.05    1.44    -8.88738    78.22143   188.53040
   132  H   1.0    0.06    1.04    1.43    -3.35048    77.01578   187.61577
   133  H   1.0    0.06    1.03    1.43    -4.76778    80.03367   188.14301
   134  H   1.0    0.05    1.01    1.43    -1.59304    74.70276   191.88655
   135  H   1.0    0.06    1.01    1.43    -4.88494    79.70864   197.22314
   136  H   1.0    0.08    1.04    1.43    -1.96343    75.93675   196.65244
   137  N   5.0   -0.14    3.51    2.08    -9.22753    75.19597   183.98750
   138  C   4.0    0.04    4.43    4.42    -9.33903    74.64795   181.29653
   139  C   4.0    0.16    3.48    3.11    -9.51099    76.98177   179.66003
   140  O   6.0   -0.31    1.26    1.80    -8.69652    76.99877   177.47928
   141  C   4.0    0.04    4.19    3.97   -11.64260    73.01334   180.75040
   142  O   6.0   -0.23    2.04    1.83   -11.39316    70.58504   181.82187
   143  H   1.0    0.09    1.07    1.44   -10.49743    74.19442   185.03441
   144  H   1.0    0.06    1.06    1.44    -7.60237    73.65396   180.80709
   145  H   1.0    0.05    1.02    1.43   -13.30934    73.92419   181.54786
   146  H   1.0    0.06    1.02    1.43   -11.85425    72.82248   178.70949
   147  H   1.0    0.14    1.03    1.43   -11.42150    70.70221   183.67002
   148  N   5.0   -0.13    3.57    2.13   -10.65805    78.93196   180.71638
   149  C   4.0    0.04    4.48    4.51   -11.24009    81.21475   179.31610
   150  C   4.0    0.09    3.34    3.06    -8.84770    82.67740   178.90980
   151  O   6.0   -0.27    1.15    1.80    -7.93118    82.94007   176.77819
   152  C   4.0   -0.03    4.38    4.35   -12.96919    82.88527   180.86000
   153  C   4.0   -0.06    4.17    3.95   -13.50209    85.30223   179.48239
   154  C   4.0   -0.06    4.18    3.95   -15.35402    81.49065   181.43259
   155  H   1.0    0.08    1.08    1.44   -11.21552    78.98865   182.56075
   156  H   1.0    0.06    1.06    1.44   -12.09425    80.68563   177.51897
   157  H   1.0    0.05    1.07    1.44   -12.05645    83.37849   182.64012
   158  H   1.0    0.06    1.00    1.43   -14.74931    86.47008   180.63323
   159  H   1.0    0.06    1.01    1.43   -11.72575    86.29056   179.14980
   160  H   1.0    0.06    1.00    1.43   -14.40916    84.86381   177.68526
   161  H   1.0    0.06    1.00    1.43   -16.58990    82.70575   182.54564
   162  H   1.0    0.05    1.00    1.43   -16.27621    80.98232   179.66192
   163  H   1.0    0.05    1.01    1.43   -14.89671    79.78990   182.49839
   164  N   5.0   -0.18    3.26    1.97    -3.42985    81.02956   179.83955
   165  C   4.0    0.04    4.34    4.27    -1.82359    79.50077   178.25974
   166  C   4.0    0.16    3.43    3.09    -2.32247    80.16784   175.50452
   167  O   6.0   -0.25    1.25    1.80    -0.68030    81.18263   174.22706
   168  C   4.0   -0.04    4.31    4.22    -2.27901    76.71531   178.78886
   169  C   4.0   -0.04    4.20    3.99    -1.06392    75.81392   181.20582
   170  C   4.0   -0.04    4.18    3.95    -1.97098    73.16263   181.92014
   171  C   4.0   -0.02    4.15    3.89    -0.28913    71.96832   183.94781
   172  N   5.0   -0.09    4.13    3.24    -1.37194    69.59672   184.98338
   173  H   1.0    0.12    1.07    1.44    -4.31235    80.06580   181.25684
   174  H   1.0    0.06    1.06    1.44     0.16063    79.85604   178.68493
   175  H   1.0    0.06    1.04    1.43    -4.30669    76.38839   178.94004
   176  H   1.0    0.04    1.03    1.43    -1.50044    75.60605   177.23740
   177  H   1.0    0.05    1.03    1.43     0.98077    75.75533   180.96205
   178  H   1.0    0.06    1.03    1.43    -1.55335    77.10082   182.73839
   179  H   1.0    0.07    1.03    1.43    -3.89095    73.27601   182.65713
   180  H   1.0    0.05    1.03    1.43    -1.92752    71.95509   180.25151
   181  H   1.0    0.05    1.02    1.43     1.54580    71.52613   183.12578
   182  H   1.0    0.05    1.03    1.43    -0.06236    73.29869   185.50306
   183  H   1.0    0.07    1.03    1.43    -0.05291    68.70099   186.13234
   184  H   1.0    0.11    1.10    1.44    -2.97632    69.99734   186.04541
   185  H   1.0    0.09    1.03    1.43    -1.86516    68.38540   183.51507
   186  N   5.0   -0.13    3.48    2.07    -4.60148    79.68407   174.60123
   187  C   4.0    0.05    4.38    4.34    -5.14383    80.12816   171.94805
   188  C   4.0    0.11    3.23    3.04    -5.14761    82.89472   171.22429
   189  O   6.0   -0.23    1.12    1.80    -3.71898    83.69407   169.57834
   190  C   4.0   -0.04    4.28    4.15    -7.63827    78.91496   171.17705
   191  C   4.0   -0.04    4.19    3.97    -7.34725    76.19753   170.27376
   192  C   4.0   -0.04    4.18    3.97    -5.63138    75.98210   167.95128
   193  C   4.0   -0.03    4.14    3.89    -4.82825    73.24200   167.56011
   194  N   5.0   -0.11    4.00    2.87    -3.59237    72.80925   165.10536
   195  H   1.0    0.11    1.09    1.44    -6.08114    78.99999   175.63113
   196  H   1.0    0.06    1.08    1.44    -3.61316    79.22298   170.90681
   197  H   1.0    0.06    1.03    1.43    -8.90628    78.91118   172.80032
   198  H   1.0    0.06    1.04    1.43    -8.46408    80.00911   169.63881
   199  H   1.0    0.05    1.03    1.43    -6.52144    75.06936   171.78554
   200  H   1.0    0.05    1.03    1.43    -9.20108    75.45109   169.77109
   201  H   1.0    0.06    1.03    1.43    -6.64995    76.61705   166.27699
   202  H   1.0    0.05    1.03    1.43    -3.94386    77.13105   168.22718
   203  H   1.0    0.04    1.02    1.43    -3.49599    72.71665   169.04166
   204  H   1.0    0.05    1.03    1.43    -6.49499    72.03635   167.65082
   205  H   1.0    0.07    1.02    1.43    -2.24688    71.38629   165.27165
   206  H   1.0    0.07    1.02    1.43    -4.92652    72.27068   163.76743
   207  H   1.0    0.07    1.02    1.43    -2.70798    74.45709   164.49875
   208  N   5.0   -0.21    3.23    1.96     5.14383    69.33782   176.58733
   209  C   4.0    0.03    4.26    4.12     2.81380    68.13029   177.44338
   210  C   4.0    0.15    3.41    3.08     3.25033    66.48623   179.76585
   211  O   6.0   -0.31    1.24    1.80     1.55524    66.11962   181.30787
   212  C   4.0   -0.07    4.13    3.85     1.69130    66.55804   175.35334
   213  H   1.0    0.09    1.03    1.43     5.73343    68.78791   174.83744
   214  H   1.0    0.04    1.06    1.44     1.46832    69.60806   177.94037
   215  H   1.0    0.05    1.00    1.43    -0.04157    65.67554   176.03364
   216  H   1.0    0.05    1.00    1.43     1.27368    67.77691   173.74707
   217  H   1.0    0.05    1.00    1.43     3.04813    65.10862   174.80154
   218  N   5.0   -0.15    3.50    2.08     5.54257    65.51491   180.00774
   219  C   4.0    0.04    4.34    4.27     6.17184    63.77636   182.03730
   220  C   4.0    0.08    3.19    3.04     6.79545    65.11429   184.52985
   221  O   6.0   -0.29    1.15    1.80     6.91073    63.93321   186.52162
   222  C   4.0   -0.04    4.30    4.19     8.36771    62.11718   181.19070
   223  C   4.0   -0.05    4.23    4.06     7.84614    60.84918   178.67926
   224  C   4.0   -0.00    4.23    4.05    10.21964    59.71723   177.54542
   225  N   5.0   -0.13    3.39    2.02     9.69807    58.58150   175.07933
   226  C   4.0    0.11    3.34    3.06     9.72075    56.11163   174.60123
   227  N   5.0   -0.16    3.27    1.97    10.28011    54.48458   176.42670
   228  N   5.0   -0.16    3.23    1.96     9.20297    55.26881   172.29009
   229  H   1.0    0.08    1.07    1.44     7.01277    65.89663   178.82288
   230  H   1.0    0.06    1.06    1.44     4.56369    62.54993   182.42658
   231  H   1.0    0.05    1.03    1.43    10.05523    63.28125   180.98661
   232  H   1.0    0.05    1.03    1.43     8.68896    60.64886   182.60044
   233  H   1.0    0.05    1.03    1.43     6.47798    59.33551   178.95327
   234  H   1.0    0.05    1.04    1.43     7.10159    62.24190   177.35645
   235  H   1.0    0.05    1.03    1.43    11.63315    61.19500   177.29598
   236  H   1.0    0.05    1.04    1.44    10.94529    58.25080   178.79831
   237  H   1.0    0.08    1.06    1.44     9.28611    59.77014   173.61857
   238  H   1.0    0.09    1.04    1.43    10.69207    55.12709   178.19738
   239  H   1.0    0.11    1.03    1.43    10.29712    52.59296   176.06010
   240  H   1.0    0.10    1.02    1.43     8.78723    56.51603   170.88036
   241  H   1.0    0.11    1.02    1.43     9.22186    53.37531   171.92727
   242  N   5.0   -0.19    3.23    1.96     6.15862    69.08460   190.99460
   243  C   4.0    0.04    4.21    4.02     4.23299    69.44554   192.93157
   244  C   4.0    0.09    3.24    3.04     5.20053    71.32960   194.83452
   245  O   6.0   -0.26    1.16    1.80     4.94541    70.96866   197.10031
   246  C   4.0    0.04    4.18    3.97     3.62071    66.94732   194.24304
   247  O   6.0   -0.22    2.06    1.83     5.82414    65.44877   194.48304
   248  H   1.0    0.11    1.02    1.43     7.93307    68.75768   191.67301
   249  H   1.0    0.04    1.05    1.44     2.50389    70.15797   192.06797
   250  H   1.0    0.06    1.02    1.43     2.86482    67.33849   196.11954
   251  H   1.0    0.03    1.01    1.43     2.22799    65.92309   193.12243
   252  H   1.0    0.13    1.01    1.43     5.41595    63.85195   195.32774
   253  N   5.0   -0.19    3.26    1.97    -4.88907    51.27075   202.36321
   254  C   4.0    0.04    4.21    4.02    -2.67329    49.73080   201.77928
   255  C   4.0    0.10    3.20    3.04    -2.39336    47.50742   203.57641
   256  O   6.0   -0.24    1.11    1.80    -2.12731    45.34585   202.75438
   257  C   4.0   -0.03    4.27    4.15    -0.24553    51.33104   201.82274
   258  C   4.0   -0.03    4.17    3.93    -0.02948    53.34544   199.75160
   259  C   4.0    0.24    3.15    3.03    -1.75816    55.61395   200.19758
   260  O   6.0   -0.29    1.51    1.80    -3.31982    55.53714   201.97581
   261  O   6.0   -0.29    1.17    1.80    -1.55692    57.48015   198.75950
   262  H   1.0    0.14    1.30    1.49    -4.56867    53.16866   202.24982
   263  H   1.0    0.06    1.06    1.44    -2.92954    49.00679   199.86877
   264  H   1.0    0.07    1.03    1.43    -0.14649    52.30468   203.63499
   265  H   1.0    0.06    1.03    1.43     1.36617    50.06639   201.61487
   266  H   1.0    0.06    1.03    1.43     1.91224    54.03008   199.68546
   267  H   1.0    0.05    1.03    1.43    -0.54280    52.50356   197.94314
   268  N   5.0   -0.19    3.23    1.96   -14.93809    46.55125   192.12278
   269  C   4.0    0.04    4.41    4.40   -13.48429    48.84822   192.42703
   270  C   4.0    0.15    3.48    3.11   -14.82575    51.16791   191.42547
   271  O   6.0   -0.29    1.30    1.80   -15.48953    52.84673   192.86544
   272  C   4.0    0.05    4.30    4.19   -10.98271    48.55559   191.04375
   273  O   6.0   -0.24    2.10    1.84    -9.68292    46.37987   192.01696
   274  C   4.0   -0.07    4.10    3.80    -9.36814    50.91047   191.35555
   275  H   1.0    0.09    1.04    1.43   -13.98839    45.14443   191.20815
   276  H   1.0    0.06    1.06    1.44   -13.18655    49.14887   194.44336
   277  H   1.0    0.04    1.05    1.44   -11.31371    48.30120   189.02741
   278  H   1.0    0.12    1.01    1.43   -10.41813    44.83381   191.31209
   279  H   1.0    0.04    1.00    1.43    -7.58220    50.67816   190.35589
   280  H   1.0    0.04    1.00    1.43   -10.35449    52.54707   190.58832
   281  H   1.0    0.05    1.00    1.43    -8.97981    51.23941   193.35110
   282  N   5.0   -0.15    3.50    2.08   -15.15585    51.23699   188.94048
   283  C   4.0    0.03    4.34    4.28   -16.33058    53.33216   187.63279
   284  C   4.0    0.10    3.36    3.07   -18.45624    54.37208   189.19749
   285  O   6.0   -0.30    1.19    1.80   -18.40828    56.54911   190.01196
   286  C   4.0   -0.04    4.37    4.33   -17.38095    52.39624   185.13268
   287  C   4.0   -0.03    4.25    4.10   -19.13763    54.21435   183.82121
   288  C   4.0    0.26    3.15    3.03   -19.20269    53.71855   181.02442
   289  O   6.0   -0.26    1.24    1.80   -17.80774    52.01673   180.19483
   290  O   6.0   -0.25    1.18    1.80   -20.60589    55.00756   179.65248
   291  H   1.0    0.08    1.07    1.44   -14.60950    49.82204   187.74995
   292  H   1.0    0.05    1.06    1.44   -14.93570    54.80521   187.27563
   293  H   1.0    0.06    1.05    1.44   -15.80536    52.02940   183.85901
   294  H   1.0    0.06    1.04    1.43   -18.43056    50.65775   185.47472
   295  H   1.0    0.06    1.03    1.43   -21.04342    53.98905   184.56955
   296  H   1.0    0.05    1.03    1.43   -18.48382    56.14327   184.12924
   297  N   5.0   -0.18    3.25    1.97   -16.32568    57.49619   195.76239
   298  C   4.0    0.03    4.47    4.50   -15.22406    59.97606   195.39201
   299  C   4.0    0.16    3.51    3.12   -17.17927    61.89994   194.57187
   300  O   6.0   -0.31    1.33    1.80   -17.37621    63.91157   195.70570
   301  C   4.0   -0.02    4.35    4.30   -13.11376    59.91139   193.47582
   302  C   4.0   -0.07    4.19    3.98   -12.20199    62.55004   192.97505
   303  C   4.0   -0.07    4.16    3.91   -10.98224    58.29442   194.47360
   304  H   1.0    0.11    1.06    1.44   -15.37119    56.06595   194.89312
   305  H   1.0    0.05    1.07    1.44   -14.46593    60.53378   197.22504
   306  H   1.0    0.05    1.06    1.44   -13.78662    59.10396   191.70326
   307  H   1.0    0.05    1.01    1.43   -10.67907    62.48228   191.58988
   308  H   1.0    0.06    1.02    1.43   -13.76712    63.67355   192.24372
   309  H   1.0    0.05    1.00    1.43   -11.51276    63.36693   194.73627
   310  H   1.0    0.04    1.01    1.43    -9.46342    58.25267   193.08276
   311  H   1.0    0.05    1.00    1.43   -10.29603    59.10520   196.23860
   312  H   1.0    0.05    1.00    1.43   -11.68560    56.38708   194.80241
   313  N   5.0   -0.14    3.48    2.06   -18.63940    61.28823   192.62545
   314  C   4.0    0.04    4.46    4.48   -20.60405    63.01681   191.77318
   315  C   4.0    0.10    3.32    3.06   -22.31935    63.80705   193.95204
   316  O   6.0   -0.27    1.13    1.80   -22.43136    66.01173   194.66446
   317  C   4.0   -0.02    4.32    4.24   -22.21409    61.85595   189.69826
   318  C   4.0   -0.06    4.18    3.96   -24.39713    63.56973   189.12945
   319  C   4.0   -0.06    4.14    3.87   -20.62966    61.39821   187.35878
   320  H   1.0    0.11    1.10    1.44   -18.51302    59.64827   191.62200
   321  H   1.0    0.06    1.06    1.44   -19.63002    64.67456   191.03430
   322  H   1.0    0.06    1.06    1.44   -22.95582    60.03774   190.31809
   323  H   1.0    0.06    1.00    1.43   -25.54190    62.72551   187.64035
   324  H   1.0    0.06    1.02    1.43   -25.52632    63.80590   190.83588
   325  H   1.0    0.06    1.00    1.43   -23.67278    65.39537   188.50962
   326  H   1.0    0.05    1.00    1.43   -21.81831    60.56574   185.89613
   327  H   1.0    0.05    1.00    1.43   -19.86463    63.19496   186.70494
   328  H   1.0    0.06    1.01    1.43   -19.09192    60.11050   187.83121
   329  N   5.0   -0.18    3.25    1.97   -19.63852    68.21551   198.93524
   330  C   4.0    0.04    4.28    4.16   -19.41962    70.74654   197.88456
   331  C   4.0    0.11    3.22    3.04   -21.90354    72.12731   197.76361
   332  O   6.0   -0.24    1.12    1.80   -22.02528    74.40930   198.09998
   333  C   4.0   -0.02    4.36    4.31   -18.31990    70.55009   195.26351
   334  C   4.0   -0.03    4.33    4.25   -15.84536    69.17045   195.34287
   335  C   4.0    0.15    3.25    3.04   -14.04105    70.18380   193.41157
   336  O   6.0   -0.27    1.22    1.80   -14.70878    70.43327   191.20059
   337  N   5.0   -0.18    3.18    1.95   -11.73738    70.80465   194.22038
   338  H   1.0    0.12    1.06    1.44   -18.98643    66.84417   197.74849
   339  H   1.0    0.06    1.06    1.44   -18.17986    71.84199   199.11099
   340  H   1.0    0.07    1.04    1.43   -19.61640    69.51134   194.04652
   341  H   1.0    0.07    1.04    1.43   -18.00063    72.43862   194.50384
   342  H   1.0    0.05    1.05    1.44   -14.99785    69.39573   197.20614
   343  H   1.0    0.08    1.07    1.44   -16.16321    67.17364   194.94981
   344  H   1.0    0.08    1.02    1.43   -11.27603    70.58005   196.07798
   345  H   1.0    0.09    1.03    1.43   -10.43656    71.50331   192.98072
   346  H   1.0    0.10    1.07    1.44     5.27363    54.31234   189.97226
   347  H   1.0    0.06    1.05    1.44    -7.96002    83.46440   180.38076
   348  H   1.0    0.11    1.07    1.44    -2.50443    82.25154   180.57639
   349  H   1.0    0.08    1.05    1.44    -6.32243    84.09600   172.08903
   350  H   1.0    0.10    1.07    1.44     4.92073    71.02277   176.52614
   351  H   1.0    0.06    1.04    1.44     7.11540    66.97664   184.54827
   352  H   1.0    0.11    1.07    1.44     5.74830    67.74633   190.02857
   353  H   1.0    0.07    1.05    1.44     6.06667    72.90386   194.24925
   354  H   1.0    0.11    1.07    1.44    -6.13943    50.90390   201.27023
   355  H   1.0    0.08    1.04    1.44    -2.42429    47.79254   205.44425
   356  H   1.0    0.11    1.07    1.44   -15.37802    45.95105   193.65209
   357  H   1.0    0.07    1.05    1.44   -19.95228    53.28921   189.59790
   358  H   1.0    0.11    1.07    1.44   -16.36016    57.13262   197.42347
   359  H   1.0    0.07    1.05    1.44   -23.38352    62.51729   194.83244
   360  H   1.0    0.11    1.07    1.44   -18.73943    68.11906   200.37569
   361  H   1.0    0.08    1.05    1.44   -23.49634    71.17679   197.40225

  Z AO/shell   Hii/eV     exponent
  1     Wed Apr 25 08:07:45 CEST 2018   EN: 2.200 GM2: 0.406  GM3: 0.0800  RAES: 1.40
     1s    -10.707211    1.230000
  6     Wed Apr 25 08:07:45 CEST 2018   EN: 2.550 GM2: 0.538  GM3: 0.1500  RAES: 3.00
     2s    -13.970922    2.096432
     2p    -10.063292    1.800000
  7     Wed Apr 25 08:07:45 CEST 2018   EN: 3.040 GM2: 0.461  GM3:-0.0640  RAES: 1.90
     2s    -16.686243    2.339881
     2p    -12.523956    2.014332
  8     Wed Apr 25 08:07:45 CEST 2018   EN: 3.440 GM2: 0.452  GM3:-0.0517  RAES: 1.80
     2s    -20.229985    2.439742
     2p    -15.503117    2.137023
 no old-style atom pair restraining (fixing) potential

molecular fragmentation (1/2 indicates fragments):
111111111111111111111111111111111111111111111111111111111111111111111111
111111111111111111111111111111111111111111111111111111111111111111111111
111111111111111111122222222222222222222222222222222222222222222222222222
222222222222222222222222222222222222222222222222222222222222222222222222
222222222222222222222222222222222222222222222222222222222112222222222222
2
# atoms in fragment 1/2:   165   196
 fragment masses (1/2) :     1130.33     1271.54
CMA distance (Bohr)    :   2.656
constraining FC (au)   :  0.0500
           ------------------------------------------------- 
          |        Self-Consistent Charge Iterations        |
           ------------------------------------------------- 

 Ncao       : 865
 Nao        : 865
 Nshell     : 529
 Nel        : 958
 T(el)      :   500.0
 intcut     :    35.0
 scfconv/Eh :  0.100E-06
   qconv/e  :  0.100E-04
 intneglect :  0.100E-08
 broydamp   :      0.400
 iter      E             dE          RMSdq      gap      omega  full diag
   1   -548.4873881 -0.548487E+03  0.463E+00    3.02       0.0  T
   2   -549.8059589 -0.131857E+01  0.219E+00    1.78       1.0  T
   3   -549.8923173 -0.863584E-01  0.122E+00    1.75       1.0  T
   4   -549.9821348 -0.898174E-01  0.275E-01    1.13       1.0  T
   5   -549.9877441 -0.560939E-02  0.138E-01    1.40       1.0  T
   6   -549.9888679 -0.112375E-02  0.605E-02    1.45       1.0  T
   7   -549.9891690 -0.301139E-03  0.270E-02    1.43       1.0  T
   8   -549.9892228 -0.537443E-04  0.126E-02    1.40       1.0  T
   9   -549.9892381 -0.152798E-04  0.565E-03    1.39       1.0  T
  10   -549.9892405 -0.241225E-05  0.247E-03    1.39       2.1  T
  11   -549.9892409 -0.394046E-06  0.100E-03    1.39       5.2  T
  12   -549.9892409 -0.723885E-07  0.442E-04    1.39      11.9  T
  13   -549.9892410 -0.176146E-07  0.221E-04    1.39      23.8  T
  14   -549.9892410 -0.295563E-08  0.981E-05    1.39      53.7  T
  15   -549.9892410 -0.995669E-09  0.422E-05    1.39     124.9  T
speedup  1.94
cpu  time for SCC   14.65 s
wall time for SCC    7.57 s

   *** convergence criteria satisfied after 15 iterations ***

          eigenvalues
 #    :         467        468        469        470        471        472        473        474
 occ. :        2.000      2.000      2.000      2.000      2.000      2.000      2.000      2.000
 eps  :       -10.341    -10.200    -10.165    -10.040     -9.929     -9.860     -9.804     -9.794
 #    :         475        476        477        478        479        480        481        482
 occ. :        2.000      2.000      2.000      2.000      2.000      0.000      0.000      0.000
 eps  :        -9.635     -9.631     -9.610     -9.412     -9.334     -7.948     -7.901     -7.862
 #    :         483        484        485        486        487        488        489        490
 occ. :        0.000      0.000      0.000      0.000      0.000      0.000      0.000      0.000
 eps  :        -7.760     -7.643     -7.627     -7.472     -7.379     -6.750     -6.660     -6.522


   #   Z            q   n(s)   n(p)   n(d)      C6AA      α(0)
   1   7 N     -0.401  1.321  4.080  0.000    30.411     8.190
   2   6 C      0.029  1.058  2.913  0.000    20.105     6.387
   3   6 C      0.266  1.049  2.686  0.000    22.516     7.771
   4   8 O     -0.489  1.738  4.751  0.000    23.542     6.505
   5   6 C     -0.048  1.051  2.997  0.000    21.431     6.590
   6   6 C     -0.099  1.066  3.033  0.000    22.387     6.737
   7   6 C      0.363  1.027  2.610  0.000    20.835     7.470
   8   8 O     -0.675  1.791  4.884  0.000    28.032     7.099
   9   8 O     -0.640  1.767  4.874  0.000    27.135     6.984
  10   1 H      0.151  0.849  0.000  0.000     1.393     1.849
  11   1 H      0.046  0.954  0.000  0.000     2.366     2.405
  12   1 H      0.031  0.969  0.000  0.000     2.567     2.506
  13   1 H      0.018  0.982  0.000  0.000     2.765     2.600
  14   1 H      0.047  0.953  0.000  0.000     2.360     2.403
  15   1 H      0.029  0.971  0.000  0.000     2.600     2.521
  16   7 N     -0.174  1.242  3.932  0.000    24.772     7.392
  17   6 C      0.013  1.062  2.925  0.000    20.354     6.422
  18   6 C      0.274  1.036  2.691  0.000    22.374     7.747
  19   8 O     -0.451  1.732  4.719  0.000    22.720     6.391
  20   6 C     -0.027  1.066  2.961  0.000    21.013     6.519
  21   6 C     -0.059  1.049  3.011  0.000    21.642     6.623
  22   6 C     -0.122  1.043  3.079  0.000    22.902     6.824
  23   6 C     -0.115  1.041  3.074  0.000    22.762     6.804
  24   1 H      0.196  0.804  0.000  0.000     1.128     1.664
  25   1 H      0.092  0.908  0.000  0.000     1.863     2.134
  26   1 H      0.035  0.965  0.000  0.000     2.521     2.483
  27   1 H      0.040  0.960  0.000  0.000     2.455     2.450
  28   1 H      0.022  0.978  0.000  0.000     2.701     2.570
  29   1 H      0.057  0.943  0.000  0.000     2.232     2.336
  30   1 H      0.048  0.952  0.000  0.000     2.342     2.393
  31   1 H      0.064  0.936  0.000  0.000     2.153     2.295
  32   1 H      0.035  0.965  0.000  0.000     2.519     2.482
  33   1 H      0.037  0.963  0.000  0.000     2.484     2.465
  34   1 H      0.059  0.941  0.000  0.000     2.210     2.325
  35   7 N     -0.190  1.242  3.948  0.000    25.109     7.442
  36   6 C      0.022  1.052  2.925  0.000    20.200     6.399
  37   6 C      0.265  1.041  2.694  0.000    22.532     7.773
  38   8 O     -0.470  1.740  4.730  0.000    23.137     6.449
  39   6 C     -0.132  1.041  3.091  0.000    23.086     6.849
  40   1 H      0.199  0.801  0.000  0.000     1.112     1.652
  41   1 H      0.074  0.926  0.000  0.000     2.040     2.233
  42   1 H      0.079  0.921  0.000  0.000     1.984     2.203
  43   1 H      0.057  0.943  0.000  0.000     2.233     2.337
  44   1 H      0.064  0.936  0.000  0.000     2.157     2.297
  45   7 N     -0.169  1.238  3.931  0.000    24.649     7.374
  46   6 C      0.008  1.058  2.934  0.000    20.439     6.437
  47   6 C      0.259  1.042  2.699  0.000    22.640     7.792
  48   8 O     -0.478  1.724  4.753  0.000    23.299     6.472
  49   6 C     -0.136  1.045  3.092  0.000    23.165     6.861
  50   1 H      0.201  0.799  0.000  0.000     1.102     1.644
  51   1 H      0.097  0.903  0.000  0.000     1.815     2.107
  52   1 H      0.085  0.915  0.000  0.000     1.924     2.169
  53   1 H      0.075  0.925  0.000  0.000     2.028     2.227
  54   1 H      0.062  0.938  0.000  0.000     2.170     2.304
  55   7 N     -0.146  1.242  3.904  0.000    24.160     7.300
  56   6 C      0.001  1.069  2.930  0.000    20.572     6.460
  57   6 C      0.278  1.035  2.687  0.000    22.294     7.732
  58   8 O     -0.471  1.744  4.728  0.000    23.158     6.452
  59   6 C     -0.090  1.060  3.030  0.000    22.216     6.710
  60   6 C     -0.079  1.057  3.022  0.000    22.019     6.682
  61   6 C     -0.091  1.062  3.029  0.000    22.247     6.717
  62   6 C     -0.053  1.064  2.989  0.000    21.642     6.643
  63   7 N     -0.156  1.239  3.917  0.000    24.363     7.331
  64   1 H      0.210  0.790  0.000  0.000     1.056     1.610
  65   1 H      0.108  0.892  0.000  0.000     1.712     2.046
  66   1 H      0.068  0.932  0.000  0.000     2.104     2.269
  67   1 H      0.080  0.920  0.000  0.000     1.978     2.199
  68   1 H      0.066  0.934  0.000  0.000     2.128     2.281
  69   1 H      0.071  0.929  0.000  0.000     2.074     2.252
  70   1 H      0.073  0.927  0.000  0.000     2.054     2.241
  71   1 H      0.060  0.940  0.000  0.000     2.202     2.321
  72   1 H      0.118  0.882  0.000  0.000     1.633     1.998
  73   1 H      0.122  0.878  0.000  0.000     1.599     1.978
  74   1 H      0.293  0.707  0.000  0.000     0.735     1.343
  75   1 H      0.290  0.710  0.000  0.000     0.744     1.352
  76   1 H      0.273  0.727  0.000  0.000     0.799     1.400
  77   7 N     -0.164  1.235  3.929  0.000    24.553     7.359
  78   6 C      0.010  1.064  2.926  0.000    20.408     6.432
  79   6 C      0.270  1.043  2.687  0.000    22.435     7.756
  80   8 O     -0.504  1.754  4.749  0.000    23.866     6.550
  81   6 C     -0.077  1.053  3.024  0.000    21.954     6.669
  82   6 C      0.002  1.081  2.917  0.000    27.977     8.676
  83   6 C     -0.039  1.084  2.955  0.000    28.977     8.828
  84   6 C     -0.041  1.081  2.960  0.000    29.015     8.833
  85   6 C     -0.055  1.073  2.982  0.000    29.362     8.886
  86   6 C     -0.076  1.078  2.998  0.000    29.892     8.966
  87   6 C      0.133  1.048  2.819  0.000    25.080     8.208
  88   8 O     -0.430  1.730  4.700  0.000    21.443     6.251
  89   1 H      0.197  0.803  0.000  0.000     1.121     1.658
  90   1 H      0.102  0.898  0.000  0.000     1.764     2.077
  91   1 H      0.063  0.937  0.000  0.000     2.162     2.300
  92   1 H      0.060  0.940  0.000  0.000     2.197     2.318
  93   1 H      0.050  0.950  0.000  0.000     2.323     2.383
  94   1 H      0.043  0.957  0.000  0.000     2.409     2.427
  95   1 H      0.052  0.948  0.000  0.000     2.293     2.368
  96   1 H      0.051  0.949  0.000  0.000     2.308     2.376
  97   1 H      0.341  0.659  0.000  0.000     0.609     1.226
  98   7 N     -0.179  1.248  3.931  0.000    24.868     7.406
  99   6 C      0.002  1.063  2.936  0.000    20.557     6.456
 100   6 C      0.258  1.049  2.693  0.000    22.651     7.793
 101   8 O     -0.433  1.723  4.710  0.000    22.345     6.338
 102   6 C     -0.093  1.057  3.036  0.000    22.275     6.718
 103   6 C     -0.091  1.054  3.037  0.000    22.235     6.713
 104   6 C     -0.100  1.058  3.042  0.000    22.400     6.738
 105   6 C     -0.048  1.060  2.988  0.000    21.534     6.625
 106   7 N     -0.136  1.233  3.904  0.000    23.944     7.268
 107   1 H      0.255  0.745  0.000  0.000     0.865     1.457
 108   1 H      0.068  0.932  0.000  0.000     2.104     2.268
 109   1 H      0.085  0.915  0.000  0.000     1.924     2.169
 110   1 H      0.075  0.925  0.000  0.000     2.031     2.229
 111   1 H      0.058  0.942  0.000  0.000     2.227     2.334
 112   1 H      0.083  0.917  0.000  0.000     1.945     2.181
 113   1 H      0.079  0.921  0.000  0.000     1.991     2.207
 114   1 H      0.085  0.915  0.000  0.000     1.932     2.173
 115   1 H      0.110  0.890  0.000  0.000     1.693     2.035
 116   1 H      0.109  0.891  0.000  0.000     1.706     2.042
 117   1 H      0.283  0.717  0.000  0.000     0.765     1.370
 118   1 H      0.286  0.714  0.000  0.000     0.757     1.363
 119   1 H      0.297  0.703  0.000  0.000     0.722     1.331
 120   7 N     -0.163  1.243  3.921  0.000    24.530     7.356
 121   6 C      0.014  1.068  2.918  0.000    20.349     6.424
 122   6 C      0.271  1.042  2.686  0.000    22.412     7.752
 123   8 O     -0.464  1.745  4.719  0.000    22.996     6.429
 124   6 C     -0.073  1.047  3.026  0.000    21.892     6.661
 125   6 C      0.053  1.068  2.879  0.000    26.722     8.475
 126   7 N     -0.329  1.488  3.841  0.000    29.337     8.033
 127   6 C     -0.038  1.065  2.973  0.000    28.887     8.815
 128   6 C      0.089  1.058  2.853  0.000    25.998     8.364
 129   7 N     -0.087  1.240  3.846  0.000    22.923     7.111
 130   1 H      0.201  0.799  0.000  0.000     1.102     1.644
 131   1 H      0.083  0.917  0.000  0.000     1.952     2.185
 132   1 H      0.086  0.914  0.000  0.000     1.916     2.164
 133   1 H      0.076  0.924  0.000  0.000     2.021     2.223
 134   1 H      0.062  0.938  0.000  0.000     2.170     2.304
 135   1 H      0.034  0.966  0.000  0.000     2.526     2.486
 136   1 H      0.203  0.797  0.000  0.000     1.091     1.636
 137   7 N     -0.179  1.239  3.940  0.000    24.881     7.408
 138   6 C      0.005  1.062  2.933  0.000    20.498     6.446
 139   6 C      0.274  1.034  2.692  0.000    22.369     7.745
 140   8 O     -0.467  1.735  4.732  0.000    23.056     6.438
 141   6 C      0.067  1.037  2.896  0.000    19.650     6.346
 142   8 O     -0.452  1.716  4.736  0.000    21.891     6.316
 143   1 H      0.206  0.794  0.000  0.000     1.076     1.625
 144   1 H      0.107  0.893  0.000  0.000     1.721     2.052
 145   1 H      0.039  0.961  0.000  0.000     2.464     2.455
 146   1 H      0.087  0.913  0.000  0.000     1.912     2.162
 147   1 H      0.316  0.684  0.000  0.000     0.674     1.290
 148   7 N     -0.154  1.234  3.920  0.000    24.333     7.326
 149   6 C      0.021  1.056  2.923  0.000    20.214     6.400
 150   6 C      0.203  1.082  2.714  0.000    23.677     7.970
 151   8 O     -0.358  1.758  4.600  0.000    20.861     6.124
 152   6 C     -0.024  1.052  2.972  0.000    20.950     6.508
 153   6 C     -0.121  1.040  3.081  0.000    22.866     6.816
 154   6 C     -0.127  1.042  3.085  0.000    22.984     6.833
 155   1 H      0.199  0.801  0.000  0.000     1.109     1.650
 156   1 H      0.094  0.906  0.000  0.000     1.839     2.121
 157   1 H      0.050  0.950  0.000  0.000     2.323     2.383
 158   1 H      0.058  0.942  0.000  0.000     2.225     2.333
 159   1 H      0.039  0.961  0.000  0.000     2.460     2.453
 160   1 H      0.055  0.945  0.000  0.000     2.258     2.350
 161   1 H      0.058  0.942  0.000  0.000     2.224     2.332
 162   1 H      0.058  0.942  0.000  0.000     2.221     2.330
 163   1 H      0.048  0.952  0.000  0.000     2.348     2.396
 164   7 N     -0.411  1.327  4.084  0.000    30.670     8.225
 165   6 C      0.036  1.051  2.913  0.000    19.985     6.367
 166   6 C      0.274  1.043  2.683  0.000    22.371     7.746
 167   8 O     -0.531  1.758  4.773  0.000    24.491     6.635
 168   6 C     -0.079  1.055  3.024  0.000    21.993     6.675
 169   6 C     -0.069  1.048  3.020  0.000    21.809     6.648
 170   6 C     -0.085  1.055  3.030  0.000    22.118     6.696
 171   6 C     -0.044  1.057  2.988  0.000    21.460     6.613
 172   7 N     -0.150  1.243  3.908  0.000    24.244     7.313
 173   1 H      0.190  0.810  0.000  0.000     1.158     1.686
 174   1 H      0.021  0.979  0.000  0.000     2.717     2.578
 175   1 H      0.058  0.942  0.000  0.000     2.219     2.330
 176   1 H      0.048  0.952  0.000  0.000     2.350     2.397
 177   1 H      0.049  0.951  0.000  0.000     2.333     2.389
 178   1 H      0.050  0.950  0.000  0.000     2.320     2.382
 179   1 H      0.066  0.934  0.000  0.000     2.127     2.281
 180   1 H      0.068  0.932  0.000  0.000     2.112     2.272
 181   1 H      0.103  0.897  0.000  0.000     1.756     2.072
 182   1 H      0.112  0.888  0.000  0.000     1.680     2.027
 183   1 H      0.270  0.730  0.000  0.000     0.811     1.410
 184   1 H      0.302  0.698  0.000  0.000     0.707     1.317
 185   1 H      0.280  0.720  0.000  0.000     0.777     1.381
 186   7 N     -0.159  1.246  3.914  0.000    24.444     7.343
 187   6 C      0.024  1.055  2.921  0.000    20.171     6.394
 188   6 C      0.212  1.083  2.706  0.000    23.521     7.943
 189   8 O     -0.384  1.761  4.624  0.000    21.372     6.198
 190   6 C     -0.080  1.054  3.026  0.000    22.023     6.680
 191   6 C     -0.083  1.054  3.028  0.000    22.077     6.689
 192   6 C     -0.097  1.056  3.041  0.000    22.351     6.731
 193   6 C     -0.055  1.056  2.999  0.000    21.661     6.643
 194   7 N     -0.148  1.233  3.915  0.000    24.190     7.305
 195   1 H      0.232  0.768  0.000  0.000     0.958     1.533
 196   1 H      0.095  0.905  0.000  0.000     1.831     2.116
 197   1 H      0.078  0.922  0.000  0.000     1.995     2.209
 198   1 H      0.057  0.943  0.000  0.000     2.229     2.335
 199   1 H      0.075  0.925  0.000  0.000     2.036     2.231
 200   1 H      0.074  0.926  0.000  0.000     2.038     2.233
 201   1 H      0.075  0.925  0.000  0.000     2.034     2.230
 202   1 H      0.066  0.934  0.000  0.000     2.134     2.284
 203   1 H      0.121  0.879  0.000  0.000     1.609     1.984
 204   1 H      0.123  0.877  0.000  0.000     1.586     1.970
 205   1 H      0.308  0.692  0.000  0.000     0.690     1.302
 206   1 H      0.300  0.700  0.000  0.000     0.713     1.323
 207   1 H      0.293  0.707  0.000  0.000     0.736     1.344
 208   7 N     -0.404  1.325  4.079  0.000    30.474     8.199
 209   6 C      0.023  1.054  2.923  0.000    20.192     6.400
 210   6 C      0.261  1.048  2.692  0.000    22.606     7.786
 211   8 O     -0.497  1.740  4.757  0.000    23.723     6.530
 212   6 C     -0.129  1.045  3.084  0.000    23.023     6.840
 213   1 H      0.165  0.835  0.000  0.000     1.302     1.788
 214   1 H      0.052  0.948  0.000  0.000     2.299     2.371
 215   1 H      0.059  0.941  0.000  0.000     2.210     2.325
 216   1 H      0.066  0.934  0.000  0.000     2.134     2.284
 217   1 H      0.054  0.946  0.000  0.000     2.269     2.356
 218   7 N     -0.161  1.236  3.925  0.000    24.483     7.349
 219   6 C      0.015  1.058  2.928  0.000    20.335     6.421
 220   6 C      0.191  1.089  2.720  0.000    23.920     8.009
 221   8 O     -0.363  1.761  4.602  0.000    20.949     6.137
 222   6 C     -0.077  1.052  3.026  0.000    21.968     6.671
 223   6 C     -0.090  1.052  3.038  0.000    22.207     6.708
 224   6 C     -0.027  1.056  2.971  0.000    21.134     6.559
 225   7 N     -0.145  1.211  3.934  0.000    24.137     7.297
 226   6 C      0.237  1.016  2.747  0.000    23.034     7.858
 227   7 N     -0.231  1.224  4.007  0.000    26.062     7.582
 228   7 N     -0.257  1.239  4.018  0.000    26.669     7.670
 229   1 H      0.226  0.774  0.000  0.000     0.982     1.552
 230   1 H      0.109  0.891  0.000  0.000     1.708     2.044
 231   1 H      0.069  0.931  0.000  0.000     2.100     2.266
 232   1 H      0.066  0.934  0.000  0.000     2.127     2.281
 233   1 H      0.070  0.930  0.000  0.000     2.084     2.258
 234   1 H      0.084  0.916  0.000  0.000     1.938     2.177
 235   1 H      0.100  0.900  0.000  0.000     1.787     2.090
 236   1 H      0.071  0.929  0.000  0.000     2.076     2.253
 237   1 H      0.249  0.751  0.000  0.000     0.886     1.474
 238   1 H      0.224  0.776  0.000  0.000     0.990     1.559
 239   1 H      0.217  0.783  0.000  0.000     1.025     1.586
 240   1 H      0.265  0.735  0.000  0.000     0.826     1.424
 241   1 H      0.242  0.758  0.000  0.000     0.916     1.499
 242   7 N     -0.365  1.307  4.058  0.000    29.416     8.055
 243   6 C      0.023  1.054  2.923  0.000    20.204     6.403
 244   6 C      0.202  1.085  2.713  0.000    23.697     7.973
 245   8 O     -0.375  1.758  4.617  0.000    21.193     6.172
 246   6 C      0.065  1.038  2.897  0.000    19.688     6.355
 247   8 O     -0.492  1.734  4.759  0.000    22.722     6.435
 248   1 H      0.156  0.844  0.000  0.000     1.361     1.828
 249   1 H      0.097  0.903  0.000  0.000     1.811     2.105
 250   1 H      0.050  0.950  0.000  0.000     2.318     2.381
 251   1 H      0.041  0.959  0.000  0.000     2.433     2.439
 252   1 H      0.329  0.671  0.000  0.000     0.641     1.258
 253   7 N     -0.476  1.351  4.125  0.000    32.571     8.476
 254   6 C      0.054  1.053  2.893  0.000    19.688     6.321
 255   6 C      0.199  1.094  2.706  0.000    23.755     7.982
 256   8 O     -0.399  1.762  4.637  0.000    21.664     6.240
 257   6 C     -0.054  1.052  3.001  0.000    21.535     6.606
 258   6 C     -0.094  1.063  3.031  0.000    22.297     6.723
 259   6 C      0.362  1.025  2.613  0.000    20.854     7.474
 260   8 O     -0.601  1.773  4.828  0.000    26.094     6.851
 261   8 O     -0.606  1.742  4.864  0.000    26.258     6.870
 262   1 H      0.236  0.764  0.000  0.000     0.931     1.508
 263   1 H      0.020  0.980  0.000  0.000     2.734     2.586
 264   1 H      0.042  0.958  0.000  0.000     2.419     2.432
 265   1 H      0.021  0.979  0.000  0.000     2.713     2.576
 266   1 H      0.043  0.957  0.000  0.000     2.408     2.427
 267   1 H      0.036  0.964  0.000  0.000     2.500     2.473
 268   7 N     -0.398  1.324  4.074  0.000    30.313     8.177
 269   6 C      0.022  1.055  2.923  0.000    20.212     6.402
 270   6 C      0.273  1.041  2.687  0.000    22.391     7.749
 271   8 O     -0.478  1.747  4.731  0.000    23.297     6.471
 272   6 C      0.109  1.050  2.841  0.000    18.878     6.201
 273   8 O     -0.488  1.737  4.751  0.000    22.647     6.424
 274   6 C     -0.123  1.041  3.081  0.000    22.908     6.825
 275   1 H      0.167  0.833  0.000  0.000     1.288     1.778
 276   1 H      0.042  0.958  0.000  0.000     2.425     2.435
 277   1 H      0.032  0.968  0.000  0.000     2.552     2.498
 278   1 H      0.327  0.673  0.000  0.000     0.646     1.263
 279   1 H      0.070  0.930  0.000  0.000     2.080     2.256
 280   1 H      0.053  0.947  0.000  0.000     2.282     2.363
 281   1 H      0.054  0.946  0.000  0.000     2.274     2.358
 282   7 N     -0.171  1.244  3.926  0.000    24.690     7.380
 283   6 C      0.030  1.053  2.917  0.000    20.079     6.381
 284   6 C      0.214  1.078  2.708  0.000    23.472     7.935
 285   8 O     -0.359  1.736  4.624  0.000    20.884     6.127
 286   6 C     -0.065  1.051  3.013  0.000    21.729     6.634
 287   6 C     -0.085  1.054  3.031  0.000    22.107     6.693
 288   6 C      0.376  1.014  2.610  0.000    20.630     7.434
 289   8 O     -0.634  1.760  4.874  0.000    26.963     6.962
 290   8 O     -0.660  1.773  4.887  0.000    27.649     7.050
 291   1 H      0.217  0.783  0.000  0.000     1.022     1.584
 292   1 H      0.079  0.921  0.000  0.000     1.987     2.204
 293   1 H      0.080  0.920  0.000  0.000     1.981     2.201
 294   1 H      0.045  0.955  0.000  0.000     2.381     2.413
 295   1 H      0.014  0.986  0.000  0.000     2.829     2.631
 296   1 H      0.033  0.967  0.000  0.000     2.543     2.494
 297   7 N     -0.411  1.327  4.084  0.000    30.669     8.225
 298   6 C      0.035  1.054  2.911  0.000    19.978     6.363
 299   6 C      0.273  1.046  2.681  0.000    22.383     7.748
 300   8 O     -0.506  1.739  4.767  0.000    23.926     6.558
 301   6 C     -0.017  1.052  2.965  0.000    20.843     6.492
 302   6 C     -0.121  1.043  3.078  0.000    22.867     6.816
 303   6 C     -0.118  1.043  3.075  0.000    22.797     6.806
 304   1 H      0.173  0.827  0.000  0.000     1.257     1.757
 305   1 H      0.029  0.971  0.000  0.000     2.607     2.525
 306   1 H      0.034  0.966  0.000  0.000     2.530     2.488
 307   1 H      0.070  0.930  0.000  0.000     2.090     2.261
 308   1 H      0.028  0.972  0.000  0.000     2.612     2.528
 309   1 H      0.052  0.948  0.000  0.000     2.291     2.367
 310   1 H      0.059  0.941  0.000  0.000     2.215     2.327
 311   1 H      0.046  0.954  0.000  0.000     2.375     2.410
 312   1 H      0.031  0.969  0.000  0.000     2.571     2.507
 313   7 N     -0.181  1.252  3.929  0.000    24.917     7.414
 314   6 C      0.028  1.058  2.914  0.000    20.098     6.382
 315   6 C      0.208  1.081  2.711  0.000    23.587     7.954
 316   8 O     -0.353  1.753  4.600  0.000    20.766     6.110
 317   6 C     -0.019  1.054  2.966  0.000    20.880     6.498
 318   6 C     -0.118  1.041  3.078  0.000    22.813     6.808
 319   6 C     -0.122  1.043  3.078  0.000    22.878     6.819
 320   1 H      0.238  0.762  0.000  0.000     0.932     1.513
 321   1 H      0.076  0.924  0.000  0.000     2.017     2.221
 322   1 H      0.045  0.955  0.000  0.000     2.388     2.417
 323   1 H      0.058  0.942  0.000  0.000     2.218     2.329
 324   1 H      0.036  0.964  0.000  0.000     2.501     2.473
 325   1 H      0.056  0.944  0.000  0.000     2.250     2.346
 326   1 H      0.049  0.951  0.000  0.000     2.338     2.391
 327   1 H      0.057  0.943  0.000  0.000     2.238     2.339
 328   1 H      0.055  0.945  0.000  0.000     2.263     2.352
 329   7 N     -0.404  1.328  4.076  0.000    30.490     8.201
 330   6 C      0.044  1.050  2.906  0.000    19.844     6.344
 331   6 C      0.205  1.088  2.707  0.000    23.648     7.964
 332   8 O     -0.393  1.754  4.639  0.000    21.534     6.222
 333   6 C     -0.049  1.044  3.005  0.000    21.438     6.589
 334   6 C     -0.101  1.054  3.048  0.000    22.420     6.739
 335   6 C      0.284  1.037  2.679  0.000    22.183     7.712
 336   8 O     -0.505  1.757  4.748  0.000    23.896     6.554
 337   7 N     -0.286  1.267  4.018  0.000    27.370     7.770
 338   1 H      0.184  0.816  0.000  0.000     1.193     1.711
 339   1 H      0.047  0.953  0.000  0.000     2.362     2.403
 340   1 H      0.063  0.937  0.000  0.000     2.165     2.301
 341   1 H      0.039  0.961  0.000  0.000     2.456     2.451
 342   1 H      0.050  0.950  0.000  0.000     2.323     2.384
 343   1 H      0.103  0.897  0.000  0.000     1.758     2.074
 344   1 H      0.228  0.772  0.000  0.000     0.972     1.545
 345   1 H      0.214  0.786  0.000  0.000     1.039     1.597
 346   1 H      0.192  0.808  0.000  0.000     1.149     1.679
 347   1 H      0.078  0.922  0.000  0.000     2.001     2.212
 348   1 H      0.164  0.836  0.000  0.000     1.312     1.794
 349   1 H      0.066  0.934  0.000  0.000     2.132     2.283
 350   1 H      0.178  0.822  0.000  0.000     1.223     1.732
 351   1 H      0.091  0.909  0.000  0.000     1.866     2.136
 352   1 H      0.192  0.808  0.000  0.000     1.145     1.676
 353   1 H      0.077  0.923  0.000  0.000     2.007     2.215
 354   1 H      0.154  0.846  0.000  0.000     1.373     1.835
 355   1 H      0.065  0.935  0.000  0.000     2.146     2.291
 356   1 H      0.186  0.814  0.000  0.000     1.180     1.702
 357   1 H      0.065  0.935  0.000  0.000     2.145     2.290
 358   1 H      0.168  0.832  0.000  0.000     1.283     1.774
 359   1 H      0.062  0.938  0.000  0.000     2.170     2.303
 360   1 H      0.178  0.822  0.000  0.000     1.225     1.733
 361   1 H      0.067  0.933  0.000  0.000     2.116     2.274

 Mol. C6AA /au·bohr⁶  :    1134322.011704
 Mol. C8AA /au·bohr⁸  :   24932297.505016
 Mol. α(0) /au        :       1590.468263

 
molecular dipole:
                 x           y           z       tot (Debye)
 q only:        8.758     146.895     340.926
   full:       10.042     142.745     343.958     946.916
molecular quadrupole (traceless):
                xx          xy          yy          xz          yz          zz
 q only:   -34470.515     690.318  -18533.062    2570.399   38043.807   53003.577
  q+dip:   -34783.565     838.189  -19598.793    2915.352   37181.268   54382.358
   full:   -34781.272     840.556  -19598.523    2915.165   37178.870   54379.795
speedup  1.95
cpu  time for grad   19.14 s
wall time for grad    9.82 s

SCC energy    :    -550.0068169
rep           :       6.6776551
ES            :       2.0016255
AES           :      -0.0798651
AXC           :       0.1998637
disp          :      -0.4268113
XB            :       0.0000000
fix           :       0.0000000
Gborn         :       0.0000000
Gsasa         :       0.0000000
Ghb           :       0.0000000
Gshift        :       0.0000000
Gsolv         :      -0.6695560     -420.15
Etot ala COSMO:    -550.0068169
grad norm     :       0.6686275
total E       :    -543.2918052
atomizationE  :      97.9909493    61490.25
(atE without considering molecular charge,
 total energy contains solvation terms)
H-L gap (eV)  :          1.3868

------------------------------------------------------------------------
 * finished run on 2019/05/05 at 12:29:21.815     
------------------------------------------------------------------------
 total:
 * wall-time:     0 d,  0 h,  0 min, 10.946 sec
 *  cpu-time:     0 d,  0 h,  0 min, 21.101 sec
 * ratio c/w:     1.928 speedup
 SCF:
 * wall-time:     0 d,  0 h,  0 min, 10.572 sec
 *  cpu-time:     0 d,  0 h,  0 min, 20.590 sec
 * ratio c/w:     1.948 speedup

