      -----------------------------------------------------------      
     |                   =====================                   |     
     |                           x T B                           |     
     |                   =====================                   |     
     |                         S. Grimme                         |     
     |          Mulliken Center for Theoretical Chemistry        |     
     |                    University of Bonn                     |     
     |                 Version 6.0.1 (SAW181210)                 |     
      -----------------------------------------------------------      

   This program is distributed in the hope that it will be useful,
   but WITHOUT ANY WARRANTY; without even the implied warranty of
   MERCHANTABILITY or FITNESS FOR A PARTICULAR PURPOSE.
   
   FOR NON-COMMERCIAL, ACADEMIA USE ONLY.
   
   Cite this work as:
   S. Grimme, C. Bannwarth, P. Shushkov, J. Comput. Theory Chem., 2017,
   13, 1989-2009.
   C. Bannwarth, S. Ehlert and S. Grimme., ChemRxiv, 2018, preprint.
   http://doi.org/10.26434/chemrxiv.7246238.v1
   
   for sTDA-xTB:
   S. Grimme and C. Bannwarth, J. Chem. Phys., 2016, 145, 054103.
   
   in the mass-spec context:
   V. Asgeirsson, C. Bauer and S. Grimme, Chem. Sci., 2017, 8, 4879.
   
   if GBSA is used:
   P. Shushkov, F. März and S. Grimme, unpublished.
   
   for ANC optimizer:
   S. Grimme, unpublished.
   Rational Function algorithm used in ANCopt:
   F. Eckert, P. Pulay, H.-J. Werner, J. Comput. Chem., 1997, 18, 1473.
   
   with help from (in alphabetical order)
   C. Bannwarth, F. Bohle, G. Brandenburg, E. Caldeweyher, M. Checinski,
   S. Dohm, S. Ehlert, S. Ehrlich, F. März, H. Neugebauer, J. Pisarek,
   P. Pracht, P. Shushkov, and S. Spicher.
   
 * started run on 2019/05/05 at 21:59:04.621     
========================================================================
 # omp threads = 2
========================================================================
number of atoms            : 529
number of electrons        : 1468
charge                     : -1
spin                       : .0
first test random number   : .0027

########################################################################
# WARNING! Please study the warnings concerning your input carefully
#  - Process number higher than OMP_NUM_THREADS, I hope you know what you are doing.
########################################################################

           ------------------------------------------------- 
          |                 G F N 2 - x T B                 |
          | Geometry, Frequencies, Noncovalent interactions |
          |            JCTC 2018 parametrisation            |
           ------------------------------------------------- 
 
      method parameters     
 k(s)        :  1.8500
 k(p)        :  2.2300
 k(d)        :  2.2300
 k(f)        :  2.0000
 kEN (H0ij)  : -2.0000
 D4 a1       :  0.5200
 D4 a2       :  5.0000
 D4 s6       :  1.0000
 D4 s8       :  2.7000
 D4 s9       :  5.0000
 alphaj      :  2.0000

 Solvent             : h2o
 Using internal parameter file: .param_gbsa2_h2o
 Gsolv ref. state (COSMO-RS): gsolv [1 M gas/solution]
 temperature (mdtemp)       :    298.150000000000     
 dielectric constant        :    80.2000000000000     
 rho                        :    1.00000000000000     
 mass                       :    18.0000000000000     
 surface tension            :    15.5689454083859     
 probe radius               :   0.975313790000000     
 vdW radii scaling          :    1.00000000000000     
 Gshift (Eh)                :   1.857443126794793E-003
 c1                         :    1.55243817000000     
 soset                      :   0.130326360000000     
 HB correction              :  T

            Z     q(EN)     CN     RAES       Cart. coordinates
     1  N   5.0   -0.19    3.26    1.97    84.31390    83.72431   171.74207
     2  C   4.0    0.03    4.26    4.12    82.86259    81.81191   173.02520
     3  C   4.0    0.08    3.22    3.04    80.27178    81.59837   171.81199
     4  O   6.0   -0.29    1.13    1.80    79.13983    83.48620   171.01075
     5  C   4.0   -0.05    4.41    4.40    82.59803    82.54134   175.78798
     6  C   4.0   -0.03    4.24    4.08    85.03578    83.22920   177.13535
     7  C   4.0   -0.08    4.12    3.84    84.64083    83.79234   179.90947
     8  C   4.0   -0.08    4.17    3.94    86.84991    81.05035   176.88213
     9  H   1.0    0.08    1.03    1.43    83.92651    85.50632   172.36568
    10  H   1.0    0.04    1.06    1.44    83.77911    79.97131   172.89859
    11  H   1.0    0.05    1.04    1.43    81.35081    84.17595   175.90514
    12  H   1.0    0.04    1.04    1.43    81.76844    80.94830   176.79709
    13  H   1.0    0.04    1.06    1.44    85.79356    84.94129   176.27553
    14  H   1.0    0.04    1.00    1.43    86.45496    84.27044   180.76174
    15  H   1.0    0.04    1.00    1.43    83.33880    85.37782   180.09277
    16  H   1.0    0.03    1.00    1.43    83.85092    82.12560   180.82599
    17  H   1.0    0.04    1.00    1.43    88.60736    81.52656   177.84400
    18  H   1.0    0.04    1.00    1.43    86.01088    79.37605   177.74006
    19  H   1.0    0.04    1.01    1.43    87.21274    80.70831   174.88280
    20  N   5.0   -0.20    3.22    1.96    70.78346    64.37540   172.67938
    21  C   4.0    0.03    4.39    4.36    72.77713    64.11273   174.55588
    22  C   4.0    0.14    3.50    3.12    74.31536    66.54103   174.72406
    23  O   6.0   -0.29    1.25    1.80    74.76134    67.75612   172.80221
    24  C   4.0   -0.04    4.37    4.33    74.49300    61.93010   173.80376
    25  C   4.0   -0.03    3.77    3.31    75.73644    60.85107   175.95805
    26  C   4.0   -0.00    3.67    3.21    77.80380    61.75246   177.18259
    27  C   4.0    0.00    3.92    3.49    74.98622    58.64576   177.23740
    28  N   5.0   -0.11    3.49    2.07    78.42174    60.21801   179.15925
    29  C   4.0    0.04    3.90    3.47    76.71531    58.27537   179.24240
    30  C   4.0   -0.05    3.40    3.08    73.02090    56.89776   176.87646
    31  C   4.0   -0.04    3.38    3.07    76.54713    56.22502   180.89213
    32  C   4.0   -0.05    3.36    3.07    72.83949    54.86441   178.51107
    33  C   4.0   -0.04    3.37    3.07    74.60827    54.54127   180.51229
    34  H   1.0    0.09    1.03    1.43    71.39763    64.03714   170.88414
    35  H   1.0    0.03    1.07    1.44    71.98722    63.73290   176.42104
    36  H   1.0    0.04    1.04    1.44    73.36672    60.45989   172.90048
    37  H   1.0    0.05    1.04    1.44    75.93297    62.61418   172.49985
    38  H   1.0    0.07    1.03    1.43    78.81669    63.44755   176.66481
    39  H   1.0    0.11    1.06    1.44    79.90139    60.47312   180.36867
    40  H   1.0    0.05    1.02    1.43    71.68108    57.13586   175.35523
    41  H   1.0    0.07    1.03    1.43    77.88883    55.97179   182.40958
    42  H   1.0    0.05    1.02    1.43    71.33715    53.50570   178.26541
    43  H   1.0    0.06    1.03    1.43    74.42119    52.93689   181.75951
    44  N   5.0   -0.10    3.67    2.23    75.14684    67.22322   177.00874
    45  C   4.0    0.03    4.63    4.70    76.66429    69.50790   177.30354
    46  C   4.0    0.15    3.47    3.10    79.31180    69.13562   176.41726
    47  O   6.0   -0.32    1.28    1.80    80.47965    67.22322   176.99740
    48  C   4.0   -0.04    4.38    4.35    76.65106    70.00679   180.17214
    49  C   4.0   -0.04    4.30    4.20    76.13895    67.49912   181.31543
    50  C   4.0   -0.02    4.38    4.34    74.37205    66.20277   179.47105
    51  H   1.0    0.05    1.06    1.44    75.77234    71.06881   176.29820
    52  H   1.0    0.04    1.03    1.43    78.48221    70.73433   180.77118
    53  H   1.0    0.04    1.03    1.43    75.16763    71.35416   180.64646
    54  H   1.0    0.05    1.03    1.43    77.89639    66.44465   181.51763
    55  H   1.0    0.04    1.03    1.43    75.24322    67.73345   183.15413
    56  H   1.0    0.04    1.03    1.43    74.62528    64.15998   179.52774
    57  H   1.0    0.04    1.02    1.43    72.41052    66.68087   179.87734
    58  N   5.0   -0.14    3.49    2.07    80.25855    71.00456   175.06610
    59  C   4.0    0.04    4.38    4.35    82.65283    70.74378   173.78298
    60  C   4.0    0.14    3.41    3.08    83.67707    73.33459   173.08189
    61  O   6.0   -0.31    1.24    1.80    82.33347    75.25645   173.25574
    62  C   4.0   -0.05    4.12    3.83    82.38071    69.06192   171.46239
    63  H   1.0    0.09    1.07    1.44    79.41006    72.71854   174.82611
    64  H   1.0    0.06    1.07    1.44    84.01344    69.89529   175.07555
    65  H   1.0    0.06    1.00    1.43    84.21186    68.89941   170.53265
    66  H   1.0    0.06    1.00    1.43    81.72687    67.20054   172.05577
    67  H   1.0    0.06    1.00    1.43    81.01255    69.91041   170.17549
    68  N   5.0   -0.13    3.48    2.07    86.10536    73.35916   172.41482
    69  C   4.0    0.03    4.34    4.27    87.31101    75.56447   171.28287
    70  C   4.0    0.07    3.29    3.05    88.39382    74.82181   168.72418
    71  O   6.0   -0.31    1.20    1.80    88.78310    72.57681   168.20640
    72  C   4.0   -0.05    4.31    4.21    89.47663    76.47721   172.92693
    73  C   4.0   -0.04    4.32    4.24    91.69706    74.68764   172.78142
    74  C   4.0   -0.01    4.27    4.15    93.85702    75.44731   174.42548
    75  N   5.0   -0.14    3.48    2.06    95.05888    73.18531   175.32310
    76  C   4.0    0.10    3.37    3.07    96.92782    73.13806   176.94638
    77  N   5.0   -0.17    3.29    1.98    97.95205    75.24511   177.74006
    78  N   5.0   -0.18    3.34    2.00    97.86135    70.94409   177.69282
    79  H   1.0    0.10    1.07    1.44    87.29589    71.86061   172.63969
    80  H   1.0    0.05    1.06    1.44    85.92962    77.07625   171.05043
    81  H   1.0    0.03    1.03    1.43    90.09079    78.33481   172.28065
    82  H   1.0    0.04    1.03    1.43    88.85113    76.58492   174.88658
    83  H   1.0    0.05    1.05    1.44    91.08290    72.81303   173.37480
    84  H   1.0    0.05    1.05    1.44    92.37547    74.62528   170.83878
    85  H   1.0    0.04    1.03    1.43    95.21573    76.55658   173.34645
    86  H   1.0    0.05    1.03    1.43    93.17672    76.53957   176.03364
    87  H   1.0    0.07    1.08    1.44    94.41260    71.49778   174.65036
    88  H   1.0    0.08    1.04    1.43    97.29632    76.93830   177.09378
    89  H   1.0    0.09    1.03    1.43    99.40714    75.19409   179.00429
    90  H   1.0    0.09    1.04    1.43    97.12624    69.30003   177.00496
    91  H   1.0    0.14    1.25    1.48    99.31644    70.89496   178.95705
    92  N   5.0   -0.20    3.28    1.98    90.42150    67.49534   168.06656
    93  C   4.0    0.03    4.41    4.40    91.20762    66.09128   170.22651
    94  C   4.0    0.15    3.53    3.13    89.06467    65.99868   172.05199
    95  O   6.0   -0.31    1.26    1.80    88.26721    67.96021   173.07811
    96  C   4.0   -0.03    4.41    4.40    93.39026    67.39141   171.45484
    97  C   4.0   -0.01    3.60    3.17    94.22363    66.18954   173.89825
    98  C   4.0   -0.03    3.48    3.10    96.01887    64.29037   173.86991
    99  C   4.0   -0.03    3.49    3.11    93.22963    66.99078   176.21317
   100  C   4.0   -0.03    3.38    3.07    96.84090    63.22267   176.07522
   101  C   4.0   -0.04    3.38    3.07    94.07245    65.96277   178.42981
   102  C   4.0   -0.04    3.40    3.08    95.89414    64.07305   178.36367
   103  H   1.0    0.12    1.07    1.44    89.85647    69.29814   168.45017
   104  H   1.0    0.05    1.07    1.44    91.72730    64.17509   169.67660
   105  H   1.0    0.04    1.04    1.43    94.99274    67.35739   170.16037
   106  H   1.0    0.05    1.04    1.43    92.85546    69.33782   171.86302
   107  H   1.0    0.06    1.03    1.43    96.77854    63.64408   172.08978
   108  H   1.0    0.06    1.03    1.43    91.78588    68.43265   176.25096
   109  H   1.0    0.07    1.03    1.43    98.22418    61.72223   176.03364
   110  H   1.0    0.05    1.03    1.43    93.32790    66.61473   180.21560
   111  H   1.0    0.05    1.04    1.43    96.57633    63.26236   180.10789
   112  N   5.0   -0.14    3.50    2.08    88.21997    63.69132   172.51875
   113  C   4.0    0.04    4.48    4.50    86.07702    63.24724   174.14203
   114  C   4.0    0.16    3.45    3.09    86.82724    63.13574   176.89914
   115  O   6.0   -0.30    1.29    1.80    88.39382    61.57861   177.63424
   116  C   4.0   -0.02    4.41    4.40    84.86192    60.76225   173.43338
   117  C   4.0   -0.01    3.61    3.17    83.63927    60.80004   170.91815
   118  C   4.0   -0.04    3.50    3.11    81.19397    61.70711   170.65737
   119  C   4.0   -0.03    3.49    3.11    84.91295    59.94967   168.82623
   120  C   4.0   -0.04    3.38    3.07    80.01478    61.73924   168.33679
   121  C   4.0   -0.04    3.39    3.08    83.75643    59.99691   166.49619
   122  C   4.0   -0.04    3.39    3.07    81.30168    60.88886   166.24486
   123  H   1.0    0.11    1.10    1.44    88.99286    62.08317   171.78932
   124  H   1.0    0.05    1.07    1.44    84.75421    64.80815   173.90770
   125  H   1.0    0.06    1.04    1.43    86.30945    59.29771   173.41070
   126  H   1.0    0.06    1.04    1.43    83.41817    60.30493   174.82989
   127  H   1.0    0.05    1.03    1.43    80.19808    62.39875   172.29954
   128  H   1.0    0.06    1.03    1.43    86.81968    59.24480   169.00764
   129  H   1.0    0.05    1.03    1.43    78.10048    62.42521   168.16104
   130  H   1.0    0.05    1.03    1.43    84.76744    59.33551   164.85024
   131  H   1.0    0.05    1.03    1.43    80.40595    60.91532   164.41183
   132  N   5.0   -0.13    3.49    2.07    85.60648    64.69477   178.43737
   133  C   4.0    0.04    4.51    4.55    86.18095    64.77981   181.10000
   134  C   4.0    0.15    3.46    3.10    85.22097    62.49513   182.49839
   135  O   6.0   -0.30    1.29    1.80    83.40683    61.25358   181.69904
   136  C   4.0   -0.03    4.43    4.44    85.02444    67.06259   182.26596
   137  C   4.0   -0.01    3.58    3.16    86.21497    69.46822   181.47227
   138  C   4.0   -0.03    3.46    3.10    88.46941    70.26757   182.56642
   139  C   4.0   -0.04    3.48    3.10    85.03389    71.01212   179.69404
   140  C   4.0   -0.02    3.36    3.07    89.54088    72.54658   181.86156
   141  C   4.0   -0.04    3.36    3.07    86.09591    73.29113   178.97028
   142  C   4.0   -0.03    3.36    3.07    88.34658    74.07537   180.07010
   143  H   1.0    0.10    1.08    1.44    84.21753    65.91175   177.88557
   144  H   1.0    0.05    1.07    1.44    88.23130    64.83650   181.29464
   145  H   1.0    0.05    1.05    1.44    83.03645    67.14196   181.73494
   146  H   1.0    0.06    1.05    1.44    85.20018    66.92087   184.31253
   147  H   1.0    0.07    1.04    1.43    89.38593    69.10539   183.97049
   148  H   1.0    0.06    1.04    1.43    83.26322    70.42064   178.86823
   149  H   1.0    0.07    1.03    1.43    91.30400    73.14562   182.69870
   150  H   1.0    0.05    1.03    1.43    85.18129    74.44953   177.56054
   151  H   1.0    0.06    1.03    1.43    89.17239    75.86494   179.54097
   152  N   5.0   -0.14    3.38    2.01    86.48331    61.93577   184.59977
   153  C   4.0    0.02    4.25    4.10    85.83324    59.81172   186.23249
   154  C   4.0    0.16    3.34    3.06    86.83480    57.33051   185.19314
   155  O   6.0   -0.29    1.25    1.80    88.21241    55.99069   186.44603
   156  H   1.0    0.11    1.09    1.44    87.99887    62.94110   185.23661
   157  H   1.0    0.06    1.03    1.43    86.63827    60.11218   188.10332
   158  H   1.0    0.07    1.03    1.43    83.78478    59.67377   186.39879
   159  N   5.0   -0.13    3.59    2.15    86.14694    56.70501   182.89146
   160  C   4.0    0.04    4.52    4.56    87.11826    54.44867   181.70282
   161  C   4.0    0.15    3.42    3.08    89.69773    54.86630   180.38757
   162  O   6.0   -0.29    1.20    1.80    91.12636    53.02571   179.84333
   163  C   4.0    0.05    4.30    4.19    85.21341    53.63420   179.74506
   164  O   6.0   -0.24    2.15    1.85    84.78255    55.72235   178.09155
   165  C   4.0   -0.06    4.12    3.84    82.74354    52.94634   181.00173
   166  H   1.0    0.11    1.10    1.44    84.92239    57.71790   181.80108
   167  H   1.0    0.06    1.06    1.44    87.38282    52.96146   183.10311
   168  H   1.0    0.05    1.04    1.43    85.90127    51.99581   178.70382
   169  H   1.0    0.14    1.03    1.43    83.55045    55.25559   176.79142
   170  H   1.0    0.06    1.00    1.43    81.37160    52.35864   179.58255
   171  H   1.0    0.05    1.00    1.43    83.03645    51.40055   182.33021
   172  H   1.0    0.06    1.00    1.43    81.99521    54.57151   182.02218
   173  N   5.0   -0.13    3.50    2.08    90.27032    57.28137   179.86790
   174  C   4.0    0.04    4.44    4.45    92.58523    57.99191   178.57532
   175  C   4.0    0.17    3.46    3.10    92.93861    56.56706   176.09600
   176  O   6.0   -0.30    1.26    1.80    95.03810    55.83006   175.45350
   177  C   4.0   -0.02    4.34    4.27    94.89637    57.56105   180.24584
   178  C   4.0    0.05    3.71    3.25    94.87936    59.00669   182.66091
   179  N   5.0   -0.17    2.60    1.91    96.09823    58.13931   184.79252
   180  C   4.0   -0.01    3.63    3.19    93.80411    61.23468   183.29586
   181  C   4.0    0.06    3.56    3.15    95.76942    59.77581   186.64634
   182  N   5.0   -0.10    3.48    2.06    94.39748    61.68065   185.78274
   183  H   1.0    0.11    1.08    1.44    89.14971    58.77993   180.32899
   184  H   1.0    0.06    1.07    1.44    92.41894    59.99880   178.14069
   185  H   1.0    0.07    1.04    1.43    94.99841    55.55983   180.72016
   186  H   1.0    0.05    1.04    1.43    96.57822    58.12230   179.19704
   187  H   1.0    0.05    1.01    1.43    92.68917    62.43655   182.07887
   188  H   1.0    0.04    1.01    1.43    96.49697    59.59251   188.54552
   189  H   1.0    0.09    1.05    1.44    93.86647    63.23023   186.79941
   190  N   5.0   -0.11    3.56    2.12    90.88637    56.17588   174.71839
   191  C   4.0    0.03    4.33    4.25    91.06400    55.08929   172.22017
   192  C   4.0    0.08    3.24    3.04    91.58746    57.33618   170.47974
   193  O   6.0   -0.30    1.21    1.80    91.37392    59.52259   171.31122
   194  C   4.0   -0.05    4.26    4.12    88.59602    53.77404   171.50964
   195  C   4.0   -0.03    4.15    3.90    87.51321    51.88998   173.42771
   196  C   4.0    0.24    3.10    3.02    84.62760    51.50826   173.10457
   197  O   6.0   -0.30    1.18    1.80    83.10826    53.30350   173.53164
   198  O   6.0   -0.28    1.16    1.80    83.82257    49.39177   172.40726
   199  H   1.0    0.09    1.06    1.44    89.09113    56.59162   175.28531
   200  H   1.0    0.05    1.05    1.44    92.53043    53.64932   172.06900
   201  H   1.0    0.05    1.04    1.43    87.16361    55.22535   171.21862
   202  H   1.0    0.04    1.03    1.43    88.90972    52.73469   169.75975
   203  H   1.0    0.05    1.03    1.43    88.43351    50.06451   173.17449
   204  H   1.0    0.06    1.03    1.43    87.85714    52.59296   175.33255
   205  N   5.0   -0.20    3.22    1.96    67.65786    50.71269   188.04663
   206  C   4.0    0.02    4.33    4.25    69.35294    49.51460   186.23627
   207  C   4.0    0.15    3.42    3.09    72.05336    49.52216   187.24161
   208  O   6.0   -0.30    1.29    1.80    72.77524    51.20023   188.68347
   209  C   4.0   -0.05    4.30    4.19    69.23578    50.86764   183.68514
   210  C   4.0   -0.05    4.19    3.99    66.64874    50.79583   182.43603
   211  C   4.0   -0.02    4.24    4.09    65.88530    48.10675   181.77463
   212  N   5.0   -0.15    3.41    2.03    67.64274    46.94079   179.99640
   213  C   4.0    0.09    3.35    3.06    67.57660    47.29228   177.51141
   214  N   5.0   -0.19    3.27    1.97    65.83427    48.78139   176.49851
   215  N   5.0   -0.19    3.23    1.96    69.25090    46.15278   176.03553
   216  H   1.0    0.08    1.02    1.43    67.76557    52.63643   188.07120
   217  H   1.0    0.03    1.06    1.44    68.78791    47.55495   185.94903
   218  H   1.0    0.04    1.03    1.43    69.74223    52.84430   183.96293
   219  H   1.0    0.04    1.03    1.43    70.57560    49.97191   182.40202
   220  H   1.0    0.03    1.03    1.43    65.24279    51.57062   183.72672
   221  H   1.0    0.04    1.03    1.43    66.69599    51.90321   180.69937
   222  H   1.0    0.03    1.03    1.43    65.85695    46.96914   183.49050
   223  H   1.0    0.03    1.03    1.43    64.01447    48.12565   180.91102
   224  H   1.0    0.07    1.06    1.44    69.00901    45.78239   180.70693
   225  H   1.0    0.07    1.04    1.43    64.54170    49.65822   177.62668
   226  H   1.0    0.08    1.03    1.43    65.78703    49.04973   174.58989
   227  H   1.0    0.08    1.02    1.43    70.59260    45.00382   176.80843
   228  H   1.0    0.08    1.03    1.43    69.19798    46.42490   174.12880
   229  N   5.0   -0.14    3.42    2.03    73.54058    47.64566   186.48383
   230  C   4.0    0.03    4.41    4.40    76.14651    47.44157   187.37956
   231  C   4.0    0.16    3.45    3.09    77.53924    49.91144   186.80886
   232  O   6.0   -0.31    1.25    1.80    77.90395    50.58040   184.64323
   233  C   4.0   -0.05    4.27    4.13    77.49199    45.15122   186.23438
   234  C   4.0   -0.05    4.19    3.97    79.80691    44.27250   187.71593
   235  C   4.0   -0.05    4.16    3.93    80.98232    41.92546   186.49705
   236  C   4.0   -0.04    4.11    3.83    83.71864    41.50783   187.30775
   237  N   5.0   -0.12    4.00    2.87    84.05123    41.45303   190.11210
   238  H   1.0    0.07    1.06    1.44    73.00767    46.25104   185.26495
   239  H   1.0    0.04    1.06    1.44    76.16729    47.13165   189.41668
   240  H   1.0    0.04    1.03    1.43    76.16540    43.57708   186.15879
   241  H   1.0    0.05    1.03    1.43    78.11560    45.63688   184.33332
   242  H   1.0    0.04    1.03    1.43    81.21853    45.77294   187.73860
   243  H   1.0    0.04    1.03    1.43    79.25133    43.79818   189.64156
   244  H   1.0    0.03    1.03    1.43    79.89383    40.26439   187.04696
   245  H   1.0    0.04    1.03    1.43    80.95019    42.14278   184.44859
   246  H   1.0    0.04    1.02    1.43    84.37059    39.70314   186.55753
   247  H   1.0    0.04    1.02    1.43    84.87704    43.03851   186.56319
   248  H   1.0    0.05    1.01    1.43    85.94285    41.16390   190.55996
   249  H   1.0    0.05    1.02    1.43    83.46542    43.15945   190.89256
   250  H   1.0    0.05    1.01    1.43    82.98354    39.99605   190.88689
   251  N   5.0   -0.14    3.37    2.01    78.12694    51.34574   188.78173
   252  C   4.0    0.03    4.27    4.13    79.72565    53.55672   188.53607
   253  C   4.0    0.16    3.33    3.06    78.44252    55.92077   187.53829
   254  O   6.0   -0.31    1.24    1.80    79.72754    57.60074   186.53674
   255  H   1.0    0.09    1.05    1.44    77.51845    51.01882   190.58075
   256  H   1.0    0.06    1.03    1.43    80.50233    54.00837   190.38989
   257  H   1.0    0.06    1.03    1.43    81.27144    53.10319   187.25294
   258  N   5.0   -0.13    3.48    2.07    75.94998    56.10974   187.79152
   259  C   4.0    0.04    4.45    4.47    74.65173    58.31127   186.78807
   260  C   4.0    0.15    3.49    3.11    74.67063    60.34273   188.81575
   261  O   6.0   -0.32    1.35    1.80    75.78179    62.33828   188.44536
   262  C   4.0   -0.04    4.35    4.29    71.99667    57.61208   185.93958
   263  C   4.0   -0.02    3.56    3.14    70.57748    59.70967   184.64512
   264  C   4.0   -0.04    3.48    3.11    69.39263    61.60318   186.02651
   265  C   4.0   -0.04    3.49    3.11    70.32993    59.72668   182.07321
   266  C   4.0   -0.05    3.38    3.07    68.04147    63.49101   184.82843
   267  C   4.0   -0.05    3.38    3.07    68.98823    61.61262   180.84299
   268  C   4.0   -0.05    3.37    3.07    67.82604    63.49479   182.22060
   269  H   1.0    0.11    1.07    1.44    74.81992    54.80772   188.65512
   270  H   1.0    0.06    1.07    1.44    75.57959    59.03315   185.09677
   271  H   1.0    0.04    1.04    1.43    72.12517    56.03982   184.61489
   272  H   1.0    0.04    1.04    1.43    70.90630    57.05272   187.59498
   273  H   1.0    0.05    1.03    1.43    69.52869    61.59940   188.06364
   274  H   1.0    0.05    1.06    1.44    71.19731    58.23946   180.97716
   275  H   1.0    0.04    1.04    1.43    67.15330    64.96311   185.92636
   276  H   1.0    0.04    1.03    1.43    68.85405    61.60696   178.80587
   277  H   1.0    0.04    1.03    1.43    66.76024    64.95555   181.27574
   278  N   5.0   -0.14    3.48    2.06    73.57270    59.82116   191.00972
   279  C   4.0    0.04    4.38    4.34    73.41396    61.76191   192.99960
   280  C   4.0    0.16    3.38    3.07    75.99533    62.55182   194.04273
   281  O   6.0   -0.29    1.20    1.80    76.15029    64.14675   195.75482
   282  C   4.0    0.03    4.13    3.86    71.66030    60.91343   195.17468
   283  O   6.0   -0.21    2.03    1.83    72.72421    58.91221   196.61276
   284  H   1.0    0.09    1.05    1.44    72.79035    58.12230   191.47270
   285  H   1.0    0.04    1.06    1.44    72.54847    63.43243   192.16245
   286  H   1.0    0.06    1.01    1.43    71.33338    62.51969   196.42189
   287  H   1.0    0.04    1.01    1.43    69.87640    60.27092   194.36965
   288  H   1.0    0.12    1.01    1.43    71.56392    58.42277   197.97147
   289  N   5.0   -0.12    3.57    2.13    77.95875    61.31783   193.06007
   290  C   4.0    0.03    4.38    4.34    80.61382    61.90175   193.50983
   291  C   4.0    0.15    3.42    3.08    81.50388    63.74046   191.46703
   292  O   6.0   -0.31    1.28    1.80    82.74732    65.59428   192.00561
   293  C   4.0   -0.04    4.23    4.06    82.17662    59.44700   193.52306
   294  C   4.0   -0.04    4.14    3.87    81.47364    57.57239   195.65089
   295  C   4.0    0.24    3.08    3.02    79.16629    55.81495   195.15011
   296  O   6.0   -0.29    1.22    1.80    77.80758    56.07195   193.21692
   297  O   6.0   -0.28    1.16    1.80    78.65039    54.14443   196.76016
   298  H   1.0    0.11    1.12    1.45    77.75655    59.81361   191.87332
   299  H   1.0    0.05    1.06    1.44    80.92184    62.75213   195.35987
   300  H   1.0    0.06    1.03    1.43    81.89505    58.48135   191.72593
   301  H   1.0    0.05    1.03    1.43    84.16461    59.93644   193.75738
   302  H   1.0    0.05    1.03    1.43    83.09692    56.35163   195.98915
   303  H   1.0    0.04    1.04    1.43    81.04468    58.66087   197.34597
   304  N   5.0   -0.13    3.42    2.03    80.79523    63.24913   189.11810
   305  C   4.0    0.02    4.27    4.14    81.13538    65.07460   187.08665
   306  C   4.0    0.15    3.36    3.07    79.87872    67.58416   187.66868
   307  O   6.0   -0.29    1.22    1.80    81.06357    69.62128   187.48160
   308  H   1.0    0.11    1.07    1.44    79.97509    61.59940   188.54930
   309  H   1.0    0.06    1.03    1.43    83.14794    65.40530   186.79374
   310  H   1.0    0.05    1.03    1.43    80.32091    64.32438   185.34999
   311  N   5.0   -0.14    3.51    2.08    77.48632    67.40275   188.44725
   312  C   4.0    0.03    4.44    4.45    76.01423    69.60239   189.24472
   313  C   4.0    0.16    3.55    3.14    77.41829    70.96677   191.24782
   314  O   6.0   -0.28    1.26    1.80    77.53735    73.27979   191.20058
   315  C   4.0   -0.05    4.40    4.38    73.44987    68.87862   190.31619
   316  C   4.0   -0.03    4.18    3.97    71.32582    68.18131   188.47938
   317  C   4.0   -0.08    4.11    3.82    69.08460    67.17976   189.99116
   318  C   4.0   -0.08    4.10    3.80    70.53213    70.39607   186.82398
   319  H   1.0    0.11    1.10    1.44    76.50367    65.74735   188.54930
   320  H   1.0    0.05    1.06    1.44    75.68730    70.77402   187.58365
   321  H   1.0    0.05    1.04    1.43    73.72766    67.24401   191.53884
   322  H   1.0    0.05    1.04    1.43    72.76579    70.47733   191.42168
   323  H   1.0    0.04    1.06    1.44    72.00612    66.72622   187.19058
   324  H   1.0    0.03    1.01    1.43    67.56715    66.68087   188.69103
   325  H   1.0    0.04    1.00    1.43    69.67986    65.51491   191.04940
   326  H   1.0    0.04    1.00    1.43    68.44209    68.64430   191.28940
   327  H   1.0    0.04    1.00    1.43    69.02224    69.78380   185.56353
   328  H   1.0    0.04    1.00    1.43    69.86506    71.92864   188.02773
   329  H   1.0    0.04    1.00    1.43    72.15541    71.02535   185.72227
   330  N   5.0   -0.13    3.50    2.08    78.48977    69.55136   193.02984
   331  C   4.0    0.05    4.48    4.50    79.93730    70.81181   194.99704
   332  C   4.0    0.17    3.55    3.14    82.16906    72.17808   193.85754
   333  O   6.0   -0.33    1.63    1.81    82.49032    74.32670   194.40745
   334  C   4.0   -0.04    4.25    4.10    80.77634    69.13751   197.21369
   335  C   4.0   -0.02    3.70    3.24    82.09914    70.75512   199.20357
   336  C   4.0   -0.01    3.59    3.16    81.00121    72.01557   201.17833
   337  C   4.0    0.01    3.93    3.50    84.71641    71.39952   199.26782
   338  N   5.0   -0.12    3.49    2.07    82.79645    73.33459   202.49736
   339  C   4.0    0.03    3.93    3.51    85.09058    72.99444   201.35219
   340  C   4.0   -0.05    3.44    3.09    86.77433    70.76457   197.78061
   341  C   4.0   -0.04    3.43    3.09    87.44329    73.94687   201.97958
   342  C   4.0   -0.05    3.40    3.08    89.10625    71.70376   198.42122
   343  C   4.0   -0.05    3.41    3.08    89.42561    73.27790   200.49425
   344  H   1.0    0.10    1.06    1.44    78.39339    67.62951   193.15456
   345  H   1.0    0.06    1.07    1.44    78.62961    72.14218   195.87009
   346  H   1.0    0.06    1.03    1.43    79.13227    68.24178   198.06974
   347  H   1.0    0.05    1.03    1.43    82.09158    67.70132   196.54284
   348  H   1.0    0.05    1.01    1.43    79.01133    71.97588   201.62998
   349  H   1.0    0.08    1.04    1.43    82.47520    74.39662   204.07339
   350  H   1.0    0.05    1.03    1.43    86.54945    69.55703   196.15166
   351  H   1.0    0.06    1.03    1.43    87.69273    75.17519   203.58963
   352  H   1.0    0.05    1.03    1.43    90.72763    71.20676   197.28739
   353  H   1.0    0.05    1.03    1.43    91.28888    73.98466   200.93456
   354  N   5.0   -0.13    3.47    2.06    83.60337    71.01590   192.16812
   355  C   4.0    0.04    4.37    4.33    85.85781    72.24044   191.12499
   356  C   4.0    0.17    3.38    3.07    85.33058    74.78024   189.74927
   357  O   6.0   -0.31    1.34    1.80    86.47764    75.32448   187.90301
   358  C   4.0   -0.03    4.26    4.13    87.29211    70.34316   189.43747
   359  C   4.0   -0.03    4.14    3.88    88.75476    68.26824   190.84153
   360  C   4.0    0.24    3.09    3.02    89.60891    66.04403   189.15023
   361  O   6.0   -0.32    1.25    1.80    88.97964    66.04214   186.88445
   362  O   6.0   -0.30    1.16    1.80    90.88448    64.22423   190.03651
   363  H   1.0    0.12    1.09    1.44    83.27077    69.24523   191.48215
   364  H   1.0    0.05    1.06    1.44    87.07290    72.78657   192.69724
   365  H   1.0    0.07    1.03    1.43    85.92584    69.40585   188.21293
   366  H   1.0    0.07    1.03    1.43    88.65460    71.39007   188.30174
   367  H   1.0    0.05    1.03    1.43    90.44417    69.10161   191.67490
   368  H   1.0    0.05    1.03    1.43    87.54722    67.49723   192.32119
   369  N   5.0   -0.13    3.51    2.08    83.58825    76.34682   190.62799
   370  C   4.0    0.04    4.36    4.30    83.55612    79.03212   189.90234
   371  C   4.0    0.14    3.29    3.05    82.55646    80.98421   191.99427
   372  O   6.0   -0.29    1.25    1.80    80.31524    81.73065   191.89789
   373  C   4.0   -0.01    4.28    4.15    82.04434    79.46676   187.37200
   374  C   4.0   -0.04    4.20    4.00    83.15361    78.25733   184.96071
   375  C   4.0   -0.07    4.15    3.91    81.77600    82.31079   186.87311
   376  C   4.0   -0.06    4.01    3.63    81.98765    75.81203   184.09143
   377  H   1.0    0.13    1.19    1.46    82.17662    75.83659   191.83742
   378  H   1.0    0.07    1.07    1.44    85.55923    79.46676   189.69825
   379  H   1.0    0.06    1.06    1.44    80.25099    78.51433   187.71404
   380  H   1.0    0.03    1.04    1.43    82.94007    79.60471   183.41680
   381  H   1.0    0.06    1.05    1.44    85.15105    77.88317   185.29897
   382  H   1.0    0.04    1.00    1.43    80.72909    82.58858   185.12133
   383  H   1.0    0.07    1.03    1.43    80.75933    83.17440   188.44347
   384  H   1.0    0.05    1.00    1.43    83.65250    83.14227   186.70870
   385  H   1.0    0.05    1.00    1.43    82.94952    75.18086   182.38312
   386  H   1.0    0.07    1.00    1.43    82.19930    74.40229   185.57865
   387  H   1.0    0.04    1.00    1.43    79.99021    76.12383   183.69837
   388  N   5.0   -0.12    3.36    2.00    84.02477    81.80246   193.92368
   389  C   4.0    0.03    4.38    4.35    86.30189    80.62894   195.12176
   390  C   4.0    0.14    3.38    3.07    88.64893    80.59303   193.55518
   391  O   6.0   -0.27    1.25    1.80    88.82846    82.08214   191.79396
   392  C   4.0   -0.03    4.40    4.37    85.76710    77.97009   196.14033
   393  C   4.0   -0.01    4.34    4.27    83.24999    77.72065   197.48392
   394  C   4.0    0.25    3.18    3.03    83.15928    79.25700   199.81017
   395  O   6.0   -0.30    1.22    1.80    85.20585    79.84659   200.82685
   396  O   6.0   -0.28    1.19    1.80    81.02389    79.86549   200.58118
   397  H   1.0    0.09    1.06    1.44    83.65439    83.47108   194.81374
   398  H   1.0    0.06    1.07    1.44    86.72330    81.87994   196.70346
   399  H   1.0    0.06    1.06    1.44    85.76899    76.64539   194.56240
   400  H   1.0    0.05    1.04    1.43    87.24676    77.46743   197.48203
   401  H   1.0    0.07    1.05    1.44    81.74577    78.35938   196.23103
   402  H   1.0    0.07    1.06    1.44    82.94763    75.74966   197.99982
   403  N   5.0   -0.15    3.40    2.02    90.47063    78.97165   194.24304
   404  C   4.0    0.04    4.37    4.33    92.74775    78.41985   192.65756
   405  C   4.0    0.18    3.52    3.12    92.30177    77.66585   189.86644
   406  O   6.0   -0.28    1.34    1.80    91.85391    75.53802   189.26550
   407  C   4.0   -0.03    4.31    4.22    94.35591    76.34115   193.90478
   408  C   4.0    0.16    3.25    3.04    96.70862    75.70053   192.38166
   409  O   6.0   -0.29    1.26    1.80    97.20561    76.82492   190.38233
   410  N   5.0   -0.19    3.17    1.95    98.15426    73.88451   193.30196
   411  H   1.0    0.07    1.06    1.44    90.45173    77.98521   195.89844
   412  H   1.0    0.06    1.06    1.44    93.72474    80.23209   192.56307
   413  H   1.0    0.04    1.03    1.43    94.95684    76.98177   195.76805
   414  H   1.0    0.05    1.03    1.43    93.22396    74.62906   194.08052
   415  H   1.0    0.09    1.02    1.43    99.76052    73.36483   192.37032
   416  H   1.0    0.08    1.03    1.43    97.66482    73.00200   194.94413
   417  N   5.0   -0.12    3.61    2.17    92.60224    79.38928   188.15812
   418  C   4.0    0.05    4.52    4.56    91.74242    78.82236   185.68069
   419  C   4.0    0.08    3.26    3.05    93.76820    78.45575   183.74183
   420  O   6.0   -0.31    1.14    1.80    93.13703    77.59971   181.67258
   421  C   4.0   -0.03    4.42    4.42    89.96796    80.84815   184.83032
   422  C   4.0    0.15    3.33    3.06    91.01487    83.38794   185.30842
   423  O   6.0   -0.28    1.33    1.80    91.69706    83.94919   187.45326
   424  N   5.0   -0.19    3.19    1.95    91.31156    84.89216   183.32798
   425  H   1.0    0.11    1.11    1.45    93.40159    81.12405   188.42268
   426  H   1.0    0.08    1.11    1.45    90.81267    76.98744   185.79975
   427  H   1.0    0.04    1.05    1.44    89.63159    80.65539   182.80642
   428  H   1.0    0.05    1.04    1.43    88.19162    80.67429   185.85833
   429  H   1.0    0.09    1.02    1.43    92.02776    86.66661   183.56420
   430  H   1.0    0.07    1.03    1.43    90.82212    84.27611   181.56865
   431  N   5.0   -0.17    3.26    1.97    98.01253    74.18875   184.65835
   432  C   4.0    0.04    4.28    4.16    99.10857    71.95321   185.82998
   433  C   4.0    0.07    3.31    3.05   100.60712    70.66252   183.82498
   434  O   6.0   -0.31    1.47    1.80    99.99674    70.81181   181.60266
   435  C   4.0    0.05    4.24    4.09    97.11113    69.98600   186.65579
   436  O   6.0   -0.23    2.10    1.84    95.15526    71.20676   188.03907
   437  C   4.0   -0.08    4.06    3.72    98.27520    67.85250   188.26017
   438  H   1.0    0.11    1.03    1.43    96.12658    74.02246   184.29741
   439  H   1.0    0.04    1.05    1.44   100.17626    72.53146   187.49483
   440  H   1.0    0.05    1.05    1.44    96.31933    69.10728   184.97016
   441  H   1.0    0.12    1.01    1.43    93.88347    69.96710   188.56630
   442  H   1.0    0.05    1.00    1.43    96.81633    66.50513   188.80630
   443  H   1.0    0.04    1.00    1.43    99.72273    66.86606   187.17736
   444  H   1.0    0.04    1.00    1.43    99.13124    68.63674   189.96092
   445  N   5.0   -0.20    3.22    1.96   103.21494    63.14708   182.20549
   446  C   4.0    0.03    4.35    4.29   103.93682    60.50902   182.80642
   447  C   4.0    0.25    3.31    3.05   104.31287    59.16165   180.41403
   448  O   6.0   -0.30    1.28    1.80   103.11668    59.89486   178.59989
   449  C   4.0   -0.05    4.34    4.27   101.96772    59.08228   184.34466
   450  C   4.0   -0.05    4.23    4.07   103.18849    57.33429   186.24572
   451  C   4.0   -0.05    4.22    4.04   101.42915    55.28393   187.10177
   452  C   4.0   -0.03    4.18    3.95   100.82255    53.48680   184.94370
   453  N   5.0   -0.12    4.02    2.92    99.61690    51.19835   185.99628
   454  O   6.0   -0.31    1.24    1.80   105.79253    57.37019   180.30820
   455  H   1.0    0.10    1.04    1.43   102.60645    63.43810   180.40080
   456  H   1.0    0.04    1.07    1.44   105.63757    60.55627   183.96671
   457  H   1.0    0.04    1.03    1.43   100.79231    60.43155   185.36511
   458  H   1.0    0.05    1.05    1.44   100.80365    57.95034   183.07665
   459  H   1.0    0.05    1.04    1.43   104.83633    56.44611   185.38778
   460  H   1.0    0.04    1.03    1.43   103.75540    58.42277   187.89923
   461  H   1.0    0.04    1.03    1.43   102.31543    54.20679   188.61922
   462  H   1.0    0.04    1.03    1.43    99.66982    56.12297   187.76695
   463  H   1.0    0.05    1.03    1.43    99.52242    54.38442   183.62278
   464  H   1.0    0.04    1.03    1.43   102.55543    52.94634   183.96860
   465  H   1.0    0.05    1.02    1.43    99.18605    49.93979   184.54875
   466  H   1.0    0.05    1.02    1.43   100.83389    50.31962   187.26428
   467  H   1.0    0.06    1.02    1.43    97.95961    51.68211   186.93547
   468  N   5.0   -0.19    3.24    1.96    96.81186    46.08676   175.43082
   469  C   4.0    0.03    4.27    4.15    98.32302    44.61858   177.21661
   470  C   4.0    0.07    3.25    3.04    97.08930    42.11887   177.70794
   471  O   6.0   -0.28    1.15    1.80    94.78996    41.92331   177.67959
   472  C   4.0   -0.04    4.38    4.35    98.61968    46.02058   179.67136
   473  C   4.0   -0.02    3.60    3.17   100.07026    48.42345   179.40491
   474  C   4.0   -0.05    3.50    3.11   102.67241    48.40273   179.44082
   475  C   4.0   -0.04    3.49    3.11    98.83460    50.70141   179.07043
   476  C   4.0   -0.04    3.40    3.08   104.02441    50.61595   179.19137
   477  C   4.0   -0.03    3.40    3.08   100.18282    52.90808   178.81532
   478  C   4.0   -0.03    3.41    3.08   102.78043    52.86815   178.88902
   479  H   1.0    0.10    1.02    1.43    95.20988    46.84583   176.18671
   480  H   1.0    0.03    1.06    1.44   100.19220    44.27695   176.42104
   481  H   1.0    0.05    1.04    1.43    96.75199    46.48573   180.40458
   482  H   1.0    0.04    1.04    1.43    99.62363    44.81906   181.00929
   483  H   1.0    0.04    1.03    1.43   103.66516    46.63379   179.66758
   484  H   1.0    0.06    1.03    1.43    96.79535    50.74846   179.00996
   485  H   1.0    0.05    1.03    1.43   106.06486    50.57475   179.23484
   486  H   1.0    0.06    1.03    1.43    99.19945    54.67815   178.55643
   487  H   1.0    0.09    1.06    1.44   103.83638    54.60640   178.70949
   488  N   5.0   -0.13    3.41    2.03    88.80200    65.90041   205.90832
   489  C   4.0    0.03    4.37    4.33    87.36581    63.54770   205.42455
   490  C   4.0    0.07    3.16    3.03    88.42784    61.23846   206.82106
   491  O   6.0   -0.28    1.13    1.80    90.36481    61.46523   208.12308
   492  C   4.0   -0.05    4.35    4.28    87.47163    63.29637   202.55595
   493  C   4.0   -0.05    4.30    4.20    87.55100    65.99868   201.67344
   494  C   4.0   -0.02    4.32    4.23    89.20829    67.35361   203.55750
   495  H   1.0    0.03    1.05    1.44    85.40616    63.76880   206.01981
   496  H   1.0    0.05    1.03    1.43    89.16483    62.27025   201.98714
   497  H   1.0    0.03    1.02    1.43    85.79356    62.32694   201.85864
   498  H   1.0    0.04    1.03    1.43    88.35981    66.09317   199.78183
   499  H   1.0    0.04    1.03    1.43    85.64805    66.78858   201.66588
   500  H   1.0    0.04    1.02    1.43    91.18495    67.28369   202.98302
   501  H   1.0    0.04    1.02    1.43    88.60925    69.31137   203.78994
   502  N   5.0   -0.21    3.16    1.95    76.64162    59.82116   206.20690
   503  C   4.0    0.04    4.16    3.93    76.80035    61.76191   204.21701
   504  C   4.0    0.09    3.18    3.03    74.21899    62.55182   203.17389
   505  O   6.0   -0.27    1.12    1.80    74.06403    64.14675   201.46179
   506  C   4.0    0.03    4.13    3.86    78.55402    60.91343   202.04194
   507  O   6.0   -0.22    2.03    1.83    77.49010    58.91221   200.60386
   508  H   1.0    0.09    1.02    1.43    77.42396    58.12230   205.74391
   509  H   1.0    0.04    1.06    1.44    77.66585    63.43243   205.05416
   510  H   1.0    0.05    1.01    1.43    78.88094    62.51969   200.79472
   511  H   1.0    0.03    1.01    1.43    80.33792    60.27092   202.84696
   512  H   1.0    0.12    1.03    1.43    78.65039    58.42277   199.24515
   513  H   1.0    0.08    1.08    1.44    85.97236    83.43949   171.98899
   514  H   1.0    0.06    1.04    1.44    79.44269    79.90838   171.64574
   515  H   1.0    0.08    1.07    1.44    69.53604    63.26998   173.01782
   516  H   1.0    0.05    1.04    1.43    88.79643    76.15406   167.44587
   517  H   1.0    0.09    1.08    1.44    91.70927    67.60470   166.96100
   518  H   1.0    0.05    1.04    1.43    92.09817    57.04173   168.68431
   519  H   1.0    0.08    1.07    1.44    66.04914    50.30673   187.67274
   520  H   1.0    0.06    1.04    1.44    95.55859    78.90181   184.15000
   521  H   1.0    0.11    1.07    1.44    98.21682    75.52716   185.68767
   522  H   1.0    0.05    1.05    1.44   102.13733    69.65572   184.28959
   523  H   1.0    0.09    1.07    1.44   101.94767    63.63608   183.22894
   524  H   1.0    0.09    1.07    1.44    97.73980    47.37935   174.83023
   525  H   1.0    0.04    1.05    1.44    98.14958    40.59531   178.06234
   526  H   1.0    0.08    1.17    1.46    87.77366    67.05918   206.60998
   527  H   1.0    0.05    1.04    1.43    87.55965    59.56607   206.67806
   528  H   1.0    0.09    1.07    1.44    77.44970    60.36867   207.59966
   529  H   1.0    0.06    1.04    1.43    72.64144    61.78096   203.87259

  Z AO/shell   Hii/eV     exponent
  1     Wed Apr 25 08:07:45 CEST 2018   EN: 2.200 GM2: 0.406  GM3: 0.0800  RAES: 1.40
     1s    -10.707211    1.230000
  6     Wed Apr 25 08:07:45 CEST 2018   EN: 2.550 GM2: 0.538  GM3: 0.1500  RAES: 3.00
     2s    -13.970922    2.096432
     2p    -10.063292    1.800000
  7     Wed Apr 25 08:07:45 CEST 2018   EN: 3.040 GM2: 0.461  GM3:-0.0640  RAES: 1.90
     2s    -16.686243    2.339881
     2p    -12.523956    2.014332
  8     Wed Apr 25 08:07:45 CEST 2018   EN: 3.440 GM2: 0.452  GM3:-0.0517  RAES: 1.80
     2s    -20.229985    2.439742
     2p    -15.503117    2.137023
 no old-style atom pair restraining (fixing) potential

molecular fragmentation (1/2 indicates fragments):
111111111111111111122222222222222222222222222222222222222222222222222222
222222222222222222222222222222222222222222222222222222222222222222222222
222222222222222222222222222222222222222222222222222222222222222222222222
222222222222222222222222222222222222222222222222222222222222222222222222
222222222222222222222222222222222222222222222222222222222222222222222222
222222222222222222222222222222222222222222222222222222222222222222222222
222222222222222222222222222222222222222222222222222222222222222222222222
2222222211222222222222222
# atoms in fragment 1/2:    21   508
 fragment masses (1/2) :      115.17     3629.10
CMA distance (Bohr)    :  21.375
constraining FC (au)   :  0.0500
           ------------------------------------------------- 
          |        Self-Consistent Charge Iterations        |
           ------------------------------------------------- 

 Ncao       : 1330
 Nao        : 1330
 Nshell     : 796
 Nel        : 1468
 T(el)      :   500.0
 intcut     :    35.0
 scfconv/Eh :  0.100E-06
   qconv/e  :  0.100E-04
 intneglect :  0.100E-08
 broydamp   :      0.400
 iter      E             dE          RMSdq      gap      omega  full diag
   1   -838.0902246 -0.838090E+03  0.470E+00    2.87       0.0  T
   2   -840.1147166 -0.202449E+01  0.223E+00    1.20       1.0  T
   3   -840.2381733 -0.123457E+00  0.126E+00    1.49       1.0  T
   4   -840.3741001 -0.135927E+00  0.278E-01    0.57       1.0  T
   5   -840.3840579 -0.995775E-02  0.141E-01    0.78       1.0  T
   6   -840.3861689 -0.211105E-02  0.674E-02    0.76       1.0  T
   7   -840.3868838 -0.714815E-03  0.330E-02    0.76       1.0  T
   8   -840.3870340 -0.150234E-03  0.185E-02    0.76       1.0  T
   9   -840.3870938 -0.598545E-04  0.941E-03    0.76       1.0  T
  10   -840.3871080 -0.141299E-04  0.511E-03    0.76       1.0  T
  11   -840.3871131 -0.513086E-05  0.241E-03    0.76       1.8  T
  12   -840.3871142 -0.107777E-05  0.123E-03    0.76       3.5  T
  13   -840.3871144 -0.246926E-06  0.551E-04    0.76       7.9  T
  14   -840.3871145 -0.400933E-07  0.282E-04    0.76      15.4  T
  15   -840.3871145 -0.126977E-07  0.123E-04    0.77      35.3  T
  16   -840.3871145 -0.220200E-08  0.673E-05    0.77      64.6  T
  17   -840.3871145 -0.610385E-09  0.311E-05    0.77     139.8  T
speedup  1.64
cpu  time for SCC   45.77 s
wall time for SCC   27.95 s

   *** convergence criteria satisfied after 17 iterations ***

          eigenvalues
 #    :         722        723        724        725        726        727        728        729
 occ. :        2.000      2.000      2.000      2.000      2.000      2.000      2.000      2.000
 eps  :       -10.111    -10.081    -10.039    -10.024     -9.966     -9.910     -9.805     -9.778
 #    :         730        731        732        733        734        735        736        737
 occ. :        2.000      2.000      2.000      2.000      2.000      0.000      0.000      0.000
 eps  :        -9.767     -9.626     -9.587     -9.430     -9.244     -8.479     -8.216     -8.067
 #    :         738        739        740        741        742        743        744        745
 occ. :        0.000      0.000      0.000      0.000      0.000      0.000      0.000      0.000
 eps  :        -8.039     -7.981     -7.902     -7.571     -7.552     -7.105     -6.952     -6.806


   #   Z            q   n(s)   n(p)   n(d)      C6AA      α(0)
   1   7 N     -0.382  1.321  4.061  0.000    29.864     8.116
   2   6 C      0.040  1.049  2.911  0.000    19.911     6.356
   3   6 C      0.199  1.090  2.711  0.000    23.771     7.985
   4   8 O     -0.382  1.764  4.618  0.000    21.325     6.191
   5   6 C     -0.066  1.053  3.013  0.000    21.749     6.637
   6   6 C     -0.014  1.050  2.963  0.000    20.782     6.484
   7   6 C     -0.118  1.044  3.074  0.000    22.817     6.810
   8   6 C     -0.127  1.044  3.083  0.000    22.986     6.833
   9   1 H      0.163  0.837  0.000  0.000     1.316     1.797
  10   1 H      0.062  0.938  0.000  0.000     2.176     2.307
  11   1 H      0.035  0.965  0.000  0.000     2.518     2.481
  12   1 H      0.035  0.965  0.000  0.000     2.520     2.483
  13   1 H      0.044  0.956  0.000  0.000     2.391     2.418
  14   1 H      0.046  0.954  0.000  0.000     2.374     2.410
  15   1 H      0.037  0.963  0.000  0.000     2.490     2.468
  16   1 H      0.034  0.966  0.000  0.000     2.527     2.486
  17   1 H      0.048  0.952  0.000  0.000     2.349     2.397
  18   1 H      0.041  0.959  0.000  0.000     2.439     2.442
  19   1 H      0.055  0.945  0.000  0.000     2.264     2.353
  20   7 N     -0.389  1.330  4.060  0.000    30.078     8.145
  21   6 C      0.036  1.054  2.910  0.000    19.976     6.364
  22   6 C      0.264  1.047  2.689  0.000    22.556     7.778
  23   8 O     -0.500  1.749  4.751  0.000    23.780     6.538
  24   6 C     -0.059  1.042  3.017  0.000    21.616     6.617
  25   6 C     -0.041  1.053  2.988  0.000    28.932     8.819
  26   6 C     -0.007  1.066  2.941  0.000    28.139     8.699
  27   6 C     -0.025  1.072  2.953  0.000    28.392     8.722
  28   7 N     -0.120  1.233  3.887  0.000    23.606     7.216
  29   6 C      0.043  1.064  2.893  0.000    26.892     8.497
  30   6 C     -0.046  1.081  2.965  0.000    29.146     8.852
  31   6 C     -0.050  1.072  2.978  0.000    29.241     8.867
  32   6 C     -0.055  1.082  2.973  0.000    29.376     8.888
  33   6 C     -0.046  1.079  2.967  0.000    29.148     8.853
  34   1 H      0.164  0.836  0.000  0.000     1.309     1.792
  35   1 H      0.039  0.961  0.000  0.000     2.463     2.454
  36   1 H      0.060  0.940  0.000  0.000     2.195     2.317
  37   1 H      0.027  0.973  0.000  0.000     2.631     2.537
  38   1 H      0.025  0.975  0.000  0.000     2.655     2.548
  39   1 H      0.169  0.831  0.000  0.000     1.281     1.773
  40   1 H      0.046  0.954  0.000  0.000     2.376     2.410
  41   1 H      0.004  0.996  0.000  0.000     2.985     2.702
  42   1 H      0.061  0.939  0.000  0.000     2.185     2.312
  43   1 H      0.039  0.961  0.000  0.000     2.466     2.456
  44   7 N     -0.094  1.236  3.857  0.000    23.073     7.134
  45   6 C      0.024  1.059  2.917  0.000    20.147     6.386
  46   6 C      0.287  1.030  2.683  0.000    22.136     7.705
  47   8 O     -0.504  1.740  4.764  0.000    23.870     6.550
  48   6 C     -0.058  1.048  3.011  0.000    21.594     6.611
  49   6 C     -0.052  1.038  3.013  0.000    21.472     6.592
  50   6 C     -0.006  1.052  2.953  0.000    20.711     6.485
  51   1 H      0.057  0.943  0.000  0.000     2.232     2.336
  52   1 H      0.037  0.963  0.000  0.000     2.490     2.468
  53   1 H      0.063  0.937  0.000  0.000     2.162     2.299
  54   1 H      0.034  0.966  0.000  0.000     2.533     2.489
  55   1 H      0.049  0.951  0.000  0.000     2.335     2.390
  56   1 H      0.065  0.935  0.000  0.000     2.147     2.291
  57   1 H      0.070  0.930  0.000  0.000     2.084     2.257
  58   7 N     -0.175  1.243  3.932  0.000    24.781     7.393
  59   6 C      0.027  1.050  2.923  0.000    20.118     6.385
  60   6 C      0.263  1.044  2.693  0.000    22.561     7.778
  61   8 O     -0.492  1.751  4.740  0.000    23.600     6.513
  62   6 C     -0.114  1.041  3.073  0.000    22.732     6.798
  63   1 H      0.220  0.780  0.000  0.000     1.009     1.573
  64   1 H      0.070  0.930  0.000  0.000     2.090     2.261
  65   1 H      0.071  0.929  0.000  0.000     2.075     2.253
  66   1 H      0.046  0.954  0.000  0.000     2.372     2.408
  67   1 H      0.063  0.937  0.000  0.000     2.167     2.302
  68   7 N     -0.155  1.233  3.922  0.000    24.358     7.330
  69   6 C      0.019  1.056  2.925  0.000    20.253     6.408
  70   6 C      0.192  1.091  2.717  0.000    23.894     8.006
  71   8 O     -0.359  1.757  4.602  0.000    20.875     6.126
  72   6 C     -0.091  1.057  3.034  0.000    22.229     6.710
  73   6 C     -0.082  1.047  3.035  0.000    22.053     6.684
  74   6 C     -0.032  1.048  2.984  0.000    21.214     6.569
  75   7 N     -0.150  1.204  3.945  0.000    24.235     7.312
  76   6 C      0.233  1.010  2.756  0.000    23.106     7.870
  77   7 N     -0.239  1.224  4.015  0.000    26.257     7.610
  78   7 N     -0.300  1.255  4.045  0.000    27.732     7.821
  79   1 H      0.226  0.774  0.000  0.000     0.983     1.553
  80   1 H      0.104  0.896  0.000  0.000     1.753     2.071
  81   1 H      0.095  0.905  0.000  0.000     1.835     2.119
  82   1 H      0.089  0.911  0.000  0.000     1.888     2.149
  83   1 H      0.057  0.943  0.000  0.000     2.233     2.337
  84   1 H      0.072  0.928  0.000  0.000     2.064     2.247
  85   1 H      0.098  0.902  0.000  0.000     1.800     2.098
  86   1 H      0.095  0.905  0.000  0.000     1.836     2.119
  87   1 H      0.196  0.804  0.000  0.000     1.126     1.663
  88   1 H      0.253  0.747  0.000  0.000     0.870     1.461
  89   1 H      0.247  0.753  0.000  0.000     0.897     1.483
  90   1 H      0.189  0.811  0.000  0.000     1.161     1.688
  91   1 H      0.298  0.702  0.000  0.000     0.715     1.322
  92   7 N     -0.405  1.327  4.078  0.000    30.515     8.204
  93   6 C      0.044  1.040  2.916  0.000    19.835     6.341
  94   6 C      0.272  1.043  2.685  0.000    22.397     7.751
  95   8 O     -0.506  1.740  4.766  0.000    23.914     6.557
  96   6 C     -0.080  1.056  3.025  0.000    22.009     6.675
  97   6 C     -0.002  1.086  2.916  0.000    28.072     8.691
  98   6 C     -0.038  1.079  2.960  0.000    28.951     8.824
  99   6 C     -0.051  1.079  2.972  0.000    29.264     8.871
 100   6 C     -0.025  1.078  2.946  0.000    28.625     8.774
 101   6 C     -0.032  1.075  2.957  0.000    28.807     8.801
 102   6 C     -0.036  1.078  2.958  0.000    28.898     8.816
 103   1 H      0.194  0.806  0.000  0.000     1.135     1.669
 104   1 H      0.036  0.964  0.000  0.000     2.505     2.475
 105   1 H      0.065  0.935  0.000  0.000     2.139     2.287
 106   1 H      0.062  0.938  0.000  0.000     2.177     2.307
 107   1 H      0.045  0.955  0.000  0.000     2.381     2.413
 108   1 H      0.044  0.956  0.000  0.000     2.400     2.422
 109   1 H      0.029  0.971  0.000  0.000     2.607     2.525
 110   1 H      0.014  0.986  0.000  0.000     2.833     2.632
 111   1 H      0.018  0.982  0.000  0.000     2.763     2.599
 112   7 N     -0.179  1.254  3.925  0.000    24.874     7.407
 113   6 C      0.038  1.048  2.914  0.000    19.935     6.356
 114   6 C      0.280  1.039  2.681  0.000    22.262     7.727
 115   8 O     -0.510  1.746  4.765  0.000    24.015     6.570
 116   6 C     -0.055  1.043  3.013  0.000    21.549     6.605
 117   6 C      0.012  1.075  2.913  0.000    27.741     8.640
 118   6 C     -0.036  1.077  2.960  0.000    28.903     8.817
 119   6 C     -0.037  1.074  2.962  0.000    28.913     8.818
 120   6 C     -0.029  1.078  2.952  0.000    28.731     8.790
 121   6 C     -0.033  1.082  2.952  0.000    28.831     8.806
 122   6 C     -0.035  1.081  2.954  0.000    28.882     8.813
 123   1 H      0.223  0.777  0.000  0.000     0.994     1.562
 124   1 H      0.063  0.937  0.000  0.000     2.170     2.303
 125   1 H      0.044  0.956  0.000  0.000     2.401     2.423
 126   1 H      0.046  0.954  0.000  0.000     2.376     2.410
 127   1 H      0.021  0.979  0.000  0.000     2.725     2.582
 128   1 H      0.017  0.983  0.000  0.000     2.772     2.604
 129   1 H      0.044  0.956  0.000  0.000     2.390     2.418
 130   1 H      0.051  0.949  0.000  0.000     2.305     2.374
 131   1 H      0.057  0.943  0.000  0.000     2.239     2.340
 132   7 N     -0.172  1.247  3.926  0.000    24.733     7.386
 133   6 C      0.057  1.039  2.904  0.000    19.612     6.303
 134   6 C      0.274  1.042  2.684  0.000    22.368     7.745
 135   8 O     -0.495  1.736  4.758  0.000    23.664     6.522
 136   6 C     -0.056  1.040  3.015  0.000    21.549     6.605
 137   6 C      0.011  1.078  2.912  0.000    27.772     8.644
 138   6 C     -0.034  1.082  2.952  0.000    28.856     8.809
 139   6 C     -0.047  1.081  2.966  0.000    29.164     8.856
 140   6 C     -0.025  1.082  2.943  0.000    28.625     8.773
 141   6 C     -0.038  1.080  2.959  0.000    28.955     8.824
 142   6 C     -0.038  1.086  2.952  0.000    28.952     8.824
 143   1 H      0.225  0.775  0.000  0.000     0.986     1.555
 144   1 H      0.046  0.954  0.000  0.000     2.371     2.408
 145   1 H      0.039  0.961  0.000  0.000     2.457     2.451
 146   1 H      0.043  0.957  0.000  0.000     2.403     2.424
 147   1 H      0.021  0.979  0.000  0.000     2.713     2.576
 148   1 H      0.023  0.977  0.000  0.000     2.694     2.567
 149   1 H      0.038  0.962  0.000  0.000     2.471     2.458
 150   1 H      0.051  0.949  0.000  0.000     2.308     2.376
 151   1 H      0.083  0.917  0.000  0.000     1.952     2.185
 152   7 N     -0.188  1.253  3.934  0.000    25.070     7.436
 153   6 C     -0.018  1.045  2.973  0.000    20.967     6.532
 154   6 C      0.281  1.031  2.688  0.000    22.241     7.723
 155   8 O     -0.482  1.730  4.752  0.000    23.389     6.484
 156   1 H      0.215  0.785  0.000  0.000     1.032     1.591
 157   1 H      0.060  0.940  0.000  0.000     2.201     2.320
 158   1 H      0.081  0.919  0.000  0.000     1.967     2.193
 159   7 N     -0.171  1.239  3.932  0.000    24.698     7.381
 160   6 C      0.024  1.058  2.918  0.000    20.165     6.392
 161   6 C      0.266  1.053  2.680  0.000    22.506     7.768
 162   8 O     -0.496  1.756  4.740  0.000    23.698     6.527
 163   6 C      0.131  1.035  2.834  0.000    18.534     6.143
 164   8 O     -0.492  1.723  4.769  0.000    22.722     6.435
 165   6 C     -0.123  1.044  3.079  0.000    22.916     6.825
 166   1 H      0.223  0.777  0.000  0.000     0.998     1.565
 167   1 H      0.092  0.908  0.000  0.000     1.855     2.130
 168   1 H      0.026  0.974  0.000  0.000     2.646     2.544
 169   1 H      0.322  0.678  0.000  0.000     0.660     1.276
 170   1 H      0.066  0.934  0.000  0.000     2.125     2.280
 171   1 H      0.062  0.938  0.000  0.000     2.174     2.306
 172   1 H      0.049  0.951  0.000  0.000     2.334     2.389
 173   7 N     -0.161  1.243  3.919  0.000    24.487     7.349
 174   6 C      0.035  1.053  2.912  0.000    19.993     6.367
 175   6 C      0.288  1.035  2.676  0.000    22.116     7.701
 176   8 O     -0.483  1.740  4.743  0.000    23.403     6.486
 177   6 C     -0.059  1.041  3.018  0.000    21.630     6.620
 178   6 C      0.054  1.066  2.881  0.000    26.679     8.465
 179   7 N     -0.294  1.458  3.836  0.000    28.419     7.906
 180   6 C     -0.021  1.052  2.970  0.000    28.493     8.754
 181   6 C      0.086  1.059  2.855  0.000    26.047     8.371
 182   7 N     -0.079  1.234  3.845  0.000    22.778     7.088
 183   1 H      0.197  0.803  0.000  0.000     1.123     1.660
 184   1 H      0.065  0.935  0.000  0.000     2.136     2.286
 185   1 H      0.080  0.920  0.000  0.000     1.974     2.197
 186   1 H      0.065  0.935  0.000  0.000     2.145     2.290
 187   1 H      0.007  0.993  0.000  0.000     2.943     2.683
 188   1 H      0.060  0.940  0.000  0.000     2.195     2.317
 189   1 H      0.164  0.836  0.000  0.000     1.307     1.791
 190   7 N     -0.152  1.225  3.927  0.000    24.289     7.320
 191   6 C      0.030  1.056  2.914  0.000    20.066     6.378
 192   6 C      0.193  1.093  2.714  0.000    23.873     8.002
 193   8 O     -0.373  1.756  4.618  0.000    21.155     6.167
 194   6 C     -0.055  1.050  3.005  0.000    21.555     6.609
 195   6 C     -0.091  1.065  3.026  0.000    22.233     6.714
 196   6 C      0.365  1.030  2.605  0.000    20.804     7.464
 197   8 O     -0.643  1.776  4.867  0.000    27.202     6.993
 198   8 O     -0.625  1.770  4.855  0.000    26.729     6.932
 199   1 H      0.193  0.807  0.000  0.000     1.144     1.676
 200   1 H      0.104  0.896  0.000  0.000     1.749     2.068
 201   1 H      0.042  0.958  0.000  0.000     2.423     2.434
 202   1 H      0.066  0.934  0.000  0.000     2.134     2.285
 203   1 H      0.039  0.961  0.000  0.000     2.462     2.454
 204   1 H      0.027  0.973  0.000  0.000     2.635     2.538
 205   7 N     -0.383  1.326  4.057  0.000    29.914     8.123
 206   6 C      0.021  1.059  2.920  0.000    20.239     6.408
 207   6 C      0.271  1.045  2.684  0.000    22.426     7.755
 208   8 O     -0.516  1.762  4.754  0.000    24.142     6.588
 209   6 C     -0.081  1.054  3.027  0.000    22.033     6.682
 210   6 C     -0.084  1.052  3.032  0.000    22.106     6.694
 211   6 C     -0.033  1.055  2.978  0.000    21.232     6.574
 212   7 N     -0.142  1.207  3.935  0.000    24.076     7.287
 213   6 C      0.232  1.016  2.752  0.000    23.125     7.873
 214   7 N     -0.245  1.230  4.015  0.000    26.384     7.629
 215   7 N     -0.257  1.239  4.018  0.000    26.668     7.670
 216   1 H      0.147  0.853  0.000  0.000     1.424     1.869
 217   1 H      0.064  0.936  0.000  0.000     2.149     2.293
 218   1 H      0.040  0.960  0.000  0.000     2.449     2.447
 219   1 H      0.052  0.948  0.000  0.000     2.293     2.368
 220   1 H      0.067  0.933  0.000  0.000     2.116     2.275
 221   1 H      0.071  0.929  0.000  0.000     2.077     2.254
 222   1 H      0.092  0.908  0.000  0.000     1.861     2.133
 223   1 H      0.092  0.908  0.000  0.000     1.860     2.133
 224   1 H      0.225  0.775  0.000  0.000     0.988     1.557
 225   1 H      0.247  0.753  0.000  0.000     0.896     1.483
 226   1 H      0.251  0.749  0.000  0.000     0.878     1.468
 227   1 H      0.250  0.750  0.000  0.000     0.882     1.471
 228   1 H      0.254  0.746  0.000  0.000     0.869     1.460
 229   7 N     -0.176  1.249  3.926  0.000    24.804     7.397
 230   6 C      0.013  1.060  2.927  0.000    20.367     6.426
 231   6 C      0.283  1.035  2.682  0.000    22.200     7.716
 232   8 O     -0.470  1.745  4.725  0.000    23.125     6.447
 233   6 C     -0.087  1.056  3.031  0.000    22.158     6.701
 234   6 C     -0.086  1.052  3.034  0.000    22.137     6.699
 235   6 C     -0.097  1.055  3.042  0.000    22.341     6.729
 236   6 C     -0.053  1.060  2.993  0.000    21.628     6.639
 237   7 N     -0.147  1.234  3.913  0.000    24.164     7.301
 238   1 H      0.229  0.771  0.000  0.000     0.971     1.544
 239   1 H      0.063  0.937  0.000  0.000     2.166     2.301
 240   1 H      0.088  0.912  0.000  0.000     1.902     2.157
 241   1 H      0.070  0.930  0.000  0.000     2.080     2.255
 242   1 H      0.043  0.957  0.000  0.000     2.415     2.430
 243   1 H      0.066  0.934  0.000  0.000     2.132     2.283
 244   1 H      0.093  0.907  0.000  0.000     1.853     2.129
 245   1 H      0.087  0.913  0.000  0.000     1.908     2.160
 246   1 H      0.128  0.872  0.000  0.000     1.550     1.947
 247   1 H      0.107  0.893  0.000  0.000     1.721     2.052
 248   1 H      0.304  0.696  0.000  0.000     0.702     1.312
 249   1 H      0.283  0.717  0.000  0.000     0.765     1.370
 250   1 H      0.305  0.695  0.000  0.000     0.700     1.311
 251   7 N     -0.170  1.237  3.933  0.000    24.679     7.378
 252   6 C     -0.014  1.042  2.972  0.000    20.889     6.519
 253   6 C      0.287  1.040  2.673  0.000    22.129     7.703
 254   8 O     -0.538  1.759  4.779  0.000    24.637     6.655
 255   1 H      0.209  0.791  0.000  0.000     1.059     1.612
 256   1 H      0.070  0.930  0.000  0.000     2.083     2.257
 257   1 H      0.077  0.923  0.000  0.000     2.008     2.216
 258   7 N     -0.164  1.244  3.920  0.000    24.541     7.357
 259   6 C      0.029  1.052  2.919  0.000    20.088     6.381
 260   6 C      0.279  1.040  2.681  0.000    22.284     7.730
 261   8 O     -0.505  1.742  4.763  0.000    23.888     6.553
 262   6 C     -0.082  1.054  3.029  0.000    22.059     6.685
 263   6 C      0.004  1.075  2.921  0.000    27.928     8.668
 264   6 C     -0.043  1.080  2.964  0.000    29.071     8.842
 265   6 C     -0.046  1.081  2.965  0.000    29.145     8.854
 266   6 C     -0.036  1.083  2.954  0.000    28.905     8.816
 267   6 C     -0.034  1.081  2.953  0.000    28.838     8.806
 268   6 C     -0.036  1.081  2.956  0.000    28.902     8.816
 269   1 H      0.231  0.769  0.000  0.000     0.959     1.534
 270   1 H      0.079  0.921  0.000  0.000     1.988     2.205
 271   1 H      0.078  0.922  0.000  0.000     1.998     2.211
 272   1 H      0.060  0.940  0.000  0.000     2.203     2.321
 273   1 H      0.022  0.978  0.000  0.000     2.705     2.572
 274   1 H      0.055  0.945  0.000  0.000     2.261     2.351
 275   1 H      0.048  0.952  0.000  0.000     2.341     2.393
 276   1 H      0.046  0.954  0.000  0.000     2.369     2.407
 277   1 H      0.047  0.953  0.000  0.000     2.357     2.401
 278   7 N     -0.170  1.245  3.925  0.000    24.685     7.379
 279   6 C      0.025  1.064  2.911  0.000    20.163     6.394
 280   6 C      0.282  1.038  2.680  0.000    22.218     7.718
 281   8 O     -0.500  1.759  4.740  0.000    23.783     6.538
 282   6 C      0.076  1.039  2.885  0.000    19.528     6.332
 283   8 O     -0.490  1.741  4.750  0.000    22.687     6.430
 284   1 H      0.230  0.770  0.000  0.000     0.966     1.539
 285   1 H      0.078  0.922  0.000  0.000     1.998     2.210
 286   1 H      0.059  0.941  0.000  0.000     2.205     2.322
 287   1 H      0.067  0.933  0.000  0.000     2.121     2.278
 288   1 H      0.349  0.651  0.000  0.000     0.590     1.206
 289   7 N     -0.180  1.244  3.936  0.000    24.889     7.410
 290   6 C      0.032  1.057  2.911  0.000    20.050     6.377
 291   6 C      0.276  1.039  2.685  0.000    22.338     7.740
 292   8 O     -0.494  1.742  4.752  0.000    23.652     6.521
 293   6 C     -0.057  1.052  3.005  0.000    21.598     6.617
 294   6 C     -0.097  1.070  3.027  0.000    22.353     6.732
 295   6 C      0.357  1.031  2.612  0.000    20.941     7.489
 296   8 O     -0.621  1.763  4.858  0.000    26.644     6.921
 297   8 O     -0.624  1.771  4.852  0.000    26.704     6.928
 298   1 H      0.219  0.781  0.000  0.000     1.014     1.577
 299   1 H      0.061  0.939  0.000  0.000     2.187     2.313
 300   1 H      0.035  0.965  0.000  0.000     2.515     2.480
 301   1 H      0.041  0.959  0.000  0.000     2.432     2.439
 302   1 H      0.052  0.948  0.000  0.000     2.293     2.368
 303   1 H      0.024  0.976  0.000  0.000     2.670     2.555
 304   7 N     -0.168  1.240  3.928  0.000    24.631     7.371
 305   6 C     -0.007  1.045  2.963  0.000    20.774     6.500
 306   6 C      0.280  1.037  2.683  0.000    22.262     7.726
 307   8 O     -0.507  1.771  4.736  0.000    23.932     6.559
 308   1 H      0.217  0.783  0.000  0.000     1.025     1.586
 309   1 H      0.063  0.937  0.000  0.000     2.162     2.300
 310   1 H      0.081  0.919  0.000  0.000     1.969     2.194
 311   7 N     -0.199  1.257  3.942  0.000    25.328     7.475
 312   6 C      0.028  1.053  2.919  0.000    20.104     6.384
 313   6 C      0.294  1.028  2.677  0.000    22.009     7.684
 314   8 O     -0.503  1.752  4.751  0.000    23.849     6.548
 315   6 C     -0.075  1.056  3.019  0.000    21.911     6.662
 316   6 C     -0.017  1.055  2.962  0.000    20.842     6.493
 317   6 C     -0.122  1.048  3.074  0.000    22.883     6.820
 318   6 C     -0.122  1.045  3.077  0.000    22.890     6.822
 319   1 H      0.238  0.762  0.000  0.000     0.929     1.510
 320   1 H      0.080  0.920  0.000  0.000     1.984     2.203
 321   1 H      0.038  0.962  0.000  0.000     2.481     2.463
 322   1 H      0.061  0.939  0.000  0.000     2.192     2.315
 323   1 H      0.036  0.964  0.000  0.000     2.506     2.475
 324   1 H      0.077  0.923  0.000  0.000     2.013     2.219
 325   1 H      0.031  0.969  0.000  0.000     2.572     2.508
 326   1 H      0.053  0.947  0.000  0.000     2.282     2.362
 327   1 H      0.069  0.931  0.000  0.000     2.096     2.264
 328   1 H      0.049  0.951  0.000  0.000     2.332     2.388
 329   1 H      0.031  0.969  0.000  0.000     2.575     2.509
 330   7 N     -0.187  1.243  3.944  0.000    25.047     7.433
 331   6 C      0.037  1.056  2.908  0.000    19.951     6.358
 332   6 C      0.300  1.021  2.679  0.000    21.912     7.666
 333   8 O     -0.461  1.727  4.734  0.000    22.942     6.422
 334   6 C     -0.065  1.051  3.015  0.000    21.752     6.640
 335   6 C     -0.042  1.070  2.972  0.000    28.987     8.830
 336   6 C     -0.003  1.067  2.935  0.000    28.060     8.689
 337   6 C     -0.014  1.068  2.945  0.000    28.140     8.685
 338   7 N     -0.111  1.230  3.882  0.000    23.430     7.189
 339   6 C      0.055  1.058  2.887  0.000    26.637     8.458
 340   6 C     -0.038  1.073  2.966  0.000    28.953     8.824
 341   6 C     -0.046  1.068  2.978  0.000    29.142     8.852
 342   6 C     -0.048  1.071  2.977  0.000    29.196     8.861
 343   6 C     -0.044  1.072  2.972  0.000    29.087     8.845
 344   1 H      0.184  0.816  0.000  0.000     1.191     1.710
 345   1 H      0.059  0.941  0.000  0.000     2.206     2.323
 346   1 H      0.059  0.941  0.000  0.000     2.205     2.322
 347   1 H      0.040  0.960  0.000  0.000     2.453     2.450
 348   1 H      0.045  0.955  0.000  0.000     2.389     2.417
 349   1 H      0.191  0.809  0.000  0.000     1.156     1.684
 350   1 H      0.002  0.998  0.000  0.000     3.024     2.719
 351   1 H      0.037  0.963  0.000  0.000     2.486     2.466
 352   1 H      0.023  0.977  0.000  0.000     2.692     2.566
 353   1 H      0.045  0.955  0.000  0.000     2.382     2.414
 354   7 N     -0.198  1.253  3.945  0.000    25.293     7.469
 355   6 C      0.045  1.062  2.893  0.000    19.831     6.342
 356   6 C      0.292  1.036  2.672  0.000    22.041     7.687
 357   8 O     -0.451  1.712  4.739  0.000    22.718     6.391
 358   6 C     -0.041  1.044  2.998  0.000    21.315     6.573
 359   6 C     -0.082  1.060  3.022  0.000    22.060     6.688
 360   6 C      0.362  1.032  2.606  0.000    20.863     7.475
 361   8 O     -0.613  1.756  4.857  0.000    26.447     6.895
 362   8 O     -0.651  1.773  4.877  0.000    27.403     7.018
 363   1 H      0.209  0.791  0.000  0.000     1.064     1.616
 364   1 H      0.035  0.965  0.000  0.000     2.520     2.483
 365   1 H      0.035  0.965  0.000  0.000     2.523     2.484
 366   1 H      0.061  0.939  0.000  0.000     2.182     2.310
 367   1 H      0.023  0.977  0.000  0.000     2.695     2.567
 368   1 H      0.019  0.981  0.000  0.000     2.753     2.595
 369   7 N     -0.213  1.258  3.954  0.000    25.631     7.519
 370   6 C      0.038  1.074  2.888  0.000    19.956     6.365
 371   6 C      0.275  1.067  2.658  0.000    22.355     7.741
 372   8 O     -0.487  1.761  4.727  0.000    23.506     6.500
 373   6 C     -0.013  1.066  2.947  0.000    20.772     6.483
 374   6 C     -0.071  1.054  3.017  0.000    21.859     6.656
 375   6 C     -0.124  1.049  3.076  0.000    22.943     6.830
 376   6 C     -0.096  1.035  3.061  0.000    22.393     6.749
 377   1 H      0.220  0.780  0.000  0.000     1.010     1.575
 378   1 H      0.044  0.956  0.000  0.000     2.398     2.422
 379   1 H      0.031  0.969  0.000  0.000     2.576     2.510
 380   1 H      0.055  0.945  0.000  0.000     2.263     2.353
 381   1 H      0.059  0.941  0.000  0.000     2.215     2.328
 382   1 H      0.062  0.938  0.000  0.000     2.170     2.304
 383   1 H      0.053  0.947  0.000  0.000     2.278     2.360
 384   1 H      0.041  0.959  0.000  0.000     2.438     2.442
 385   1 H      0.043  0.957  0.000  0.000     2.407     2.426
 386   1 H      0.010  0.990  0.000  0.000     2.892     2.659
 387   1 H      0.032  0.968  0.000  0.000     2.563     2.504
 388   7 N     -0.181  1.253  3.928  0.000    24.911     7.413
 389   6 C      0.025  1.061  2.915  0.000    20.173     6.397
 390   6 C      0.274  1.037  2.689  0.000    22.363     7.744
 391   8 O     -0.471  1.740  4.731  0.000    23.148     6.451
 392   6 C     -0.047  1.049  2.999  0.000    21.412     6.587
 393   6 C     -0.074  1.052  3.022  0.000    21.899     6.661
 394   6 C      0.373  1.016  2.612  0.000    20.686     7.444
 395   8 O     -0.656  1.763  4.893  0.000    27.525     7.034
 396   8 O     -0.671  1.771  4.900  0.000    27.919     7.084
 397   1 H      0.214  0.786  0.000  0.000     1.039     1.597
 398   1 H      0.071  0.929  0.000  0.000     2.078     2.254
 399   1 H      0.033  0.967  0.000  0.000     2.539     2.492
 400   1 H      0.040  0.960  0.000  0.000     2.445     2.446
 401   1 H      0.015  0.985  0.000  0.000     2.806     2.620
 402   1 H      0.046  0.954  0.000  0.000     2.376     2.411
 403   7 N     -0.200  1.256  3.944  0.000    25.347     7.477
 404   6 C      0.022  1.068  2.910  0.000    20.225     6.406
 405   6 C      0.300  1.023  2.677  0.000    21.912     7.668
 406   8 O     -0.483  1.733  4.750  0.000    23.402     6.486
 407   6 C     -0.098  1.059  3.038  0.000    22.356     6.730
 408   6 C      0.292  1.034  2.674  0.000    22.054     7.689
 409   8 O     -0.501  1.751  4.750  0.000    23.802     6.541
 410   7 N     -0.265  1.259  4.006  0.000    26.861     7.697
 411   1 H      0.196  0.804  0.000  0.000     1.128     1.664
 412   1 H      0.071  0.929  0.000  0.000     2.075     2.253
 413   1 H      0.083  0.917  0.000  0.000     1.950     2.184
 414   1 H      0.068  0.932  0.000  0.000     2.109     2.271
 415   1 H      0.239  0.761  0.000  0.000     0.926     1.508
 416   1 H      0.232  0.768  0.000  0.000     0.955     1.531
 417   7 N     -0.170  1.230  3.940  0.000    24.676     7.378
 418   6 C      0.038  1.037  2.925  0.000    19.912     6.348
 419   6 C      0.184  1.087  2.729  0.000    24.051     8.032
 420   8 O     -0.338  1.735  4.603  0.000    20.475     6.067
 421   6 C     -0.096  1.049  3.047  0.000    22.311     6.721
 422   6 C      0.287  1.026  2.687  0.000    22.133     7.704
 423   8 O     -0.501  1.758  4.743  0.000    23.809     6.542
 424   7 N     -0.275  1.267  4.008  0.000    27.119     7.734
 425   1 H      0.231  0.769  0.000  0.000     0.959     1.534
 426   1 H      0.115  0.885  0.000  0.000     1.652     2.010
 427   1 H      0.090  0.910  0.000  0.000     1.881     2.145
 428   1 H      0.078  0.922  0.000  0.000     1.998     2.211
 429   1 H      0.249  0.751  0.000  0.000     0.886     1.475
 430   1 H      0.232  0.768  0.000  0.000     0.956     1.532
 431   7 N     -0.343  1.297  4.046  0.000    28.842     7.976
 432   6 C      0.030  1.053  2.917  0.000    20.084     6.383
 433   6 C      0.198  1.088  2.714  0.000    23.787     7.989
 434   8 O     -0.324  1.717  4.607  0.000    20.193     6.026
 435   6 C      0.126  1.044  2.830  0.000    18.615     6.157
 436   8 O     -0.448  1.718  4.730  0.000    21.805     6.304
 437   6 C     -0.132  1.048  3.084  0.000    23.097     6.854
 438   1 H      0.149  0.851  0.000  0.000     1.407     1.858
 439   1 H      0.074  0.926  0.000  0.000     2.046     2.237
 440   1 H      0.014  0.986  0.000  0.000     2.833     2.632
 441   1 H      0.281  0.719  0.000  0.000     0.782     1.389
 442   1 H      0.036  0.964  0.000  0.000     2.502     2.474
 443   1 H      0.054  0.946  0.000  0.000     2.271     2.356
 444   1 H      0.070  0.930  0.000  0.000     2.090     2.261
 445   7 N     -0.409  1.331  4.078  0.000    30.620     8.218
 446   6 C      0.027  1.060  2.913  0.000    20.136     6.390
 447   6 C      0.385  1.005  2.610  0.000    20.481     7.408
 448   8 O     -0.649  1.756  4.893  0.000    27.346     7.011
 449   6 C     -0.056  1.052  3.004  0.000    21.563     6.609
 450   6 C     -0.065  1.046  3.019  0.000    21.735     6.636
 451   6 C     -0.094  1.053  3.041  0.000    22.283     6.720
 452   6 C     -0.042  1.058  2.984  0.000    21.409     6.603
 453   7 N     -0.142  1.235  3.907  0.000    24.063     7.286
 454   8 O     -0.656  1.756  4.899  0.000    27.523     7.034
 455   1 H      0.144  0.856  0.000  0.000     1.446     1.883
 456   1 H      0.007  0.993  0.000  0.000     2.932     2.678
 457   1 H      0.017  0.983  0.000  0.000     2.785     2.610
 458   1 H      0.026  0.974  0.000  0.000     2.647     2.544
 459   1 H      0.049  0.951  0.000  0.000     2.332     2.388
 460   1 H      0.049  0.951  0.000  0.000     2.331     2.387
 461   1 H      0.088  0.912  0.000  0.000     1.902     2.157
 462   1 H      0.074  0.926  0.000  0.000     2.042     2.235
 463   1 H      0.095  0.905  0.000  0.000     1.830     2.116
 464   1 H      0.105  0.895  0.000  0.000     1.742     2.064
 465   1 H      0.282  0.718  0.000  0.000     0.769     1.374
 466   1 H      0.312  0.688  0.000  0.000     0.679     1.291
 467   1 H      0.302  0.698  0.000  0.000     0.708     1.318
 468   7 N     -0.382  1.322  4.059  0.000    29.874     8.118
 469   6 C      0.043  1.048  2.910  0.000    19.869     6.348
 470   6 C      0.200  1.081  2.719  0.000    23.745     7.981
 471   8 O     -0.369  1.755  4.614  0.000    21.074     6.155
 472   6 C     -0.078  1.052  3.026  0.000    21.962     6.669
 473   6 C      0.002  1.072  2.926  0.000    27.982     8.677
 474   6 C     -0.049  1.078  2.970  0.000    29.211     8.864
 475   6 C     -0.044  1.076  2.968  0.000    29.095     8.846
 476   6 C     -0.031  1.077  2.953  0.000    28.769     8.796
 477   6 C     -0.026  1.077  2.949  0.000    28.643     8.777
 478   6 C     -0.033  1.085  2.948  0.000    28.816     8.803
 479   1 H      0.156  0.844  0.000  0.000     1.362     1.829
 480   1 H      0.062  0.938  0.000  0.000     2.179     2.308
 481   1 H      0.058  0.942  0.000  0.000     2.228     2.334
 482   1 H      0.069  0.931  0.000  0.000     2.099     2.265
 483   1 H      0.054  0.946  0.000  0.000     2.265     2.353
 484   1 H      0.029  0.971  0.000  0.000     2.607     2.525
 485   1 H      0.033  0.967  0.000  0.000     2.546     2.495
 486   1 H      0.009  0.991  0.000  0.000     2.905     2.665
 487   1 H      0.041  0.959  0.000  0.000     2.440     2.443
 488   7 N     -0.298  1.352  3.946  0.000    27.682     7.814
 489   6 C      0.032  1.063  2.905  0.000    20.021     6.369
 490   6 C      0.191  1.090  2.719  0.000    23.908     8.007
 491   8 O     -0.358  1.763  4.595  0.000    20.853     6.122
 492   6 C     -0.056  1.051  3.005  0.000    21.554     6.605
 493   6 C     -0.054  1.045  3.009  0.000    21.510     6.598
 494   6 C      0.009  1.046  2.945  0.000    20.478     6.451
 495   1 H      0.048  0.952  0.000  0.000     2.350     2.397
 496   1 H      0.051  0.949  0.000  0.000     2.307     2.375
 497   1 H      0.036  0.964  0.000  0.000     2.505     2.475
 498   1 H      0.028  0.972  0.000  0.000     2.614     2.528
 499   1 H      0.026  0.974  0.000  0.000     2.647     2.544
 500   1 H      0.044  0.956  0.000  0.000     2.397     2.421
 501   1 H      0.026  0.974  0.000  0.000     2.642     2.542
 502   7 N     -0.388  1.322  4.066  0.000    30.043     8.140
 503   6 C      0.033  1.058  2.909  0.000    20.042     6.378
 504   6 C      0.202  1.092  2.706  0.000    23.710     7.974
 505   8 O     -0.380  1.772  4.608  0.000    21.288     6.186
 506   6 C      0.093  1.034  2.873  0.000    19.254     6.287
 507   8 O     -0.465  1.717  4.748  0.000    22.148     6.353
 508   1 H      0.175  0.825  0.000  0.000     1.244     1.747
 509   1 H      0.073  0.927  0.000  0.000     2.049     2.238
 510   1 H      0.020  0.980  0.000  0.000     2.726     2.582
 511   1 H      0.034  0.966  0.000  0.000     2.535     2.490
 512   1 H      0.292  0.708  0.000  0.000     0.746     1.357
 513   1 H      0.191  0.809  0.000  0.000     1.154     1.682
 514   1 H      0.062  0.938  0.000  0.000     2.172     2.304
 515   1 H      0.195  0.805  0.000  0.000     1.134     1.668
 516   1 H      0.105  0.895  0.000  0.000     1.737     2.061
 517   1 H      0.192  0.808  0.000  0.000     1.145     1.676
 518   1 H      0.097  0.903  0.000  0.000     1.810     2.104
 519   1 H      0.194  0.806  0.000  0.000     1.138     1.671
 520   1 H      0.089  0.911  0.000  0.000     1.889     2.149
 521   1 H      0.186  0.814  0.000  0.000     1.181     1.702
 522   1 H      0.088  0.912  0.000  0.000     1.901     2.156
 523   1 H      0.155  0.845  0.000  0.000     1.365     1.830
 524   1 H      0.173  0.827  0.000  0.000     1.252     1.753
 525   1 H      0.074  0.926  0.000  0.000     2.039     2.233
 526   1 H      0.190  0.810  0.000  0.000     1.157     1.685
 527   1 H      0.079  0.921  0.000  0.000     1.987     2.204
 528   1 H      0.197  0.803  0.000  0.000     1.121     1.658
 529   1 H      0.098  0.902  0.000  0.000     1.803     2.100

 Mol. C6AA /au·bohr⁶  :    2767373.146264
 Mol. C8AA /au·bohr⁸  :   62488684.428570
 Mol. α(0) /au        :       2517.157152

 
molecular dipole:
                 x           y           z       tot (Debye)
 q only:      -95.458    -105.704    -201.219
   full:      -96.404    -106.081    -197.818     620.943
molecular quadrupole (traceless):
                xx          xy          yy          xz          yz          zz
 q only:    16042.750  -13770.066   15699.886  -28261.434  -31539.592  -31742.636
  q+dip:    15273.158  -13913.338   15074.599  -28093.929  -31274.925  -30347.757
   full:    15270.933  -13908.537   15074.671  -28096.289  -31277.105  -30345.604
speedup  1.60
cpu  time for grad   58.87 s
wall time for grad   36.80 s

SCC energy    :    -840.4112202
rep           :      10.7265881
ES            :       2.8780102
AES           :      -0.1154218
AXC           :       0.2914707
disp          :      -0.7696487
XB            :       0.0000000
fix           :       0.0000000
Gborn         :       0.0000000
Gsasa         :       0.0000000
Ghb           :       0.0000000
Gshift        :       0.0000000
Gsolv         :      -0.8536497     -535.67
Etot ala COSMO:    -840.4112202
grad norm     :       0.7574404
total E       :    -829.5967050
atomizationE  :     153.7705272    96492.46
(atE without considering molecular charge,
 total energy contains solvation terms)
H-L gap (eV)  :          0.7652

------------------------------------------------------------------------
 * finished run on 2019/05/05 at 21:59:42.675     
------------------------------------------------------------------------
 total:
 * wall-time:     0 d,  0 h,  0 min, 38.052 sec
 *  cpu-time:     0 d,  0 h,  1 min,  0.285 sec
 * ratio c/w:     1.584 speedup
 SCF:
 * wall-time:     0 d,  0 h,  0 min, 37.497 sec
 *  cpu-time:     0 d,  0 h,  0 min, 59.769 sec
 * ratio c/w:     1.594 speedup

