      -----------------------------------------------------------      
     |                   =====================                   |     
     |                           x T B                           |     
     |                   =====================                   |     
     |                         S. Grimme                         |     
     |          Mulliken Center for Theoretical Chemistry        |     
     |                    University of Bonn                     |     
     |                 Version 6.0.1 (SAW181210)                 |     
      -----------------------------------------------------------      

   This program is distributed in the hope that it will be useful,
   but WITHOUT ANY WARRANTY; without even the implied warranty of
   MERCHANTABILITY or FITNESS FOR A PARTICULAR PURPOSE.
   
   FOR NON-COMMERCIAL, ACADEMIA USE ONLY.
   
   Cite this work as:
   S. Grimme, C. Bannwarth, P. Shushkov, J. Comput. Theory Chem., 2017,
   13, 1989-2009.
   C. Bannwarth, S. Ehlert and S. Grimme., ChemRxiv, 2018, preprint.
   http://doi.org/10.26434/chemrxiv.7246238.v1
   
   for sTDA-xTB:
   S. Grimme and C. Bannwarth, J. Chem. Phys., 2016, 145, 054103.
   
   in the mass-spec context:
   V. Asgeirsson, C. Bauer and S. Grimme, Chem. Sci., 2017, 8, 4879.
   
   if GBSA is used:
   P. Shushkov, F. März and S. Grimme, unpublished.
   
   for ANC optimizer:
   S. Grimme, unpublished.
   Rational Function algorithm used in ANCopt:
   F. Eckert, P. Pulay, H.-J. Werner, J. Comput. Chem., 1997, 18, 1473.
   
   with help from (in alphabetical order)
   C. Bannwarth, F. Bohle, G. Brandenburg, E. Caldeweyher, M. Checinski,
   S. Dohm, S. Ehlert, S. Ehrlich, F. März, H. Neugebauer, J. Pisarek,
   P. Pracht, P. Shushkov, and S. Spicher.
   
 * started run on 2019/05/10 at 12:43:50.633     
========================================================================
 # omp threads = 2
========================================================================
number of atoms            : 267
number of electrons        : 766
charge                     : -2
spin                       : .0
first test random number   : .4792

########################################################################
# WARNING! Please study the warnings concerning your input carefully
#  - Process number higher than OMP_NUM_THREADS, I hope you know what you are doing.
########################################################################

           ------------------------------------------------- 
          |                 G F N 2 - x T B                 |
          | Geometry, Frequencies, Noncovalent interactions |
          |            JCTC 2018 parametrisation            |
           ------------------------------------------------- 
 
      method parameters     
 k(s)        :  1.8500
 k(p)        :  2.2300
 k(d)        :  2.2300
 k(f)        :  2.0000
 kEN (H0ij)  : -2.0000
 D4 a1       :  0.5200
 D4 a2       :  5.0000
 D4 s6       :  1.0000
 D4 s8       :  2.7000
 D4 s9       :  5.0000
 alphaj      :  2.0000

 Solvent             : h2o
 Using internal parameter file: .param_gbsa2_h2o
 Gsolv ref. state (COSMO-RS): gsolv [1 M gas/solution]
 temperature (mdtemp)       :    298.150000000000     
 dielectric constant        :    80.2000000000000     
 rho                        :    1.00000000000000     
 mass                       :    18.0000000000000     
 surface tension            :    15.5689454083859     
 probe radius               :   0.975313790000000     
 vdW radii scaling          :    1.00000000000000     
 Gshift (Eh)                :   1.857443126794793E-003
 c1                         :    1.55243817000000     
 soset                      :   0.130326360000000     
 HB correction              :  T

            Z     q(EN)     CN     RAES       Cart. coordinates
     1  N   5.0   -0.22    3.25    1.97    19.48834   144.64815   -12.98425
     2  C   4.0    0.02    4.30    4.21    20.75975   142.51205   -11.84447
     3  C   4.0    0.15    3.43    3.09    21.86991   140.83289   -13.92415
     4  O   6.0   -0.32    1.30    1.80    23.79466   139.56711   -13.58077
     5  C   4.0   -0.05    4.24    4.07    19.02359   140.89503   -10.16676
     6  C   4.0   -0.06    4.15    3.91    17.96796   142.30273    -7.85323
     7  C   4.0   -0.02    4.17    3.94    16.49952   140.58815    -6.01139
     8  N   5.0   -0.15    3.39    2.02    17.71807   140.61035    -3.55417
     9  C   4.0    0.08    3.33    3.06    18.68110   138.64372    -2.32226
    10  N   5.0   -0.20    3.24    1.96    17.91486   136.26809    -2.72349
    11  N   5.0   -0.20    3.24    1.97    20.44631   139.05388    -0.56011
    12  H   1.0    0.07    1.02    1.43    17.69678   145.06585   -12.43746
    13  H   1.0    0.04    1.05    1.44    22.35806   143.19737   -10.70711
    14  H   1.0    0.04    1.03    1.43    17.51418   140.15673   -11.35894
    15  H   1.0    0.05    1.03    1.43    20.15709   139.29509    -9.52525
    16  H   1.0    0.04    1.04    1.43    19.55278   143.13242    -6.83045
    17  H   1.0    0.03    1.02    1.43    16.78927   143.87055    -8.46462
    18  H   1.0    0.03    1.02    1.43    14.54419   141.18442    -5.79915
    19  H   1.0    0.03    1.03    1.43    16.47265   138.66341    -6.74750
    20  H   1.0    0.06    1.06    1.44    18.12549   142.39388    -2.88279
    21  H   1.0    0.07    1.03    1.43    16.52772   135.91400    -3.97595
    22  H   1.0    0.07    1.03    1.43    18.91308   134.80257    -2.02770
    23  H   1.0    0.07    1.03    1.43    21.01899   140.83694    -0.22040
    24  H   1.0    0.07    1.03    1.43    21.16083   137.63218     0.48415
    25  N   5.0   -0.15    3.50    2.08    20.58571   140.80111   -16.06462
    26  C   4.0    0.04    4.52    4.57    21.37265   139.26645   -18.16136
    27  C   4.0    0.15    3.53    3.13    23.43116   140.53394   -19.71950
    28  O   6.0   -0.30    1.41    1.80    25.48119   139.51127   -20.04672
    29  C   4.0   -0.05    4.33    4.25    19.15926   138.59632   -19.86950
    30  C   4.0   -0.04    4.21    4.02    19.99288   136.40454   -21.52975
    31  C   4.0    0.24    3.18    3.03    20.52392   134.19992   -19.62350
    32  O   6.0   -0.28    1.18    1.80    22.73175   133.86819   -18.92252
    33  O   6.0   -0.30    1.17    1.80    18.59886   133.02543   -18.89034
    34  H   1.0    0.07    1.08    1.44    18.90634   141.70728   -16.19630
    35  H   1.0    0.08    1.10    1.44    22.23642   137.54682   -17.39589
    36  H   1.0    0.05    1.03    1.43    17.56842   138.01530   -18.68739
    37  H   1.0    0.03    1.02    1.43    18.59407   140.25932   -20.95548
    38  H   1.0    0.04    1.02    1.43    18.49865   135.89913   -22.84771
    39  H   1.0    0.05    1.03    1.43    21.71675   136.88959   -22.54646
    40  N   5.0   -0.15    3.52    2.09    22.87801   142.74143   -20.79126
    41  C   4.0    0.03    4.46    4.48    24.83390   144.14321   -22.09196
    42  C   4.0    0.17    3.53    3.13    27.36144   143.76313   -20.74357
    43  O   6.0   -0.30    1.23    1.80    29.26301   143.11094   -21.89942
    44  C   4.0   -0.04    4.30    4.20    24.12750   146.93394   -22.13829
    45  C   4.0   -0.04    4.18    3.96    21.77683   147.40068   -23.73827
    46  C   4.0    0.24    3.10    3.02    20.72640   150.11363   -23.24102
    47  O   6.0   -0.30    1.16    1.80    18.42201   150.27987   -22.74765
    48  O   6.0   -0.29    1.17    1.80    22.26839   151.89559   -23.37085
    49  H   1.0    0.07    1.07    1.44    21.25626   143.65801   -20.34069
    50  H   1.0    0.05    1.05    1.44    25.04538   143.41392   -24.02552
    51  H   1.0    0.06    1.03    1.43    23.80501   147.56302   -20.19620
    52  H   1.0    0.06    1.03    1.43    25.70130   148.05365   -22.85970
    53  H   1.0    0.04    1.02    1.43    22.24498   147.21856   -25.73916
    54  H   1.0    0.04    1.03    1.43    20.27200   146.07515   -23.27137
    55  N   5.0   -0.13    3.52    2.09    27.27090   144.26610   -18.27630
    56  C   4.0    0.04    4.35    4.29    29.41893   144.12951   -16.59539
    57  C   4.0    0.16    3.44    3.09    30.39031   141.38829   -16.44100
    58  O   6.0   -0.30    1.28    1.80    32.51843   140.90118   -17.21485
    59  C   4.0   -0.05    4.20    4.01    28.80053   145.25273   -13.98643
    60  C   4.0   -0.04    4.12    3.84    29.73568   147.96158   -13.48992
    61  C   4.0    0.24    3.06    3.02    28.29273   150.20356   -14.80293
    62  O   6.0   -0.30    1.16    1.80    28.01531   152.16981   -13.49914
    63  O   6.0   -0.29    1.16    1.80    27.58397   149.94435   -17.03020
    64  H   1.0    0.08    1.08    1.44    25.65301   144.94516   -17.52514
    65  H   1.0    0.06    1.06    1.44    30.98710   145.18311   -17.46514
    66  H   1.0    0.05    1.03    1.43    26.75539   145.18331   -13.72451
    67  H   1.0    0.04    1.03    1.43    29.65677   144.03699   -12.55107
    68  H   1.0    0.04    1.03    1.43    29.64510   148.32579   -11.46022
    69  H   1.0    0.04    1.02    1.43    31.71046   148.12268   -14.07682
    70  N   5.0   -0.14    3.44    2.04    28.97034   139.57655   -15.37958
    71  C   4.0    0.04    4.39    4.36    30.08346   137.07639   -15.08111
    72  C   4.0    0.17    3.38    3.07    30.76155   135.72269   -17.57411
    73  O   6.0   -0.30    1.21    1.80    32.23189   133.92812   -17.51237
    74  C   4.0    0.03    4.12    3.84    28.54122   135.35321   -13.30363
    75  O   6.0   -0.23    2.03    1.83    26.14235   134.64481   -14.16622
    76  H   1.0    0.11    1.08    1.44    27.12516   139.81329   -14.90612
    77  H   1.0    0.05    1.06    1.44    31.92930   137.35035   -14.16390
    78  H   1.0    0.05    1.02    1.43    29.60781   133.59783   -13.08430
    79  H   1.0    0.04    1.01    1.43    28.39192   136.31106   -11.46727
    80  H   1.0    0.15    1.05    1.44    25.08594   136.13862   -14.26521
    81  N   5.0   -0.12    3.50    2.08    29.81931   136.73850   -19.67797
    82  C   4.0    0.04    4.31    4.23    30.29461   135.85335   -22.23091
    83  C   4.0    0.15    3.45    3.10    32.89644   136.70375   -23.15639
    84  O   6.0   -0.31    1.24    1.80    34.49748   135.15335   -23.82049
    85  C   4.0   -0.06    4.14    3.88    28.29972   136.86515   -24.04355
    86  H   1.0    0.13    1.14    1.45    28.41007   138.01994   -19.52674
    87  H   1.0    0.06    1.05    1.44    30.31036   133.77834   -22.23145
    88  H   1.0    0.04    1.00    1.43    28.72666   136.26157   -25.95880
    89  H   1.0    0.06    1.00    1.43    26.45269   136.15303   -23.49430
    90  H   1.0    0.07    1.00    1.43    28.26084   138.91704   -23.96724
    91  N   5.0   -0.14    3.49    2.07    33.30715   139.19749   -23.23402
    92  C   4.0    0.04    4.35    4.29    35.75322   140.11636   -24.03056
    93  C   4.0    0.15    3.38    3.07    37.82776   139.83001   -21.99201
    94  O   6.0   -0.31    1.22    1.80    40.02009   140.35650   -22.49733
    95  C   4.0   -0.07    4.08    3.77    35.60817   142.73457   -25.18955
    96  H   1.0    0.11    1.08    1.44    32.00938   140.45615   -22.60081
    97  H   1.0    0.05    1.08    1.44    36.40154   138.78738   -25.49409
    98  H   1.0    0.05    1.00    1.43    37.51259   143.40392   -25.56886
    99  H   1.0    0.04    1.00    1.43    34.55086   142.66619   -26.94637
   100  H   1.0    0.05    1.00    1.43    34.67283   144.03565   -23.90162
   101  N   5.0   -0.13    3.47    2.06    37.14147   138.72832   -19.81268
   102  C   4.0    0.04    4.33    4.25    38.96078   137.68476   -18.02899
   103  C   4.0    0.16    3.45    3.09    40.40100   135.49883   -19.26718
   104  O   6.0   -0.32    1.29    1.80    42.70560   135.57537   -19.50747
   105  C   4.0   -0.07    4.12    3.84    37.66148   136.72295   -15.64819
   106  H   1.0    0.11    1.09    1.44    35.29765   138.66526   -19.31713
   107  H   1.0    0.05    1.05    1.44    40.36798   139.13904   -17.57333
   108  H   1.0    0.04    1.00    1.43    39.04274   135.81912   -14.42856
   109  H   1.0    0.05    1.00    1.43    36.79765   138.29945   -14.65425
   110  H   1.0    0.06    1.00    1.43    36.19508   135.36173   -16.12226
   111  N   5.0   -0.14    3.48    2.07    39.00184   133.52456   -19.97926
   112  C   4.0    0.04    4.34    4.28    40.08589   131.31560   -21.20693
   113  C   4.0    0.16    3.48    3.11    41.50836   132.12357   -23.58243
   114  O   6.0   -0.30    1.31    1.80    43.72609   131.55493   -23.90627
   115  C   4.0   -0.07    4.11    3.82    38.04950   129.38919   -21.82919
   116  H   1.0    0.10    1.07    1.44    37.09541   133.64362   -19.92975
   117  H   1.0    0.07    1.06    1.44    41.48461   130.43222   -19.94701
   118  H   1.0    0.05    1.00    1.43    38.90977   127.78140   -22.77000
   119  H   1.0    0.05    1.00    1.43    37.16464   128.74288   -20.09306
   120  H   1.0    0.06    1.00    1.43    36.61658   130.21184   -23.05313
   121  N   5.0   -0.14    3.49    2.07    40.18438   133.52227   -25.22202
   122  C   4.0    0.04    4.39    4.36    41.22256   134.36910   -27.62122
   123  C   4.0    0.16    3.45    3.10    43.85407   135.54502   -27.33299
   124  O   6.0   -0.30    1.24    1.80    45.33948   135.54074   -29.10458
   125  C   4.0   -0.04    4.26    4.12    39.41821   136.27013   -28.85793
   126  C   4.0   -0.03    4.15    3.91    39.93876   136.74793   -31.65720
   127  C   4.0    0.25    3.08    3.02    38.15425   135.24152   -33.48377
   128  O   6.0   -0.30    1.16    1.80    37.93164   136.13960   -35.65422
   129  O   6.0   -0.29    1.17    1.80    37.11344   133.29425   -32.66110
   130  H   1.0    0.10    1.08    1.44    38.32700   133.86323   -24.90548
   131  H   1.0    0.07    1.05    1.44    41.44248   132.74280   -28.89797
   132  H   1.0    0.06    1.04    1.43    37.50294   135.50112   -28.69243
   133  H   1.0    0.05    1.03    1.43    39.52560   138.04141   -27.80022
   134  H   1.0    0.05    1.02    1.43    39.69496   138.74145   -32.11871
   135  H   1.0    0.06    1.03    1.43    41.87341   136.21907   -32.13676
   136  N   5.0   -0.13    3.50    2.08    44.40172   136.63285   -25.10791
   137  C   4.0    0.04    4.53    4.58    46.87788   137.66012   -24.62319
   138  C   4.0    0.15    3.55    3.14    48.60038   135.96353   -23.05774
   139  O   6.0   -0.32    1.41    1.80    50.67513   135.39522   -23.96056
   140  C   4.0   -0.02    4.27    4.15    46.75910   140.31712   -23.48849
   141  C   4.0   -0.08    4.15    3.90    49.38906   141.13672   -22.62880
   142  C   4.0   -0.07    4.13    3.86    45.72343   142.09674   -25.50023
   143  H   1.0    0.11    1.08    1.44    43.12527   136.66829   -23.69315
   144  H   1.0    0.06    1.09    1.44    47.78417   137.75792   -26.48866
   145  H   1.0    0.05    1.05    1.44    45.45762   140.27875   -21.88135
   146  H   1.0    0.03    1.00    1.43    49.33231   143.08343   -21.98095
   147  H   1.0    0.05    1.01    1.43    50.06170   139.95455   -21.09091
   148  H   1.0    0.04    1.00    1.43    50.71128   140.99007   -24.19334
   149  H   1.0    0.04    1.00    1.43    45.57799   144.00707   -24.76155
   150  H   1.0    0.04    1.00    1.43    46.94785   142.10114   -27.14907
   151  H   1.0    0.05    1.00    1.43    43.84649   141.48922   -26.07405
   152  N   5.0   -0.15    3.46    2.05    47.99676   135.26470   -20.71831
   153  C   4.0    0.04    4.44    4.45    49.77486   133.58980   -19.44493
   154  C   4.0    0.17    3.56    3.14    50.63747   131.49950   -21.25518
   155  O   6.0   -0.30    1.29    1.80    52.85304   130.81839   -21.31737
   156  C   4.0   -0.05    4.22    4.03    48.79698   132.47432   -16.96272
   157  C   4.0   -0.03    4.17    3.93    46.22824   131.16439   -17.14467
   158  C   4.0    0.25    3.08    3.02    46.22900   128.28075   -17.80063
   159  O   6.0   -0.30    1.17    1.80    48.19572   127.03667   -17.42553
   160  O   6.0   -0.30    1.17    1.80    44.18099   127.43012   -18.61222
   161  H   1.0    0.11    1.09    1.44    46.23976   135.52377   -20.01507
   162  H   1.0    0.06    1.06    1.44    51.49952   134.67541   -19.03222
   163  H   1.0    0.06    1.03    1.43    50.18806   131.09142   -16.31064
   164  H   1.0    0.04    1.03    1.43    48.68297   133.99502   -15.57547
   165  H   1.0    0.04    1.03    1.43    45.26340   131.29149   -15.32021
   166  H   1.0    0.07    1.04    1.43    45.01029   132.08183   -18.52489
   167  N   5.0   -0.13    3.54    2.10    48.88010   130.47225   -22.75428
   168  C   4.0    0.04    4.45    4.46    49.53941   128.40097   -24.41740
   169  C   4.0    0.16    3.55    3.14    51.78658   129.06812   -26.07048
   170  O   6.0   -0.31    1.26    1.80    53.43052   127.49969   -26.53925
   171  C   4.0   -0.03    4.28    4.15    47.34229   127.69094   -26.15414
   172  C   4.0   -0.03    4.18    3.96    47.94125   125.41920   -27.82550
   173  C   4.0    0.25    3.08    3.02    47.84104   125.95015   -30.75029
   174  O   6.0   -0.28    1.17    1.80    47.56606   128.15695   -31.49670
   175  O   6.0   -0.31    1.17    1.80    48.13722   124.01481   -32.07546
   176  H   1.0    0.11    1.10    1.44    47.03970   130.96748   -22.66228
   177  H   1.0    0.06    1.06    1.44    50.08760   126.77650   -23.24152
   178  H   1.0    0.06    1.02    1.43    45.67749   127.34936   -24.97979
   179  H   1.0    0.08    1.04    1.43    46.89690   129.31785   -27.35527
   180  H   1.0    0.06    1.04    1.43    49.85321   124.74224   -27.45870
   181  H   1.0    0.04    1.03    1.43    46.58629   123.89999   -27.50595
   182  N   5.0   -0.13    3.53    2.10    51.73576   131.37610   -27.07977
   183  C   4.0    0.04    4.44    4.44    53.82178   132.22788   -28.61647
   184  C   4.0    0.15    3.53    3.13    56.31047   132.08287   -27.17089
   185  O   6.0   -0.31    1.25    1.80    58.12801   130.78718   -27.90336
   186  C   4.0   -0.04    4.30    4.19    53.26252   134.91311   -29.49956
   187  C   4.0   -0.05    4.22    4.03    55.61067   136.20859   -30.58094
   188  C   4.0   -0.02    4.19    3.97    54.96267   138.09377   -32.66661
   189  N   5.0   -0.14    3.38    2.01    54.26549   136.75324   -34.95009
   190  C   4.0    0.08    3.32    3.06    54.68196   137.49237   -37.35230
   191  N   5.0   -0.20    3.20    1.96    55.63524   139.82025   -37.89555
   192  N   5.0   -0.19    3.20    1.96    53.68426   136.06735   -39.25646
   193  H   1.0    0.11    1.12    1.45    50.72866   132.75975   -26.21030
   194  H   1.0    0.06    1.05    1.44    54.01098   130.93606   -30.23572
   195  H   1.0    0.05    1.03    1.43    51.74680   134.81055   -30.89401
   196  H   1.0    0.06    1.04    1.43    52.55376   135.98196   -27.88574
   197  H   1.0    0.04    1.03    1.43    56.62918   137.18991   -29.08647
   198  H   1.0    0.05    1.03    1.43    56.90198   134.79563   -31.36122
   199  H   1.0    0.04    1.02    1.43    53.39391   139.30319   -32.06576
   200  H   1.0    0.03    1.03    1.43    56.60758   139.27657   -33.05536
   201  H   1.0    0.08    1.07    1.44    53.32206   135.11462   -34.71136
   202  H   1.0    0.07    1.03    1.43    56.81989   140.63284   -36.63957
   203  H   1.0    0.07    1.03    1.43    56.22267   140.12788   -39.68326
   204  H   1.0    0.08    1.03    1.43    53.26149   134.24392   -38.90605
   205  H   1.0    0.07    1.03    1.43    54.30069   136.39901   -41.02647
   206  N   5.0   -0.14    3.52    2.09    56.47994   133.54711   -25.08836
   207  C   4.0    0.05    4.52    4.56    58.85520   133.63844   -23.78601
   208  C   4.0    0.16    3.42    3.08    59.53407   131.17941   -22.40671
   209  O   6.0   -0.30    1.23    1.80    61.61008   130.94450   -21.39590
   210  C   4.0    0.05    4.23    4.06    59.07241   135.97451   -22.09764
   211  O   6.0   -0.24    2.12    1.84    57.09305   135.88885   -20.31942
   212  C   4.0   -0.08    4.07    3.74    58.99933   138.39755   -23.67905
   213  H   1.0    0.11    1.06    1.44    54.92206   134.23268   -24.22026
   214  H   1.0    0.05    1.07    1.44    60.33543   133.78569   -25.24310
   215  H   1.0    0.04    1.04    1.43    60.91344   135.82272   -21.13449
   216  H   1.0    0.11    1.03    1.43    57.27093   137.33636   -19.21399
   217  H   1.0    0.03    1.00    1.43    59.09843   140.04699   -22.45874
   218  H   1.0    0.03    1.00    1.43    60.58832   138.46804   -24.97609
   219  H   1.0    0.04    1.00    1.43    57.26282   138.46990   -24.77267
   220  N   5.0   -0.12    3.52    2.09    57.84978   129.31954   -22.51508
   221  C   4.0    0.04    4.45    4.46    58.51469   126.75649   -21.84108
   222  C   4.0    0.15    3.54    3.13    60.09045   125.53721   -23.90857
   223  O   6.0   -0.29    1.26    1.80    62.14453   124.50031   -23.44253
   224  C   4.0   -0.04    4.30    4.20    56.15692   125.16040   -21.40368
   225  C   4.0   -0.05    4.22    4.04    56.94459   122.46658   -20.73790
   226  C   4.0   -0.02    4.19    3.99    54.67890   120.75644   -20.24837
   227  N   5.0   -0.15    3.40    2.02    53.21925   120.30008   -22.52357
   228  C   4.0    0.09    3.33    3.06    50.87410   121.03219   -23.02164
   229  N   5.0   -0.18    3.25    1.97    49.56763   122.50262   -21.45845
   230  N   5.0   -0.19    3.25    1.97    49.68127   119.98563   -24.99222
   231  H   1.0    0.12    1.11    1.44    56.11826   129.63044   -23.24808
   232  H   1.0    0.06    1.06    1.44    59.70374   126.84432   -20.14524
   233  H   1.0    0.05    1.02    1.43    55.04995   126.02303   -19.89256
   234  H   1.0    0.07    1.03    1.43    55.04190   125.20666   -23.13784
   235  H   1.0    0.05    1.04    1.43    58.08285   121.70448   -22.27797
   236  H   1.0    0.04    1.03    1.43    58.12529   122.51219   -19.05173
   237  H   1.0    0.03    1.03    1.43    55.35913   118.92185   -19.58746
   238  H   1.0    0.04    1.03    1.43    53.47480   121.58409   -18.80057
   239  H   1.0    0.07    1.07    1.44    54.16957   119.35463   -23.88775
   240  H   1.0    0.10    1.03    1.43    50.36747   123.50098   -20.04363
   241  H   1.0    0.09    1.03    1.43    47.77633   122.99305   -21.87244
   242  H   1.0    0.07    1.03    1.43    50.63637   118.87313   -26.20764
   243  H   1.0    0.08    1.03    1.43    48.05070   120.72718   -25.63567
   244  N   5.0   -0.14    3.45    2.05    59.03066   125.47922   -26.24241
   245  C   4.0    0.04    4.35    4.29    60.61093   124.65628   -28.32411
   246  C   4.0    0.10    3.30    3.05    63.28422   125.70691   -28.03438
   247  O   6.0   -0.30    1.11    1.80    65.14804   124.33123   -28.29171
   248  C   4.0   -0.05    4.23    4.07    59.45823   125.29925   -30.90327
   249  C   4.0   -0.05    4.16    3.92    57.91141   123.10645   -31.99371
   250  C   4.0   -0.04    4.16    3.92    55.53121   122.52838   -30.45969
   251  C   4.0   -0.04    4.10    3.81    54.52744   119.84707   -30.85201
   252  N   5.0   -0.12    3.97    2.78    52.85009   119.59072   -33.07748
   253  H   1.0    0.11    1.08    1.44    57.68474   126.77711   -26.65585
   254  H   1.0    0.05    1.06    1.44    60.83185   122.59237   -28.19490
   255  H   1.0    0.06    1.03    1.43    58.30309   127.00137   -30.73156
   256  H   1.0    0.04    1.03    1.43    60.98804   125.74491   -32.22577
   257  H   1.0    0.03    1.02    1.43    57.42569   123.53445   -33.95701
   258  H   1.0    0.03    1.03    1.43    59.12989   121.44038   -32.02052
   259  H   1.0    0.05    1.04    1.43    55.99176   122.78480   -28.47058
   260  H   1.0    0.06    1.02    1.43    54.06173   123.90207   -30.92827
   261  H   1.0    0.03    1.02    1.43    56.11863   118.55204   -31.06969
   262  H   1.0    0.03    1.03    1.43    53.42324   119.32113   -29.19287
   263  H   1.0    0.04    1.02    1.43    52.05524   117.83033   -33.15587
   264  H   1.0    0.07    1.02    1.43    51.44322   120.93219   -33.05825
   265  H   1.0    0.04    0.96    1.43    53.85309   119.84541   -34.88758
   266  H   1.0    0.09    1.07    1.44    20.37082   146.06773   -12.67030
   267  H   1.0    0.06    1.04    1.44    63.54242   127.53477   -27.63026

  Z AO/shell   Hii/eV     exponent
  1     Wed Apr 25 08:07:45 CEST 2018   EN: 2.200 GM2: 0.406  GM3: 0.0800  RAES: 1.40
     1s    -10.707211    1.230000
  6     Wed Apr 25 08:07:45 CEST 2018   EN: 2.550 GM2: 0.538  GM3: 0.1500  RAES: 3.00
     2s    -13.970922    2.096432
     2p    -10.063292    1.800000
  7     Wed Apr 25 08:07:45 CEST 2018   EN: 3.040 GM2: 0.461  GM3:-0.0640  RAES: 1.90
     2s    -16.686243    2.339881
     2p    -12.523956    2.014332
  8     Wed Apr 25 08:07:45 CEST 2018   EN: 3.440 GM2: 0.452  GM3:-0.0517  RAES: 1.80
     2s    -20.229985    2.439742
     2p    -15.503117    2.137023
 no old-style atom pair restraining (fixing) potential
           ------------------------------------------------- 
          |        Self-Consistent Charge Iterations        |
           ------------------------------------------------- 

 Ncao       : 675
 Nao        : 675
 Nshell     : 403
 Nel        : 766
 T(el)      :   500.0
 intcut     :    35.0
 scfconv/Eh :  0.100E-06
   qconv/e  :  0.100E-04
 intneglect :  0.100E-08
 broydamp   :      0.400
 iter      E             dE          RMSdq      gap      omega  full diag
   1   -443.4902930 -0.443490E+03  0.493E+00    3.45       0.0  T
   2   -444.7372638 -0.124697E+01  0.225E+00    2.52       1.0  T
   3   -444.8208109 -0.835472E-01  0.130E+00    2.62       1.0  T
   4   -444.8944329 -0.736219E-01  0.289E-01    1.87       1.0  T
   5   -444.8987783 -0.434541E-02  0.152E-01    2.10       1.0  T
   6   -444.8994102 -0.631898E-03  0.545E-02    2.13       1.0  T
   7   -444.8996029 -0.192732E-03  0.225E-02    2.20       1.0  T
   8   -444.8996178 -0.149261E-04  0.916E-03    2.22       1.0  T
   9   -444.8996227 -0.488286E-05  0.365E-03    2.23       1.7  T
  10   -444.8996231 -0.366175E-06  0.127E-03    2.23       4.8  T
  11   -444.8996232 -0.108969E-06  0.500E-04    2.23      12.2  T
  12   -444.8996232 -0.968436E-08  0.213E-04    2.23      28.7  T
  13   -444.8996232 -0.135947E-08  0.873E-05    2.23      70.1  T
  14   -444.8996232 -0.333102E-09  0.348E-05    2.23     175.7  T
speedup  1.84
cpu  time for SCC    6.39 s
wall time for SCC    3.46 s

   *** convergence criteria satisfied after 14 iterations ***

          eigenvalues
 #    :         371        372        373        374        375        376        377        378
 occ. :        2.000      2.000      2.000      2.000      2.000      2.000      2.000      2.000
 eps  :       -10.543    -10.356    -10.333    -10.283    -10.275    -10.201    -10.189     -9.924
 #    :         379        380        381        382        383        384        385        386
 occ. :        2.000      2.000      2.000      2.000      2.000      0.000      0.000      0.000
 eps  :        -9.881     -9.776     -9.757     -9.706     -9.686     -7.453     -6.951     -6.800
 #    :         387        388        389        390        391        392        393        394
 occ. :        0.000      0.000      0.000      0.000      0.000      0.000      0.000      0.000
 eps  :        -6.742     -6.732     -6.660     -6.643     -6.598     -6.525     -6.491     -6.434


   #   Z            q   n(s)   n(p)   n(d)      C6AA      α(0)
   1   7 N     -0.407  1.320  4.087  0.000    30.562     8.211
   2   6 C      0.032  1.058  2.910  0.000    20.053     6.378
   3   6 C      0.264  1.050  2.686  0.000    22.544     7.776
   4   8 O     -0.515  1.743  4.772  0.000    24.122     6.585
   5   6 C     -0.076  1.057  3.019  0.000    21.954     6.671
   6   6 C     -0.080  1.055  3.025  0.000    22.032     6.683
   7   6 C     -0.026  1.054  2.972  0.000    21.123     6.559
   8   7 N     -0.140  1.212  3.928  0.000    24.033     7.281
   9   6 C      0.232  1.021  2.747  0.000    23.124     7.873
  10   7 N     -0.247  1.231  4.016  0.000    26.439     7.637
  11   7 N     -0.257  1.237  4.020  0.000    26.683     7.672
  12   1 H      0.184  0.816  0.000  0.000     1.189     1.708
  13   1 H      0.044  0.956  0.000  0.000     2.402     2.424
  14   1 H      0.053  0.947  0.000  0.000     2.278     2.360
  15   1 H      0.064  0.936  0.000  0.000     2.150     2.293
  16   1 H      0.072  0.928  0.000  0.000     2.066     2.248
  17   1 H      0.063  0.937  0.000  0.000     2.159     2.298
  18   1 H      0.097  0.903  0.000  0.000     1.816     2.107
  19   1 H      0.084  0.916  0.000  0.000     1.934     2.175
  20   1 H      0.234  0.766  0.000  0.000     0.949     1.526
  21   1 H      0.242  0.758  0.000  0.000     0.915     1.498
  22   1 H      0.258  0.742  0.000  0.000     0.852     1.446
  23   1 H      0.248  0.752  0.000  0.000     0.889     1.477
  24   1 H      0.261  0.739  0.000  0.000     0.843     1.438
  25   7 N     -0.179  1.249  3.930  0.000    24.880     7.408
  26   6 C      0.026  1.053  2.921  0.000    20.129     6.386
  27   6 C      0.278  1.043  2.680  0.000    22.300     7.734
  28   8 O     -0.482  1.742  4.740  0.000    23.384     6.483
  29   6 C     -0.059  1.054  3.005  0.000    21.623     6.618
  30   6 C     -0.093  1.064  3.029  0.000    22.270     6.718
  31   6 C      0.372  1.023  2.605  0.000    20.690     7.444
  32   8 O     -0.627  1.776  4.850  0.000    26.781     6.938
  33   8 O     -0.642  1.768  4.874  0.000    27.173     6.989
  34   1 H      0.226  0.774  0.000  0.000     0.984     1.554
  35   1 H      0.089  0.911  0.000  0.000     1.890     2.150
  36   1 H      0.063  0.937  0.000  0.000     2.159     2.298
  37   1 H      0.038  0.962  0.000  0.000     2.471     2.458
  38   1 H      0.034  0.966  0.000  0.000     2.534     2.489
  39   1 H      0.002  0.998  0.000  0.000     3.029     2.722
  40   7 N     -0.181  1.251  3.930  0.000    24.928     7.415
  41   6 C      0.029  1.062  2.909  0.000    20.087     6.380
  42   6 C      0.290  1.038  2.672  0.000    22.084     7.695
  43   8 O     -0.498  1.736  4.762  0.000    23.742     6.533
  44   6 C     -0.041  1.047  2.994  0.000    21.309     6.571
  45   6 C     -0.096  1.069  3.027  0.000    22.329     6.728
  46   6 C      0.372  1.024  2.604  0.000    20.701     7.446
  47   8 O     -0.638  1.766  4.872  0.000    27.075     6.976
  48   8 O     -0.647  1.780  4.867  0.000    27.299     7.005
  49   1 H      0.209  0.791  0.000  0.000     1.062     1.615
  50   1 H      0.066  0.934  0.000  0.000     2.132     2.283
  51   1 H      0.029  0.971  0.000  0.000     2.600     2.521
  52   1 H      0.043  0.957  0.000  0.000     2.413     2.429
  53   1 H      0.031  0.969  0.000  0.000     2.573     2.508
  54   1 H      0.030  0.970  0.000  0.000     2.581     2.512
  55   7 N     -0.174  1.241  3.933  0.000    24.776     7.393
  56   6 C      0.035  1.060  2.905  0.000    19.995     6.369
  57   6 C      0.271  1.050  2.680  0.000    22.427     7.755
  58   8 O     -0.491  1.740  4.751  0.000    23.579     6.510
  59   6 C     -0.057  1.057  2.999  0.000    21.592     6.616
  60   6 C     -0.100  1.074  3.026  0.000    22.422     6.743
  61   6 C      0.367  1.028  2.605  0.000    20.774     7.459
  62   8 O     -0.649  1.774  4.875  0.000    27.365     7.014
  63   8 O     -0.650  1.782  4.867  0.000    27.372     7.015
  64   1 H      0.187  0.813  0.000  0.000     1.176     1.699
  65   1 H      0.063  0.937  0.000  0.000     2.160     2.298
  66   1 H      0.037  0.963  0.000  0.000     2.487     2.466
  67   1 H      0.063  0.937  0.000  0.000     2.162     2.300
  68   1 H      0.048  0.952  0.000  0.000     2.340     2.392
  69   1 H      0.028  0.972  0.000  0.000     2.621     2.532
  70   7 N     -0.183  1.249  3.933  0.000    24.961     7.420
  71   6 C      0.010  1.070  2.920  0.000    20.413     6.433
  72   6 C      0.280  1.042  2.678  0.000    22.265     7.726
  73   8 O     -0.503  1.740  4.763  0.000    23.862     6.549
  74   6 C      0.073  1.038  2.889  0.000    19.576     6.340
  75   8 O     -0.464  1.722  4.743  0.000    22.137     6.351
  76   1 H      0.220  0.780  0.000  0.000     1.011     1.575
  77   1 H      0.084  0.916  0.000  0.000     1.943     2.180
  78   1 H      0.078  0.922  0.000  0.000     2.003     2.213
  79   1 H      0.063  0.937  0.000  0.000     2.165     2.301
  80   1 H      0.319  0.681  0.000  0.000     0.668     1.284
  81   7 N     -0.193  1.253  3.940  0.000    25.185     7.453
  82   6 C      0.035  1.055  2.910  0.000    19.998     6.369
  83   6 C      0.271  1.047  2.681  0.000    22.413     7.753
  84   8 O     -0.507  1.741  4.766  0.000    23.943     6.560
  85   6 C     -0.118  1.040  3.078  0.000    22.818     6.810
  86   1 H      0.231  0.769  0.000  0.000     0.963     1.537
  87   1 H      0.066  0.934  0.000  0.000     2.131     2.283
  88   1 H      0.061  0.939  0.000  0.000     2.192     2.315
  89   1 H      0.062  0.938  0.000  0.000     2.179     2.308
  90   1 H      0.062  0.938  0.000  0.000     2.179     2.308
  91   7 N     -0.177  1.249  3.929  0.000    24.839     7.402
  92   6 C      0.027  1.057  2.916  0.000    20.128     6.388
  93   6 C      0.268  1.048  2.683  0.000    22.469     7.762
  94   8 O     -0.478  1.736  4.742  0.000    23.299     6.472
  95   6 C     -0.124  1.038  3.086  0.000    22.940     6.830
  96   1 H      0.219  0.781  0.000  0.000     1.013     1.577
  97   1 H      0.073  0.927  0.000  0.000     2.051     2.239
  98   1 H      0.081  0.919  0.000  0.000     1.971     2.195
  99   1 H      0.066  0.934  0.000  0.000     2.125     2.279
 100   1 H      0.061  0.939  0.000  0.000     2.191     2.315
 101   7 N     -0.187  1.243  3.943  0.000    25.044     7.433
 102   6 C      0.027  1.060  2.913  0.000    20.125     6.389
 103   6 C      0.275  1.045  2.680  0.000    22.355     7.743
 104   8 O     -0.488  1.730  4.758  0.000    23.527     6.503
 105   6 C     -0.135  1.043  3.091  0.000    23.142     6.859
 106   1 H      0.201  0.799  0.000  0.000     1.102     1.644
 107   1 H      0.084  0.916  0.000  0.000     1.936     2.176
 108   1 H      0.081  0.919  0.000  0.000     1.971     2.195
 109   1 H      0.074  0.926  0.000  0.000     2.039     2.233
 110   1 H      0.064  0.936  0.000  0.000     2.149     2.293
 111   7 N     -0.174  1.249  3.925  0.000    24.761     7.390
 112   6 C      0.027  1.058  2.915  0.000    20.134     6.390
 113   6 C      0.284  1.041  2.675  0.000    22.191     7.714
 114   8 O     -0.488  1.735  4.753  0.000    23.523     6.503
 115   6 C     -0.128  1.042  3.086  0.000    23.009     6.839
 116   1 H      0.206  0.794  0.000  0.000     1.074     1.623
 117   1 H      0.096  0.904  0.000  0.000     1.822     2.111
 118   1 H      0.070  0.930  0.000  0.000     2.084     2.258
 119   1 H      0.081  0.919  0.000  0.000     1.964     2.192
 120   1 H      0.055  0.945  0.000  0.000     2.255     2.349
 121   7 N     -0.195  1.255  3.941  0.000    25.239     7.461
 122   6 C      0.040  1.058  2.902  0.000    19.903     6.353
 123   6 C      0.285  1.040  2.675  0.000    22.174     7.711
 124   8 O     -0.479  1.734  4.745  0.000    23.319     6.474
 125   6 C     -0.044  1.051  2.993  0.000    21.361     6.580
 126   6 C     -0.099  1.067  3.032  0.000    22.388     6.737
 127   6 C      0.370  1.026  2.604  0.000    20.734     7.452
 128   8 O     -0.643  1.767  4.875  0.000    27.191     6.991
 129   8 O     -0.648  1.775  4.873  0.000    27.334     7.010
 130   1 H      0.205  0.795  0.000  0.000     1.082     1.629
 131   1 H      0.053  0.947  0.000  0.000     2.281     2.362
 132   1 H      0.038  0.962  0.000  0.000     2.477     2.461
 133   1 H      0.027  0.973  0.000  0.000     2.631     2.537
 134   1 H      0.033  0.967  0.000  0.000     2.547     2.496
 135   1 H      0.042  0.958  0.000  0.000     2.420     2.433
 136   7 N     -0.170  1.235  3.935  0.000    24.678     7.378
 137   6 C      0.022  1.060  2.917  0.000    20.199     6.398
 138   6 C      0.272  1.050  2.678  0.000    22.406     7.752
 139   8 O     -0.491  1.727  4.764  0.000    23.581     6.511
 140   6 C     -0.018  1.060  2.958  0.000    20.850     6.494
 141   6 C     -0.124  1.042  3.082  0.000    22.927     6.827
 142   6 C     -0.118  1.041  3.077  0.000    22.801     6.808
 143   1 H      0.178  0.822  0.000  0.000     1.225     1.734
 144   1 H      0.093  0.907  0.000  0.000     1.855     2.130
 145   1 H      0.038  0.962  0.000  0.000     2.471     2.458
 146   1 H      0.070  0.930  0.000  0.000     2.089     2.260
 147   1 H      0.041  0.959  0.000  0.000     2.442     2.444
 148   1 H      0.065  0.935  0.000  0.000     2.145     2.290
 149   1 H      0.061  0.939  0.000  0.000     2.191     2.315
 150   1 H      0.060  0.940  0.000  0.000     2.200     2.320
 151   1 H      0.026  0.974  0.000  0.000     2.638     2.540
 152   7 N     -0.182  1.255  3.927  0.000    24.947     7.418
 153   6 C      0.029  1.062  2.909  0.000    20.083     6.379
 154   6 C      0.293  1.041  2.666  0.000    22.032     7.687
 155   8 O     -0.491  1.729  4.762  0.000    23.587     6.512
 156   6 C     -0.064  1.052  3.011  0.000    21.723     6.636
 157   6 C     -0.100  1.065  3.035  0.000    22.410     6.741
 158   6 C      0.364  1.028  2.608  0.000    20.825     7.468
 159   8 O     -0.625  1.756  4.869  0.000    26.745     6.934
 160   8 O     -0.648  1.776  4.872  0.000    27.326     7.009
 161   1 H      0.219  0.781  0.000  0.000     1.012     1.576
 162   1 H      0.080  0.920  0.000  0.000     1.975     2.198
 163   1 H      0.064  0.936  0.000  0.000     2.154     2.295
 164   1 H      0.053  0.947  0.000  0.000     2.282     2.362
 165   1 H      0.020  0.980  0.000  0.000     2.732     2.585
 166   1 H      0.022  0.978  0.000  0.000     2.698     2.569
 167   7 N     -0.201  1.250  3.950  0.000    25.359     7.479
 168   6 C      0.039  1.056  2.905  0.000    19.921     6.354
 169   6 C      0.281  1.042  2.677  0.000    22.240     7.723
 170   8 O     -0.479  1.716  4.762  0.000    23.315     6.474
 171   6 C     -0.049  1.046  3.004  0.000    21.454     6.594
 172   6 C     -0.111  1.072  3.039  0.000    22.624     6.773
 173   6 C      0.366  1.026  2.608  0.000    20.790     7.461
 174   8 O     -0.645  1.789  4.856  0.000    27.247     6.998
 175   8 O     -0.621  1.742  4.880  0.000    26.647     6.921
 176   1 H      0.197  0.803  0.000  0.000     1.121     1.659
 177   1 H      0.055  0.945  0.000  0.000     2.262     2.352
 178   1 H      0.019  0.981  0.000  0.000     2.751     2.594
 179   1 H      0.030  0.970  0.000  0.000     2.589     2.516
 180   1 H      0.062  0.938  0.000  0.000     2.174     2.306
 181   1 H      0.031  0.969  0.000  0.000     2.578     2.511
 182   7 N     -0.192  1.266  3.926  0.000    25.166     7.451
 183   6 C      0.028  1.058  2.914  0.000    20.102     6.383
 184   6 C      0.264  1.052  2.684  0.000    22.554     7.778
 185   8 O     -0.476  1.742  4.734  0.000    23.269     6.467
 186   6 C     -0.088  1.056  3.032  0.000    22.166     6.702
 187   6 C     -0.086  1.053  3.033  0.000    22.132     6.697
 188   6 C     -0.027  1.055  2.972  0.000    21.136     6.561
 189   7 N     -0.125  1.212  3.913  0.000    23.716     7.233
 190   6 C      0.223  1.036  2.741  0.000    23.310     7.904
 191   7 N     -0.254  1.277  3.977  0.000    26.604     7.660
 192   7 N     -0.265  1.274  3.992  0.000    26.878     7.700
 193   1 H      0.204  0.796  0.000  0.000     1.083     1.631
 194   1 H      0.082  0.918  0.000  0.000     1.960     2.189
 195   1 H      0.066  0.934  0.000  0.000     2.135     2.285
 196   1 H      0.063  0.937  0.000  0.000     2.164     2.300
 197   1 H      0.074  0.926  0.000  0.000     2.041     2.234
 198   1 H      0.078  0.922  0.000  0.000     1.997     2.210
 199   1 H      0.089  0.911  0.000  0.000     1.893     2.152
 200   1 H      0.104  0.896  0.000  0.000     1.745     2.066
 201   1 H      0.220  0.780  0.000  0.000     1.008     1.573
 202   1 H      0.248  0.752  0.000  0.000     0.891     1.478
 203   1 H      0.257  0.743  0.000  0.000     0.858     1.451
 204   1 H      0.243  0.757  0.000  0.000     0.913     1.497
 205   1 H      0.259  0.741  0.000  0.000     0.848     1.442
 206   7 N     -0.166  1.240  3.926  0.000    24.601     7.366
 207   6 C      0.018  1.061  2.921  0.000    20.263     6.408
 208   6 C      0.277  1.040  2.682  0.000    22.309     7.735
 209   8 O     -0.506  1.747  4.758  0.000    23.912     6.556
 210   6 C      0.118  1.043  2.839  0.000    18.746     6.182
 211   8 O     -0.494  1.737  4.757  0.000    22.772     6.442
 212   6 C     -0.144  1.048  3.096  0.000    23.330     6.888
 213   1 H      0.212  0.788  0.000  0.000     1.046     1.602
 214   1 H      0.090  0.910  0.000  0.000     1.883     2.146
 215   1 H      0.037  0.963  0.000  0.000     2.491     2.468
 216   1 H      0.341  0.659  0.000  0.000     0.610     1.227
 217   1 H      0.067  0.933  0.000  0.000     2.115     2.274
 218   1 H      0.068  0.932  0.000  0.000     2.109     2.271
 219   1 H      0.061  0.939  0.000  0.000     2.189     2.314
 220   7 N     -0.172  1.239  3.934  0.000    24.732     7.386
 221   6 C      0.025  1.058  2.917  0.000    20.155     6.391
 222   6 C      0.271  1.050  2.679  0.000    22.429     7.756
 223   8 O     -0.482  1.761  4.721  0.000    23.386     6.484
 224   6 C     -0.083  1.055  3.028  0.000    22.075     6.688
 225   6 C     -0.084  1.053  3.031  0.000    22.100     6.692
 226   6 C     -0.032  1.054  2.978  0.000    21.228     6.574
 227   7 N     -0.131  1.206  3.925  0.000    23.834     7.251
 228   6 C      0.231  1.020  2.749  0.000    23.149     7.877
 229   7 N     -0.224  1.217  4.007  0.000    25.909     7.560
 230   7 N     -0.248  1.238  4.011  0.000    26.471     7.641
 231   1 H      0.205  0.795  0.000  0.000     1.079     1.628
 232   1 H      0.076  0.924  0.000  0.000     2.017     2.221
 233   1 H      0.052  0.948  0.000  0.000     2.289     2.366
 234   1 H      0.069  0.931  0.000  0.000     2.098     2.265
 235   1 H      0.078  0.922  0.000  0.000     2.005     2.214
 236   1 H      0.075  0.925  0.000  0.000     2.034     2.231
 237   1 H      0.114  0.886  0.000  0.000     1.665     2.018
 238   1 H      0.079  0.921  0.000  0.000     1.987     2.205
 239   1 H      0.255  0.745  0.000  0.000     0.863     1.455
 240   1 H      0.223  0.777  0.000  0.000     0.994     1.562
 241   1 H      0.213  0.787  0.000  0.000     1.040     1.597
 242   1 H      0.261  0.739  0.000  0.000     0.841     1.437
 243   1 H      0.225  0.775  0.000  0.000     0.986     1.555
 244   7 N     -0.173  1.265  3.908  0.000    24.740     7.387
 245   6 C      0.021  1.062  2.917  0.000    20.230     6.404
 246   6 C      0.215  1.082  2.703  0.000    23.464     7.933
 247   8 O     -0.376  1.756  4.620  0.000    21.213     6.175
 248   6 C     -0.078  1.056  3.022  0.000    21.982     6.675
 249   6 C     -0.086  1.058  3.028  0.000    22.134     6.698
 250   6 C     -0.097  1.051  3.045  0.000    22.348     6.731
 251   6 C     -0.049  1.058  2.991  0.000    21.553     6.627
 252   7 N     -0.138  1.234  3.905  0.000    23.987     7.274
 253   1 H      0.220  0.780  0.000  0.000     1.011     1.575
 254   1 H      0.108  0.892  0.000  0.000     1.712     2.046
 255   1 H      0.072  0.928  0.000  0.000     2.065     2.247
 256   1 H      0.067  0.933  0.000  0.000     2.122     2.278
 257   1 H      0.072  0.928  0.000  0.000     2.068     2.249
 258   1 H      0.077  0.923  0.000  0.000     2.007     2.215
 259   1 H      0.083  0.917  0.000  0.000     1.953     2.185
 260   1 H      0.063  0.937  0.000  0.000     2.161     2.299
 261   1 H      0.138  0.862  0.000  0.000     1.477     1.900
 262   1 H      0.103  0.897  0.000  0.000     1.756     2.072
 263   1 H      0.303  0.697  0.000  0.000     0.704     1.315
 264   1 H      0.277  0.723  0.000  0.000     0.784     1.387
 265   1 H      0.302  0.698  0.000  0.000     0.709     1.320
 266   1 H      0.168  0.832  0.000  0.000     1.282     1.774
 267   1 H      0.052  0.948  0.000  0.000     2.291     2.367

 Mol. C6AA /au·bohr⁶  :     680434.485576
 Mol. C8AA /au·bohr⁸  :   15035117.811060
 Mol. α(0) /au        :       1223.797299

 
molecular dipole:
                 x           y           z       tot (Debye)
 q only:      -44.250    -296.896      49.759
   full:      -48.674    -294.130      51.146     768.858
molecular quadrupole (traceless):
                xx          xy          yy          xz          yz          zz
 q only:    21894.789  -10266.638  -43294.170     773.138   11117.620   21399.380
  q+dip:    21178.215  -10969.753  -42347.937    1021.701   11319.007   21169.722
   full:    21176.309  -10966.440  -42347.690    1021.922   11318.120   21171.381
speedup  1.87
cpu  time for grad    7.56 s
wall time for grad    4.05 s

SCC energy    :    -444.9075925
rep           :       4.7917496
ES            :       2.3608707
AES           :      -0.1287217
AXC           :       0.0979684
disp          :      -0.3511029
XB            :       0.0000000
fix           :       0.0000000
Gborn         :       0.0000000
Gsasa         :       0.0000000
Ghb           :       0.0000000
Gshift        :       0.0000000
Gsolv         :      -0.8981323     -563.59
Etot ala COSMO:    -444.9075925
grad norm     :       0.2532851
total E       :    -440.0887583
atomizationE  :      76.8900777    48249.25
(atE without considering molecular charge,
 total energy contains solvation terms)
H-L gap (eV)  :          2.2328

------------------------------------------------------------------------
 * finished run on 2019/05/10 at 12:43:55.134     
------------------------------------------------------------------------
 total:
 * wall-time:     0 d,  0 h,  0 min,  4.499 sec
 *  cpu-time:     0 d,  0 h,  0 min,  8.390 sec
 * ratio c/w:     1.865 speedup
 SCF:
 * wall-time:     0 d,  0 h,  0 min,  4.410 sec
 *  cpu-time:     0 d,  0 h,  0 min,  8.280 sec
 * ratio c/w:     1.878 speedup

