      -----------------------------------------------------------      
     |                   =====================                   |     
     |                           x T B                           |     
     |                   =====================                   |     
     |                         S. Grimme                         |     
     |          Mulliken Center for Theoretical Chemistry        |     
     |                    University of Bonn                     |     
     |                 Version 6.0.1 (SAW181210)                 |     
      -----------------------------------------------------------      

   This program is distributed in the hope that it will be useful,
   but WITHOUT ANY WARRANTY; without even the implied warranty of
   MERCHANTABILITY or FITNESS FOR A PARTICULAR PURPOSE.
   
   FOR NON-COMMERCIAL, ACADEMIA USE ONLY.
   
   Cite this work as:
   S. Grimme, C. Bannwarth, P. Shushkov, J. Comput. Theory Chem., 2017,
   13, 1989-2009.
   C. Bannwarth, S. Ehlert and S. Grimme., ChemRxiv, 2018, preprint.
   http://doi.org/10.26434/chemrxiv.7246238.v1
   
   for sTDA-xTB:
   S. Grimme and C. Bannwarth, J. Chem. Phys., 2016, 145, 054103.
   
   in the mass-spec context:
   V. Asgeirsson, C. Bauer and S. Grimme, Chem. Sci., 2017, 8, 4879.
   
   if GBSA is used:
   P. Shushkov, F. März and S. Grimme, unpublished.
   
   for ANC optimizer:
   S. Grimme, unpublished.
   Rational Function algorithm used in ANCopt:
   F. Eckert, P. Pulay, H.-J. Werner, J. Comput. Chem., 1997, 18, 1473.
   
   with help from (in alphabetical order)
   C. Bannwarth, F. Bohle, G. Brandenburg, E. Caldeweyher, M. Checinski,
   S. Dohm, S. Ehlert, S. Ehrlich, F. März, H. Neugebauer, J. Pisarek,
   P. Pracht, P. Shushkov, and S. Spicher.
   
 * started run on 2019/05/05 at 22:56:39.841     
========================================================================
 # omp threads = 2
========================================================================
number of atoms            : 656
number of electrons        : 1786
charge                     : 0
spin                       : .0
first test random number   : .3514

########################################################################
# WARNING! Please study the warnings concerning your input carefully
#  - Process number higher than OMP_NUM_THREADS, I hope you know what you are doing.
########################################################################

           ------------------------------------------------- 
          |                 G F N 2 - x T B                 |
          | Geometry, Frequencies, Noncovalent interactions |
          |            JCTC 2018 parametrisation            |
           ------------------------------------------------- 
 
      method parameters     
 k(s)        :  1.8500
 k(p)        :  2.2300
 k(d)        :  2.2300
 k(f)        :  2.0000
 kEN (H0ij)  : -2.0000
 D4 a1       :  0.5200
 D4 a2       :  5.0000
 D4 s6       :  1.0000
 D4 s8       :  2.7000
 D4 s9       :  5.0000
 alphaj      :  2.0000

 Solvent             : h2o
 Using internal parameter file: .param_gbsa2_h2o
 Gsolv ref. state (COSMO-RS): gsolv [1 M gas/solution]
 temperature (mdtemp)       :    298.150000000000     
 dielectric constant        :    80.2000000000000     
 rho                        :    1.00000000000000     
 mass                       :    18.0000000000000     
 surface tension            :    15.5689454083859     
 probe radius               :   0.975313790000000     
 vdW radii scaling          :    1.00000000000000     
 Gshift (Eh)                :   1.857443126794793E-003
 c1                         :    1.55243817000000     
 soset                      :   0.130326360000000     
 HB correction              :  T

            Z     q(EN)     CN     RAES       Cart. coordinates
     1  N   5.0   -0.18    3.25    1.97    38.51639    61.34995   152.88828
     2  C   4.0    0.03    4.39    4.36    40.25305    60.06305   154.62872
     3  C   4.0    0.16    3.56    3.15    41.82152    62.03970   155.87404
     4  O   6.0   -0.29    1.30    1.80    42.23726    64.05982   154.81769
     5  C   4.0   -0.04    4.32    4.24    42.04829    58.32261   153.24166
     6  C   4.0   -0.04    4.26    4.11    43.58842    56.68233   155.00666
     7  C   4.0   -0.01    4.19    3.98    43.90211    53.95168   154.08258
     8  N   5.0   -0.13    3.37    2.01    45.59342    53.61341   151.91507
     9  C   4.0    0.10    3.34    3.06    47.88566    54.63765   151.66374
    10  N   5.0   -0.15    3.30    1.98    48.83997    56.15321   153.44575
    11  N   5.0   -0.17    3.22    1.96    49.22169    54.17466   149.57937
    12  H   1.0    0.08    1.02    1.43    38.63167    60.74146   151.06280
    13  H   1.0    0.05    1.09    1.44    39.17024    58.93866   155.97231
    14  H   1.0    0.05    1.04    1.43    40.95981    57.08295   152.00767
    15  H   1.0    0.06    1.04    1.43    43.35409    59.45834   152.12483
    16  H   1.0    0.06    1.09    1.44    45.46870    57.49869   155.20130
    17  H   1.0    0.05    1.04    1.43    42.65489    56.61997   156.84158
    18  H   1.0    0.05    1.03    1.43    44.65989    52.82540   155.63216
    19  H   1.0    0.05    1.03    1.43    42.05018    53.23547   153.53078
    20  H   1.0    0.08    1.06    1.44    44.96414    52.49848   150.47321
    21  H   1.0    0.09    1.08    1.44    47.81385    56.54438   155.02934
    22  H   1.0    0.11    1.02    1.43    50.59552    56.91855   153.22087
    23  H   1.0    0.09    1.02    1.43    48.49037    53.04839   148.19609
    24  H   1.0    0.09    1.02    1.43    50.97536    54.94756   149.36772
    25  N   5.0   -0.14    3.57    2.13    42.71726    61.50113   158.13227
    26  C   4.0    0.03    4.57    4.63    44.55785    63.18488   159.22831
    27  C   4.0    0.15    3.64    3.19    46.77639    63.08094   157.47086
    28  O   6.0   -0.30    1.27    1.80    47.46236    61.02492   156.55624
    29  C   4.0   -0.04    4.38    4.34    45.28917    62.27025   161.80967
    30  C   4.0   -0.02    3.55    3.14    47.19024    63.83116   163.25909
    31  C   4.0   -0.04    3.48    3.11    46.91245    66.42765   163.56712
    32  C   4.0   -0.04    3.50    3.11    49.18957    62.63119   164.47608
    33  C   4.0   -0.02    3.43    3.09    48.65477    67.77880   164.96930
    34  C   4.0   -0.05    3.49    3.11    50.91489    63.94455   165.88770
    35  C   4.0    0.07    3.49    3.11    50.64843    66.49757   166.12959
    36  O   6.0   -0.24    2.12    1.84    52.41344    67.69754   167.56956
    37  H   1.0    0.10    1.09    1.44    42.22593    59.97612   159.20563
    38  H   1.0    0.04    1.10    1.44    43.86054    65.11051   159.45130
    39  H   1.0    0.05    1.04    1.43    43.58275    62.18899   162.96052
    40  H   1.0    0.05    1.05    1.44    46.09420    60.38430   161.60936
    41  H   1.0    0.05    1.03    1.43    45.33075    67.39141   162.70918
    42  H   1.0    0.05    1.03    1.43    49.38610    60.60729   164.30222
    43  H   1.0    0.06    1.03    1.43    48.47525    69.80270   165.16394
    44  H   1.0    0.05    1.03    1.43    52.46446    62.97323   166.79666
    45  H   1.0    0.11    1.03    1.43    53.64554    66.47300   168.21207
    46  N   5.0   -0.10    3.71    2.29    47.80251    65.31649   156.87560
    47  C   4.0    0.04    4.55    4.60    50.01727    65.61128   155.25988
    48  C   4.0    0.16    3.45    3.09    52.06573    63.85573   156.22175
    49  O   6.0   -0.27    1.21    1.80    52.89532    62.17009   154.84414
    50  C   4.0   -0.05    4.36    4.31    50.76371    68.39674   155.63216
    51  C   4.0   -0.05    4.28    4.16    48.91934    69.48711   157.52000
    52  C   4.0   -0.01    4.40    4.38    46.67434    67.76557   157.55590
    53  H   1.0    0.06    1.05    1.44    49.60531    65.31460   153.26433
    54  H   1.0    0.04    1.03    1.43    52.68934    68.50257   156.35593
    55  H   1.0    0.04    1.02    1.43    50.63143    69.39074   153.83314
    56  H   1.0    0.04    1.03    1.43    49.80373    69.56081   159.37949
    57  H   1.0    0.04    1.03    1.43    48.36754    71.38062   156.92662
    58  H   1.0    0.03    1.05    1.44    45.82207    67.69565   159.43051
    59  H   1.0    0.05    1.02    1.43    45.27027    68.34761   156.16506
    60  N   5.0   -0.15    3.49    2.07    52.70446    64.15620   158.64060
    61  C   4.0    0.03    4.40    4.37    54.82662    62.86173   159.83302
    62  C   4.0    0.16    3.36    3.07    54.51670    60.01014   160.38104
    63  O   6.0   -0.28    1.21    1.80    56.37241    58.67977   160.87804
    64  C   4.0   -0.05    4.34    4.26    55.50125    64.27714   162.24431
    65  C   4.0   -0.05    4.27    4.15    57.87664    65.82860   162.03644
    66  C   4.0   -0.00    4.24    4.07    59.98935    64.53981   163.49531
    67  N   5.0   -0.14    3.38    2.01    61.81294    66.38040   164.46285
    68  C   4.0    0.09    3.36    3.07    61.22523    68.47422   165.74786
    69  N   5.0   -0.18    3.32    1.99    58.83851    69.07137   166.21652
    70  N   5.0   -0.18    3.23    1.96    63.03748    70.01813   166.53210
    71  H   1.0    0.07    1.07    1.44    51.76148    65.31649   159.85570
    72  H   1.0    0.06    1.07    1.44    56.39320    62.92032   158.49698
    73  H   1.0    0.04    1.05    1.44    53.95546    65.55459   162.71674
    74  H   1.0    0.05    1.05    1.44    55.77337    62.90898   163.75987
    75  H   1.0    0.05    1.03    1.43    58.43411    65.99112   160.05979
    76  H   1.0    0.04    1.09    1.44    57.56105    67.70132   162.83580
    77  H   1.0    0.05    1.03    1.43    59.19000    63.51558   165.09402
    78  H   1.0    0.05    1.02    1.43    60.98335    63.23590   162.24809
    79  H   1.0    0.08    1.06    1.44    63.67999    66.03836   164.13026
    80  H   1.0    0.08    1.07    1.44    57.41932    67.92620   165.59480
    81  H   1.0    0.09    1.03    1.43    58.42088    70.67575   167.19917
    82  H   1.0    0.08    1.03    1.43    64.88185    69.60806   166.15415
    83  H   1.0    0.09    1.03    1.43    62.58583    71.61494   167.51287
    84  N   5.0   -0.13    3.43    2.04    52.18289    59.09173   160.26199
    85  C   4.0    0.04    4.34    4.27    51.54039    56.49714   160.95930
    86  C   4.0    0.11    3.59    3.16    52.46068    54.28994   159.40594
    87  O   6.0   -0.28    1.25    1.80    52.17911    54.31072   157.15906
    88  C   4.0   -0.02    4.52    4.56    48.79461    55.97179   160.22608
    89  C   4.0   -0.03    4.35    4.29    48.09542    53.17311   160.12593
    90  C   4.0    0.23    3.14    3.03    48.12943    51.90699   162.72808
    91  O   6.0   -0.31    1.25    1.80    48.58863    49.56184   162.87170
    92  O   6.0   -0.32    1.28    1.80    47.70991    53.28271   164.63481
    93  H   1.0    0.09    1.07    1.44    50.65788    60.11407   159.67806
    94  H   1.0    0.06    1.05    1.44    52.25659    56.50659   162.89060
    95  H   1.0    0.05    1.03    1.43    47.56251    56.87130   161.60936
    96  H   1.0    0.06    1.05    1.44    48.45257    56.76548   158.35714
    97  H   1.0    0.04    1.03    1.43    46.19624    52.98414   159.35303
    98  H   1.0    0.07    1.11    1.45    49.44657    52.18856   158.92217
    99  N   5.0   -0.18    3.25    1.97    48.05951    46.32663   159.35492
   100  C   4.0    0.03    4.20    4.00    45.61420    46.20758   158.15494
   101  C   4.0    0.07    3.20    3.04    45.73326    46.67623   155.31658
   102  O   6.0   -0.27    1.12    1.80    47.12221    48.35809   154.41518
   103  C   4.0   -0.04    4.38    4.34    43.78684    48.05006   159.43429
   104  C   4.0   -0.03    4.19    3.97    42.29585    47.26583   161.78511
   105  C   4.0   -0.07    4.13    3.85    41.89711    49.44657   163.61625
   106  C   4.0   -0.08    4.15    3.90    39.76739    46.30962   160.88560
   107  H   1.0    0.12    1.07    1.44    48.72280    48.09164   159.75932
   108  H   1.0    0.04    1.06    1.44    44.85831    44.30274   158.36281
   109  H   1.0    0.05    1.06    1.44    44.88666    49.70168   159.98798
   110  H   1.0    0.04    1.05    1.44    42.38088    48.57918   158.02455
   111  H   1.0    0.04    1.06    1.44    43.34086    45.82396   162.82068
   112  H   1.0    0.04    1.00    1.43    40.82942    48.77005   165.24142
   113  H   1.0    0.05    1.01    1.43    43.73204    50.15333   164.22663
   114  H   1.0    0.04    1.00    1.43    40.85021    50.94134   162.66005
   115  H   1.0    0.04    1.00    1.43    38.65056    45.73326   162.51643
   116  H   1.0    0.04    1.00    1.43    38.80174    47.81952   159.87082
   117  H   1.0    0.04    1.00    1.43    40.06597    44.70147   159.63460
   118  N   5.0   -0.19    3.34    1.99    34.39868    46.45135   171.39625
   119  C   4.0    0.03    4.38    4.35    35.71582    48.68123   170.65737
   120  C   4.0    0.16    3.55    3.14    33.91680    50.74481   171.31878
   121  O   6.0   -0.29    1.29    1.80    31.62267    50.40844   171.12980
   122  C   4.0   -0.04    4.35    4.28    36.32998    48.65099   167.84168
   123  C   4.0   -0.00    3.56    3.14    34.04341    48.66422   166.14282
   124  C   4.0   -0.04    3.45    3.10    32.52029    46.51182   165.88203
   125  C   4.0   -0.03    3.45    3.10    33.41602    50.82040   164.77087
   126  C   4.0   -0.04    3.35    3.07    30.41325    46.54395   164.30600
   127  C   4.0   -0.04    3.36    3.07    31.30520    50.85253   163.19862
   128  C   4.0   -0.04    3.36    3.07    29.81043    48.72469   162.95485
   129  H   1.0    0.11    1.05    1.44    32.47683    46.55340   171.28665
   130  H   1.0    0.05    1.06    1.44    37.52240    48.93823   171.61357
   131  H   1.0    0.05    1.04    1.43    37.44870    50.32151   167.39381
   132  H   1.0    0.03    1.03    1.43    37.40901    46.94646   167.42216
   133  H   1.0    0.05    1.03    1.43    32.98517    44.81296   166.91382
   134  H   1.0    0.06    1.03    1.43    34.58010    52.48903   164.92772
   135  H   1.0    0.05    1.03    1.43    29.24540    44.87910   164.13026
   136  H   1.0    0.05    1.03    1.43    30.83466    52.54761   162.16494
   137  H   1.0    0.05    1.03    1.43    28.18337    48.75115   161.72275
   138  N   5.0   -0.12    3.57    2.13    34.95993    52.83674   172.20128
   139  C   4.0    0.04    4.48    4.50    33.46894    54.95512   172.99685
   140  C   4.0    0.15    3.47    3.10    32.58832    56.29872   170.64603
   141  O   6.0   -0.30    1.27    1.80    33.75051    56.04360   168.64481
   142  C   4.0   -0.04    4.37    4.33    35.13190    56.67477   174.54832
   143  C   4.0   -0.02    3.56    3.14    36.58698    55.33118   176.62702
   144  C   4.0   -0.05    3.46    3.10    35.34732    54.38820   178.74162
   145  C   4.0   -0.04    3.46    3.10    39.20048    55.05528   176.50607
   146  C   4.0   -0.04    3.43    3.09    36.66068    53.19012   180.68237
   147  C   4.0   -0.04    3.45    3.09    40.53840    53.87798   178.43548
   148  C   4.0    0.07    3.47    3.10    39.26473    52.93689   180.51985
   149  O   6.0   -0.23    2.12    1.84    40.58753    51.76148   182.43981
   150  H   1.0    0.09    1.08    1.44    36.85910    53.10886   172.38458
   151  H   1.0    0.05    1.06    1.44    31.83810    54.41277   174.13258
   152  H   1.0    0.05    1.04    1.43    36.50573    57.56861   173.29921
   153  H   1.0    0.04    1.03    1.43    33.95082    58.10907   175.43649
   154  H   1.0    0.05    1.03    1.43    33.32154    54.58851   178.88335
   155  H   1.0    0.06    1.03    1.43    40.20770    55.76959   174.88091
   156  H   1.0    0.06    1.03    1.43    35.65724    52.46257   182.30375
   157  H   1.0    0.07    1.03    1.43    42.56797    53.69656   178.31076
   158  H   1.0    0.16    1.11    1.45    42.39600    51.73503   182.03919
   159  N   5.0   -0.14    3.45    2.04    30.49451    57.67066   170.85201
   160  C   4.0    0.03    4.51    4.56    29.64224    59.26370   168.76576
   161  C   4.0    0.14    3.42    3.09    29.26997    61.93010   169.77298
   162  O   6.0   -0.30    1.21    1.80    27.45961    62.44032   171.21106
   163  C   4.0   -0.04    4.41    4.40    27.19883    58.26592   167.64893
   164  C   4.0   -0.02    4.26    4.11    26.40703    59.87408   165.41527
   165  C   4.0   -0.07    4.22    4.04    28.61990    59.90242   163.60113
   166  C   4.0   -0.08    4.11    3.81    24.05999    58.83473   164.11703
   167  H   1.0    0.08    1.05    1.44    29.36634    57.71790   172.41482
   168  H   1.0    0.05    1.09    1.44    31.08221    59.30149   167.29366
   169  H   1.0    0.05    1.03    1.43    27.47473    56.32895   167.00642
   170  H   1.0    0.05    1.03    1.43    25.71161    58.33206   169.07189
   171  H   1.0    0.05    1.06    1.44    25.91759    61.77703   166.03132
   172  H   1.0    0.05    1.00    1.43    28.12668    61.04382   161.95896
   173  H   1.0    0.06    1.04    1.43    30.25640    60.71123   164.55356
   174  H   1.0    0.04    1.01    1.43    29.03186    57.97112   163.01532
   175  H   1.0    0.04    1.01    1.43    23.57433    60.05549   162.52966
   176  H   1.0    0.04    1.00    1.43    24.45494    56.92988   163.44240
   177  H   1.0    0.04    1.00    1.43    22.50853    58.79315   165.47007
   178  N   5.0   -0.14    3.43    2.03    31.03497    63.58361   169.05110
   179  C   4.0    0.04    4.44    4.44    31.18426    66.20466   170.00353
   180  C   4.0    0.15    3.48    3.11    30.20160    68.15297   168.18939
   181  O   6.0   -0.31    1.30    1.80    30.87812    68.16430   165.91227
   182  C   4.0   -0.04    4.47    4.49    33.89412    66.95110   170.51753
   183  C   4.0   -0.03    4.24    4.09    35.17536    65.29948   172.44694
   184  C   4.0   -0.06    4.13    3.86    37.99672    65.32405   171.95939
   185  C   4.0   -0.07    4.18    3.97    34.54797    66.38418   175.02831
   186  H   1.0    0.10    1.07    1.44    32.42392    63.16598   167.78121
   187  H   1.0    0.06    1.07    1.44    30.00507    66.21789   171.69294
   188  H   1.0    0.05    1.04    1.43    34.96371    66.82071   168.76198
   189  H   1.0    0.05    1.05    1.44    33.92814    68.88807   171.21862
   190  H   1.0    0.04    1.06    1.44    34.54797    63.33983   172.35812
   191  H   1.0    0.04    1.00    1.43    38.92835    64.12785   173.35401
   192  H   1.0    0.05    1.00    1.43    38.35577    64.60217   170.06400
   193  H   1.0    0.07    1.00    1.43    38.68836    67.25724   172.11813
   194  H   1.0    0.03    1.01    1.43    35.44937    65.23145   176.47773
   195  H   1.0    0.05    1.00    1.43    35.25095    68.31737   175.13224
   196  H   1.0    0.05    1.00    1.43    32.50518    66.36529   175.28531
   197  N   5.0   -0.14    3.51    2.09    28.69738    69.87451   169.20984
   198  C   4.0    0.04    4.61    4.67    27.86401    71.95509   167.69428
   199  C   4.0    0.15    3.52    3.12    30.00129    73.85805   167.49964
   200  O   6.0   -0.32    1.29    1.80    31.09544    74.66496   169.40826
   201  C   4.0   -0.02    4.31    4.22    25.44138    73.12484   168.67883
   202  C   4.0   -0.07    4.17    3.95    24.80454    75.40951   167.09146
   203  C   4.0   -0.07    4.14    3.89    23.31166    71.21054   168.46907
   204  H   1.0    0.10    1.08    1.44    28.05676    69.85939   171.02776
   205  H   1.0    0.04    1.08    1.44    27.43504    71.26534   165.80078
   206  H   1.0    0.05    1.06    1.44    25.67004    73.68419   170.64792
   207  H   1.0    0.05    1.00    1.43    23.06222    76.25233   167.79822
   208  H   1.0    0.07    1.03    1.43    26.34656    76.76823   167.22374
   209  H   1.0    0.04    1.00    1.43    24.55510    74.81803   165.13370
   210  H   1.0    0.04    1.00    1.43    21.57500    72.05903   169.17961
   211  H   1.0    0.04    1.00    1.43    23.07733    70.68142   166.49242
   212  H   1.0    0.05    1.00    1.43    23.78976    69.54947   169.58779
   213  N   5.0   -0.15    3.52    2.09    30.61734    74.48922   165.14126
   214  C   4.0    0.03    4.44    4.44    32.51085    76.37516   164.54978
   215  C   4.0    0.15    3.50    3.12    35.08276    75.48699   165.39259
   216  O   6.0   -0.31    1.28    1.80    36.80241    76.99877   165.64771
   217  C   4.0   -0.02    4.35    4.29    31.88346    78.89984   165.84424
   218  C   4.0    0.15    3.22    3.04    29.44760    80.07525   164.85969
   219  O   6.0   -0.30    1.21    1.80    27.58622    80.31335   166.26187
   220  N   5.0   -0.19    3.16    1.95    29.43626    80.80846   162.42950
   221  H   1.0    0.07    1.06    1.44    29.80854    73.69931   163.58035
   222  H   1.0    0.04    1.06    1.44    32.55242    76.70398   162.51643
   223  H   1.0    0.07    1.04    1.43    31.66614    78.58236   167.86814
   224  H   1.0    0.05    1.03    1.43    33.41791    80.23020   165.50220
   225  H   1.0    0.10    1.02    1.43    27.85456    81.60782   161.67172
   226  H   1.0    0.08    1.02    1.43    31.00851    80.56658   161.34291
   227  N   5.0   -0.13    3.53    2.10    35.34732    73.02279   165.81967
   228  C   4.0    0.05    4.45    4.45    37.65846    71.96832   166.89304
   229  C   4.0    0.15    3.43    3.09    38.23294    72.91508   169.51409
   230  O   6.0   -0.28    1.28    1.80    40.16046    72.21588   170.61391
   231  C   4.0   -0.02    4.33    4.25    39.87133    71.99478   165.02977
   232  C   4.0    0.16    3.27    3.05    42.31474    70.96866   166.15604
   233  O   6.0   -0.26    1.27    1.80    42.37899    68.83516   167.08768
   234  N   5.0   -0.17    3.18    1.95    44.33108    72.45965   166.05400
   235  H   1.0    0.10    1.07    1.44    33.99239    71.70565   165.44173
   236  H   1.0    0.05    1.08    1.44    37.33910    69.95765   167.20862
   237  H   1.0    0.06    1.10    1.44    39.38756    70.83071   163.40082
   238  H   1.0    0.06    1.04    1.43    40.21715    73.93553   164.43072
   239  H   1.0    0.12    1.04    1.43    46.01105    71.85872   166.78154
   240  H   1.0    0.08    1.02    1.43    44.19880    74.20576   165.24709
   241  N   5.0   -0.13    3.51    2.08    36.56998    74.51189   170.50808
   242  C   4.0    0.04    4.40    4.37    37.06508    75.81014   172.86646
   243  C   4.0    0.14    3.36    3.07    35.48716    74.89740   175.10579
   244  O   6.0   -0.33    1.32    1.80    36.35455    74.96732   177.24685
   245  C   4.0   -0.04    4.27    4.14    38.23294    78.43308   172.34679
   246  C   4.0   -0.04    4.18    3.96    36.56053    80.33603   170.94083
   247  C   4.0   -0.05    4.16    3.93    37.55074    83.02322   171.24697
   248  C   4.0   -0.03    4.14    3.87    36.64557    84.14950   173.74140
   249  N   5.0   -0.10    4.03    2.95    38.63167    85.48742   175.23429
   250  H   1.0    0.11    1.11    1.45    34.86544    74.93897   169.71440
   251  H   1.0    0.06    1.22    1.47    38.65623    75.54179   174.14581
   252  H   1.0    0.05    1.03    1.43    38.72615    79.28345   174.15714
   253  H   1.0    0.06    1.03    1.43    39.92991    78.16473   171.20917
   254  H   1.0    0.06    1.03    1.43    36.53974    79.87683   168.93394
   255  H   1.0    0.05    1.03    1.43    34.64813    80.25855   171.70050
   256  H   1.0    0.04    1.03    1.43    39.61055    83.00621   171.24319
   257  H   1.0    0.04    1.03    1.43    36.85344    84.19674   169.70495
   258  H   1.0    0.05    1.02    1.43    35.15268    85.51199   173.34078
   259  H   1.0    0.05    1.03    1.43    35.91046    82.62638   174.91870
   260  H   1.0    0.09    1.05    1.44    37.86066    86.19418   176.89725
   261  H   1.0    0.08    1.02    1.43    40.08676    84.24398   175.68404
   262  H   1.0    0.06    1.01    1.43    39.36866    86.98031   174.18738
   263  N   5.0   -0.13    3.55    2.11    33.18170    74.03379   174.66548
   264  C   4.0    0.04    4.34    4.27    30.78742    74.31536   176.01852
   265  C   4.0    0.15    3.45    3.09    30.15247    71.50156   176.25474
   266  O   6.0   -0.32    1.28    1.80    29.64224    70.20143   174.38580
   267  C   4.0    0.04    4.12    3.84    29.05832    76.13895   174.57666
   268  O   6.0   -0.24    2.03    1.83    27.23473    77.24444   176.18482
   269  H   1.0    0.10    1.10    1.44    32.83966    72.93964   173.11590
   270  H   1.0    0.06    1.07    1.44    30.70238    75.16952   177.89124
   271  H   1.0    0.05    1.02    1.43    30.21105    77.63372   173.75274
   272  H   1.0    0.06    1.02    1.43    28.08700    75.09582   173.08945
   273  H   1.0    0.12    1.01    1.43    25.85145    77.95686   175.17949
   274  N   5.0   -0.13    3.50    2.08    30.20538    70.56237   178.57721
   275  C   4.0    0.03    4.45    4.46    28.98462    68.24934   179.38979
   276  C   4.0    0.08    3.29    3.05    26.39380    68.81248   180.33088
   277  O   6.0   -0.28    1.14    1.80    26.07066    70.48867   181.93526
   278  C   4.0   -0.04    4.55    4.61    30.42081    67.18354   181.55164
   279  C   4.0   -0.03    4.30    4.20    32.36723    65.43743   180.49528
   280  C   4.0   -0.08    4.15    3.90    34.21160    64.81571   182.60800
   281  C   4.0   -0.07    4.21    4.01    30.90836    63.15275   179.57121
   282  H   1.0    0.08    1.07    1.44    31.14079    71.42030   180.02663
   283  H   1.0    0.05    1.08    1.44    28.89013    66.93220   177.80998
   284  H   1.0    0.05    1.04    1.43    31.35055    68.69154   182.60233
   285  H   1.0    0.04    1.05    1.44    29.16036    66.13285   182.79508
   286  H   1.0    0.04    1.10    1.44    33.47838    66.20277   178.93815
   287  H   1.0    0.03    1.08    1.44    35.65724    63.54015   181.88234
   288  H   1.0    0.04    1.00    1.43    35.08465    66.55993   183.27129
   289  H   1.0    0.04    1.00    1.43    33.18548    63.91242   184.15001
   290  H   1.0    0.04    1.00    1.43    32.23117    61.79215   178.76996
   291  H   1.0    0.05    1.06    1.44    29.90869    62.30804   181.16047
   292  H   1.0    0.05    1.01    1.43    29.56098    63.75368   178.13313
   293  N   5.0   -0.19    3.29    1.98    28.30432    70.66252   157.85826
   294  C   4.0    0.03    4.43    4.42    28.97895    68.97122   159.91806
   295  C   4.0    0.15    3.56    3.14    31.37701    67.77502   159.21319
   296  O   6.0   -0.29    1.28    1.80    31.96471    67.45566   156.97576
   297  C   4.0   -0.04    4.48    4.51    27.08733    66.88307   160.25443
   298  C   4.0   -0.04    4.13    3.86    24.47384    67.88463   160.66261
   299  S   6.0   -0.05    2.56    3.10    22.55199    65.40908   161.93818
   300  C   4.0   -0.07    3.89    3.45    19.56055    67.02669   161.80212
   301  H   1.0    0.10    1.03    1.43    28.50085    69.91986   156.08947
   302  H   1.0    0.05    1.06    1.44    29.09800    70.03513   161.67739
   303  H   1.0    0.05    1.04    1.43    27.07032    65.70577   158.56501
   304  H   1.0    0.05    1.06    1.44    27.60890    65.75301   161.89660
   305  H   1.0    0.04    1.07    1.44    24.52108    69.45499   161.99487
   306  H   1.0    0.04    1.07    1.44    23.67071    68.50635   158.87115
   307  H   1.0    0.04    1.04    1.43    18.09035    65.77947   162.52777
   308  H   1.0    0.04    1.04    1.43    19.66638    68.73122   162.95296
   309  H   1.0    0.04    1.04    1.43    19.15615    67.52558   159.84436
   310  N   5.0   -0.12    3.71    2.29    32.77919    67.09094   161.13504
   311  C   4.0    0.04    4.63    4.70    35.04875    65.70955   160.68907
   312  C   4.0    0.14    3.66    3.20    34.54041    63.36818   162.06101
   313  O   6.0   -0.32    1.41    1.80    32.94359    63.30960   163.71830
   314  C   4.0    0.05    4.32    4.24    37.26918    67.03614   161.90416
   315  O   6.0   -0.25    2.24    1.87    36.93091    69.68364   161.53188
   316  C   4.0   -0.08    4.14    3.89    39.72204    66.25379   160.69474
   317  H   1.0    0.12    1.13    1.45    32.38612    67.46700   162.98508
   318  H   1.0    0.06    1.07    1.44    35.52118    65.43365   158.70296
   319  H   1.0    0.05    1.05    1.44    37.37500    66.55993   163.90538
   320  H   1.0    0.12    1.02    1.43    37.97782    70.26379   160.11837
   321  H   1.0    0.04    1.00    1.43    41.29618    67.23078   161.59614
   322  H   1.0    0.05    1.01    1.43    39.99227    64.22234   160.89883
   323  H   1.0    0.05    1.00    1.43    39.70125    66.72811   158.68974
   324  N   5.0   -0.14    3.66    2.22    35.85944    61.39531   161.40527
   325  C   4.0    0.04    4.61    4.67    35.70826    59.29582   163.04555
   326  C   4.0    0.14    3.53    3.13    38.34443    58.35096   163.23831
   327  O   6.0   -0.32    1.32    1.80    39.65212    58.25836   161.30701
   328  C   4.0   -0.03    4.41    4.40    34.03207    57.32484   161.89471
   329  C   4.0   -0.00    3.65    3.20    35.04686    56.30627   159.46263
   330  C   4.0   -0.04    3.51    3.12    34.76718    57.66499   157.24977
   331  C   4.0   -0.04    3.49    3.11    36.30919    53.97435   159.38516
   332  C   4.0   -0.05    3.51    3.12    35.67236    56.73713   155.00666
   333  C   4.0   -0.04    3.42    3.09    37.24083    53.03705   157.15717
   334  C   4.0    0.07    3.49    3.11    36.91013    54.43734   154.98587
   335  O   6.0   -0.25    2.12    1.84    37.81153    53.56428   152.73521
   336  H   1.0    0.09    1.07    1.44    36.97438    61.22712   159.84247
   337  H   1.0    0.05    1.08    1.44    34.96749    59.74558   164.91449
   338  H   1.0    0.04    1.04    1.43    33.84310    55.75447   163.21374
   339  H   1.0    0.04    1.05    1.44    32.18581    58.15443   161.51677
   340  H   1.0    0.05    1.03    1.43    33.82609    59.47534   157.28756
   341  H   1.0    0.05    1.03    1.43    36.54919    52.90288   161.10481
   342  H   1.0    0.05    1.04    1.43    35.42102    57.78971   153.27756
   343  H   1.0    0.05    1.03    1.43    38.21215    51.24181   157.10426
   344  H   1.0    0.11    1.03    1.43    37.43547    54.77749   151.38784
   345  N   5.0   -0.14    3.43    2.04    39.07764    57.64420   165.54944
   346  C   4.0    0.03    4.32    4.24    41.65145    56.84485   166.21085
   347  C   4.0    0.14    3.41    3.08    41.75538    54.57529   167.99664
   348  O   6.0   -0.31    1.26    1.80    39.97148    54.12175   169.40637
   349  C   4.0   -0.06    4.12    3.84    43.03095    59.02559   167.43161
   350  H   1.0    0.10    1.06    1.44    37.88712    57.60263   167.06500
   351  H   1.0    0.05    1.06    1.44    42.55474    56.20612   164.47419
   352  H   1.0    0.05    1.00    1.43    44.93957    58.42277   167.91916
   353  H   1.0    0.05    1.00    1.43    43.10843    60.59784   166.10313
   354  H   1.0    0.05    1.00    1.43    42.01617    59.59251   169.13236
   355  N   5.0   -0.15    3.49    2.07    43.84920    53.17311   167.98341
   356  C   4.0    0.04    4.39    4.35    44.10998    51.08307   169.76353
   357  C   4.0    0.16    3.46    3.10    45.15878    52.04116   172.29387
   358  O   6.0   -0.29    1.25    1.80    44.95847    50.76182   174.22328
   359  C   4.0    0.04    4.13    3.86    45.66712    48.87776   168.68828
   360  O   6.0   -0.23    2.06    1.83    48.27494    49.18201   169.20795
   361  H   1.0    0.12    1.13    1.45    45.34775    53.43200   166.79855
   362  H   1.0    0.05    1.07    1.44    42.27317    50.21380   170.10179
   363  H   1.0    0.04    1.01    1.43    45.01705    47.12221   169.54810
   364  H   1.0    0.05    1.03    1.43    45.39878    48.80595   166.64737
   365  H   1.0    0.13    1.01    1.43    49.23114    47.75715   168.51064
   366  N   5.0   -0.13    3.59    2.15    46.23026    54.31261   172.32600
   367  C   4.0    0.04    4.47    4.50    47.12032    55.38787   174.72028
   368  C   4.0    0.14    3.55    3.14    47.98014    58.02592   174.20061
   369  O   6.0   -0.31    1.37    1.80    48.79083    58.51914   172.13136
   370  C   4.0   -0.02    4.36    4.31    49.34830    53.87987   175.67270
   371  C   4.0   -0.02    4.32    4.23    50.68434    52.44367   173.58645
   372  C   4.0    0.15    3.22    3.04    52.98981    51.06606   174.57666
   373  O   6.0   -0.28    1.20    1.80    54.72835    52.25659   175.56499
   374  N   5.0   -0.18    3.16    1.95    53.02193    48.54706   174.34045
   375  H   1.0    0.10    1.08    1.44    46.50427    55.42755   170.77831
   376  H   1.0    0.05    1.06    1.44    45.61232    55.40865   176.12246
   377  H   1.0    0.07    1.04    1.43    50.70891    55.16488   176.53442
   378  H   1.0    0.06    1.03    1.43    48.68690    52.51359   177.06543
   379  H   1.0    0.07    1.07    1.44    49.39555    51.05473   172.78142
   380  H   1.0    0.07    1.03    1.43    51.29472    53.76648   172.12947
   381  H   1.0    0.09    1.02    1.43    51.53283    47.63621   173.52031
   382  H   1.0    0.10    1.02    1.43    54.53560    47.53795   174.97917
   383  N   5.0   -0.11    3.79    2.41    47.87054    59.76258   175.99774
   384  C   4.0    0.03    4.52    4.57    48.58674    62.30237   175.23618
   385  C   4.0    0.16    3.57    3.15    49.28594    62.89386   177.92337
   386  O   6.0   -0.30    1.62    1.81    48.13699    61.92443   179.69971
   387  C   4.0   -0.04    4.38    4.35    46.78206    63.31149   173.22362
   388  C   4.0   -0.03    4.26    4.12    47.86487    65.50357   171.77798
   389  C   4.0    0.26    3.17    3.03    45.83341    67.29692   170.93138
   390  O   6.0   -0.28    1.25    1.80    43.59787    66.71866   171.38114
   391  O   6.0   -0.27    1.24    1.80    46.47214    69.29058   169.83912
   392  H   1.0    0.13    1.25    1.48    47.34141    59.49424   177.83077
   393  H   1.0    0.05    1.17    1.46    50.07207    63.15842   174.09478
   394  H   1.0    0.06    1.05    1.44    46.36443    61.80538   171.88191
   395  H   1.0    0.06    1.05    1.44    45.04729    63.94266   174.13636
   396  H   1.0    0.06    1.04    1.43    49.17823    66.53347   172.98551
   397  H   1.0    0.06    1.04    1.44    48.84564    64.80059   170.10935
   398  N   5.0   -0.12    3.50    2.08    51.10386    64.59083   178.19927
   399  C   4.0    0.04    4.45    4.46    51.70101    66.46733   180.12301
   400  C   4.0    0.15    3.39    3.07    51.27582    69.16397   179.18570
   401  O   6.0   -0.29    1.24    1.80    51.46102    69.64963   176.93315
   402  C   4.0    0.05    4.26    4.11    54.43734    66.10639   180.92803
   403  O   6.0   -0.23    2.12    1.84    54.93811    63.44188   181.04897
   404  C   4.0   -0.07    4.09    3.79    54.90599    67.28747   183.49050
   405  H   1.0    0.09    1.08    1.44    52.47013    64.74579   176.85000
   406  H   1.0    0.05    1.07    1.44    50.44434    66.24434   181.74061
   407  H   1.0    0.05    1.04    1.44    55.70534    67.01346   179.58255
   408  H   1.0    0.12    1.01    1.43    56.69367    63.15086   181.56109
   409  H   1.0    0.05    1.00    1.43    56.87130    67.01535   184.04230
   410  H   1.0    0.05    1.00    1.43    54.50537    69.30570   183.41869
   411  H   1.0    0.05    1.01    1.43    53.68711    66.41253   184.90213
   412  N   5.0   -0.13    3.44    2.04    50.63899    70.87039   180.92236
   413  C   4.0    0.04    4.32    4.24    50.05695    73.53302   180.34600
   414  C   4.0    0.24    3.18    3.03    51.77849    75.29235   181.91258
   415  O   6.0   -0.29    1.20    1.80    51.18323    77.50711   182.40769
   416  C   4.0   -0.03    4.30    4.19    47.22803    74.14340   180.81276
   417  C   4.0   -0.01    3.54    3.13    45.41389    72.37461   179.50885
   418  C   4.0   -0.03    3.45    3.10    44.83564    72.68075   176.96717
   419  C   4.0   -0.02    3.49    3.11    44.27817    70.39607   180.82599
   420  C   4.0   -0.02    3.37    3.07    43.17457    71.03858   175.76341
   421  C   4.0   -0.04    3.37    3.07    42.61899    68.74256   179.62412
   422  C   4.0   -0.03    3.36    3.07    42.06152    69.06948   177.09567
   423  O   6.0   -0.31    1.29    1.80    53.81751    74.51189   182.71571
   424  H   1.0    0.09    1.06    1.44    50.50104    70.47166   182.80264
   425  H   1.0    0.07    1.06    1.44    50.40277    73.88828   178.34667
   426  H   1.0    0.05    1.03    1.43    46.85764    74.03568   182.83665
   427  H   1.0    0.05    1.03    1.43    46.84442    76.04635   180.12679
   428  H   1.0    0.06    1.03    1.43    45.68412    74.20954   175.91459
   429  H   1.0    0.09    1.09    1.44    44.69013    70.14096   182.80831
   430  H   1.0    0.09    1.04    1.43    42.74749    71.29558   173.78487
   431  H   1.0    0.05    1.03    1.43    41.77050    67.20810   180.66725
   432  H   1.0    0.05    1.03    1.43    40.76706    67.79959   176.15836
   433  N   5.0   -0.18    3.32    1.99    28.27799    56.69456   190.17635
   434  C   4.0    0.03    4.37    4.32    30.85806    56.46251   189.38078
   435  C   4.0    0.14    3.45    3.10    32.46196    56.37167   191.73159
   436  O   6.0   -0.29    1.26    1.80    31.65993    57.25060   193.73281
   437  C   4.0   -0.04    4.37    4.33    31.51584    58.76250   187.82931
   438  C   4.0   -0.02    3.56    3.14    29.62471    59.35085   185.75061
   439  C   4.0   -0.05    3.46    3.10    29.42790    57.80578   183.63601
   440  C   4.0   -0.05    3.46    3.10    28.07903    61.47625   185.87155
   441  C   4.0   -0.04    3.43    3.09    27.73365    58.34414   181.69526
   442  C   4.0   -0.05    3.44    3.09    26.39050    62.04627   183.94214
   443  C   4.0    0.06    3.47    3.10    26.21233    60.47270   181.85778
   444  O   6.0   -0.24    2.09    1.84    24.53299    61.03058   179.93782
   445  H   1.0    0.09    1.04    1.43    27.56407    58.47535   189.99305
   446  H   1.0    0.04    1.06    1.44    31.20379    54.77899   188.24505
   447  H   1.0    0.05    1.04    1.43    31.60302    60.39919   189.07842
   448  H   1.0    0.04    1.03    1.43    33.34853    58.45681   186.94114
   449  H   1.0    0.05    1.03    1.43    30.61427    56.15155   183.49428
   450  H   1.0    0.05    1.03    1.43    28.19403    62.70568   187.49672
   451  H   1.0    0.06    1.03    1.43    27.60530    57.11136   180.07388
   452  H   1.0    0.05    1.03    1.43    25.21860    63.71322   184.06687
   453  H   1.0    0.12    1.02    1.43    23.60585    62.58353   180.33844
   454  N   5.0   -0.15    3.44    2.04    34.69700    55.24435   191.52561
   455  C   4.0    0.03    4.51    4.56    36.50275    55.30278   193.61187
   456  C   4.0    0.14    3.42    3.09    38.99806    56.31358   192.60465
   457  O   6.0   -0.30    1.21    1.80    40.34510    55.00088   191.16657
   458  C   4.0   -0.04    4.41    4.39    36.86035    52.68783   194.72870
   459  C   4.0   -0.02    4.25    4.11    38.64896    52.80620   196.96236
   460  C   4.0   -0.07    4.19    3.98    37.56707    54.73677   198.77649
   461  C   4.0   -0.08    4.10    3.81    38.92237    50.25393   198.26060
   462  H   1.0    0.08    1.05    1.44    35.30200    54.29095   189.96281
   463  H   1.0    0.05    1.09    1.44    35.81549    56.56873   195.08397
   464  H   1.0    0.05    1.03    1.43    35.04494    51.95829   195.37121
   465  H   1.0    0.05    1.03    1.43    37.66124    51.43294   193.30574
   466  H   1.0    0.05    1.06    1.44    40.54168    53.33381   196.34631
   467  H   1.0    0.05    1.00    1.43    38.80216    54.88033   200.41867
   468  H   1.0    0.05    1.02    1.43    37.44926    56.55843   197.82407
   469  H   1.0    0.05    1.00    1.43    35.68854    54.12789   199.36231
   470  H   1.0    0.04    1.00    1.43    40.22241    50.44372   199.84797
   471  H   1.0    0.04    1.00    1.43    37.07525    49.64354   198.93523
   472  H   1.0    0.04    1.00    1.43    39.66210    48.88953   196.90755
   473  N   5.0   -0.14    3.42    2.03    39.54754    58.66888   193.32652
   474  C   4.0    0.04    4.44    4.44    41.74279    60.10869   192.37410
   475  C   4.0    0.15    3.48    3.11    43.92140    60.23184   194.18824
   476  O   6.0   -0.30    1.23    1.80    43.59296    60.82339   196.46536
   477  C   4.0   -0.04    4.47    4.49    41.03429    62.82872   191.86010
   478  C   4.0   -0.03    4.24    4.09    38.96333    63.11249   189.93069
   479  C   4.0   -0.08    4.13    3.85    37.57392    65.56815   190.41824
   480  C   4.0   -0.07    4.18    3.97    40.21640    63.11151   187.34932
   481  H   1.0    0.08    1.06    1.44    38.49138    59.66293   194.59642
   482  H   1.0    0.06    1.07    1.44    42.34384    59.09410   190.68469
   483  H   1.0    0.05    1.04    1.43    40.38658    63.68982   193.61565
   484  H   1.0    0.05    1.05    1.44    42.69475    63.82667   191.15901
   485  H   1.0    0.04    1.06    1.44    37.57992    61.58934   190.01950
   486  H   1.0    0.04    1.00    1.43    36.07217    65.77687   189.02362
   487  H   1.0    0.04    1.00    1.43    36.76924    65.51815   192.31363
   488  H   1.0    0.04    1.00    1.43    38.90230    67.13372   190.25950
   489  H   1.0    0.03    1.01    1.43    38.76741    63.31578   185.89990
   490  H   1.0    0.05    1.00    1.43    41.53911    64.68690   187.24539
   491  H   1.0    0.05    1.00    1.43    41.22144    61.33295   187.09232
   492  N   5.0   -0.14    3.51    2.09    46.16441    59.78991   193.16779
   493  C   4.0    0.04    4.61    4.67    48.38294    60.10849   194.68335
   494  C   4.0    0.15    3.50    3.12    48.96230    62.91090   194.87799
   495  O   6.0   -0.32    1.28    1.80    49.11403    64.26192   192.96937
   496  C   4.0   -0.03    4.31    4.22    50.60727    58.59530   193.69880
   497  C   4.0   -0.07    4.18    3.95    52.90428    59.18612   195.28617
   498  C   4.0   -0.08    4.14    3.89    50.01431    55.79376   193.90856
   499  H   1.0    0.10    1.08    1.44    46.47162    59.22756   191.34987
   500  H   1.0    0.05    1.08    1.44    48.00008    59.39212   196.57685
   501  H   1.0    0.05    1.06    1.44    50.97737    59.07300   191.72971
   502  H   1.0    0.04    1.00    1.43    54.50535    58.09863   194.57941
   503  H   1.0    0.07    1.03    1.43    53.30996    61.20090   195.15389
   504  H   1.0    0.05    1.00    1.43    52.51676    58.67435   197.24393
   505  H   1.0    0.04    1.00    1.43    51.61745    54.71401   193.19802
   506  H   1.0    0.04    1.00    1.43    49.67324    55.32627   195.88521
   507  H   1.0    0.05    1.00    1.43    48.33673    55.37727   192.78984
   508  N   5.0   -0.14    3.46    2.05    49.20088    63.76000   197.23637
   509  C   4.0    0.04    4.34    4.27    49.88741    66.34280   197.82785
   510  C   4.0    0.08    3.30    3.05    47.83227    68.12606   196.98503
   511  O   6.0   -0.31    1.17    1.80    48.28169    70.37121   196.72992
   512  C   4.0   -0.02    4.35    4.29    52.38754    67.06180   196.53339
   513  C   4.0    0.15    3.22    3.04    54.62340    65.53999   197.51794
   514  O   6.0   -0.30    1.21    1.80    55.76029    64.04704   196.11576
   515  N   5.0   -0.18    3.16    1.95    55.26405    65.89678   199.94812
   516  H   1.0    0.08    1.06    1.44    48.92121    62.66461   198.79728
   517  H   1.0    0.04    1.06    1.44    50.15138    66.54321   199.86120
   518  H   1.0    0.07    1.04    1.43    52.22125    66.71486   194.50949
   519  H   1.0    0.05    1.03    1.43    52.77244    69.05586   196.87543
   520  H   1.0    0.10    1.02    1.43    56.74716    64.92666   200.70590
   521  H   1.0    0.08    1.02    1.43    54.26845    67.13745   201.03472
   522  N   5.0   -0.21    3.23    1.96    46.24420    68.92648   191.86954
   523  C   4.0    0.03    4.29    4.18    47.12096    70.00437   189.51117
   524  C   4.0    0.14    3.36    3.07    47.11947    68.18148   187.27184
   525  O   6.0   -0.33    1.32    1.80    46.74633    68.96762   185.13078
   526  C   4.0   -0.05    4.28    4.15    48.80857    72.32723   190.03084
   527  C   4.0   -0.04    4.18    3.96    51.29278    71.83036   191.43680
   528  C   4.0   -0.05    4.16    3.93    53.12485    74.03151   191.13066
   529  C   4.0   -0.03    4.14    3.87    54.55282    73.81074   188.63622
   530  N   5.0   -0.11    4.03    2.95    54.71845    76.19972   187.14334
   531  H   1.0    0.11    1.06    1.44    47.46633    67.66385   192.66323
   532  H   1.0    0.05    1.21    1.47    46.09300    71.24818   188.23182
   533  H   1.0    0.05    1.03    1.43    49.29841    73.17956   188.22048
   534  H   1.0    0.05    1.03    1.43    47.72769    73.66268   191.16846
   535  H   1.0    0.06    1.03    1.43    50.90549    71.58276   193.44369
   536  H   1.0    0.04    1.03    1.43    52.18188    70.13543   190.67713
   537  H   1.0    0.04    1.03    1.43    52.08022    75.80684   191.13444
   538  H   1.0    0.04    1.03    1.43    54.48980    74.01438   192.67268
   539  H   1.0    0.04    1.02    1.43    56.47921    73.19911   189.03685
   540  H   1.0    0.05    1.03    1.43    53.60131    72.41256   187.45892
   541  H   1.0    0.09    1.05    1.44    55.71602    75.88538   185.48038
   542  H   1.0    0.08    1.02    1.43    52.91405    76.83814   186.69359
   543  H   1.0    0.06    1.01    1.43    55.64282    77.58441   188.19025
   544  N   5.0   -0.13    3.55    2.11    47.52430    65.75309   187.71215
   545  C   4.0    0.04    4.34    4.27    48.96528    63.82036   186.35910
   546  C   4.0    0.15    3.45    3.09    46.84593    61.86358   186.12289
   547  O   6.0   -0.32    1.28    1.80    45.97510    60.77165   187.99183
   548  C   4.0    0.04    4.13    3.85    51.40911    63.23471   187.80096
   549  O   6.0   -0.25    2.04    1.83    53.27828    62.20819   186.19281
   550  H   1.0    0.10    1.10    1.44    46.74775    64.90980   189.26172
   551  H   1.0    0.06    1.07    1.44    49.74752    64.17380   184.48639
   552  H   1.0    0.05    1.02    1.43    52.12725    64.98040   188.62489
   553  H   1.0    0.06    1.02    1.43    50.99139    61.87196   189.28818
   554  H   1.0    0.11    1.01    1.43    54.58690    61.36645   187.19814
   555  N   5.0   -0.13    3.56    2.12    46.00611    61.43981   183.80042
   556  C   4.0    0.04    4.57    4.63    44.61336    59.22609   182.98783
   557  C   4.0    0.15    3.52    3.12    46.39646    57.26394   182.04675
   558  O   6.0   -0.29    1.46    1.80    48.00965    57.82219   180.44237
   559  C   4.0   -0.04    4.56    4.62    42.97225    59.93696   180.82599
   560  C   4.0   -0.03    4.30    4.20    40.48686    60.74956   181.88234
   561  C   4.0   -0.08    4.15    3.90    39.02625    62.03597   179.76963
   562  C   4.0   -0.07    4.21    4.01    39.23771    58.34380   182.80642
   563  H   1.0    0.11    1.13    1.45    46.28140    62.67887   182.35100
   564  H   1.0    0.04    1.09    1.44    43.51992    58.48569   184.56764
   565  H   1.0    0.05    1.05    1.44    43.81334    61.49614   179.77530
   566  H   1.0    0.04    1.05    1.44    42.69255    58.32004   179.58255
   567  H   1.0    0.04    1.10    1.44    40.59409    62.09452   183.43948
   568  H   1.0    0.03    1.08    1.44    37.19876    62.65015   180.49528
   569  H   1.0    0.04    1.00    1.43    40.10026    63.66416   179.10634
   570  H   1.0    0.04    1.00    1.43    38.75704    60.69568   178.22761
   571  H   1.0    0.04    1.00    1.43    37.39799    58.80908   183.60766
   572  H   1.0    0.05    1.06    1.44    39.00600    57.05571   181.21716
   573  H   1.0    0.05    1.01    1.43    40.43182    57.47740   184.24450
   574  N   5.0   -0.14    3.48    2.06    46.08770    54.96035   182.98594
   575  C   4.0    0.03    4.53    4.57    48.05462    53.03887   182.63823
   576  C   4.0    0.15    3.49    3.11    47.17680    50.56820   181.43826
   577  O   6.0   -0.30    1.38    1.80    44.91616    50.23186   180.92614
   578  C   4.0   -0.02    4.32    4.24    49.34980    52.47741   185.14968
   579  C   4.0   -0.06    4.14    3.89    50.63240    54.84792   186.12478
   580  C   4.0   -0.06    4.17    3.93    47.44013    51.59743   187.07909
   581  H   1.0    0.08    1.05    1.44    44.53886    54.37380   183.97238
   582  H   1.0    0.06    1.08    1.44    49.32784    53.83070   181.22661
   583  H   1.0    0.05    1.06    1.44    50.74941    50.99430   184.86244
   584  H   1.0    0.04    1.00    1.43    51.55194    54.42307   187.91813
   585  H   1.0    0.06    1.00    1.43    52.03366    55.46710   184.74717
   586  H   1.0    0.06    1.00    1.43    49.21246    56.31711   186.39312
   587  H   1.0    0.04    1.00    1.43    48.41084    51.20867   188.85354
   588  H   1.0    0.05    1.01    1.43    46.03561    53.07770   187.35499
   589  H   1.0    0.07    1.01    1.43    46.52870    49.88417   186.38745
   590  N   5.0   -0.13    3.55    2.11    48.93615    48.83238   180.95449
   591  C   4.0    0.05    4.37    4.33    48.13841    46.38176   180.00585
   592  C   4.0    0.11    3.37    3.07    46.56136    45.39051   182.13557
   593  O   6.0   -0.28    1.21    1.80    47.05785    46.11794   184.30497
   594  C   4.0    0.03    4.18    3.97    50.36791    44.65553   179.57877
   595  O   6.0   -0.25    2.05    1.83    49.52338    42.23681   178.82099
   596  H   1.0    0.07    1.05    1.44    50.83489    49.06234   181.19070
   597  H   1.0    0.06    1.05    1.44    47.15872    46.46857   178.19549
   598  H   1.0    0.04    1.02    1.43    51.56401    45.44865   178.10100
   599  H   1.0    0.05    1.02    1.43    51.43495    44.48167   181.33243
   600  H   1.0    0.12    1.01    1.43    50.97223    41.11817   178.54131
   601  N   5.0   -0.21    3.22    1.96    64.23536    56.18594   194.95169
   602  C   4.0    0.03    4.23    4.06    62.88390    58.27728   196.16489
   603  C   4.0    0.07    3.21    3.04    62.99414    58.26019   199.02594
   604  O   6.0   -0.28    1.13    1.80    61.64504    59.72008   200.27316
   605  C   4.0   -0.03    4.35    4.29    60.11464    58.36081   195.35231
   606  C   4.0   -0.02    3.58    3.16    59.65233    57.64221   192.63677
   607  C   4.0   -0.05    3.52    3.12    59.79333    55.13787   191.87710
   608  C   4.0   -0.04    3.47    3.10    59.04561    59.45653   190.83397
   609  C   4.0   -0.04    3.45    3.09    59.37358    54.44384   189.41479
   610  C   4.0   -0.05    3.43    3.09    58.59859    58.77949   188.34521
   611  C   4.0    0.07    3.47    3.10    58.77133    56.25419   187.66113
   612  O   6.0   -0.24    2.11    1.84    58.37187    55.47587   185.21960
   613  H   1.0    0.08    1.02    1.43    63.67459    54.47002   195.62821
   614  H   1.0    0.05    1.06    1.44    63.81334    60.00093   195.52427
   615  H   1.0    0.05    1.04    1.43    59.04600    57.05212   196.53150
   616  H   1.0    0.06    1.04    1.43    59.41275    60.27948   195.61498
   617  H   1.0    0.05    1.03    1.43    60.24273    53.70187   193.25471
   618  H   1.0    0.06    1.03    1.43    58.92108    61.41833   191.38200
   619  H   1.0    0.06    1.03    1.43    59.51661    52.48400   188.86110
   620  H   1.0    0.05    1.03    1.43    58.12231    60.19779   186.95626
   621  H   1.0    0.12    1.02    1.43    57.95520    56.93077   184.15190
   622  N   5.0   -0.18    3.20    1.96    36.05607    79.28984   181.45527
   623  C   4.0    0.03    4.24    4.07    38.65298    80.11710   182.03163
   624  C   4.0    0.25    3.18    3.03    39.31584    82.48766   180.46505
   625  O   6.0   -0.29    1.20    1.80    41.53151    83.07953   179.96994
   626  C   4.0   -0.03    4.30    4.19    40.59605    77.97237   181.56487
   627  C   4.0   -0.02    3.54    3.13    39.97131    75.51689   182.86878
   628  C   4.0   -0.04    3.45    3.10    40.52556    75.16918   185.41046
   629  C   4.0   -0.03    3.49    3.11    38.82570    73.54405   181.55164
   630  C   4.0   -0.04    3.37    3.07    39.93393    72.90956   186.61422
   631  C   4.0   -0.04    3.37    3.07    38.22331    71.28041   182.75351
   632  C   4.0   -0.04    3.36    3.07    38.78517    70.96109   185.28196
   633  O   6.0   -0.30    1.29    1.80    37.62044    83.86327   179.66192
   634  H   1.0    0.10    1.02    1.43    35.77973    78.97101   179.57499
   635  H   1.0    0.05    1.05    1.44    38.78775    80.59422   184.03096
   636  H   1.0    0.05    1.03    1.43    40.68796    77.59775   179.54097
   637  H   1.0    0.05    1.03    1.43    42.43586    78.59163   182.25084
   638  H   1.0    0.05    1.03    1.43    41.42528    76.66838   186.46304
   639  H   1.0    0.09    1.09    1.44    38.39879    73.77327   179.56932
   640  H   1.0    0.05    1.03    1.43    40.37004    72.66820   188.59276
   641  H   1.0    0.05    1.03    1.43    37.31867    69.77837   181.71038
   642  H   1.0    0.04    1.03    1.43    38.33264    69.20510   186.21926
   643  H   1.0    0.10    1.07    1.44    35.72428    77.84219   182.28399
   644  H   1.0    0.09    1.07    1.44    36.91309    61.09856   153.39699
   645  H   1.0    0.06    1.05    1.44    53.29902    52.82305   160.25241
   646  H   1.0    0.10    1.08    1.44    48.00562    45.49449   160.83722
   647  H   1.0    0.05    1.04    1.43    44.68817    45.62859   154.14129
   648  H   1.0    0.09    1.09    1.44    34.86964    45.15693   170.39864
   649  H   1.0    0.05    1.05    1.44    24.91567    67.83889   179.66883
   650  H   1.0    0.09    1.08    1.44    26.67407    71.12218   158.01187
   651  H   1.0    0.09    1.08    1.44    27.30105    55.66136   189.24326
   652  H   1.0    0.06    1.05    1.44    46.09588    67.46825   196.63387
   653  H   1.0    0.11    1.09    1.44    46.00215    70.16835   193.00608
   654  H   1.0    0.06    1.04    1.43    45.15521    44.17768   181.78509
   655  H   1.0    0.10    1.09    1.44    63.94161    56.21584   193.27676
   656  H   1.0    0.06    1.04    1.44    64.15764    57.06908   199.91957

  Z AO/shell   Hii/eV     exponent
  1     Wed Apr 25 08:07:45 CEST 2018   EN: 2.200 GM2: 0.406  GM3: 0.0800  RAES: 1.40
     1s    -10.707211    1.230000
  6     Wed Apr 25 08:07:45 CEST 2018   EN: 2.550 GM2: 0.538  GM3: 0.1500  RAES: 3.00
     2s    -13.970922    2.096432
     2p    -10.063292    1.800000
  7     Wed Apr 25 08:07:45 CEST 2018   EN: 3.040 GM2: 0.461  GM3:-0.0640  RAES: 1.90
     2s    -16.686243    2.339881
     2p    -12.523956    2.014332
  8     Wed Apr 25 08:07:45 CEST 2018   EN: 3.440 GM2: 0.452  GM3:-0.0517  RAES: 1.80
     2s    -20.229985    2.439742
     2p    -15.503117    2.137023
 16     Tue Apr 24 11:44:34 CEST 2018   EN: 2.580 GM2: 0.340  GM3:-0.0502  RAES: 3.10
     3s    -20.029654    1.981333
     3p    -11.377694    2.025643
     3d     -0.420282    1.702555
 no old-style atom pair restraining (fixing) potential

molecular fragmentation (1/2 indicates fragments):
111111111111111111111111111111111111111111111111111111111111111111111111
111111111111111111111111112222222222222222222222222222222222222222222222
222222222222222222222222222222222222222222222222222222222222222222222222
222222222222222222222222222222222222222222222222222222222222222222222222
222222222222222222222222222222222222222222222222222222222222222222222222
222222222222222222222222222222222222222222222222222222222222222222222222
222222222222222222222222222222222222222222222222222222222222222222222222
222222222222222222222222222222222222222222222222222222222222222222222222
222222222222222222222222222222222222222222222222222222222222222222211222
22222222
# atoms in fragment 1/2:   100   556
 fragment masses (1/2) :      704.80     3837.54
CMA distance (Bohr)    :  19.970
constraining FC (au)   :  0.0500
           ------------------------------------------------- 
          |        Self-Consistent Charge Iterations        |
           ------------------------------------------------- 

 Ncao       : 1625
 Nao        : 1624
 Nshell     : 978
 Nel        : 1786
 T(el)      :   500.0
 intcut     :    35.0
 scfconv/Eh :  0.100E-06
   qconv/e  :  0.100E-04
 intneglect :  0.100E-08
 broydamp   :      0.400
 iter      E             dE          RMSdq      gap      omega  full diag
   1  -1019.3802519 -0.101938E+04  0.466E+00    2.92       0.0  T
   2  -1021.7992457 -0.241899E+01  0.221E+00    1.52       1.0  T
   3  -1021.9414116 -0.142166E+00  0.120E+00    1.49       1.0  T
   4  -1022.0956887 -0.154277E+00  0.267E-01    0.42       1.0  T
   5  -1022.1060606 -0.103719E-01  0.129E-01    0.71       1.0  T
   6  -1022.1082859 -0.222529E-02  0.578E-02    0.70       1.0  T
   7  -1022.1088964 -0.610558E-03  0.280E-02    0.72       1.0  T
   8  -1022.1090007 -0.104228E-03  0.158E-02    0.75       1.0  T
   9  -1022.1090529 -0.521961E-04  0.825E-03    0.76       1.0  T
  10  -1022.1090675 -0.145952E-04  0.442E-03    0.76       1.0  T
  11  -1022.1090721 -0.465960E-05  0.208E-03    0.77       1.9  T
  12  -1022.1090730 -0.893174E-06  0.956E-04    0.77       4.1  T
  13  -1022.1090732 -0.196946E-06  0.458E-04    0.77       8.5  T
  14  -1022.1090732 -0.302925E-07  0.197E-04    0.77      19.8  T
  15  -1022.1090732 -0.676607E-08  0.866E-05    0.77      45.1  T
  16  -1022.1090733 -0.101977E-08  0.394E-05    0.77      99.0  T
speedup  1.66
cpu  time for SCC   30.35 s
wall time for SCC   18.26 s

   *** convergence criteria satisfied after 16 iterations ***

          eigenvalues
 #    :         881        882        883        884        885        886        887        888
 occ. :        2.000      2.000      2.000      2.000      2.000      2.000      2.000      2.000
 eps  :       -10.095    -10.084    -10.043     -9.960     -9.924     -9.840     -9.807     -9.791
 #    :         889        890        891        892        893        894        895        896
 occ. :        2.000      2.000      2.000      2.000      2.000      0.000      0.000      0.000
 eps  :        -9.783     -9.670     -9.556     -9.217     -9.069     -8.297     -8.111     -8.067
 #    :         897        898        899        900        901        902        903        904
 occ. :        0.000      0.000      0.000      0.000      0.000      0.000      0.000      0.000
 eps  :        -7.905     -7.757     -7.680     -7.008     -6.962     -6.937     -6.769     -6.742


   #   Z            q   n(s)   n(p)   n(d)      C6AA      α(0)
   1   7 N     -0.392  1.335  4.057  0.000    30.150     8.155
   2   6 C      0.025  1.051  2.924  0.000    20.155     6.393
   3   6 C      0.277  1.036  2.686  0.000    22.309     7.737
   4   8 O     -0.486  1.741  4.745  0.000    23.473     6.496
   5   6 C     -0.078  1.054  3.024  0.000    21.971     6.671
   6   6 C     -0.095  1.055  3.041  0.000    22.318     6.726
   7   6 C     -0.025  1.055  2.970  0.000    21.100     6.555
   8   7 N     -0.146  1.213  3.933  0.000    24.166     7.301
   9   6 C      0.234  1.021  2.745  0.000    23.101     7.869
  10   7 N     -0.240  1.235  4.005  0.000    26.267     7.612
  11   7 N     -0.259  1.240  4.019  0.000    26.717     7.677
  12   1 H      0.171  0.829  0.000  0.000     1.265     1.762
  13   1 H      0.026  0.974  0.000  0.000     2.637     2.540
  14   1 H      0.071  0.929  0.000  0.000     2.071     2.251
  15   1 H      0.063  0.937  0.000  0.000     2.160     2.298
  16   1 H      0.087  0.913  0.000  0.000     1.910     2.161
  17   1 H      0.046  0.954  0.000  0.000     2.374     2.410
  18   1 H      0.058  0.942  0.000  0.000     2.226     2.333
  19   1 H      0.100  0.900  0.000  0.000     1.784     2.089
  20   1 H      0.240  0.760  0.000  0.000     0.924     1.506
  21   1 H      0.229  0.771  0.000  0.000     0.970     1.543
  22   1 H      0.235  0.765  0.000  0.000     0.945     1.523
  23   1 H      0.257  0.743  0.000  0.000     0.855     1.448
  24   1 H      0.257  0.743  0.000  0.000     0.859     1.452
  25   7 N     -0.190  1.245  3.945  0.000    25.111     7.443
  26   6 C      0.025  1.046  2.929  0.000    20.138     6.387
  27   6 C      0.260  1.045  2.695  0.000    22.623     7.790
  28   8 O     -0.511  1.747  4.763  0.000    24.020     6.571
  29   6 C     -0.067  1.048  3.020  0.000    21.772     6.640
  30   6 C     -0.015  1.078  2.937  0.000    28.389     8.740
  31   6 C     -0.035  1.080  2.955  0.000    28.865     8.811
  32   6 C     -0.049  1.080  2.969  0.000    29.215     8.865
  33   6 C     -0.044  1.077  2.967  0.000    29.098     8.846
  34   6 C     -0.078  1.074  3.004  0.000    29.956     8.975
  35   6 C      0.149  1.042  2.809  0.000    24.770     8.158
  36   8 O     -0.422  1.717  4.705  0.000    21.278     6.227
  37   1 H      0.205  0.795  0.000  0.000     1.081     1.629
  38   1 H      0.066  0.934  0.000  0.000     2.128     2.281
  39   1 H      0.037  0.963  0.000  0.000     2.490     2.468
  40   1 H      0.048  0.952  0.000  0.000     2.348     2.396
  41   1 H      0.036  0.964  0.000  0.000     2.499     2.472
  42   1 H      0.031  0.969  0.000  0.000     2.574     2.509
  43   1 H      0.064  0.936  0.000  0.000     2.157     2.297
  44   1 H      0.054  0.946  0.000  0.000     2.270     2.356
  45   1 H      0.346  0.654  0.000  0.000     0.599     1.216
  46   7 N     -0.091  1.244  3.847  0.000    23.012     7.125
  47   6 C      0.010  1.068  2.922  0.000    20.401     6.429
  48   6 C      0.279  1.036  2.684  0.000    22.270     7.728
  49   8 O     -0.477  1.752  4.725  0.000    23.272     6.468
  50   6 C     -0.087  1.060  3.027  0.000    22.140     6.695
  51   6 C     -0.080  1.048  3.032  0.000    22.002     6.674
  52   6 C     -0.025  1.057  2.968  0.000    21.066     6.543
  53   1 H      0.088  0.912  0.000  0.000     1.896     2.153
  54   1 H      0.076  0.924  0.000  0.000     2.023     2.224
  55   1 H      0.083  0.917  0.000  0.000     1.949     2.183
  56   1 H      0.059  0.941  0.000  0.000     2.212     2.326
  57   1 H      0.087  0.913  0.000  0.000     1.910     2.161
  58   1 H      0.061  0.939  0.000  0.000     2.188     2.313
  59   1 H      0.084  0.916  0.000  0.000     1.936     2.176
  60   7 N     -0.180  1.243  3.937  0.000    24.891     7.410
  61   6 C      0.006  1.067  2.926  0.000    20.478     6.444
  62   6 C      0.273  1.043  2.684  0.000    22.392     7.748
  63   8 O     -0.490  1.754  4.736  0.000    23.568     6.509
  64   6 C     -0.085  1.056  3.029  0.000    22.111     6.693
  65   6 C     -0.109  1.057  3.053  0.000    22.586     6.766
  66   6 C     -0.030  1.060  2.969  0.000    21.181     6.566
  67   7 N     -0.148  1.212  3.935  0.000    24.196     7.306
  68   6 C      0.231  1.018  2.751  0.000    23.155     7.878
  69   7 N     -0.254  1.234  4.020  0.000    26.605     7.661
  70   7 N     -0.255  1.239  4.016  0.000    26.619     7.663
  71   1 H      0.200  0.800  0.000  0.000     1.106     1.648
  72   1 H      0.106  0.894  0.000  0.000     1.730     2.057
  73   1 H      0.062  0.938  0.000  0.000     2.171     2.304
  74   1 H      0.065  0.935  0.000  0.000     2.138     2.287
  75   1 H      0.091  0.909  0.000  0.000     1.873     2.140
  76   1 H      0.100  0.900  0.000  0.000     1.788     2.091
  77   1 H      0.074  0.926  0.000  0.000     2.042     2.235
  78   1 H      0.099  0.901  0.000  0.000     1.790     2.092
  79   1 H      0.241  0.759  0.000  0.000     0.918     1.501
  80   1 H      0.239  0.761  0.000  0.000     0.928     1.509
  81   1 H      0.247  0.753  0.000  0.000     0.894     1.481
  82   1 H      0.257  0.743  0.000  0.000     0.856     1.449
  83   1 H      0.258  0.742  0.000  0.000     0.855     1.448
  84   7 N     -0.169  1.245  3.924  0.000    24.657     7.375
  85   6 C      0.032  1.044  2.924  0.000    20.050     6.377
  86   6 C      0.227  1.072  2.701  0.000    23.237     7.906
  87   8 O     -0.352  1.719  4.633  0.000    20.740     6.106
  88   6 C     -0.048  1.052  2.996  0.000    21.352     6.565
  89   6 C     -0.096  1.061  3.035  0.000    22.326     6.725
  90   6 C      0.356  1.029  2.616  0.000    20.963     7.493
  91   8 O     -0.601  1.775  4.826  0.000    26.139     6.855
  92   8 O     -0.628  1.771  4.857  0.000    26.819     6.943
  93   1 H      0.200  0.800  0.000  0.000     1.105     1.647
  94   1 H      0.059  0.941  0.000  0.000     2.207     2.323
  95   1 H      0.042  0.958  0.000  0.000     2.419     2.432
  96   1 H      0.077  0.923  0.000  0.000     2.015     2.220
  97   1 H      0.045  0.955  0.000  0.000     2.385     2.415
  98   1 H      0.058  0.942  0.000  0.000     2.223     2.332
  99   7 N     -0.396  1.313  4.083  0.000    30.275     8.172
 100   6 C      0.045  1.050  2.905  0.000    19.841     6.345
 101   6 C      0.184  1.099  2.717  0.000    24.044     8.030
 102   8 O     -0.365  1.759  4.606  0.000    21.000     6.144
 103   6 C     -0.070  1.060  3.010  0.000    21.819     6.648
 104   6 C     -0.006  1.051  2.955  0.000    20.652     6.464
 105   6 C     -0.106  1.043  3.063  0.000    22.572     6.774
 106   6 C     -0.116  1.046  3.070  0.000    22.751     6.798
 107   1 H      0.173  0.827  0.000  0.000     1.255     1.755
 108   1 H      0.046  0.954  0.000  0.000     2.371     2.408
 109   1 H      0.042  0.958  0.000  0.000     2.419     2.432
 110   1 H      0.035  0.965  0.000  0.000     2.512     2.479
 111   1 H      0.027  0.973  0.000  0.000     2.631     2.537
 112   1 H      0.030  0.970  0.000  0.000     2.589     2.516
 113   1 H      0.031  0.969  0.000  0.000     2.567     2.505
 114   1 H      0.024  0.976  0.000  0.000     2.667     2.554
 115   1 H      0.036  0.964  0.000  0.000     2.505     2.475
 116   1 H      0.043  0.957  0.000  0.000     2.415     2.430
 117   1 H      0.052  0.948  0.000  0.000     2.290     2.366
 118   7 N     -0.393  1.315  4.079  0.000    30.187     8.160
 119   6 C      0.047  1.042  2.912  0.000    19.795     6.335
 120   6 C      0.283  1.035  2.681  0.000    22.205     7.719
 121   8 O     -0.502  1.746  4.756  0.000    23.837     6.546
 122   6 C     -0.063  1.052  3.011  0.000    21.701     6.630
 123   6 C      0.012  1.086  2.902  0.000    27.747     8.640
 124   6 C     -0.040  1.082  2.958  0.000    28.993     8.830
 125   6 C     -0.035  1.081  2.954  0.000    28.879     8.813
 126   6 C     -0.035  1.085  2.950  0.000    28.880     8.812
 127   6 C     -0.032  1.079  2.953  0.000    28.810     8.802
 128   6 C     -0.037  1.082  2.955  0.000    28.921     8.819
 129   1 H      0.175  0.825  0.000  0.000     1.244     1.747
 130   1 H      0.021  0.979  0.000  0.000     2.719     2.579
 131   1 H      0.028  0.972  0.000  0.000     2.617     2.530
 132   1 H      0.042  0.958  0.000  0.000     2.423     2.434
 133   1 H      0.038  0.962  0.000  0.000     2.482     2.464
 134   1 H      0.014  0.986  0.000  0.000     2.831     2.631
 135   1 H      0.046  0.954  0.000  0.000     2.368     2.406
 136   1 H      0.031  0.969  0.000  0.000     2.579     2.511
 137   1 H      0.045  0.955  0.000  0.000     2.385     2.415
 138   7 N     -0.163  1.236  3.927  0.000    24.521     7.354
 139   6 C      0.032  1.048  2.920  0.000    20.031     6.371
 140   6 C      0.276  1.039  2.685  0.000    22.335     7.740
 141   8 O     -0.496  1.745  4.750  0.000    23.686     6.525
 142   6 C     -0.069  1.050  3.019  0.000    21.811     6.646
 143   6 C     -0.005  1.077  2.927  0.000    28.137     8.701
 144   6 C     -0.042  1.084  2.958  0.000    29.039     8.837
 145   6 C     -0.038  1.079  2.959  0.000    28.951     8.824
 146   6 C     -0.059  1.077  2.981  0.000    29.456     8.900
 147   6 C     -0.064  1.076  2.988  0.000    29.584     8.919
 148   6 C      0.153  1.049  2.798  0.000    24.672     8.141
 149   8 O     -0.447  1.720  4.728  0.000    21.788     6.301
 150   1 H      0.205  0.795  0.000  0.000     1.083     1.630
 151   1 H      0.069  0.931  0.000  0.000     2.099     2.265
 152   1 H      0.039  0.961  0.000  0.000     2.460     2.453
 153   1 H      0.064  0.936  0.000  0.000     2.157     2.297
 154   1 H      0.058  0.942  0.000  0.000     2.218     2.329
 155   1 H      0.008  0.992  0.000  0.000     2.918     2.671
 156   1 H      0.068  0.932  0.000  0.000     2.107     2.270
 157   1 H      0.028  0.972  0.000  0.000     2.620     2.531
 158   1 H      0.338  0.662  0.000  0.000     0.617     1.234
 159   7 N     -0.178  1.249  3.929  0.000    24.845     7.403
 160   6 C      0.021  1.061  2.919  0.000    20.225     6.402
 161   6 C      0.267  1.046  2.686  0.000    22.486     7.765
 162   8 O     -0.488  1.756  4.732  0.000    23.511     6.501
 163   6 C     -0.072  1.053  3.019  0.000    21.853     6.652
 164   6 C     -0.009  1.050  2.959  0.000    20.694     6.470
 165   6 C     -0.126  1.047  3.080  0.000    22.968     6.831
 166   6 C     -0.120  1.046  3.074  0.000    22.854     6.816
 167   1 H      0.215  0.785  0.000  0.000     1.035     1.594
 168   1 H      0.075  0.925  0.000  0.000     2.033     2.230
 169   1 H      0.055  0.945  0.000  0.000     2.265     2.353
 170   1 H      0.059  0.941  0.000  0.000     2.208     2.324
 171   1 H      0.026  0.974  0.000  0.000     2.642     2.542
 172   1 H      0.038  0.962  0.000  0.000     2.474     2.460
 173   1 H      0.056  0.944  0.000  0.000     2.242     2.342
 174   1 H      0.042  0.958  0.000  0.000     2.427     2.436
 175   1 H      0.055  0.945  0.000  0.000     2.260     2.351
 176   1 H      0.045  0.955  0.000  0.000     2.380     2.412
 177   1 H      0.045  0.955  0.000  0.000     2.382     2.414
 178   7 N     -0.167  1.250  3.917  0.000    24.609     7.368
 179   6 C      0.023  1.057  2.921  0.000    20.197     6.399
 180   6 C      0.266  1.044  2.690  0.000    22.511     7.772
 181   8 O     -0.506  1.741  4.765  0.000    23.925     6.558
 182   6 C     -0.049  1.050  2.999  0.000    21.422     6.584
 183   6 C     -0.010  1.050  2.960  0.000    20.722     6.474
 184   6 C     -0.085  1.037  3.048  0.000    22.171     6.712
 185   6 C     -0.110  1.045  3.065  0.000    22.646     6.783
 186   1 H      0.203  0.797  0.000  0.000     1.089     1.635
 187   1 H      0.085  0.915  0.000  0.000     1.931     2.173
 188   1 H      0.033  0.967  0.000  0.000     2.542     2.493
 189   1 H      0.038  0.962  0.000  0.000     2.481     2.463
 190   1 H      0.028  0.972  0.000  0.000     2.622     2.532
 191   1 H      0.029  0.971  0.000  0.000     2.600     2.522
 192   1 H      0.018  0.982  0.000  0.000     2.761     2.599
 193   1 H      0.040  0.960  0.000  0.000     2.449     2.448
 194   1 H      0.055  0.945  0.000  0.000     2.254     2.348
 195   1 H      0.024  0.976  0.000  0.000     2.667     2.554
 196   1 H      0.060  0.940  0.000  0.000     2.200     2.320
 197   7 N     -0.156  1.243  3.913  0.000    24.372     7.332
 198   6 C      0.020  1.055  2.925  0.000    20.212     6.397
 199   6 C      0.273  1.043  2.684  0.000    22.392     7.749
 200   8 O     -0.485  1.750  4.735  0.000    23.449     6.492
 201   6 C     -0.019  1.055  2.963  0.000    20.867     6.497
 202   6 C     -0.131  1.045  3.087  0.000    23.065     6.846
 203   6 C     -0.122  1.045  3.077  0.000    22.877     6.818
 204   1 H      0.236  0.764  0.000  0.000     0.939     1.518
 205   1 H      0.065  0.935  0.000  0.000     2.144     2.290
 206   1 H      0.044  0.956  0.000  0.000     2.399     2.422
 207   1 H      0.066  0.934  0.000  0.000     2.125     2.279
 208   1 H      0.064  0.936  0.000  0.000     2.147     2.292
 209   1 H      0.046  0.954  0.000  0.000     2.367     2.406
 210   1 H      0.067  0.933  0.000  0.000     2.122     2.278
 211   1 H      0.047  0.953  0.000  0.000     2.358     2.402
 212   1 H      0.042  0.958  0.000  0.000     2.422     2.434
 213   7 N     -0.172  1.243  3.929  0.000    24.723     7.385
 214   6 C      0.010  1.061  2.928  0.000    20.406     6.432
 215   6 C      0.277  1.032  2.691  0.000    22.311     7.735
 216   8 O     -0.458  1.734  4.724  0.000    22.879     6.413
 217   6 C     -0.108  1.059  3.049  0.000    22.548     6.759
 218   6 C      0.281  1.040  2.680  0.000    22.250     7.723
 219   8 O     -0.493  1.761  4.732  0.000    23.632     6.518
 220   7 N     -0.279  1.268  4.011  0.000    27.213     7.748
 221   1 H      0.214  0.786  0.000  0.000     1.039     1.597
 222   1 H      0.104  0.896  0.000  0.000     1.745     2.066
 223   1 H      0.088  0.912  0.000  0.000     1.899     2.155
 224   1 H      0.104  0.896  0.000  0.000     1.751     2.070
 225   1 H      0.246  0.754  0.000  0.000     0.900     1.486
 226   1 H      0.232  0.768  0.000  0.000     0.955     1.531
 227   7 N     -0.180  1.242  3.938  0.000    24.900     7.411
 228   6 C      0.045  1.049  2.906  0.000    19.824     6.339
 229   6 C      0.283  1.032  2.684  0.000    22.199     7.716
 230   8 O     -0.503  1.773  4.730  0.000    23.854     6.548
 231   6 C     -0.124  1.065  3.059  0.000    22.863     6.807
 232   6 C      0.298  1.030  2.672  0.000    21.939     7.669
 233   8 O     -0.504  1.774  4.730  0.000    23.871     6.551
 234   7 N     -0.292  1.272  4.020  0.000    27.533     7.793
 235   1 H      0.195  0.805  0.000  0.000     1.130     1.665
 236   1 H      0.054  0.946  0.000  0.000     2.270     2.356
 237   1 H      0.115  0.885  0.000  0.000     1.654     2.011
 238   1 H      0.068  0.932  0.000  0.000     2.111     2.272
 239   1 H      0.226  0.774  0.000  0.000     0.983     1.553
 240   1 H      0.224  0.776  0.000  0.000     0.990     1.559
 241   7 N     -0.183  1.241  3.941  0.000    24.959     7.420
 242   6 C     -0.016  1.033  2.983  0.000    20.867     6.505
 243   6 C      0.276  1.043  2.681  0.000    22.329     7.737
 244   8 O     -0.469  1.748  4.722  0.000    23.112     6.446
 245   6 C     -0.058  1.059  2.999  0.000    21.616     6.619
 246   6 C     -0.084  1.054  3.029  0.000    22.093     6.692
 247   6 C     -0.094  1.056  3.038  0.000    22.292     6.722
 248   6 C     -0.042  1.057  2.985  0.000    21.412     6.605
 249   7 N     -0.145  1.240  3.904  0.000    24.120     7.294
 250   1 H      0.220  0.780  0.000  0.000     1.009     1.574
 251   1 H      0.117  0.883  0.000  0.000     1.637     2.001
 252   1 H      0.049  0.951  0.000  0.000     2.327     2.385
 253   1 H      0.061  0.939  0.000  0.000     2.183     2.311
 254   1 H      0.077  0.923  0.000  0.000     2.013     2.219
 255   1 H      0.051  0.949  0.000  0.000     2.312     2.378
 256   1 H      0.076  0.924  0.000  0.000     2.022     2.224
 257   1 H      0.096  0.904  0.000  0.000     1.825     2.113
 258   1 H      0.122  0.878  0.000  0.000     1.601     1.979
 259   1 H      0.094  0.906  0.000  0.000     1.842     2.123
 260   1 H      0.306  0.694  0.000  0.000     0.697     1.308
 261   1 H      0.264  0.736  0.000  0.000     0.832     1.429
 262   1 H      0.295  0.705  0.000  0.000     0.728     1.337
 263   7 N     -0.195  1.224  3.971  0.000    25.226     7.459
 264   6 C      0.013  1.061  2.925  0.000    20.363     6.427
 265   6 C      0.271  1.044  2.684  0.000    22.417     7.756
 266   8 O     -0.489  1.737  4.752  0.000    23.543     6.505
 267   6 C      0.078  1.038  2.883  0.000    19.491     6.325
 268   8 O     -0.492  1.729  4.763  0.000    22.727     6.435
 269   1 H      0.203  0.797  0.000  0.000     1.089     1.635
 270   1 H      0.084  0.916  0.000  0.000     1.936     2.176
 271   1 H      0.056  0.944  0.000  0.000     2.247     2.344
 272   1 H      0.050  0.950  0.000  0.000     2.326     2.385
 273   1 H      0.359  0.641  0.000  0.000     0.568     1.184
 274   7 N     -0.160  1.239  3.921  0.000    24.457     7.345
 275   6 C      0.029  1.047  2.923  0.000    20.072     6.377
 276   6 C      0.195  1.082  2.723  0.000    23.834     7.997
 277   8 O     -0.361  1.763  4.599  0.000    20.927     6.133
 278   6 C     -0.070  1.054  3.016  0.000    21.797     6.639
 279   6 C     -0.036  1.053  2.983  0.000    21.169     6.542
 280   6 C     -0.135  1.049  3.086  0.000    23.144     6.858
 281   6 C     -0.130  1.046  3.084  0.000    23.037     6.840
 282   1 H      0.211  0.789  0.000  0.000     1.049     1.605
 283   1 H      0.085  0.915  0.000  0.000     1.928     2.171
 284   1 H      0.068  0.932  0.000  0.000     2.106     2.269
 285   1 H      0.071  0.929  0.000  0.000     2.077     2.254
 286   1 H      0.048  0.952  0.000  0.000     2.344     2.394
 287   1 H      0.070  0.930  0.000  0.000     2.089     2.260
 288   1 H      0.040  0.960  0.000  0.000     2.447     2.446
 289   1 H      0.045  0.955  0.000  0.000     2.384     2.415
 290   1 H      0.033  0.967  0.000  0.000     2.545     2.495
 291   1 H      0.059  0.941  0.000  0.000     2.208     2.324
 292   1 H      0.037  0.963  0.000  0.000     2.483     2.464
 293   7 N     -0.393  1.322  4.072  0.000    30.189     8.160
 294   6 C      0.034  1.045  2.920  0.000    19.990     6.364
 295   6 C      0.278  1.029  2.693  0.000    22.294     7.736
 296   8 O     -0.511  1.746  4.765  0.000    24.032     6.573
 297   6 C     -0.055  1.042  3.013  0.000    21.508     6.592
 298   6 C      0.001  1.055  2.943  0.000    20.555     6.455
 299  16 S     -0.232  1.919  4.256  0.056   150.974    20.680
 300   6 C     -0.062  1.055  3.006  0.000    21.756     6.654
 301   1 H      0.172  0.828  0.000  0.000     1.262     1.760
 302   1 H      0.034  0.966  0.000  0.000     2.534     2.489
 303   1 H      0.039  0.961  0.000  0.000     2.463     2.454
 304   1 H      0.042  0.958  0.000  0.000     2.428     2.437
 305   1 H      0.035  0.965  0.000  0.000     2.523     2.484
 306   1 H      0.048  0.952  0.000  0.000     2.342     2.393
 307   1 H      0.073  0.927  0.000  0.000     2.055     2.242
 308   1 H      0.060  0.940  0.000  0.000     2.198     2.319
 309   1 H      0.062  0.938  0.000  0.000     2.171     2.304
 310   7 N     -0.170  1.240  3.931  0.000    24.684     7.379
 311   6 C      0.014  1.044  2.942  0.000    20.318     6.413
 312   6 C      0.271  1.026  2.703  0.000    22.429     7.763
 313   8 O     -0.480  1.733  4.747  0.000    23.343     6.478
 314   6 C      0.116  1.038  2.846  0.000    18.745     6.176
 315   8 O     -0.468  1.729  4.739  0.000    22.217     6.363
 316   6 C     -0.134  1.045  3.089  0.000    23.131     6.858
 317   1 H      0.241  0.759  0.000  0.000     0.918     1.501
 318   1 H      0.083  0.917  0.000  0.000     1.946     2.181
 319   1 H      0.022  0.978  0.000  0.000     2.698     2.568
 320   1 H      0.358  0.642  0.000  0.000     0.571     1.187
 321   1 H      0.057  0.943  0.000  0.000     2.232     2.336
 322   1 H      0.043  0.957  0.000  0.000     2.410     2.427
 323   1 H      0.076  0.924  0.000  0.000     2.017     2.221
 324   7 N     -0.170  1.231  3.939  0.000    24.668     7.377
 325   6 C      0.044  1.037  2.919  0.000    19.799     6.328
 326   6 C      0.270  1.040  2.690  0.000    22.441     7.759
 327   8 O     -0.486  1.732  4.754  0.000    23.478     6.496
 328   6 C     -0.078  1.046  3.032  0.000    21.966     6.669
 329   6 C     -0.002  1.078  2.924  0.000    28.066     8.690
 330   6 C     -0.045  1.077  2.968  0.000    29.111     8.848
 331   6 C     -0.034  1.083  2.951  0.000    28.847     8.808
 332   6 C     -0.076  1.077  3.000  0.000    29.909     8.968
 333   6 C     -0.055  1.069  2.985  0.000    29.355     8.885
 334   6 C      0.145  1.044  2.812  0.000    24.847     8.171
 335   8 O     -0.421  1.713  4.708  0.000    21.255     6.224
 336   1 H      0.213  0.787  0.000  0.000     1.043     1.600
 337   1 H      0.056  0.944  0.000  0.000     2.241     2.341
 338   1 H      0.057  0.943  0.000  0.000     2.237     2.339
 339   1 H      0.077  0.923  0.000  0.000     2.011     2.218
 340   1 H      0.035  0.965  0.000  0.000     2.516     2.481
 341   1 H      0.024  0.976  0.000  0.000     2.666     2.553
 342   1 H      0.062  0.938  0.000  0.000     2.171     2.304
 343   1 H      0.051  0.949  0.000  0.000     2.303     2.373
 344   1 H      0.350  0.650  0.000  0.000     0.588     1.205
 345   7 N     -0.171  1.247  3.925  0.000    24.712     7.383
 346   6 C      0.032  1.052  2.917  0.000    20.050     6.377
 347   6 C      0.269  1.042  2.688  0.000    22.449     7.759
 348   8 O     -0.500  1.742  4.758  0.000    23.786     6.539
[...]
 370   6 C     -0.044  1.041  3.003  0.000    21.351     6.576
 371   6 C     -0.095  1.052  3.043  0.000    22.311     6.724
 372   6 C      0.284  1.041  2.675  0.000    22.180     7.711
 373   8 O     -0.503  1.751  4.752  0.000    23.843     6.547
 374   7 N     -0.279  1.268  4.011  0.000    27.217     7.748
 375   1 H      0.193  0.807  0.000  0.000     1.145     1.676
 376   1 H      0.038  0.962  0.000  0.000     2.480     2.463
 377   1 H      0.057  0.943  0.000  0.000     2.231     2.336
 378   1 H      0.046  0.954  0.000  0.000     2.373     2.409
 379   1 H      0.068  0.932  0.000  0.000     2.102     2.267
 380   1 H      0.065  0.935  0.000  0.000     2.138     2.287
 381   1 H      0.219  0.781  0.000  0.000     1.013     1.577
 382   1 H      0.243  0.757  0.000  0.000     0.910     1.494
 383   7 N     -0.217  1.285  3.932  0.000    25.721     7.532
 384   6 C     -0.001  1.034  2.967  0.000    20.582     6.456
 385   6 C      0.272  1.041  2.687  0.000    22.410     7.764
 386   8 O     -0.443  1.739  4.704  0.000    22.567     6.369
 387   6 C     -0.035  1.045  2.990  0.000    21.198     6.554
 388   6 C     -0.083  1.057  3.026  0.000    22.085     6.690
 389   6 C      0.373  1.016  2.611  0.000    20.677     7.442
 390   8 O     -0.634  1.774  4.859  0.000    26.959     6.961
 391   8 O     -0.638  1.754  4.884  0.000    27.070     6.976
 392   1 H      0.276  0.724  0.000  0.000     0.788     1.390
 393   1 H      0.091  0.909  0.000  0.000     1.870     2.139
 394   1 H      0.045  0.955  0.000  0.000     2.387     2.416
 395   1 H      0.019  0.981  0.000  0.000     2.751     2.594
 396   1 H      0.016  0.984  0.000  0.000     2.792     2.613
 397   1 H      0.023  0.977  0.000  0.000     2.684     2.562
 398   7 N     -0.176  1.228  3.948  0.000    24.813     7.398
 399   6 C      0.026  1.059  2.915  0.000    20.145     6.392
 400   6 C      0.274  1.040  2.686  0.000    22.373     7.745
 401   8 O     -0.505  1.750  4.755  0.000    23.888     6.553
 402   6 C      0.117  1.042  2.841  0.000    18.760     6.183
 403   8 O     -0.480  1.741  4.739  0.000    22.475     6.400
 404   6 C     -0.147  1.047  3.100  0.000    23.401     6.898
 405   1 H      0.204  0.796  0.000  0.000     1.087     1.633
 406   1 H      0.058  0.942  0.000  0.000     2.220     2.330
 407   1 H      0.027  0.973  0.000  0.000     2.624     2.533
 408   1 H      0.340  0.660  0.000  0.000     0.612     1.229
 409   1 H      0.084  0.916  0.000  0.000     1.939     2.178
 410   1 H      0.052  0.948  0.000  0.000     2.294     2.368
 411   1 H      0.070  0.930  0.000  0.000     2.090     2.261
 412   7 N     -0.166  1.249  3.917  0.000    24.596     7.366
 413   6 C      0.019  1.071  2.909  0.000    20.266     6.413
 414   6 C      0.360  1.024  2.616  0.000    20.893     7.480
 415   8 O     -0.624  1.765  4.860  0.000    26.727     6.931
 416   6 C     -0.057  1.052  3.005  0.000    21.593     6.615
 417   6 C      0.011  1.085  2.903  0.000    27.757     8.642
 418   6 C     -0.038  1.078  2.960  0.000    28.947     8.823
 419   6 C     -0.060  1.095  2.965  0.000    29.482     8.904
 420   6 C     -0.025  1.084  2.941  0.000    28.619     8.773
 421   6 C     -0.037  1.080  2.957  0.000    28.921     8.819
 422   6 C     -0.028  1.076  2.953  0.000    28.707     8.786
 423   8 O     -0.593  1.730  4.863  0.000    25.950     6.830
 424   1 H      0.200  0.800  0.000  0.000     1.105     1.646
 425   1 H      0.038  0.962  0.000  0.000     2.473     2.459
 426   1 H      0.040  0.960  0.000  0.000     2.445     2.445
 427   1 H      0.042  0.958  0.000  0.000     2.420     2.433
 428   1 H      0.004  0.996  0.000  0.000     2.981     2.700
 429   1 H      0.082  0.918  0.000  0.000     1.958     2.188
 430   1 H      0.028  0.972  0.000  0.000     2.608     2.525
 431   1 H      0.027  0.973  0.000  0.000     2.636     2.539
 432   1 H      0.010  0.990  0.000  0.000     2.898     2.662
 433   7 N     -0.380  1.317  4.063  0.000    29.829     8.111
 434   6 C      0.041  1.045  2.913  0.000    19.887     6.350
 435   6 C      0.271  1.043  2.687  0.000    22.423     7.755
 436   8 O     -0.482  1.750  4.732  0.000    23.396     6.485
 437   6 C     -0.069  1.052  3.017  0.000    21.813     6.647
 438   6 C      0.002  1.081  2.917  0.000    27.984     8.677
 439   6 C     -0.040  1.084  2.956  0.000    28.991     8.830
 440   6 C     -0.042  1.083  2.959  0.000    29.048     8.839
 441   6 C     -0.056  1.076  2.981  0.000    29.401     8.891
 442   6 C     -0.074  1.077  2.996  0.000    29.842     8.958
 443   6 C      0.146  1.047  2.806  0.000    24.818     8.165
 444   8 O     -0.438  1.731  4.707  0.000    21.602     6.274
 445   1 H      0.164  0.836  0.000  0.000     1.310     1.793
 446   1 H      0.030  0.970  0.000  0.000     2.593     2.518
 447   1 H      0.049  0.951  0.000  0.000     2.338     2.391
 448   1 H      0.042  0.958  0.000  0.000     2.421     2.433
 449   1 H      0.045  0.955  0.000  0.000     2.379     2.412
 450   1 H      0.044  0.956  0.000  0.000     2.393     2.419
 451   1 H      0.050  0.950  0.000  0.000     2.318     2.381
 452   1 H      0.044  0.956  0.000  0.000     2.399     2.422
 453   1 H      0.337  0.663  0.000  0.000     0.620     1.237
 454   7 N     -0.181  1.247  3.934  0.000    24.926     7.415
 455   6 C      0.017  1.062  2.921  0.000    20.288     6.412
 456   6 C      0.267  1.047  2.686  0.000    22.491     7.766
 457   8 O     -0.501  1.763  4.738  0.000    23.811     6.542
 458   6 C     -0.072  1.053  3.019  0.000    21.852     6.652
 459   6 C     -0.011  1.050  2.961  0.000    20.738     6.477
 460   6 C     -0.123  1.045  3.078  0.000    22.907     6.822
 461   6 C     -0.119  1.045  3.074  0.000    22.830     6.813
 462   1 H      0.200  0.800  0.000  0.000     1.104     1.646
 463   1 H      0.081  0.919  0.000  0.000     1.965     2.192
 464   1 H      0.056  0.944  0.000  0.000     2.241     2.341
 465   1 H      0.053  0.947  0.000  0.000     2.289     2.366
 466   1 H      0.024  0.976  0.000  0.000     2.678     2.559
 467   1 H      0.049  0.951  0.000  0.000     2.330     2.387
 468   1 H      0.034  0.966  0.000  0.000     2.535     2.490
 469   1 H      0.051  0.949  0.000  0.000     2.309     2.376
 470   1 H      0.049  0.951  0.000  0.000     2.334     2.389
 471   1 H      0.047  0.953  0.000  0.000     2.364     2.404
 472   1 H      0.041  0.959  0.000  0.000     2.430     2.438
 473   7 N     -0.169  1.253  3.916  0.000    24.652     7.374
 474   6 C      0.021  1.058  2.922  0.000    20.226     6.403
 475   6 C      0.266  1.042  2.692  0.000    22.512     7.772
 476   8 O     -0.515  1.757  4.758  0.000    24.118     6.584
 477   6 C     -0.070  1.054  3.016  0.000    21.807     6.643
 478   6 C     -0.014  1.050  2.964  0.000    20.788     6.485
 479   6 C     -0.118  1.045  3.073  0.000    22.810     6.808
 480   6 C     -0.113  1.045  3.068  0.000    22.713     6.793
 481   1 H      0.206  0.794  0.000  0.000     1.074     1.624
 482   1 H      0.075  0.925  0.000  0.000     2.033     2.230
 483   1 H      0.061  0.939  0.000  0.000     2.182     2.310
 484   1 H      0.057  0.943  0.000  0.000     2.232     2.336
 485   1 H      0.033  0.967  0.000  0.000     2.548     2.496
 486   1 H      0.045  0.955  0.000  0.000     2.377     2.411
 487   1 H      0.046  0.954  0.000  0.000     2.371     2.408
 488   1 H      0.046  0.954  0.000  0.000     2.374     2.410
 489   1 H      0.050  0.950  0.000  0.000     2.324     2.384
 490   1 H      0.032  0.968  0.000  0.000     2.564     2.504
 491   1 H      0.044  0.956  0.000  0.000     2.402     2.424
 492   7 N     -0.158  1.241  3.917  0.000    24.420     7.339
 493   6 C      0.017  1.056  2.927  0.000    20.270     6.406
 494   6 C      0.276  1.043  2.681  0.000    22.323     7.737
 495   8 O     -0.481  1.750  4.731  0.000    23.372     6.482
 496   6 C     -0.018  1.055  2.963  0.000    20.853     6.494
 497   6 C     -0.130  1.044  3.086  0.000    23.036     6.841
 498   6 C     -0.124  1.045  3.079  0.000    22.927     6.826
 499   1 H      0.225  0.775  0.000  0.000     0.986     1.555
 500   1 H      0.070  0.930  0.000  0.000     2.088     2.260
 501   1 H      0.040  0.960  0.000  0.000     2.447     2.446
 502   1 H      0.058  0.942  0.000  0.000     2.228     2.334
 503   1 H      0.065  0.935  0.000  0.000     2.143     2.289
 504   1 H      0.047  0.953  0.000  0.000     2.361     2.403
 505   1 H      0.058  0.942  0.000  0.000     2.220     2.330
 506   1 H      0.052  0.948  0.000  0.000     2.290     2.366
 507   1 H      0.041  0.959  0.000  0.000     2.440     2.443
 508   7 N     -0.169  1.241  3.928  0.000    24.665     7.376
 509   6 C      0.022  1.057  2.921  0.000    20.209     6.402
 510   6 C      0.204  1.078  2.718  0.000    23.673     7.969
 511   8 O     -0.352  1.742  4.609  0.000    20.742     6.106
 512   6 C     -0.106  1.059  3.047  0.000    22.515     6.754
 513   6 C      0.279  1.040  2.681  0.000    22.270     7.727
 514   8 O     -0.489  1.759  4.730  0.000    23.542     6.505
 515   7 N     -0.277  1.266  4.010  0.000    27.150     7.739
 516   1 H      0.222  0.778  0.000  0.000     0.999     1.566
 517   1 H      0.115  0.885  0.000  0.000     1.658     2.014
 518   1 H      0.092  0.908  0.000  0.000     1.856     2.130
 519   1 H      0.103  0.897  0.000  0.000     1.762     2.076
 520   1 H      0.238  0.762  0.000  0.000     0.932     1.512
 521   1 H      0.231  0.769  0.000  0.000     0.963     1.537
 522   7 N     -0.393  1.323  4.071  0.000    30.187     8.160
 523   6 C     -0.012  1.037  2.975  0.000    20.804     6.497
 524   6 C      0.275  1.046  2.679  0.000    22.343     7.740
 525   8 O     -0.498  1.755  4.744  0.000    23.749     6.534
 526   6 C     -0.067  1.065  3.002  0.000    21.774     6.643
 527   6 C     -0.078  1.053  3.025  0.000    21.991     6.676
 528   6 C     -0.094  1.056  3.038  0.000    22.291     6.722
 529   6 C     -0.042  1.057  2.984  0.000    21.414     6.605
 530   7 N     -0.146  1.240  3.906  0.000    24.156     7.300
 531   1 H      0.170  0.830  0.000  0.000     1.273     1.767
 532   1 H      0.096  0.904  0.000  0.000     1.817     2.108
 533   1 H      0.033  0.967  0.000  0.000     2.549     2.497
 534   1 H      0.058  0.942  0.000  0.000     2.225     2.332
 535   1 H      0.070  0.930  0.000  0.000     2.088     2.260
 536   1 H      0.045  0.955  0.000  0.000     2.385     2.415
 537   1 H      0.075  0.925  0.000  0.000     2.033     2.230
 538   1 H      0.089  0.911  0.000  0.000     1.884     2.147
 539   1 H      0.121  0.879  0.000  0.000     1.605     1.981
 540   1 H      0.090  0.910  0.000  0.000     1.881     2.145
 541   1 H      0.304  0.696  0.000  0.000     0.702     1.312
 542   1 H      0.266  0.734  0.000  0.000     0.826     1.423
 543   1 H      0.295  0.705  0.000  0.000     0.727     1.336
 544   7 N     -0.198  1.228  3.970  0.000    25.295     7.470
 545   6 C      0.015  1.060  2.925  0.000    20.339     6.423
 546   6 C      0.272  1.044  2.684  0.000    22.400     7.753
 547   8 O     -0.493  1.732  4.761  0.000    23.624     6.517
 548   6 C      0.078  1.038  2.885  0.000    19.499     6.327
 549   8 O     -0.465  1.721  4.744  0.000    22.162     6.355
 550   1 H      0.220  0.780  0.000  0.000     1.009     1.574
 551   1 H      0.070  0.930  0.000  0.000     2.086     2.258
 552   1 H      0.052  0.948  0.000  0.000     2.289     2.366
 553   1 H      0.050  0.950  0.000  0.000     2.319     2.381
 554   1 H      0.325  0.675  0.000  0.000     0.651     1.267
 555   7 N     -0.170  1.243  3.927  0.000    24.678     7.378
 556   6 C      0.035  1.047  2.919  0.000    19.973     6.360
 557   6 C      0.276  1.037  2.687  0.000    22.340     7.742
 558   8 O     -0.464  1.752  4.713  0.000    23.011     6.431
 559   6 C     -0.061  1.047  3.015  0.000    21.637     6.615
 560   6 C     -0.034  1.054  2.980  0.000    21.129     6.536
 561   6 C     -0.128  1.047  3.081  0.000    22.994     6.835
 562   6 C     -0.128  1.046  3.081  0.000    22.988     6.833
 563   1 H      0.225  0.775  0.000  0.000     0.986     1.555
 564   1 H      0.067  0.933  0.000  0.000     2.117     2.275
 565   1 H      0.052  0.948  0.000  0.000     2.294     2.368
 566   1 H      0.031  0.969  0.000  0.000     2.568     2.506
 567   1 H      0.059  0.941  0.000  0.000     2.207     2.323
 568   1 H      0.079  0.921  0.000  0.000     1.988     2.205
 569   1 H      0.024  0.976  0.000  0.000     2.681     2.560
 570   1 H      0.022  0.978  0.000  0.000     2.707     2.573
 571   1 H      0.047  0.953  0.000  0.000     2.357     2.401
 572   1 H      0.046  0.954  0.000  0.000     2.375     2.410
 573   1 H      0.034  0.966  0.000  0.000     2.525     2.485
 574   7 N     -0.166  1.237  3.929  0.000    24.602     7.367
 575   6 C      0.011  1.059  2.930  0.000    20.380     6.426
 576   6 C      0.273  1.044  2.682  0.000    22.379     7.747
 577   8 O     -0.483  1.752  4.731  0.000    23.415     6.488
 578   6 C     -0.023  1.058  2.964  0.000    20.937     6.507
 579   6 C     -0.117  1.041  3.076  0.000    22.783     6.804
 580   6 C     -0.124  1.040  3.083  0.000    22.918     6.824
 581   1 H      0.209  0.791  0.000  0.000     1.063     1.615
 582   1 H      0.085  0.915  0.000  0.000     1.930     2.172
 583   1 H      0.060  0.940  0.000  0.000     2.204     2.321
 584   1 H      0.067  0.933  0.000  0.000     2.116     2.275
 585   1 H      0.048  0.952  0.000  0.000     2.339     2.392
 586   1 H      0.035  0.965  0.000  0.000     2.512     2.478
 587   1 H      0.069  0.931  0.000  0.000     2.092     2.262
 588   1 H      0.043  0.957  0.000  0.000     2.414     2.430
 589   1 H      0.053  0.947  0.000  0.000     2.280     2.362
 590   7 N     -0.158  1.234  3.924  0.000    24.425     7.340
 591   6 C      0.029  1.048  2.923  0.000    20.090     6.381
 592   6 C      0.214  1.079  2.707  0.000    23.474     7.937
 593   8 O     -0.359  1.754  4.605  0.000    20.882     6.127
 594   6 C      0.071  1.036  2.893  0.000    19.586     6.336
 595   8 O     -0.486  1.729  4.757  0.000    22.598     6.417
 596   1 H      0.217  0.783  0.000  0.000     1.024     1.585
 597   1 H      0.097  0.903  0.000  0.000     1.812     2.105
 598   1 H      0.060  0.940  0.000  0.000     2.193     2.316
 599   1 H      0.059  0.941  0.000  0.000     2.208     2.323
 600   1 H      0.367  0.633  0.000  0.000     0.551     1.166
 601   7 N     -0.391  1.331  4.060  0.000    30.118     8.151
 602   6 C      0.036  1.055  2.909  0.000    19.990     6.369
 603   6 C      0.196  1.089  2.715  0.000    23.826     7.994
 604   8 O     -0.388  1.765  4.623  0.000    21.449     6.209
 605   6 C     -0.073  1.051  3.022  0.000    21.892     6.660
 606   6 C      0.000  1.078  2.922  0.000    28.021     8.683
 607   6 C     -0.044  1.080  2.964  0.000    29.094     8.846
 608   6 C     -0.044  1.086  2.957  0.000    29.088     8.845
 609   6 C     -0.060  1.070  2.989  0.000    29.483     8.904
 610   6 C     -0.081  1.078  3.003  0.000    30.021     8.985
 611   6 C      0.145  1.045  2.810  0.000    24.847     8.170
 612   8 O     -0.440  1.728  4.712  0.000    21.648     6.281
 613   1 H      0.157  0.843  0.000  0.000     1.356     1.824
 614   1 H      0.088  0.912  0.000  0.000     1.899     2.155
 615   1 H      0.047  0.953  0.000  0.000     2.363     2.404
 616   1 H      0.073  0.927  0.000  0.000     2.054     2.241
 617   1 H      0.045  0.955  0.000  0.000     2.386     2.416
 618   1 H      0.054  0.946  0.000  0.000     2.269     2.356
 619   1 H      0.048  0.952  0.000  0.000     2.341     2.393
 620   1 H      0.045  0.955  0.000  0.000     2.386     2.416
 621   1 H      0.334  0.666  0.000  0.000     0.629     1.245
 622   7 N     -0.384  1.328  4.056  0.000    29.935     8.126
 623   6 C      0.029  1.069  2.902  0.000    20.117     6.390
 624   6 C      0.359  1.029  2.612  0.000    20.913     7.484
 625   8 O     -0.651  1.767  4.884  0.000    27.412     7.020
 626   6 C     -0.052  1.050  3.002  0.000    21.502     6.601
 627   6 C      0.011  1.089  2.899  0.000    27.761     8.642
 628   6 C     -0.045  1.080  2.964  0.000    29.106     8.847
 629   6 C     -0.051  1.095  2.957  0.000    29.277     8.873
 630   6 C     -0.040  1.081  2.959  0.000    29.002     8.831
 631   6 C     -0.035  1.081  2.954  0.000    28.866     8.810
 632   6 C     -0.042  1.079  2.962  0.000    29.036     8.836
 633   8 O     -0.599  1.736  4.863  0.000    26.102     6.850
 634   1 H      0.141  0.859  0.000  0.000     1.466     1.897
 635   1 H      0.008  0.992  0.000  0.000     2.923     2.674
 636   1 H      0.007  0.993  0.000  0.000     2.933     2.678
 637   1 H      0.020  0.980  0.000  0.000     2.726     2.582
 638   1 H      0.021  0.979  0.000  0.000     2.711     2.575
 639   1 H      0.058  0.942  0.000  0.000     2.225     2.333
 640   1 H      0.037  0.963  0.000  0.000     2.484     2.465
 641   1 H      0.022  0.978  0.000  0.000     2.707     2.573
 642   1 H      0.041  0.959  0.000  0.000     2.438     2.441
 643   1 H      0.169  0.831  0.000  0.000     1.281     1.773
 644   1 H      0.173  0.827  0.000  0.000     1.253     1.753
 645   1 H      0.059  0.941  0.000  0.000     2.215     2.327
 646   1 H      0.173  0.827  0.000  0.000     1.256     1.756
 647   1 H      0.083  0.917  0.000  0.000     1.951     2.184
 648   1 H      0.186  0.814  0.000  0.000     1.179     1.700
 649   1 H      0.083  0.917  0.000  0.000     1.947     2.182
 650   1 H      0.182  0.818  0.000  0.000     1.201     1.716
 651   1 H      0.179  0.821  0.000  0.000     1.219     1.729
 652   1 H      0.076  0.924  0.000  0.000     2.025     2.225
 653   1 H      0.186  0.814  0.000  0.000     1.182     1.703
 654   1 H      0.085  0.915  0.000  0.000     1.926     2.170
 655   1 H      0.187  0.813  0.000  0.000     1.174     1.697
 656   1 H      0.077  0.923  0.000  0.000     2.014     2.219

 Mol. C6AA /au·bohr⁶  :    4094055.780547
 Mol. C8AA /au·bohr⁸  :   92296552.596806
 Mol. α(0) /au        :       3049.931642

 
molecular dipole:
                 x           y           z       tot (Debye)
 q only:       20.634       9.228     -11.894
   full:       19.985       8.068     -12.790      63.702
molecular quadrupole (traceless):
                xx          xy          yy          xz          yz          zz
 q only:     3352.431    2606.752    1987.659    4752.095    1169.364   -5340.091
  q+dip:     3535.400    2480.100    2029.067    4556.186     795.288   -5564.468
   full:     3547.392    2479.437    2028.418    4553.165     797.097   -5575.810
speedup  1.69
cpu  time for grad   36.25 s
wall time for grad   21.45 s

SCC energy    :   -1022.1337232
rep           :      12.6832892
ES            :       2.9611313
AES           :      -0.0599412
AXC           :       0.3328467
disp          :      -0.9466571
XB            :       0.0000000
fix           :       0.0000000
Gborn         :       0.0000000
Gsasa         :       0.0000000
Ghb           :       0.0000000
Gshift        :       0.0000000
Gsolv         :      -0.6300883     -395.39
Etot ala COSMO:   -1022.1337232
grad norm     :       0.7453596
total E       :   -1009.3411953
atomizationE  :     186.2873735   116897.09
(atE without considering molecular charge,
 total energy contains solvation terms)
H-L gap (eV)  :          0.7712

------------------------------------------------------------------------
 * finished run on 2019/05/05 at 22:57:03.065     
------------------------------------------------------------------------
 total:
 * wall-time:     0 d,  0 h,  0 min, 23.223 sec
 *  cpu-time:     0 d,  0 h,  0 min, 38.506 sec
 * ratio c/w:     1.658 speedup
 SCF:
 * wall-time:     0 d,  0 h,  0 min, 22.464 sec
 *  cpu-time:     0 d,  0 h,  0 min, 37.866 sec
 * ratio c/w:     1.686 speedup

