      -----------------------------------------------------------      
     |                   =====================                   |     
     |                           x T B                           |     
     |                   =====================                   |     
     |                         S. Grimme                         |     
     |          Mulliken Center for Theoretical Chemistry        |     
     |                    University of Bonn                     |     
     |                 Version 6.0.1 (SAW181210)                 |     
      -----------------------------------------------------------      

   This program is distributed in the hope that it will be useful,
   but WITHOUT ANY WARRANTY; without even the implied warranty of
   MERCHANTABILITY or FITNESS FOR A PARTICULAR PURPOSE.
   
   FOR NON-COMMERCIAL, ACADEMIA USE ONLY.
   
   Cite this work as:
   S. Grimme, C. Bannwarth, P. Shushkov, J. Comput. Theory Chem., 2017,
   13, 1989-2009.
   C. Bannwarth, S. Ehlert and S. Grimme., ChemRxiv, 2018, preprint.
   http://doi.org/10.26434/chemrxiv.7246238.v1
   
   for sTDA-xTB:
   S. Grimme and C. Bannwarth, J. Chem. Phys., 2016, 145, 054103.
   
   in the mass-spec context:
   V. Asgeirsson, C. Bauer and S. Grimme, Chem. Sci., 2017, 8, 4879.
   
   if GBSA is used:
   P. Shushkov, F. März and S. Grimme, unpublished.
   
   for ANC optimizer:
   S. Grimme, unpublished.
   Rational Function algorithm used in ANCopt:
   F. Eckert, P. Pulay, H.-J. Werner, J. Comput. Chem., 1997, 18, 1473.
   
   with help from (in alphabetical order)
   C. Bannwarth, F. Bohle, G. Brandenburg, E. Caldeweyher, M. Checinski,
   S. Dohm, S. Ehlert, S. Ehrlich, F. März, H. Neugebauer, J. Pisarek,
   P. Pracht, P. Shushkov, and S. Spicher.
   
 * started run on 2019/05/11 at 04:46:38.464     
========================================================================
 # omp threads = 2
========================================================================
number of atoms            : 327
number of electrons        : 926
charge                     : -2
spin                       : .0
first test random number   : .6319

########################################################################
# WARNING! Please study the warnings concerning your input carefully
#  - Process number higher than OMP_NUM_THREADS, I hope you know what you are doing.
########################################################################

           ------------------------------------------------- 
          |                 G F N 2 - x T B                 |
          | Geometry, Frequencies, Noncovalent interactions |
          |            JCTC 2018 parametrisation            |
           ------------------------------------------------- 
 
      method parameters     
 k(s)        :  1.8500
 k(p)        :  2.2300
 k(d)        :  2.2300
 k(f)        :  2.0000
 kEN (H0ij)  : -2.0000
 D4 a1       :  0.5200
 D4 a2       :  5.0000
 D4 s6       :  1.0000
 D4 s8       :  2.7000
 D4 s9       :  5.0000
 alphaj      :  2.0000

 Solvent             : h2o
 Using internal parameter file: .param_gbsa2_h2o
 Gsolv ref. state (COSMO-RS): gsolv [1 M gas/solution]
 temperature (mdtemp)       :    298.150000000000     
 dielectric constant        :    80.2000000000000     
 rho                        :    1.00000000000000     
 mass                       :    18.0000000000000     
 surface tension            :    15.5689454083859     
 probe radius               :   0.975313790000000     
 vdW radii scaling          :    1.00000000000000     
 Gshift (Eh)                :   1.857443126794793E-003
 c1                         :    1.55243817000000     
 soset                      :   0.130326360000000     
 HB correction              :  T

            Z     q(EN)     CN     RAES       Cart. coordinates
     1  N   5.0   -0.22    3.28    1.98    11.84535   144.31488   -15.65316
     2  C   4.0    0.03    4.38    4.34    12.99570   144.78294   -18.05939
     3  C   4.0    0.15    3.43    3.09    15.75759   145.58361   -17.92827
     4  O   6.0   -0.31    1.28    1.80    17.34152   144.66539   -19.33540
     5  C   4.0   -0.04    4.34    4.27    11.40274   146.78182   -19.31230
     6  C   4.0   -0.04    4.23    4.06     8.82821   145.62707   -19.82670
     7  C   4.0    0.24    3.10    3.02     7.86061   146.54675   -22.46763
     8  O   6.0   -0.30    1.16    1.80     6.15496   148.20257   -22.26210
     9  O   6.0   -0.29    1.13    1.80     8.77971   145.65585   -24.48638
    10  H   1.0    0.07    1.03    1.43    10.16038   145.11624   -15.21664
    11  H   1.0    0.04    1.05    1.44    13.01261   143.03061   -19.19571
    12  H   1.0    0.04    1.03    1.43    11.32684   148.43493   -18.09638
    13  H   1.0    0.07    1.03    1.43    12.31861   147.31477   -21.08911
    14  H   1.0    0.04    1.03    1.43     8.96716   143.56666   -19.90025
    15  H   1.0    0.04    1.03    1.43     7.43079   146.12838   -18.41311
    16  N   5.0   -0.14    3.47    2.06    16.31894   147.43890   -16.33070
    17  C   4.0    0.03    4.39    4.36    18.92159   148.18591   -15.89568
    18  C   4.0    0.15    3.51    3.12    20.44255   145.93677   -14.85081
    19  O   6.0   -0.31    1.40    1.80    22.46104   145.22814   -15.75197
    20  C   4.0   -0.05    4.20    3.99    19.24067   150.48283   -14.10879
    21  C   4.0   -0.05    4.11    3.83    17.95309   152.95694   -14.96347
    22  C   4.0   -0.01    4.11    3.83    19.18128   154.60992   -17.02569
    23  N   5.0   -0.14    3.33    1.99    21.73457   155.52975   -16.43562
    24  C   4.0    0.09    3.29    3.05    22.54620   157.74689   -15.44324
    25  N   5.0   -0.20    3.24    1.96    20.93478   159.49723   -14.69145
    26  N   5.0   -0.19    3.21    1.96    25.05622   158.31352   -15.32328
    27  H   1.0    0.07    1.07    1.44    14.98684   148.01348   -15.08074
    28  H   1.0    0.07    1.05    1.44    19.74721   148.63730   -17.74974
    29  H   1.0    0.03    1.03    1.43    18.45308   149.94871   -12.27775
    30  H   1.0    0.05    1.03    1.43    21.27475   150.76206   -13.89329
    31  H   1.0    0.04    1.03    1.43    16.05504   152.47601   -15.61038
    32  H   1.0    0.03    1.03    1.43    17.77535   154.12238   -13.26645
    33  H   1.0    0.06    1.02    1.43    19.33747   153.52178   -18.77316
    34  H   1.0    0.04    1.02    1.43    17.94773   156.22852   -17.35745
    35  H   1.0    0.10    1.07    1.44    23.11349   154.29373   -16.91066
    36  H   1.0    0.07    1.03    1.43    19.05084   159.24079   -14.80943
    37  H   1.0    0.07    1.02    1.43    21.43048   161.03415   -13.66680
    38  H   1.0    0.10    1.02    1.43    26.36182   156.94184   -15.52923
    39  H   1.0    0.08    1.03    1.43    25.54559   159.95619   -14.50101
    40  N   5.0   -0.15    3.50    2.08    19.48606   144.85340   -12.80409
    41  C   4.0    0.03    4.36    4.31    20.57069   142.57179   -11.72585
    42  C   4.0    0.17    3.55    3.14    21.60393   140.96577   -13.92643
    43  O   6.0   -0.30    1.26    1.80    23.70096   139.99100   -13.92803
    44  C   4.0   -0.06    4.17    3.94    18.58037   140.97796   -10.22856
    45  C   4.0   -0.05    4.09    3.78    17.06362   142.24864    -8.02222
    46  C   4.0   -0.02    4.11    3.83    14.99488   140.67254    -6.59356
    47  N   5.0   -0.15    3.37    2.01    15.69035   140.51685    -3.93068
    48  C   4.0    0.08    3.33    3.06    17.08314   138.66236    -2.86153
    49  N   5.0   -0.20    3.22    1.96    16.71512   136.21512    -3.38595
    50  N   5.0   -0.20    3.23    1.96    18.70699   139.24059    -1.01972
    51  H   1.0    0.07    1.07    1.44    17.68227   145.29129   -12.31245
    52  H   1.0    0.04    1.04    1.43    22.16312   143.08832   -10.50234
    53  H   1.0    0.04    1.03    1.43    17.24630   140.26604   -11.62696
    54  H   1.0    0.04    1.02    1.43    19.61702   139.35894    -9.48357
    55  H   1.0    0.04    1.03    1.43    18.44544   142.86881    -6.62034
    56  H   1.0    0.03    1.02    1.43    16.21882   143.96728    -8.76148
    57  H   1.0    0.03    1.02    1.43    13.15408   141.58966    -6.66773
    58  H   1.0    0.03    1.02    1.43    14.82384   138.77993    -7.39527
    59  H   1.0    0.07    1.08    1.44    16.01819   142.25163    -3.16672
    60  H   1.0    0.07    1.03    1.43    15.53886   135.70824    -4.79986
    61  H   1.0    0.07    1.03    1.43    17.93819   134.90220    -2.73913
    62  H   1.0    0.07    1.03    1.43    19.10467   141.09406    -0.67512
    63  H   1.0    0.07    1.03    1.43    19.93700   137.93911    -0.36382
    64  N   5.0   -0.14    3.56    2.12    19.95575   140.60368   -15.78009
    65  C   4.0    0.05    4.51    4.55    20.61998   139.08623   -17.91607
    66  C   4.0    0.17    3.51    3.12    22.73376   140.27699   -19.52820
    67  O   6.0   -0.30    1.42    1.80    24.83960   139.32469   -19.60702
    68  C   4.0   -0.05    4.27    4.15    18.24663   138.54771   -19.44375
    69  C   4.0   -0.03    4.19    3.99    18.97033   137.31882   -21.93211
    70  C   4.0    0.24    3.09    3.02    20.70812   134.88376   -21.64971
    71  O   6.0   -0.28    1.24    1.80    22.30504   134.80404   -19.92760
    72  O   6.0   -0.29    1.15    1.80    20.30378   133.18764   -23.27071
    73  H   1.0    0.08    1.08    1.44    18.23609   141.43863   -15.75353
    74  H   1.0    0.08    1.09    1.44    21.45625   137.32679   -17.21533
    75  H   1.0    0.04    1.02    1.43    17.00577   137.32404   -18.33888
    76  H   1.0    0.06    1.03    1.43    17.27012   140.33491   -19.79530
    77  H   1.0    0.05    1.02    1.43    17.29975   136.77984   -23.01866
    78  H   1.0    0.05    1.03    1.43    20.05929   138.64782   -23.07917
    79  N   5.0   -0.14    3.50    2.08    22.24263   142.35921   -20.86475
    80  C   4.0    0.03    4.47    4.49    24.14259   143.52767   -22.43976
    81  C   4.0    0.16    3.59    3.16    26.68252   143.57288   -21.15809
    82  O   6.0   -0.31    1.27    1.80    28.62054   143.04180   -22.31772
    83  C   4.0   -0.03    4.39    4.37    23.57216   146.33653   -22.77471
    84  C   4.0   -0.03    4.17    3.95    21.23748   146.83258   -24.37470
    85  C   4.0    0.25    3.11    3.03    20.04760   149.38833   -23.50586
    86  O   6.0   -0.28    1.16    1.80    17.75770   149.34220   -22.91902
    87  O   6.0   -0.29    1.18    1.80    21.52690   151.22710   -23.42083
    88  H   1.0    0.11    1.09    1.44    20.54365   143.23790   -20.74421
    89  H   1.0    0.04    1.04    1.44    24.29889   142.55258   -24.26475
    90  H   1.0    0.07    1.04    1.43    23.28970   147.15562   -20.90117
    91  H   1.0    0.06    1.03    1.43    25.20674   147.28861   -23.59735
    92  H   1.0    0.04    1.02    1.43    21.72120   146.96673   -26.37375
    93  H   1.0    0.06    1.03    1.43    19.81149   145.36282   -24.12972
    94  N   5.0   -0.13    3.58    2.14    26.60635   144.54588   -18.84360
    95  C   4.0    0.04    4.39    4.37    28.82585   145.01911   -17.33894
    96  C   4.0    0.16    3.46    3.10    30.31238   142.57521   -16.97908
    97  O   6.0   -0.30    1.24    1.80    32.55751   142.44605   -17.49029
    98  C   4.0   -0.04    4.27    4.13    28.11011   146.13073   -14.76995
    99  C   4.0   -0.04    4.13    3.87    29.70753   148.36725   -13.85455
   100  C   4.0    0.24    3.07    3.02    28.68745   151.03478   -14.65383
   101  O   6.0   -0.31    1.15    1.80    29.22446   152.84370   -13.21650
   102  O   6.0   -0.29    1.17    1.80    27.41984   151.14128   -16.64900
   103  H   1.0    0.12    1.13    1.45    24.91307   144.83974   -18.00135
   104  H   1.0    0.06    1.05    1.44    30.05782   146.32450   -18.38492
   105  H   1.0    0.07    1.05    1.44    26.14988   146.74741   -14.87850
   106  H   1.0    0.05    1.04    1.43    28.21660   144.62092   -13.36536
   107  H   1.0    0.04    1.02    1.43    29.82079   148.35279   -11.79661
   108  H   1.0    0.05    1.02    1.43    31.63504   148.23383   -14.58465
   109  N   5.0   -0.14    3.48    2.07    29.09077   140.60313   -15.95917
   110  C   4.0    0.04    4.36    4.31    30.28529   138.13632   -15.71173
   111  C   4.0    0.16    3.40    3.08    30.86517   136.83055   -18.25066
   112  O   6.0   -0.30    1.21    1.80    32.43904   135.13269   -18.33307
   113  C   4.0    0.04    4.13    3.86    28.60375   136.35962   -14.10243
   114  O   6.0   -0.23    2.03    1.83    26.54717   135.20759   -15.36524
   115  H   1.0    0.11    1.08    1.44    27.19804   140.67598   -15.66714
   116  H   1.0    0.05    1.05    1.44    32.09625   138.38939   -14.73103
   117  H   1.0    0.05    1.01    1.43    29.75474   134.79025   -13.40963
   118  H   1.0    0.05    1.01    1.43    27.88122   137.47386   -12.50757
   119  H   1.0    0.16    1.03    1.43    25.67782   136.42947   -16.40481
   120  N   5.0   -0.12    3.55    2.11    29.55869   137.72459   -20.21746
   121  C   4.0    0.05    4.32    4.23    29.53395   136.67354   -22.74943
   122  C   4.0    0.16    3.44    3.09    32.17176   136.97385   -23.89749
   123  O   6.0   -0.30    1.21    1.80    33.27551   135.29437   -25.06500
   124  C   4.0   -0.06    4.12    3.84    27.56783   138.00256   -24.41615
   125  H   1.0    0.13    1.16    1.45    28.07771   138.87393   -19.85788
   126  H   1.0    0.07    1.05    1.44    29.10299   134.64215   -22.67483
   127  H   1.0    0.05    1.00    1.43    27.66104   137.20854   -26.31179
   128  H   1.0    0.07    1.00    1.43    25.69136   137.65496   -23.65882
   129  H   1.0    0.07    1.03    1.43    27.94905   140.01027   -24.50006
   130  N   5.0   -0.14    3.49    2.07    33.18859   139.25290   -23.43453
   131  C   4.0    0.04    4.33    4.25    35.72757   139.81387   -24.26149
   132  C   4.0    0.15    3.35    3.06    37.81302   139.51219   -22.22590
   133  O   6.0   -0.32    1.27    1.80    40.02392   139.56513   -22.91942
   134  C   4.0   -0.07    4.08    3.77    35.85392   142.33532   -25.63802
   135  H   1.0    0.11    1.08    1.44    32.12618   140.60372   -22.59718
   136  H   1.0    0.06    1.09    1.44    36.17528   138.31495   -25.61976
   137  H   1.0    0.05    1.00    1.43    37.79540   142.72691   -26.18421
   138  H   1.0    0.04    1.00    1.43    34.65646   142.29700   -27.30586
   139  H   1.0    0.05    1.00    1.43    35.19989   143.83020   -24.38698
   140  N   5.0   -0.13    3.42    2.03    37.17246   138.97108   -19.83034
   141  C   4.0    0.04    4.33    4.25    38.97854   138.17448   -17.87543
   142  C   4.0    0.16    3.38    3.07    40.70881   135.97485   -18.67673
   143  O   6.0   -0.32    1.22    1.80    42.93837   136.05797   -18.06966
   144  C   4.0   -0.07    4.13    3.86    37.58538   137.22352   -15.52307
   145  H   1.0    0.10    1.07    1.44    35.36591   139.21423   -19.26181
   146  H   1.0    0.05    1.05    1.44    40.22867   139.75981   -17.40084
   147  H   1.0    0.04    1.00    1.43    38.93353   136.40289   -14.20786
   148  H   1.0    0.05    1.00    1.43    36.62846   138.79766   -14.61236
   149  H   1.0    0.06    1.00    1.43    36.19557   135.80573   -16.05245
   150  N   5.0   -0.14    3.48    2.06    39.41847   134.10491   -19.83525
   151  C   4.0    0.03    4.29    4.18    40.10997   131.63970   -20.89542
   152  C   4.0    0.16    3.50    3.12    41.37102   132.18916   -23.39807
   153  O   6.0   -0.30    1.37    1.80    43.65017   131.91559   -23.57865
   154  C   4.0   -0.07    4.11    3.82    37.83091   129.91555   -21.22752
   155  H   1.0    0.09    1.10    1.44    37.54969   134.47558   -20.02799
   156  H   1.0    0.08    1.06    1.44    41.52271   130.74394   -19.66254
   157  H   1.0    0.05    1.00    1.43    38.39109   128.25517   -22.29623
   158  H   1.0    0.05    1.00    1.43    37.11908   129.32653   -19.39441
   159  H   1.0    0.06    1.00    1.43    36.31014   130.87511   -22.23361
   160  N   5.0   -0.14    3.50    2.08    39.90197   133.16659   -25.20306
   161  C   4.0    0.04    4.33    4.26    40.85423   134.06259   -27.63670
   162  C   4.0    0.17    3.43    3.09    43.57723   135.12547   -27.31888
   163  O   6.0   -0.28    1.21    1.80    45.23184   134.79457   -28.89918
   164  C   4.0   -0.04    4.20    4.00    38.89269   135.96764   -28.66949
   165  C   4.0   -0.03    4.10    3.81    38.96839   136.63061   -31.49190
   166  C   4.0    0.25    3.04    3.02    38.41203   134.55711   -33.58135
   167  O   6.0   -0.29    1.16    1.80    36.94755   135.21715   -35.31368
   168  O   6.0   -0.27    1.15    1.80    39.56970   132.50139   -33.44164
   169  H   1.0    0.09    1.07    1.44    38.01579   133.29554   -24.93960
   170  H   1.0    0.08    1.05    1.44    41.02643   132.49339   -28.98896
   171  H   1.0    0.06    1.03    1.43    37.01735   135.20857   -28.24606
   172  H   1.0    0.05    1.03    1.43    39.17414   137.73310   -27.62782
   173  H   1.0    0.05    1.03    1.43    37.62264   138.15724   -31.83696
   174  H   1.0    0.05    1.02    1.43    40.86566   137.31846   -31.94909
   175  N   5.0   -0.13    3.53    2.10    43.97857   136.45379   -25.18286
   176  C   4.0    0.04    4.54    4.59    46.39719   137.53961   -24.56655
   177  C   4.0    0.15    3.64    3.19    48.21471   135.88651   -23.12348
   178  O   6.0   -0.32    1.47    1.80    50.21264   135.37648   -24.20190
   179  C   4.0   -0.02    4.32    4.23    46.17705   140.00620   -23.08944
   180  C   4.0   -0.08    4.17    3.94    48.68828   140.77583   -21.87805
   181  C   4.0   -0.07    4.14    3.88    45.25795   141.99846   -24.94566
   182  H   1.0    0.11    1.10    1.44    42.50867   136.91923   -24.05966
   183  H   1.0    0.06    1.08    1.44    47.34021   137.87854   -26.38847
   184  H   1.0    0.06    1.05    1.44    44.74670   139.74959   -21.61641
   185  H   1.0    0.03    1.00    1.43    48.57056   142.75062   -21.31341
   186  H   1.0    0.05    1.01    1.43    49.12175   139.66324   -20.21466
   187  H   1.0    0.04    1.00    1.43    50.21389   140.58646   -23.23879
   188  H   1.0    0.04    1.00    1.43    44.93842   143.79640   -23.99946
   189  H   1.0    0.04    1.00    1.43    46.62915   142.27783   -26.44761
   190  H   1.0    0.05    1.00    1.43    43.47371   141.40834   -25.77425
   191  N   5.0   -0.15    3.50    2.08    47.92094   135.37840   -20.66656
   192  C   4.0    0.04    4.42    4.41    50.00319   133.98779   -19.50649
   193  C   4.0    0.18    3.53    3.13    50.76585   131.80736   -21.31225
   194  O   6.0   -0.30    1.31    1.80    52.99186   131.18927   -21.55011
   195  C   4.0   -0.05    4.16    3.91    49.58576   133.20003   -16.74580
   196  C   4.0   -0.03    4.11    3.82    47.07540   131.87291   -16.11094
   197  C   4.0    0.25    3.04    3.02    46.43861   129.15946   -17.23517
   198  O   6.0   -0.30    1.16    1.80    48.21734   127.72738   -17.81254
   199  O   6.0   -0.30    1.17    1.80    44.13375   128.60257   -17.37236
   200  H   1.0    0.11    1.08    1.44    46.23394   135.53935   -19.78297
   201  H   1.0    0.05    1.06    1.44    51.66937   135.23844   -19.53310
   202  H   1.0    0.05    1.03    1.43    51.14913   131.95416   -16.23328
   203  H   1.0    0.04    1.03    1.43    49.67273   134.90549   -15.58371
   204  H   1.0    0.04    1.02    1.43    47.01080   131.58652   -14.06148
   205  H   1.0    0.07    1.03    1.43    45.47209   133.07265   -16.59272
   206  N   5.0   -0.12    3.58    2.14    48.92201   130.75252   -22.67841
   207  C   4.0    0.04    4.46    4.47    49.33111   128.71864   -24.46526
   208  C   4.0    0.16    3.57    3.15    51.62602   129.17078   -26.10115
   209  O   6.0   -0.31    1.25    1.80    53.13458   127.48380   -26.60197
   210  C   4.0   -0.03    4.31    4.21    47.07477   128.47372   -26.25459
   211  C   4.0   -0.03    4.19    3.97    47.40587   126.39651   -28.21543
   212  C   4.0    0.25    3.07    3.02    46.53082   127.09458   -30.98704
   213  O   6.0   -0.26    1.16    1.80    45.21083   129.02840   -31.27360
   214  O   6.0   -0.29    1.15    1.80    47.24985   125.50379   -32.60712
   215  H   1.0    0.11    1.11    1.44    47.10129   131.22833   -22.38146
   216  H   1.0    0.06    1.09    1.44    49.63764   126.98546   -23.39137
   217  H   1.0    0.06    1.03    1.43    45.37708   128.14680   -25.12796
   218  H   1.0    0.08    1.03    1.43    46.77130   130.27077   -27.22921
   219  H   1.0    0.06    1.04    1.43    49.36272   125.77922   -28.35556
   220  H   1.0    0.04    1.03    1.43    46.19711   124.79248   -27.72963
   221  N   5.0   -0.13    3.59    2.15    51.69221   131.46915   -27.07787
   222  C   4.0    0.04    4.43    4.43    53.79935   132.36661   -28.51827
   223  C   4.0    0.16    3.55    3.14    56.21181   132.15119   -26.94475
   224  O   6.0   -0.31    1.40    1.80    57.85863   130.60928   -27.49967
   225  C   4.0   -0.05    4.28    4.16    53.21535   135.04819   -29.36976
   226  C   4.0   -0.05    4.17    3.95    55.46412   136.33206   -30.65628
   227  C   4.0   -0.02    4.15    3.91    54.77695   137.99354   -32.93515
   228  N   5.0   -0.14    3.36    2.00    54.18555   136.49182   -35.19105
   229  C   4.0    0.09    3.31    3.06    54.66666   137.02761   -37.61703
   230  N   5.0   -0.20    3.24    1.96    56.23750   138.86742   -38.31115
   231  N   5.0   -0.19    3.24    1.96    53.65202   135.58529   -39.43372
   232  H   1.0    0.12    1.14    1.45    50.50550   132.81081   -26.41041
   233  H   1.0    0.06    1.05    1.44    54.06504   131.10423   -30.14582
   234  H   1.0    0.05    1.03    1.43    51.59075   134.93486   -30.63896
   235  H   1.0    0.06    1.04    1.43    52.61031   136.13678   -27.72910
   236  H   1.0    0.03    1.03    1.43    56.44272   137.52754   -29.29537
   237  H   1.0    0.05    1.03    1.43    56.80378   134.90224   -31.29455
   238  H   1.0    0.04    1.02    1.43    53.14638   139.17732   -32.46874
   239  H   1.0    0.03    1.03    1.43    56.38339   139.21218   -33.35130
   240  H   1.0    0.08    1.07    1.44    52.94403   135.07521   -34.86073
   241  H   1.0    0.07    1.03    1.43    57.12547   139.99904   -37.06115
   242  H   1.0    0.07    1.03    1.43    56.49984   139.29021   -40.14621
   243  H   1.0    0.08    1.03    1.43    52.37162   134.23492   -39.02772
   244  H   1.0    0.07    1.03    1.43    53.86579   136.01109   -41.27747
   245  N   5.0   -0.14    3.54    2.11    56.60494   133.78512   -25.07248
   246  C   4.0    0.05    4.55    4.60    59.11480   133.74530   -23.99517
   247  C   4.0    0.16    3.49    3.11    59.83163   131.15046   -22.92010
   248  O   6.0   -0.29    1.27    1.80    62.06545   130.56759   -22.71142
   249  C   4.0    0.05    4.22    4.03    59.44915   136.02903   -22.25484
   250  O   6.0   -0.25    2.17    1.85    57.16594   136.19453   -20.89255
   251  C   4.0   -0.08    4.06    3.72    59.97016   138.46499   -23.74337
   252  H   1.0    0.11    1.07    1.44    55.22328   134.76400   -24.18647
   253  H   1.0    0.05    1.07    1.44    60.45978   133.97023   -25.56596
   254  H   1.0    0.04    1.03    1.43    61.02719   135.64189   -20.95797
   255  H   1.0    0.11    1.02    1.43    57.29562   137.53559   -19.66473
   256  H   1.0    0.03    1.00    1.43    59.47111   140.08758   -22.58424
   257  H   1.0    0.03    1.00    1.43    61.95253   138.61245   -24.22747
   258  H   1.0    0.04    1.00    1.43    58.84117   138.52191   -25.45583
   259  N   5.0   -0.13    3.53    2.10    57.98936   129.51461   -22.45121
   260  C   4.0    0.04    4.48    4.51    58.61548   126.89916   -21.98396
   261  C   4.0    0.16    3.70    3.24    60.31141   125.85828   -24.04673
   262  O   6.0   -0.29    1.29    1.80    62.21865   124.62010   -23.61535
   263  C   4.0   -0.04    4.34    4.27    56.29574   125.18005   -22.08947
   264  C   4.0   -0.04    4.27    4.15    57.14094   122.42498   -22.43899
   265  C   4.0   -0.02    4.19    3.99    54.94111   120.56991   -22.38526
   266  N   5.0   -0.14    3.39    2.02    53.44292   120.62208   -24.69657
   267  C   4.0    0.09    3.33    3.06    51.11101   121.52149   -24.97432
   268  N   5.0   -0.18    3.29    1.98    50.10591   123.04132   -23.24374
   269  N   5.0   -0.19    3.24    1.97    49.70798   120.77824   -26.93412
   270  H   1.0    0.12    1.11    1.45    56.15365   130.05381   -22.38757
   271  H   1.0    0.05    1.05    1.44    59.61436   126.71347   -20.17371
   272  H   1.0    0.05    1.02    1.43    55.22414   125.38668   -20.33807
   273  H   1.0    0.07    1.05    1.44    55.10505   125.77503   -23.65991
   274  H   1.0    0.05    1.06    1.44    58.11626   122.18612   -24.22781
   275  H   1.0    0.04    1.03    1.43    58.44550   121.93392   -20.92036
   276  H   1.0    0.03    1.03    1.43    55.68213   118.65712   -22.18267
   277  H   1.0    0.04    1.03    1.43    53.73517   120.94059   -20.75479
   278  H   1.0    0.07    1.07    1.44    54.09018   119.47368   -26.07704
   279  H   1.0    0.09    1.03    1.43    51.10406   123.60963   -21.72322
   280  H   1.0    0.08    1.03    1.43    48.24415   123.42533   -23.26995
   281  H   1.0    0.07    1.03    1.43    50.29583   119.43443   -28.14454
   282  H   1.0    0.08    1.03    1.43    48.06252   121.63789   -27.34837
   283  N   5.0   -0.14    3.58    2.14    59.28629   126.01550   -26.33477
   284  C   4.0    0.04    4.38    4.35    60.71259   125.05922   -28.42957
   285  C   4.0    0.10    3.32    3.06    63.47648   125.87401   -28.19053
   286  O   6.0   -0.29    1.12    1.80    65.17331   124.32046   -28.39609
   287  C   4.0   -0.05    4.27    4.13    59.63803   125.90147   -30.96665
   288  C   4.0   -0.05    4.19    3.98    58.28495   123.75760   -32.32269
   289  C   4.0   -0.04    4.15    3.90    55.60956   123.27867   -31.34913
   290  C   4.0   -0.04    4.11    3.82    55.04895   120.47492   -30.98180
   291  N   5.0   -0.12    3.98    2.80    55.59924   118.80493   -33.18465
   292  H   1.0    0.12    1.11    1.45    57.84971   127.23021   -26.68858
   293  H   1.0    0.05    1.06    1.44    60.75656   122.98553   -28.30751
   294  H   1.0    0.06    1.03    1.43    58.37455   127.50143   -30.68139
   295  H   1.0    0.04    1.04    1.43    61.19351   126.54368   -32.15781
   296  H   1.0    0.03    1.03    1.43    58.21290   124.17423   -34.33881
   297  H   1.0    0.04    1.04    1.43    59.44314   122.06797   -32.08805
   298  H   1.0    0.06    1.03    1.43    55.32271   124.21421   -29.53460
   299  H   1.0    0.05    1.02    1.43    54.23161   124.07924   -32.65702
   300  H   1.0    0.03    1.02    1.43    56.18882   119.77229   -29.40938
   301  H   1.0    0.04    1.03    1.43    53.03616   120.31528   -30.59104
   302  H   1.0    0.04    1.02    1.43    54.89541   117.02805   -32.86851
   303  H   1.0    0.04    0.97    1.43    54.83739   119.41321   -35.00152
   304  H   1.0    0.04    1.02    1.43    57.50647   118.65791   -33.47103
   305  N   5.0   -0.22    3.22    1.96    24.12242   156.36586    -8.04286
   306  C   4.0    0.03    4.21    4.03    22.93757   154.51479    -6.45335
   307  C   4.0    0.07    3.21    3.04    23.57174   155.01060    -3.66689
   308  O   6.0   -0.32    1.11    1.80    21.93532   154.93259    -2.02280
   309  C   4.0   -0.05    4.34    4.28    23.67132   151.89225    -7.35857
   310  C   4.0   -0.02    4.17    3.94    22.65860   149.67871    -5.77941
   311  C   4.0   -0.08    4.12    3.83    22.10526   147.47062    -7.55286
   312  C   4.0   -0.08    4.08    3.76    24.46126   148.82577    -3.66296
   313  H   1.0    0.09    1.03    1.43    25.05958   155.83092    -9.61698
   314  H   1.0    0.04    1.06    1.44    20.87748   154.74486    -6.57957
   315  H   1.0    0.04    1.04    1.43    22.94874   151.70645    -9.28294
   316  H   1.0    0.04    1.03    1.43    25.72885   151.74960    -7.47288
   317  H   1.0    0.04    1.05    1.44    20.88743   150.26113    -4.87177
   318  H   1.0    0.03    1.00    1.43    21.52611   145.84491    -6.44584
   319  H   1.0    0.04    1.00    1.43    20.61397   147.95240    -8.87554
   320  H   1.0    0.04    1.00    1.43    23.80252   146.99440    -8.60969
   321  H   1.0    0.03    1.00    1.43    23.59527   147.27595    -2.62373
   322  H   1.0    0.03    1.00    1.43    26.25632   148.19867    -4.43773
   323  H   1.0    0.04    1.00    1.43    24.80506   150.34250    -2.31856
   324  H   1.0    0.08    1.08    1.44    11.56099   142.64761   -15.47454
   325  H   1.0    0.06    1.04    1.44    63.90256   127.68595   -27.86440
   326  H   1.0    0.09    1.08    1.44    22.94866   157.45212    -8.62155
   327  H   1.0    0.05    1.04    1.44    25.34799   155.40714    -3.15821

  Z AO/shell   Hii/eV     exponent
  1     Wed Apr 25 08:07:45 CEST 2018   EN: 2.200 GM2: 0.406  GM3: 0.0800  RAES: 1.40
     1s    -10.707211    1.230000
  6     Wed Apr 25 08:07:45 CEST 2018   EN: 2.550 GM2: 0.538  GM3: 0.1500  RAES: 3.00
     2s    -13.970922    2.096432
     2p    -10.063292    1.800000
  7     Wed Apr 25 08:07:45 CEST 2018   EN: 3.040 GM2: 0.461  GM3:-0.0640  RAES: 1.90
     2s    -16.686243    2.339881
     2p    -12.523956    2.014332
  8     Wed Apr 25 08:07:45 CEST 2018   EN: 3.440 GM2: 0.452  GM3:-0.0517  RAES: 1.80
     2s    -20.229985    2.439742
     2p    -15.503117    2.137023
 no old-style atom pair restraining (fixing) potential

molecular fragmentation (1/2 indicates fragments):
111111111111111111111111111111111111111111111111111111111111111111111111
111111111111111111111111111111111111111111111111111111111111111111111111
111111111111111111111111111111111111111111111111111111111111111111111111
111111111111111111111111111111111111111111111111111111111111111111111111
111111111111111122222222222222222221122
# atoms in fragment 1/2:   306    21
 fragment masses (1/2) :     2228.36      115.17
CMA distance (Bohr)    :  26.398
constraining FC (au)   :  0.0500
           ------------------------------------------------- 
          |        Self-Consistent Charge Iterations        |
           ------------------------------------------------- 

 Ncao       : 819
 Nao        : 819
 Nshell     : 491
 Nel        : 926
 T(el)      :   500.0
 intcut     :    35.0
 scfconv/Eh :  0.100E-06
   qconv/e  :  0.100E-04
 intneglect :  0.100E-08
 broydamp   :      0.400
 iter      E             dE          RMSdq      gap      omega  full diag
   1   -534.9108860 -0.534911E+03  0.487E+00    3.57       0.0  T
   2   -536.3749941 -0.146411E+01  0.224E+00    2.38       1.0  T
   3   -536.4756067 -0.100613E+00  0.128E+00    2.60       1.0  T
   4   -536.5648113 -0.892046E-01  0.286E-01    1.58       1.0  T
   5   -536.5696858 -0.487456E-02  0.150E-01    1.71       1.0  T
   6   -536.5704950 -0.809233E-03  0.530E-02    1.67       1.0  T
   7   -536.5707060 -0.210926E-03  0.237E-02    1.70       1.0  T
   8   -536.5707268 -0.208647E-04  0.946E-03    1.70       1.0  T
   9   -536.5707331 -0.627999E-05  0.386E-03    1.71       1.4  T
  10   -536.5707337 -0.553866E-06  0.130E-03    1.70       4.3  T
  11   -536.5707338 -0.127787E-06  0.557E-04    1.70       9.9  T
  12   -536.5707338 -0.174040E-07  0.242E-04    1.70      22.9  T
  13   -536.5707338 -0.227999E-08  0.995E-05    1.70      55.6  T
  14   -536.5707338 -0.539899E-09  0.384E-05    1.70     144.1  T
speedup  1.91
cpu  time for SCC   12.28 s
wall time for SCC    6.44 s

   *** convergence criteria satisfied after 14 iterations ***

          eigenvalues
 #    :         451        452        453        454        455        456        457        458
 occ. :        2.000      2.000      2.000      2.000      2.000      2.000      2.000      2.000
 eps  :       -10.367    -10.333    -10.202    -10.175    -10.041    -10.009     -9.990     -9.972
 #    :         459        460        461        462        463        464        465        466
 occ. :        2.000      2.000      2.000      2.000      2.000      0.000      0.000      0.000
 eps  :        -9.956     -9.788     -9.704     -9.673     -9.429     -7.725     -7.163     -7.072
 #    :         467        468        469        470        471        472        473        474
 occ. :        0.000      0.000      0.000      0.000      0.000      0.000      0.000      0.000
 eps  :        -6.857     -6.760     -6.728     -6.712     -6.610     -6.584     -6.537     -6.534


   #   Z            q   n(s)   n(p)   n(d)      C6AA      α(0)
   1   7 N     -0.388  1.289  4.099  0.000    30.053     8.142
   2   6 C      0.045  1.050  2.904  0.000    19.822     6.339
   3   6 C      0.272  1.046  2.682  0.000    22.396     7.750
   4   8 O     -0.525  1.760  4.765  0.000    24.333     6.614
   5   6 C     -0.038  1.045  2.993  0.000    21.230     6.557
   6   6 C     -0.087  1.067  3.020  0.000    22.151     6.700
   7   6 C      0.364  1.033  2.604  0.000    20.833     7.469
   8   8 O     -0.644  1.774  4.871  0.000    27.230     6.996
   9   8 O     -0.667  1.795  4.872  0.000    27.815     7.071
  10   1 H      0.184  0.816  0.000  0.000     1.191     1.710
  11   1 H      0.005  0.995  0.000  0.000     2.966     2.693
  12   1 H      0.053  0.947  0.000  0.000     2.283     2.363
  13   1 H      0.001  0.999  0.000  0.000     3.043     2.728
  14   1 H      0.017  0.983  0.000  0.000     2.782     2.608
  15   1 H      0.043  0.957  0.000  0.000     2.409     2.427
  16   7 N     -0.183  1.254  3.929  0.000    24.965     7.421
  17   6 C      0.028  1.058  2.914  0.000    20.108     6.386
  18   6 C      0.274  1.045  2.681  0.000    22.362     7.744
  19   8 O     -0.507  1.758  4.748  0.000    23.930     6.559
  20   6 C     -0.078  1.059  3.018  0.000    21.986     6.676
  21   6 C     -0.087  1.057  3.030  0.000    22.170     6.705
  22   6 C     -0.012  1.052  2.960  0.000    20.893     6.525
  23   7 N     -0.135  1.206  3.930  0.000    23.937     7.266
  24   6 C      0.234  1.025  2.741  0.000    23.103     7.869
  25   7 N     -0.232  1.221  4.011  0.000    26.082     7.585
  26   7 N     -0.255  1.246  4.009  0.000    26.638     7.665
  27   1 H      0.237  0.763  0.000  0.000     0.934     1.514
  28   1 H      0.046  0.954  0.000  0.000     2.366     2.405
  29   1 H      0.089  0.911  0.000  0.000     1.887     2.148
  30   1 H      0.059  0.941  0.000  0.000     2.216     2.328
  31   1 H      0.074  0.926  0.000  0.000     2.038     2.232
  32   1 H      0.103  0.897  0.000  0.000     1.754     2.071
  33   1 H      0.054  0.946  0.000  0.000     2.266     2.354
  34   1 H      0.097  0.903  0.000  0.000     1.816     2.107
  35   1 H      0.191  0.809  0.000  0.000     1.156     1.684
  36   1 H      0.254  0.746  0.000  0.000     0.869     1.461
  37   1 H      0.273  0.727  0.000  0.000     0.801     1.402
  38   1 H      0.216  0.784  0.000  0.000     1.026     1.587
  39   1 H      0.269  0.731  0.000  0.000     0.813     1.412
  40   7 N     -0.170  1.247  3.923  0.000    24.689     7.380
  41   6 C      0.005  1.074  2.921  0.000    20.505     6.449
  42   6 C      0.288  1.038  2.674  0.000    22.119     7.702
  43   8 O     -0.494  1.746  4.747  0.000    23.641     6.519
  44   6 C     -0.090  1.062  3.027  0.000    22.218     6.712
  45   6 C     -0.093  1.065  3.028  0.000    22.285     6.723
  46   6 C     -0.028  1.061  2.966  0.000    21.165     6.567
  47   7 N     -0.155  1.239  3.915  0.000    24.344     7.328
  48   6 C      0.230  1.027  2.743  0.000    23.169     7.881
  49   7 N     -0.238  1.238  4.000  0.000    26.234     7.607
  50   7 N     -0.249  1.247  4.002  0.000    26.485     7.643
  51   1 H      0.231  0.769  0.000  0.000     0.961     1.535
  52   1 H      0.103  0.897  0.000  0.000     1.755     2.072
  53   1 H      0.054  0.946  0.000  0.000     2.274     2.358
  54   1 H      0.085  0.915  0.000  0.000     1.924     2.169
  55   1 H      0.085  0.915  0.000  0.000     1.933     2.174
  56   1 H      0.074  0.926  0.000  0.000     2.046     2.237
  57   1 H      0.108  0.892  0.000  0.000     1.710     2.045
  58   1 H      0.086  0.914  0.000  0.000     1.915     2.164
  59   1 H      0.237  0.763  0.000  0.000     0.935     1.515
  60   1 H      0.244  0.756  0.000  0.000     0.906     1.491
  61   1 H      0.257  0.743  0.000  0.000     0.856     1.450
  62   1 H      0.252  0.748  0.000  0.000     0.876     1.466
  63   1 H      0.260  0.740  0.000  0.000     0.846     1.441
  64   7 N     -0.181  1.240  3.941  0.000    24.924     7.415
  65   6 C      0.038  1.053  2.909  0.000    19.928     6.355
  66   6 C      0.294  1.046  2.660  0.000    22.018     7.684
  67   8 O     -0.492  1.737  4.755  0.000    23.613     6.515
  68   6 C     -0.060  1.053  3.007  0.000    21.648     6.623
  69   6 C     -0.089  1.065  3.024  0.000    22.201     6.709
  70   6 C      0.364  1.030  2.606  0.000    20.828     7.468
  71   8 O     -0.610  1.768  4.842  0.000    26.367     6.884
  72   8 O     -0.653  1.778  4.874  0.000    27.457     7.025
  73   1 H      0.192  0.808  0.000  0.000     1.145     1.676
  74   1 H      0.098  0.902  0.000  0.000     1.805     2.101
  75   1 H      0.055  0.945  0.000  0.000     2.255     2.348
  76   1 H      0.041  0.959  0.000  0.000     2.440     2.443
  77   1 H      0.024  0.976  0.000  0.000     2.678     2.559
  78   1 H     -0.010  1.010  0.000  0.000     3.239     2.814
  79   7 N     -0.194  1.252  3.942  0.000    25.202     7.456
  80   6 C      0.043  1.051  2.906  0.000    19.851     6.343
  81   6 C      0.289  1.034  2.677  0.000    22.110     7.702
  82   8 O     -0.522  1.740  4.782  0.000    24.278     6.606
  83   6 C     -0.036  1.050  2.986  0.000    21.188     6.549
  84   6 C     -0.088  1.062  3.026  0.000    22.179     6.705
  85   6 C      0.372  1.023  2.605  0.000    20.695     7.445
  86   8 O     -0.638  1.774  4.864  0.000    27.074     6.976
  87   8 O     -0.630  1.765  4.865  0.000    26.874     6.950
  88   1 H      0.219  0.781  0.000  0.000     1.015     1.579
  89   1 H      0.036  0.964  0.000  0.000     2.507     2.476
  90   1 H      0.037  0.963  0.000  0.000     2.485     2.465
  91   1 H      0.039  0.961  0.000  0.000     2.464     2.455
  92   1 H      0.016  0.984  0.000  0.000     2.791     2.613
  93   1 H      0.011  0.989  0.000  0.000     2.876     2.652
  94   7 N     -0.202  1.256  3.946  0.000    25.384     7.483
  95   6 C      0.041  1.055  2.904  0.000    19.884     6.350
  96   6 C      0.276  1.047  2.677  0.000    22.332     7.739
  97   8 O     -0.492  1.737  4.756  0.000    23.616     6.516
  98   6 C     -0.058  1.052  3.005  0.000    21.606     6.617
  99   6 C     -0.097  1.069  3.028  0.000    22.358     6.733
 100   6 C      0.363  1.029  2.608  0.000    20.838     7.470
 101   8 O     -0.624  1.761  4.863  0.000    26.711     6.929
 102   8 O     -0.650  1.783  4.867  0.000    27.369     7.014
 103   1 H      0.231  0.769  0.000  0.000     0.963     1.537
 104   1 H      0.054  0.946  0.000  0.000     2.276     2.359
 105   1 H      0.063  0.937  0.000  0.000     2.163     2.300
 106   1 H      0.043  0.957  0.000  0.000     2.412     2.429
 107   1 H      0.045  0.955  0.000  0.000     2.386     2.416
 108   1 H      0.018  0.982  0.000  0.000     2.768     2.602
 109   7 N     -0.186  1.248  3.939  0.000    25.042     7.432
 110   6 C      0.007  1.071  2.922  0.000    20.466     6.443
 111   6 C      0.278  1.041  2.680  0.000    22.291     7.731
 112   8 O     -0.497  1.740  4.756  0.000    23.708     6.528
 113   6 C      0.066  1.044  2.890  0.000    19.694     6.359
 114   8 O     -0.459  1.711  4.748  0.000    22.033     6.337
 115   1 H      0.211  0.789  0.000  0.000     1.050     1.605
 116   1 H      0.091  0.909  0.000  0.000     1.870     2.139
 117   1 H      0.087  0.913  0.000  0.000     1.911     2.162
 118   1 H      0.077  0.923  0.000  0.000     2.010     2.217
 119   1 H      0.301  0.699  0.000  0.000     0.718     1.331
 120   7 N     -0.204  1.259  3.944  0.000    25.428     7.489
 121   6 C      0.041  1.055  2.904  0.000    19.887     6.351
 122   6 C      0.277  1.046  2.677  0.000    22.320     7.737
 123   8 O     -0.502  1.748  4.755  0.000    23.835     6.546
 124   6 C     -0.115  1.040  3.076  0.000    22.762     6.803
 125   1 H      0.235  0.765  0.000  0.000     0.945     1.523
 126   1 H      0.051  0.949  0.000  0.000     2.310     2.377
 127   1 H      0.048  0.952  0.000  0.000     2.350     2.397
 128   1 H      0.042  0.958  0.000  0.000     2.419     2.432
 129   1 H      0.076  0.924  0.000  0.000     2.024     2.225
 130   7 N     -0.179  1.244  3.935  0.000    24.881     7.408
 131   6 C      0.019  1.058  2.923  0.000    20.256     6.409
 132   6 C      0.264  1.053  2.683  0.000    22.544     7.774
 133   8 O     -0.480  1.734  4.746  0.000    23.344     6.478
 134   6 C     -0.123  1.040  3.083  0.000    22.909     6.825
 135   1 H      0.208  0.792  0.000  0.000     1.067     1.618
 136   1 H      0.086  0.914  0.000  0.000     1.923     2.169
 137   1 H      0.081  0.919  0.000  0.000     1.965     2.192
 138   1 H      0.062  0.938  0.000  0.000     2.172     2.305
 139   1 H      0.063  0.937  0.000  0.000     2.161     2.299
 140   7 N     -0.178  1.245  3.933  0.000    24.859     7.405
 141   6 C      0.022  1.067  2.911  0.000    20.210     6.403
 142   6 C      0.281  1.042  2.677  0.000    22.250     7.724
 143   8 O     -0.467  1.731  4.736  0.000    23.066     6.439
 144   6 C     -0.135  1.045  3.090  0.000    23.143     6.858
 145   1 H      0.198  0.802  0.000  0.000     1.118     1.657
 146   1 H      0.090  0.910  0.000  0.000     1.874     2.141
 147   1 H      0.084  0.916  0.000  0.000     1.940     2.178
 148   1 H      0.075  0.925  0.000  0.000     2.027     2.226
 149   1 H      0.069  0.931  0.000  0.000     2.098     2.265
 150   7 N     -0.189  1.251  3.938  0.000    25.095     7.440
 151   6 C      0.024  1.062  2.914  0.000    20.181     6.398
 152   6 C      0.281  1.036  2.683  0.000    22.240     7.723
 153   8 O     -0.485  1.735  4.750  0.000    23.452     6.493
 154   6 C     -0.128  1.043  3.086  0.000    23.021     6.841
 155   1 H      0.196  0.804  0.000  0.000     1.124     1.661
 156   1 H      0.100  0.900  0.000  0.000     1.789     2.091
 157   1 H      0.070  0.930  0.000  0.000     2.086     2.258
 158   1 H      0.084  0.916  0.000  0.000     1.935     2.175
 159   1 H      0.047  0.953  0.000  0.000     2.358     2.401
 160   7 N     -0.192  1.254  3.938  0.000    25.165     7.451
 161   6 C      0.034  1.065  2.902  0.000    20.025     6.374
 162   6 C      0.292  1.041  2.666  0.000    22.039     7.687
 163   8 O     -0.476  1.740  4.736  0.000    23.266     6.467
 164   6 C     -0.051  1.058  2.993  0.000    21.486     6.600
 165   6 C     -0.096  1.073  3.023  0.000    22.346     6.732
 166   6 C      0.368  1.029  2.603  0.000    20.755     7.455
 167   8 O     -0.641  1.769  4.872  0.000    27.161     6.987
 168   8 O     -0.639  1.780  4.859  0.000    27.102     6.980
 169   1 H      0.195  0.805  0.000  0.000     1.131     1.666
 170   1 H      0.064  0.936  0.000  0.000     2.154     2.295
 171   1 H      0.034  0.966  0.000  0.000     2.528     2.486
 172   1 H      0.041  0.959  0.000  0.000     2.436     2.441
 173   1 H      0.029  0.971  0.000  0.000     2.605     2.524
 174   1 H      0.027  0.973  0.000  0.000     2.634     2.538
 175   7 N     -0.181  1.242  3.939  0.000    24.914     7.413
 176   6 C      0.030  1.055  2.915  0.000    20.070     6.378
 177   6 C      0.279  1.048  2.673  0.000    22.282     7.732
 178   8 O     -0.484  1.724  4.760  0.000    23.436     6.491
 179   6 C     -0.019  1.060  2.959  0.000    20.875     6.498
 180   6 C     -0.128  1.043  3.086  0.000    23.020     6.841
 181   6 C     -0.119  1.042  3.077  0.000    22.823     6.810
 182   1 H      0.189  0.811  0.000  0.000     1.164     1.690
 183   1 H      0.081  0.919  0.000  0.000     1.969     2.195
 184   1 H      0.037  0.963  0.000  0.000     2.486     2.466
 185   1 H      0.072  0.928  0.000  0.000     2.064     2.247
 186   1 H      0.045  0.955  0.000  0.000     2.377     2.411
 187   1 H      0.061  0.939  0.000  0.000     2.191     2.315
 188   1 H      0.058  0.942  0.000  0.000     2.218     2.329
 189   1 H      0.060  0.940  0.000  0.000     2.203     2.321
 190   1 H      0.031  0.969  0.000  0.000     2.577     2.510
 191   7 N     -0.181  1.253  3.928  0.000    24.915     7.413
 192   6 C      0.027  1.068  2.905  0.000    20.112     6.384
 193   6 C      0.294  1.045  2.661  0.000    22.012     7.682
 194   8 O     -0.489  1.718  4.771  0.000    23.541     6.505
 195   6 C     -0.062  1.055  3.007  0.000    21.702     6.633
 196   6 C     -0.106  1.072  3.034  0.000    22.530     6.760
 197   6 C      0.362  1.034  2.604  0.000    20.851     7.472
 198   8 O     -0.624  1.759  4.865  0.000    26.721     6.931
 199   8 O     -0.658  1.782  4.876  0.000    27.593     7.043
 200   1 H      0.205  0.795  0.000  0.000     1.079     1.628
 201   1 H      0.084  0.916  0.000  0.000     1.939     2.178
 202   1 H      0.061  0.939  0.000  0.000     2.188     2.313
 203   1 H      0.060  0.940  0.000  0.000     2.196     2.317
 204   1 H      0.027  0.973  0.000  0.000     2.629     2.536
 205   1 H      0.026  0.974  0.000  0.000     2.644     2.543
 206   7 N     -0.187  1.243  3.944  0.000    25.055     7.434
 207   6 C      0.025  1.057  2.918  0.000    20.152     6.391
 208   6 C      0.280  1.036  2.684  0.000    22.266     7.728
 209   8 O     -0.474  1.710  4.763  0.000    23.212     6.459
 210   6 C     -0.044  1.045  3.000  0.000    21.359     6.578
 211   6 C     -0.108  1.074  3.034  0.000    22.559     6.763
 212   6 C      0.364  1.027  2.608  0.000    20.820     7.467
 213   8 O     -0.651  1.805  4.846  0.000    27.414     7.020
 214   8 O     -0.627  1.755  4.872  0.000    26.795     6.940
 215   1 H      0.186  0.814  0.000  0.000     1.180     1.702
 216   1 H      0.068  0.932  0.000  0.000     2.113     2.273
 217   1 H      0.010  0.990  0.000  0.000     2.894     2.660
 218   1 H      0.030  0.970  0.000  0.000     2.587     2.515
 219   1 H      0.067  0.933  0.000  0.000     2.121     2.277
 220   1 H      0.021  0.979  0.000  0.000     2.714     2.577
 221   7 N     -0.182  1.251  3.931  0.000    24.940     7.417
 222   6 C      0.024  1.059  2.918  0.000    20.178     6.396
 223   6 C      0.268  1.046  2.686  0.000    22.473     7.765
 224   8 O     -0.468  1.730  4.738  0.000    23.082     6.441
 225   6 C     -0.087  1.054  3.033  0.000    22.143     6.698
 226   6 C     -0.085  1.053  3.031  0.000    22.115     6.695
 227   6 C     -0.026  1.057  2.969  0.000    21.123     6.560
 228   7 N     -0.139  1.210  3.929  0.000    24.011     7.278
 229   6 C      0.235  1.021  2.744  0.000    23.086     7.866
 230   7 N     -0.241  1.223  4.018  0.000    26.295     7.616
 231   7 N     -0.257  1.234  4.023  0.000    26.678     7.671
 232   1 H      0.208  0.792  0.000  0.000     1.065     1.616
 233   1 H      0.086  0.914  0.000  0.000     1.923     2.169
 234   1 H      0.055  0.945  0.000  0.000     2.256     2.349
 235   1 H      0.063  0.937  0.000  0.000     2.164     2.301
 236   1 H      0.073  0.927  0.000  0.000     2.051     2.240
 237   1 H      0.083  0.917  0.000  0.000     1.952     2.185
 238   1 H      0.077  0.923  0.000  0.000     2.010     2.217
 239   1 H      0.104  0.896  0.000  0.000     1.753     2.071
 240   1 H      0.211  0.789  0.000  0.000     1.051     1.606
 241   1 H      0.250  0.750  0.000  0.000     0.884     1.473
 242   1 H      0.262  0.738  0.000  0.000     0.840     1.436
 243   1 H      0.234  0.766  0.000  0.000     0.949     1.526
 244   1 H      0.261  0.739  0.000  0.000     0.843     1.438
 245   7 N     -0.159  1.237  3.923  0.000    24.443     7.343
 246   6 C      0.017  1.065  2.918  0.000    20.276     6.408
 247   6 C      0.282  1.039  2.679  0.000    22.219     7.719
 248   8 O     -0.512  1.748  4.764  0.000    24.043     6.574
 249   6 C      0.117  1.045  2.838  0.000    18.760     6.184
 250   8 O     -0.490  1.731  4.759  0.000    22.679     6.429
 251   6 C     -0.144  1.048  3.095  0.000    23.332     6.888
 252   1 H      0.217  0.783  0.000  0.000     1.025     1.586
 253   1 H      0.091  0.909  0.000  0.000     1.868     2.138
 254   1 H      0.029  0.971  0.000  0.000     2.595     2.519
 255   1 H      0.337  0.663  0.000  0.000     0.619     1.235
 256   1 H      0.067  0.933  0.000  0.000     2.114     2.274
 257   1 H      0.068  0.932  0.000  0.000     2.103     2.268
 258   1 H      0.064  0.936  0.000  0.000     2.157     2.297
 259   7 N     -0.184  1.244  3.940  0.000    24.987     7.424
 260   6 C      0.026  1.056  2.918  0.000    20.121     6.385
 261   6 C      0.290  1.038  2.672  0.000    22.089     7.699
 262   8 O     -0.495  1.748  4.747  0.000    23.666     6.522
 263   6 C     -0.093  1.060  3.033  0.000    22.250     6.713
 264   6 C     -0.087  1.055  3.032  0.000    22.156     6.701
 265   6 C     -0.035  1.057  2.978  0.000    21.279     6.583
 266   7 N     -0.133  1.211  3.922  0.000    23.884     7.258
 267   6 C      0.232  1.020  2.748  0.000    23.129     7.874
 268   7 N     -0.232  1.221  4.011  0.000    26.084     7.585
 269   7 N     -0.246  1.226  4.020  0.000    26.417     7.633
 270   1 H      0.220  0.780  0.000  0.000     1.007     1.572
 271   1 H      0.054  0.946  0.000  0.000     2.275     2.359
 272   1 H      0.044  0.956  0.000  0.000     2.396     2.421
 273   1 H      0.082  0.918  0.000  0.000     1.956     2.187
 274   1 H      0.084  0.916  0.000  0.000     1.942     2.179
 275   1 H      0.074  0.926  0.000  0.000     2.045     2.236
 276   1 H      0.117  0.883  0.000  0.000     1.639     2.002
 277   1 H      0.074  0.926  0.000  0.000     2.039     2.233
 278   1 H      0.255  0.745  0.000  0.000     0.863     1.455
 279   1 H      0.229  0.771  0.000  0.000     0.970     1.543
 280   1 H      0.213  0.787  0.000  0.000     1.043     1.600
 281   1 H      0.268  0.732  0.000  0.000     0.816     1.415
 282   1 H      0.217  0.783  0.000  0.000     1.025     1.586
 283   7 N     -0.176  1.248  3.927  0.000    24.801     7.396
 284   6 C      0.021  1.061  2.918  0.000    20.208     6.399
 285   6 C      0.217  1.081  2.702  0.000    23.411     7.924
 286   8 O     -0.374  1.749  4.625  0.000    21.165     6.168
 287   6 C     -0.083  1.054  3.029  0.000    22.079     6.689
 288   6 C     -0.089  1.055  3.034  0.000    22.202     6.708
 289   6 C     -0.100  1.052  3.047  0.000    22.399     6.738
 290   6 C     -0.058  1.063  2.994  0.000    21.711     6.651
 291   7 N     -0.144  1.233  3.911  0.000    24.108     7.292
 292   1 H      0.232  0.768  0.000  0.000     0.956     1.531
 293   1 H      0.100  0.900  0.000  0.000     1.783     2.088
 294   1 H      0.080  0.920  0.000  0.000     1.975     2.197
 295   1 H      0.064  0.936  0.000  0.000     2.156     2.296
 296   1 H      0.078  0.922  0.000  0.000     2.004     2.214
 297   1 H      0.078  0.922  0.000  0.000     2.003     2.213
 298   1 H      0.087  0.913  0.000  0.000     1.908     2.160
 299   1 H      0.072  0.928  0.000  0.000     2.062     2.246
 300   1 H      0.123  0.877  0.000  0.000     1.589     1.971
 301   1 H      0.106  0.894  0.000  0.000     1.734     2.059
 302   1 H      0.306  0.694  0.000  0.000     0.697     1.308
 303   1 H      0.301  0.699  0.000  0.000     0.711     1.321
 304   1 H      0.295  0.705  0.000  0.000     0.727     1.336
 305   7 N     -0.384  1.297  4.086  0.000    29.921     8.124
 306   6 C      0.041  1.054  2.905  0.000    19.912     6.356
 307   6 C      0.203  1.092  2.705  0.000    23.691     7.971
 308   8 O     -0.374  1.755  4.620  0.000    21.176     6.170
 309   6 C     -0.068  1.058  3.010  0.000    21.789     6.644
 310   6 C     -0.020  1.061  2.959  0.000    20.903     6.503
 311   6 C     -0.121  1.045  3.077  0.000    22.878     6.819
 312   6 C     -0.116  1.043  3.073  0.000    22.787     6.807
 313   1 H      0.150  0.850  0.000  0.000     1.403     1.856
 314   1 H      0.054  0.946  0.000  0.000     2.273     2.357
 315   1 H      0.041  0.959  0.000  0.000     2.439     2.442
 316   1 H      0.039  0.961  0.000  0.000     2.463     2.454
 317   1 H      0.053  0.947  0.000  0.000     2.288     2.366
 318   1 H      0.063  0.937  0.000  0.000     2.166     2.302
 319   1 H      0.040  0.960  0.000  0.000     2.446     2.446
 320   1 H      0.019  0.981  0.000  0.000     2.744     2.591
 321   1 H      0.059  0.941  0.000  0.000     2.208     2.324
 322   1 H      0.033  0.967  0.000  0.000     2.545     2.495
 323   1 H      0.034  0.966  0.000  0.000     2.533     2.489
 324   1 H      0.187  0.813  0.000  0.000     1.172     1.696
 325   1 H      0.050  0.950  0.000  0.000     2.322     2.383
 326   1 H      0.189  0.811  0.000  0.000     1.165     1.690
 327   1 H      0.069  0.931  0.000  0.000     2.095     2.263

 Mol. C6AA /au·bohr⁶  :    1006408.729069
 Mol. C8AA /au·bohr⁸  :   22186062.293530
 Mol. α(0) /au        :       1489.368452

 
molecular dipole:
                 x           y           z       tot (Debye)
 q only:      -30.577    -286.027      60.558
   full:      -35.747    -284.315      60.419     744.376
molecular quadrupole (traceless):
                xx          xy          yy          xz          yz          zz
 q only:    21086.092   -7043.182  -40017.717     427.554   13241.676   18931.625
  q+dip:    20441.769   -7928.924  -39359.242     685.994   13113.701   18917.473
   full:    20438.357   -7924.605  -39357.037     685.486   13110.437   18918.680
speedup  1.91
cpu  time for grad   16.02 s
wall time for grad    8.39 s

SCC energy    :    -536.5815381
rep           :       5.8872116
ES            :       2.8789551
AES           :      -0.1913081
AXC           :       0.1332653
disp          :      -0.4357632
XB            :       0.0000000
fix           :       0.0000000
Gborn         :       0.0000000
Gsasa         :       0.0000000
Ghb           :       0.0000000
Gshift        :       0.0000000
Gsolv         :      -1.1495248     -721.34
Etot ala COSMO:    -536.5815381
grad norm     :       0.3365144
total E       :    -530.6600782
atomizationE  :      93.2679757    58526.54
(atE without considering molecular charge,
 total energy contains solvation terms)
H-L gap (eV)  :          1.7039

------------------------------------------------------------------------
 * finished run on 2019/05/11 at 04:46:47.346     
------------------------------------------------------------------------
 total:
 * wall-time:     0 d,  0 h,  0 min,  8.880 sec
 *  cpu-time:     0 d,  0 h,  0 min, 16.725 sec
 * ratio c/w:     1.883 speedup
 SCF:
 * wall-time:     0 d,  0 h,  0 min,  8.652 sec
 *  cpu-time:     0 d,  0 h,  0 min, 16.524 sec
 * ratio c/w:     1.910 speedup

