      -----------------------------------------------------------      
     |                   =====================                   |     
     |                           x T B                           |     
     |                   =====================                   |     
     |                         S. Grimme                         |     
     |          Mulliken Center for Theoretical Chemistry        |     
     |                    University of Bonn                     |     
     |                 Version 6.0.1 (SAW181210)                 |     
      -----------------------------------------------------------      

   This program is distributed in the hope that it will be useful,
   but WITHOUT ANY WARRANTY; without even the implied warranty of
   MERCHANTABILITY or FITNESS FOR A PARTICULAR PURPOSE.
   
   FOR NON-COMMERCIAL, ACADEMIA USE ONLY.
   
   Cite this work as:
   S. Grimme, C. Bannwarth, P. Shushkov, J. Comput. Theory Chem., 2017,
   13, 1989-2009.
   C. Bannwarth, S. Ehlert and S. Grimme., ChemRxiv, 2018, preprint.
   http://doi.org/10.26434/chemrxiv.7246238.v1
   
   for sTDA-xTB:
   S. Grimme and C. Bannwarth, J. Chem. Phys., 2016, 145, 054103.
   
   in the mass-spec context:
   V. Asgeirsson, C. Bauer and S. Grimme, Chem. Sci., 2017, 8, 4879.
   
   if GBSA is used:
   P. Shushkov, F. März and S. Grimme, unpublished.
   
   for ANC optimizer:
   S. Grimme, unpublished.
   Rational Function algorithm used in ANCopt:
   F. Eckert, P. Pulay, H.-J. Werner, J. Comput. Chem., 1997, 18, 1473.
   
   with help from (in alphabetical order)
   C. Bannwarth, F. Bohle, G. Brandenburg, E. Caldeweyher, M. Checinski,
   S. Dohm, S. Ehlert, S. Ehrlich, F. März, H. Neugebauer, J. Pisarek,
   P. Pracht, P. Shushkov, and S. Spicher.
   
 * started run on 2019/05/12 at 12:15:07.722     
========================================================================
 # omp threads = 2
========================================================================
number of atoms            : 408
number of electrons        : 1090
charge                     : 2
spin                       : .0
first test random number   : .3190

########################################################################
# WARNING! Please study the warnings concerning your input carefully
#  - Process number higher than OMP_NUM_THREADS, I hope you know what you are doing.
########################################################################

           ------------------------------------------------- 
          |                 G F N 2 - x T B                 |
          | Geometry, Frequencies, Noncovalent interactions |
          |            JCTC 2018 parametrisation            |
           ------------------------------------------------- 
 
      method parameters     
 k(s)        :  1.8500
 k(p)        :  2.2300
 k(d)        :  2.2300
 k(f)        :  2.0000
 kEN (H0ij)  : -2.0000
 D4 a1       :  0.5200
 D4 a2       :  5.0000
 D4 s6       :  1.0000
 D4 s8       :  2.7000
 D4 s9       :  5.0000
 alphaj      :  2.0000

 Solvent             : h2o
 Using internal parameter file: .param_gbsa2_h2o
 Gsolv ref. state (COSMO-RS): gsolv [1 M gas/solution]
 temperature (mdtemp)       :    298.150000000000     
 dielectric constant        :    80.2000000000000     
 rho                        :    1.00000000000000     
 mass                       :    18.0000000000000     
 surface tension            :    15.5689454083859     
 probe radius               :   0.975313790000000     
 vdW radii scaling          :    1.00000000000000     
 Gshift (Eh)                :   1.857443126794793E-003
 c1                         :    1.55243817000000     
 soset                      :   0.130326360000000     
 HB correction              :  T

            Z     q(EN)     CN     RAES       Cart. coordinates
     1  N   5.0   -0.19    3.17    1.95    52.00712    58.15177   143.49789
     2  C   4.0    0.03    4.21    4.02    50.92529    60.47197   144.62123
     3  C   4.0    0.16    3.43    3.09    50.31732    62.29368   142.38444
     4  O   6.0   -0.29    1.28    1.80    51.52437    64.14443   141.83831
     5  C   4.0    0.05    4.08    3.76    52.53966    61.68950   146.81192
     6  O   6.0   -0.23    2.07    1.83    54.64217    63.13121   146.05137
     7  H   1.0    0.10    1.03    1.43    50.77054    56.72331   143.33989
     8  H   1.0    0.05    1.05    1.44    49.13954    59.92728   145.50693
     9  H   1.0    0.05    1.02    1.43    51.29880    62.94991   147.84133
    10  H   1.0    0.06    1.02    1.43    53.16501    60.15227   148.00764
    11  H   1.0    0.14    1.02    1.43    55.70271    61.99466   145.03361
    12  N   5.0   -0.14    3.50    2.08    48.30858    61.50306   140.99956
    13  C   4.0    0.04    4.56    4.62    47.44506    63.24984   139.05163
    14  C   4.0    0.18    3.48    3.11    46.78786    65.74141   140.34254
    15  O   6.0   -0.29    1.34    1.80    45.75725    65.75517   142.16298
    16  C   4.0   -0.02    4.23    4.06    45.28307    62.14500   137.44846
    17  C   4.0   -0.07    4.08    3.76    46.27723    60.08841   135.61787
    18  C   4.0   -0.06    4.12    3.84    43.15532    61.14619   139.09944
    19  H   1.0    0.08    1.07    1.44    47.04044    60.32514   141.71352
    20  H   1.0    0.05    1.05    1.44    49.09153    63.56055   137.77630
    21  H   1.0    0.04    1.06    1.44    44.56135    63.69468   136.30509
    22  H   1.0    0.05    1.01    1.43    44.75359    59.30994   134.53893
    23  H   1.0    0.05    1.00    1.43    47.69485    60.86368   134.36023
    24  H   1.0    0.05    0.99    1.43    47.16540    58.55463   136.70988
    25  H   1.0    0.05    0.99    1.43    41.45823    60.86881   137.92957
    26  H   1.0    0.05    1.00    1.43    43.61796    59.28763   139.88544
    27  H   1.0    0.06    1.01    1.43    42.69972    62.44579   140.57973
    28  N   5.0   -0.13    3.49    2.07    47.70295    67.79820   139.20659
    29  C   4.0    0.04    4.39    4.36    48.08480    70.19954   140.44527
    30  C   4.0    0.16    3.52    3.12    45.56246    71.21488   141.49128
    31  O   6.0   -0.28    1.28    1.80    43.58633    71.00982   140.24846
    32  C   4.0   -0.04    4.24    4.09    49.25350    72.11835   138.59404
    33  C   4.0   -0.04    4.14    3.87    51.27494    73.89332   139.65599
    34  C   4.0   -0.00    4.16    3.92    53.68178    72.52985   140.57602
    35  N   5.0   -0.14    3.37    2.01    53.74589    72.30989   143.35439
    36  C   4.0    0.10    3.31    3.06    54.23711    70.24806   144.75843
    37  N   5.0   -0.16    3.26    1.97    54.62175    68.01754   143.74381
    38  N   5.0   -0.18    3.24    1.96    54.31891    70.49717   147.29667
    39  H   1.0    0.07    1.07    1.44    48.61443    67.59572   137.51525
    40  H   1.0    0.05    1.06    1.44    49.37863    69.86831   142.04760
    41  H   1.0    0.05    1.04    1.43    50.11732    71.07858   137.05056
    42  H   1.0    0.06    1.03    1.43    47.72960    73.27222   137.80640
    43  H   1.0    0.05    1.04    1.43    51.82313    75.14623   138.13377
    44  H   1.0    0.06    1.02    1.43    50.51256    75.10101   141.15656
    45  H   1.0    0.05    1.03    1.43    53.81319    70.67376   139.74619
    46  H   1.0    0.06    1.03    1.43    55.32736    73.62629   140.03771
    47  H   1.0    0.09    1.07    1.44    53.64474    73.98950   144.25671
    48  H   1.0    0.10    1.03    1.43    54.20794    67.65679   141.88765
    49  H   1.0    0.12    1.07    1.44    54.67955    66.43032   144.81175
    50  H   1.0    0.09    1.03    1.43    54.33842    72.20218   148.10280
    51  H   1.0    0.10    1.04    1.43    54.81205    68.98668   148.31256
    52  N   5.0   -0.09    3.65    2.21    45.62892    72.42760   143.69201
    53  C   4.0    0.04    4.67    4.73    43.38300    73.41478   144.86457
    54  C   4.0    0.17    3.50    3.11    41.64104    74.65890   143.02852
    55  O   6.0   -0.32    1.34    1.80    42.31187    76.17205   141.57288
    56  C   4.0   -0.04    4.38    4.34    44.39654    75.30126   146.77786
    57  C   4.0   -0.04    4.25    4.09    46.68006    73.84311   147.86521
    58  C   4.0   -0.01    4.36    4.31    47.76472    72.59692   145.48982
    59  H   1.0    0.06    1.04    1.43    42.34815    71.86153   145.87727
    60  H   1.0    0.05    1.04    1.43    45.04102    76.98063   145.82623
    61  H   1.0    0.05    1.02    1.43    43.02458    75.75847   148.25145
    62  H   1.0    0.05    1.02    1.43    48.04607    75.07099   148.77118
    63  H   1.0    0.05    1.02    1.43    46.02117    72.43389   149.20921
    64  H   1.0    0.05    1.03    1.43    49.23382    73.77422   144.67157
    65  H   1.0    0.05    1.01    1.43    48.53045    70.70375   145.92545
    66  N   5.0   -0.14    3.51    2.09    39.21723    74.06748   143.39689
    67  C   4.0    0.03    4.39    4.37    37.15289    75.13647   141.92924
    68  C   4.0    0.16    3.40    3.08    36.75322    77.99621   142.40794
    69  O   6.0   -0.30    1.25    1.80    35.71409    79.32893   140.96112
    70  C   4.0   -0.03    4.33    4.26    34.77440    73.60798   142.50613
    71  C   4.0   -0.01    3.57    3.15    32.48247    74.37887   141.01841
    72  C   4.0   -0.03    3.48    3.11    30.68440    75.99474   142.08922
    73  C   4.0   -0.05    3.46    3.10    32.06572    73.33066   138.69017
    74  C   4.0   -0.04    3.37    3.07    28.47877    76.50807   140.89291
    75  C   4.0   -0.04    3.38    3.07    29.80228    73.85350   137.44086
    76  C   4.0   -0.04    3.38    3.07    28.01091    75.43440   138.55546
    77  H   1.0    0.11    1.10    1.44    38.71259    72.83068   144.86178
    78  H   1.0    0.05    1.07    1.44    37.60323    74.94878   139.94935
    79  H   1.0    0.04    1.03    1.43    35.20449    71.61556   142.17202
    80  H   1.0    0.05    1.01    1.43    34.37261    73.75676   144.57214
    81  H   1.0    0.05    1.03    1.43    30.99152    76.68814   144.00034
    82  H   1.0    0.05    1.04    1.43    33.40135    72.06759   137.85279
    83  H   1.0    0.05    1.04    1.43    27.08771    77.72114   141.73327
    84  H   1.0    0.05    1.03    1.43    29.41089    73.04338   135.61185
    85  H   1.0    0.05    1.02    1.43    26.27896    75.86100   137.53808
    86  N   5.0   -0.14    3.48    2.07    37.76556    78.89182   144.59474
    87  C   4.0    0.03    4.38    4.35    37.93099    81.60817   145.01387
    88  C   4.0    0.16    3.39    3.08    39.56186    82.91758   142.96603
    89  O   6.0   -0.29    1.24    1.80    39.10961    85.07513   142.32364
    90  C   4.0   -0.05    4.23    4.07    39.06461    82.16606   147.66139
    91  C   4.0   -0.05    4.15    3.90    37.19314    82.04072   149.85941
    92  C   4.0   -0.05    4.16    3.91    35.45689    84.38288   149.96596
    93  C   4.0   -0.03    4.10    3.81    33.89924    84.39155   152.39816
    94  N   5.0   -0.11    4.02    2.92    32.48915    86.82778   152.68904
    95  H   1.0    0.08    1.07    1.44    38.44892    77.71276   145.93218
    96  H   1.0    0.06    1.06    1.44    36.06395    82.45636   144.86791
    97  H   1.0    0.04    1.03    1.43    40.59579    80.81986   147.98978
    98  H   1.0    0.05    1.03    1.43    39.90876    84.05153   147.59847
    99  H   1.0    0.05    1.03    1.43    36.07582    80.32454   149.76915
   100  H   1.0    0.05    1.03    1.43    38.29494    81.96072   151.60071
   101  H   1.0    0.05    1.03    1.43    36.65605    86.05599   149.95560
   102  H   1.0    0.05    1.04    1.43    34.19597    84.39781   148.36838
   103  H   1.0    0.05    1.02    1.43    32.54075    82.84102   152.40511
   104  H   1.0    0.05    1.01    1.43    35.12182    84.14493   154.06267
   105  H   1.0    0.11    1.11    1.45    31.11680    86.70919   154.25717
   106  H   1.0    0.07    1.02    1.43    33.68947    88.27362   153.10535
   107  H   1.0    0.08    1.04    1.43    31.40681    87.20249   151.18449
   108  N   5.0   -0.14    3.48    2.07    41.54095    81.57381   142.10828
   109  C   4.0    0.04    4.40    4.39    43.33093    82.52440   140.26110
   110  C   4.0    0.16    3.44    3.09    42.59014    81.94416   137.54303
   111  O   6.0   -0.28    1.24    1.80    43.19958    83.33045   135.87188
   112  C   4.0   -0.03    4.29    4.18    45.99070    81.39699   140.68261
   113  C   4.0   -0.03    4.21    4.02    47.31681    82.47551   143.01581
   114  C   4.0    0.16    3.22    3.04    49.95654    81.37440   143.21120
   115  O   6.0   -0.30    1.21    1.80    50.34478    79.09729   143.20417
   116  N   5.0   -0.18    3.18    1.95    51.82625    83.07703   143.37583
   117  H   1.0    0.10    1.09    1.44    41.75880    79.71831   142.58524
   118  H   1.0    0.07    1.06    1.44    43.38525    84.57670   140.44527
   119  H   1.0    0.07    1.03    1.43    45.82200    79.35044   140.87225
   120  H   1.0    0.06    1.04    1.43    47.11759    81.83457   139.03042
   121  H   1.0    0.05    1.03    1.43    47.38666    84.52994   142.90519
   122  H   1.0    0.05    1.02    1.43    46.25256    81.96113   144.72786
   123  H   1.0    0.10    1.03    1.43    51.49616    84.93388   143.40744
   124  H   1.0    0.11    1.03    1.43    53.61790    82.45561   143.53198
   125  N   5.0   -0.14    3.48    2.07    41.24249    79.80156   137.20225
   126  C   4.0    0.04    4.36    4.32    40.38337    78.94521   134.73400
   127  C   4.0    0.15    3.43    3.09    38.41876    80.70958   133.50124
   128  O   6.0   -0.32    1.30    1.80    37.40733    80.02092   131.52645
   129  C   4.0   -0.04    4.29    4.18    39.08155    76.35091   134.96606
   130  C   4.0   -0.04    4.12    3.85    40.81074    74.04704   135.29633
   131  C   4.0   -0.01    4.15    3.89    39.31635    71.55339   135.09361
   132  N   5.0   -0.14    3.33    1.99    40.18902    69.93741   132.96108
   133  C   4.0    0.10    3.31    3.05    39.78927    70.24395   130.42848
   134  N   5.0   -0.18    3.23    1.96    40.41229    68.32760   128.84329
   135  N   5.0   -0.18    3.22    1.96    38.73109    72.29118   129.45787
   136  H   1.0    0.10    1.09    1.44    41.11522    78.53470   138.63436
   137  H   1.0    0.06    1.05    1.44    42.00375    78.86094   133.44060
   138  H   1.0    0.05    1.03    1.43    37.74916    76.45557   136.52147
   139  H   1.0    0.05    1.04    1.44    37.97729    76.13853   133.22036
   140  H   1.0    0.05    1.01    1.43    42.30137    74.13048   133.80723
   141  H   1.0    0.07    1.04    1.43    41.76193    74.10645   137.07957
   142  H   1.0    0.05    1.05    1.44    39.58012    70.47973   136.73025
   143  H   1.0    0.04    1.03    1.43    37.32463    71.96855   134.74653
   144  H   1.0    0.08    1.07    1.44    41.12762    68.37822   133.46256
   145  H   1.0    0.09    1.03    1.43    41.03503    66.68704   129.52662
   146  H   1.0    0.10    1.04    1.43    40.14847    68.53072   127.00900
   147  H   1.0    0.08    1.03    1.43    38.73682    73.91736   130.52194
   148  H   1.0    0.10    1.04    1.43    38.59697    72.47226   127.60435
   149  N   5.0   -0.12    3.51    2.08    37.82360    82.82290   134.69913
   150  C   4.0    0.04    4.39    4.36    35.79118    84.46451   133.92149
   151  C   4.0    0.16    3.54    3.13    36.19456    87.13121   134.94009
   152  O   6.0   -0.30    1.39    1.80    35.67617    87.58389   137.19835
   153  C   4.0   -0.04    4.36    4.31    33.33169    83.59964   135.16800
   154  C   4.0   -0.04    4.21    4.02    32.44641    80.96791   134.52029
   155  C   4.0   -0.05    4.18    3.96    31.12457    80.75128   132.01722
   156  C   4.0   -0.03    4.11    3.82    30.67330    78.00177   131.30084
   157  N   5.0   -0.12    3.99    2.85    33.03228    77.00134   129.92264
   158  H   1.0    0.11    1.10    1.44    38.62891    83.22928   136.38013
   159  H   1.0    0.05    1.04    1.43    35.70412    84.45991   131.84021
   160  H   1.0    0.06    1.05    1.44    33.69205    83.68446   137.18419
   161  H   1.0    0.04    1.03    1.43    31.87848    84.97965   134.66444
   162  H   1.0    0.06    1.04    1.43    34.04410    79.66123   134.63904
   163  H   1.0    0.04    1.03    1.43    31.12416    80.35323   135.99997
   164  H   1.0    0.04    1.03    1.43    29.31022    81.72127   132.06168
   165  H   1.0    0.05    1.02    1.43    32.25157    81.67830   130.52671
   166  H   1.0    0.04    1.03    1.43    30.32832    76.90759   132.98974
   167  H   1.0    0.06    1.02    1.43    29.06709    77.78980   130.03456
   168  H   1.0    0.07    1.03    1.43    32.87701    77.34660   128.07124
   169  H   1.0    0.09    1.05    1.44    34.60985    77.97016   130.62849
   170  H   1.0    0.06    1.01    1.43    33.18288    75.08517   130.26030
   171  N   5.0   -0.13    3.45    2.05    36.87811    89.04875   133.35549
   172  C   4.0    0.05    4.34    4.27    36.65704    91.57131   134.42902
   173  C   4.0    0.10    3.31    3.06    33.91406    91.72720   135.43131
   174  O   6.0   -0.31    1.22    1.80    32.21194    90.66666   134.26284
   175  C   4.0    0.04    4.12    3.84    37.11758    93.61847   132.36853
   176  O   6.0   -0.22    2.01    1.83    39.58123    93.28069   131.57444
   177  H   1.0    0.09    1.06    1.44    37.46335    88.80737   131.61962
   178  H   1.0    0.07    1.04    1.43    38.00806    91.82800   135.98566
   179  H   1.0    0.05    1.02    1.43    35.76326    93.36062   130.87385
   180  H   1.0    0.05    1.00    1.43    36.80117    95.46165   133.30435
   181  H   1.0    0.13    0.95    1.42    40.07343    94.83405   130.46201
   182  N   5.0   -0.19    3.25    1.97    28.52137    91.39143   130.68551
   183  C   4.0    0.03    4.37    4.32    28.12085    89.08883   129.22101
   184  C   4.0    0.15    3.41    3.08    26.16138    87.38099   130.52642
   185  O   6.0   -0.28    1.22    1.80    24.40478    86.35886   129.41804
   186  C   4.0   -0.02    4.31    4.22    30.62940    87.65890   128.79060
   187  C   4.0   -0.04    4.18    3.95    32.84756    89.32651   127.91193
   188  C   4.0   -0.07    4.11    3.83    30.16425    85.46557   126.93193
   189  C   4.0   -0.06    4.01    3.64    32.50319    90.56744   125.34563
   190  H   1.0    0.11    1.07    1.44    30.18875    91.57373   131.55674
   191  H   1.0    0.06    1.05    1.44    27.27307    89.62223   127.39100
   192  H   1.0    0.05    1.06    1.44    31.16453    86.88748   130.63814
   193  H   1.0    0.05    1.04    1.43    33.16552    90.77025   129.30245
   194  H   1.0    0.05    1.04    1.43    34.49255    88.10532   127.80649
   195  H   1.0    0.05    1.00    1.43    31.93058    84.48985   126.58888
   196  H   1.0    0.06    1.00    1.43    28.77501    84.15567   127.70441
   197  H   1.0    0.05    1.01    1.43    29.43782    86.18194   125.17013
   198  H   1.0    0.06    1.00    1.43    34.10057    91.76657   124.91696
   199  H   1.0    0.05    0.99    1.43    32.34987    89.16723   123.82677
   200  H   1.0    0.05    0.99    1.43    30.79485    91.73487   125.28431
   201  N   5.0   -0.15    3.45    2.05    26.65827    86.93668   132.97943
   202  C   4.0    0.04    4.31    4.21    25.00783    85.32832   134.43471
   203  C   4.0    0.09    3.21    3.04    22.58227    86.64209   135.34541
   204  O   6.0   -0.28    1.13    1.80    20.59921    85.45330   135.70464
   205  C   4.0   -0.05    4.24    4.09    26.42214    84.14479   136.69831
   206  C   4.0   -0.04    4.18    3.95    26.88766    85.91350   138.95941
   207  C   4.0   -0.01    4.21    4.02    29.65074    85.72347   139.82924
   208  N   5.0   -0.13    3.39    2.01    29.89889    86.87021   142.32217
   209  C   4.0    0.10    3.34    3.06    32.12767    87.33192   143.44984
   210  N   5.0   -0.17    3.26    1.97    34.30263    87.15035   142.25504
   211  N   5.0   -0.18    3.23    1.96    32.05517    87.86054   145.98814
   212  H   1.0    0.09    1.07    1.44    27.87819    88.06435   133.92755
   213  H   1.0    0.06    1.06    1.44    24.38461    83.80508   133.17937
   214  H   1.0    0.04    1.03    1.43    25.27797    82.53804   137.32490
   215  H   1.0    0.04    1.04    1.44    28.19895    83.43954   135.99588
   216  H   1.0    0.05    1.03    1.43    26.49092    87.86902   138.44778
   217  H   1.0    0.05    1.03    1.43    25.63807    85.42756   140.51423
   218  H   1.0    0.05    1.03    1.43    30.21047    83.74905   139.94401
   219  H   1.0    0.06    1.03    1.43    30.83953    86.74288   138.50059
   220  H   1.0    0.08    1.07    1.44    28.34927    86.90628   143.45725
   221  H   1.0    0.13    1.07    1.44    34.45199    86.98248   140.35810
   222  H   1.0    0.11    1.05    1.44    35.93862    87.41767   143.19514
   223  H   1.0    0.09    1.04    1.43    30.31970    87.99465   146.75102
   224  H   1.0    0.09    1.03    1.43    33.46155    88.86989   146.71319
   225  N   5.0   -0.17    3.21    1.96    17.37699    84.61890   131.69636
   226  C   4.0    0.04    4.19    3.99    16.64184    81.97441   132.08317
   227  C   4.0    0.10    3.18    3.03    14.89142    81.70704   134.37756
   228  O   6.0   -0.25    1.10    1.80    13.09644    80.19753   134.39710
   229  C   4.0   -0.03    4.27    4.13    19.04295    80.36439   132.36193
   230  C   4.0   -0.02    4.16    3.93    18.53548    77.57664   131.96936
   231  C   4.0    0.25    3.08    3.02    21.00372    76.04682   131.35803
   232  O   6.0   -0.30    1.24    1.80    20.63519    73.85579   130.61663
   233  O   6.0   -0.30    1.17    1.80    23.12284    77.10703   131.61800
   234  H   1.0    0.11    1.03    1.43    19.24079    84.95574   131.49380
   235  H   1.0    0.06    1.04    1.43    15.56130    81.35774   130.39349
   236  H   1.0    0.06    1.03    1.43    20.37627    80.98158   130.89197
   237  H   1.0    0.06    1.03    1.43    19.87039    80.73402   134.18407
   238  H   1.0    0.06    1.02    1.43    17.63816    76.76585   133.64069
   239  H   1.0    0.07    1.02    1.43    17.26924    77.26316   130.36493
   240  N   5.0   -0.19    3.27    1.97    22.49687    70.24911   150.42667
   241  C   4.0    0.03    4.36    4.30    24.92131    69.57982   149.36710
   242  C   4.0    0.10    3.27    3.05    26.31062    68.15726   151.48391
   243  O   6.0   -0.29    1.16    1.80    26.62831    69.02169   153.46284
   244  C   4.0   -0.02    4.30    4.21    26.39712    71.92094   148.64127
   245  C   4.0   -0.07    4.16    3.91    29.10647    71.26479   148.04716
   246  C   4.0   -0.08    4.13    3.87    25.16681    73.19909   146.41235
   247  H   1.0    0.10    1.03    1.43    22.48448    71.26196   152.00869
   248  H   1.0    0.06    1.06    1.44    24.60085    68.36553   147.72451
   249  H   1.0    0.05    1.06    1.44    26.34498    73.25183   150.22973
   250  H   1.0    0.04    1.00    1.43    30.13198    72.92070   147.33896
   251  H   1.0    0.05    1.01    1.43    30.08913    70.60947   149.72337
   252  H   1.0    0.04    1.00    1.43    29.21231    69.80250   146.60849
   253  H   1.0    0.04    1.00    1.43    25.96030    75.05702   146.02798
   254  H   1.0    0.04    0.99    1.43    25.43292    72.06206   144.67345
   255  H   1.0    0.04    1.00    1.43    23.13299    73.42919   146.67060
   256  N   5.0   -0.18    3.25    1.97    33.12264    64.58411   152.76883
   257  C   4.0    0.03    4.21    4.02    35.72305    64.46181   151.90729
   258  C   4.0    0.10    3.23    3.04    37.24179    63.02083   153.91435
   259  O   6.0   -0.26    1.15    1.80    37.03008    63.42911   156.09516
   260  C   4.0   -0.04    4.27    4.13    36.92012    67.08172   151.64329
   261  C   4.0   -0.03    4.17    3.95    35.19458    69.05928   150.45022
   262  C   4.0    0.24    3.09    3.02    36.79406    71.24866   149.25813
   263  O   6.0   -0.33    1.24    1.80    38.10412    70.75113   147.48967
   264  O   6.0   -0.30    1.13    1.80    36.50776    73.48876   150.30625
   265  H   1.0    0.11    1.03    1.43    32.74880    65.41376   154.41264
   266  H   1.0    0.05    1.04    1.43    35.69579    63.50325   150.06350
   267  H   1.0    0.06    1.03    1.43    37.48622    67.75618   153.51291
   268  H   1.0    0.06    1.03    1.43    38.63002    66.91058   150.48495
   269  H   1.0    0.04    1.02    1.43    34.17516    68.18547   148.85414
   270  H   1.0    0.05    1.03    1.43    33.85760    69.78415   151.79814
   271  N   5.0   -0.14    3.41    2.03    48.35764    65.38217   157.06323
   272  C   4.0    0.03    4.35    4.30    50.47685    65.24786   155.29334
   273  C   4.0    0.09    3.17    3.03    52.53250    63.41287   156.20394
   274  O   6.0   -0.25    1.11    1.80    53.64892    62.03833   154.64256
   275  C   4.0   -0.04    4.29    4.19    51.41108    68.00395   155.03886
   276  C   4.0   -0.03    4.25    4.09    50.06830    69.43692   157.17571
   277  C   4.0   -0.01    4.34    4.26    47.58572    68.00287   157.46104
   278  H   1.0    0.05    1.06    1.44    49.85636    64.50454   153.48884
   279  H   1.0    0.06    1.01    1.43    53.48604    68.12292   155.19033
   280  H   1.0    0.04    1.03    1.43    50.88674    68.74378   153.20801
   281  H   1.0    0.06    1.02    1.43    51.16225    69.31517   158.91404
   282  H   1.0    0.05    1.02    1.43    49.79206    71.41091   156.69859
   283  H   1.0    0.06    1.03    1.43    46.76848    68.28596   159.28940
   284  H   1.0    0.04    1.02    1.43    46.25456    68.52929   155.97267
   285  N   5.0   -0.18    3.23    1.96    27.29487    60.43947   140.91664
   286  C   4.0    0.04    4.37    4.33    27.99841    62.42298   142.51402
   287  C   4.0    0.13    3.45    3.09    25.75399    64.01329   143.26332
   288  O   6.0   -0.30    1.20    1.80    25.85280    65.35339   145.39736
   289  C   4.0    0.05    4.18    3.96    30.14794    64.11523   141.38530
   290  O   6.0   -0.25    2.10    1.84    32.20971    62.42782   140.84390
   291  C   4.0   -0.07    4.07    3.75    31.06524    66.18960   143.12711
   292  H   1.0    0.08    0.99    1.43    27.45123    61.15841   138.96237
   293  H   1.0    0.06    1.05    1.44    28.87090    61.65233   144.26211
   294  H   1.0    0.04    1.02    1.43    29.38325    65.09152   139.67169
   295  H   1.0    0.12    1.01    1.43    33.81981    63.31192   140.72266
   296  H   1.0    0.04    0.99    1.43    32.71642    67.25155   142.44982
   297  H   1.0    0.05    1.00    1.43    29.60957    67.59198   143.48972
   298  H   1.0    0.05    1.00    1.43    31.62217    65.44799   144.95287
   299  N   5.0   -0.13    3.54    2.11    23.89905    64.22293   141.72201
   300  C   4.0    0.04    4.31    4.22    21.62295    65.63375   142.11235
   301  C   4.0    0.10    3.20    3.04    19.43659    63.75891   142.41902
   302  O   6.0   -0.26    1.17    1.80    19.21215    62.10013   141.02508
   303  C   4.0   -0.04    4.25    4.09    21.21799    67.58995   139.91144
   304  C   4.0   -0.04    4.21    4.01    22.04982    66.61549   137.44768
   305  C   4.0   -0.05    4.14    3.87    21.20513    68.34389   135.28225
   306  C   4.0   -0.03    4.06    3.73    21.91675    67.17008   132.61114
   307  N   5.0   -0.11    3.97    2.78    20.67403    68.55041   130.46115
   308  H   1.0    0.10    1.11    1.45    23.81128    62.89118   140.36213
   309  H   1.0    0.05    1.03    1.43    21.85828    66.72835   143.92231
   310  H   1.0    0.05    1.03    1.43    19.19893    68.03411   139.92386
   311  H   1.0    0.04    1.03    1.43    22.24733    69.29904   140.38385
   312  H   1.0    0.04    1.03    1.43    24.11409    66.44246   137.39228
   313  H   1.0    0.06    1.02    1.43    21.24682    64.69042   137.13988
   314  H   1.0    0.05    1.03    1.43    19.16182    68.55536   135.32676
   315  H   1.0    0.05    1.04    1.43    22.04620    70.15734   135.45782
   316  H   1.0    0.05    1.01    1.43    23.98126    67.36219   132.41126
   317  H   1.0    0.05    1.03    1.43    21.41995    65.21884   132.50044
   318  H   1.0    0.08    1.03    1.43    21.39713    68.06670   128.80304
   319  H   1.0    0.08    1.03    1.43    18.78829    68.50459   130.58052
   320  H   1.0    0.10    1.03    1.43    21.08730    70.59658   130.70211
   321  N   5.0   -0.16    3.23    1.96    20.45355    86.04336   157.35476
   322  C   4.0    0.04    4.30    4.19    22.51871    87.66909   156.57751
   323  C   4.0    0.16    3.38    3.07    21.53083    90.14701   155.41401
   324  O   6.0   -0.23    1.20    1.80    19.25500    90.76399   155.32444
   325  C   4.0   -0.02    4.27    4.15    24.15084    86.25319   154.66572
   326  C   4.0    0.23    3.15    3.03    26.87754    87.27951   154.20327
   327  O   6.0   -0.30    1.31    1.80    28.54678    86.63503   155.78280
   328  O   6.0   -0.31    1.18    1.80    27.35135    88.54731   152.23774
   329  H   1.0    0.13    1.07    1.44    19.91557    84.76797   156.03965
   330  H   1.0    0.07    1.06    1.44    23.61756    88.19584   158.23226
   331  H   1.0    0.06    1.03    1.43    24.37274    84.31269   155.36844
   332  H   1.0    0.06    1.02    1.43    23.16720    86.17195   152.84393
   333  N   5.0   -0.13    3.51    2.08    23.41357    91.58319   154.50176
   334  C   4.0    0.05    4.27    4.14    23.06038    94.04424   153.25582
   335  C   4.0    0.11    3.25    3.04    21.45134    93.55580   150.93029
   336  O   6.0   -0.23    1.12    1.80    19.57113    94.73361   150.45552
   337  C   4.0   -0.03    4.19    3.98    25.59850    95.31495   152.47486
   338  C   4.0   -0.02    4.14    3.88    27.87665    94.66677   154.16403
   339  C   4.0    0.26    3.05    3.02    27.51070    94.95147   157.15287
   340  O   6.0   -0.24    1.15    1.80    25.76902    96.30722   158.02125
   341  O   6.0   -0.24    1.16    1.80    29.11506    93.75987   158.42569
   342  H   1.0    0.10    1.12    1.45    25.21839    91.09826   154.86234
   343  H   1.0    0.09    1.05    1.44    22.01009    95.28121   154.54017
   344  H   1.0    0.06    1.04    1.43    26.03993    94.71891   150.57620
   345  H   1.0    0.07    1.03    1.43    25.25448    97.32395   152.52528
   346  H   1.0    0.07    1.03    1.43    28.49738    92.73569   153.86235
   347  H   1.0    0.06    1.03    1.43    29.40335    95.93033   153.68227
   348  N   5.0   -0.17    3.23    1.96    18.21015    82.58676   148.79872
   349  C   4.0    0.03    4.23    4.07    18.93844    80.11242   149.70397
   350  C   4.0    0.08    3.22    3.04    19.37317    80.09994   152.54114
   351  O   6.0   -0.29    1.16    1.80    20.01345    82.09122   153.72367
   352  C   4.0   -0.04    4.36    4.30    21.39936    79.30632   148.46527
   353  C   4.0   -0.02    3.55    3.14    21.13219    78.65291   145.69591
   354  C   4.0   -0.04    3.47    3.10    19.44448    76.82812   144.91415
   355  C   4.0   -0.04    3.46    3.10    22.67990    79.79232   143.91752
   356  C   4.0   -0.03    3.37    3.07    19.28876    76.15715   142.34264
   357  C   4.0   -0.04    3.39    3.07    22.51636    79.16522   141.41137
   358  C   4.0   -0.04    3.36    3.07    20.81470    77.31201   140.58812
   359  H   1.0    0.09    1.03    1.43    19.63835    83.80018   148.43180
   360  H   1.0    0.05    1.05    1.44    17.38539    78.78515   149.31601
   361  H   1.0    0.05    1.04    1.43    22.75680    80.81630   148.67774
   362  H   1.0    0.04    1.02    1.43    22.13364    77.62175   149.45556
   363  H   1.0    0.05    1.03    1.43    18.29030    75.85753   146.28380
   364  H   1.0    0.05    1.03    1.43    23.97500    81.26242   144.52918
   365  H   1.0    0.06    1.03    1.43    17.99266    74.71033   141.74838
   366  H   1.0    0.05    1.03    1.43    23.65919    80.13705   140.01382
   367  H   1.0    0.05    1.03    1.43    20.68357    76.86036   138.61899
   368  N   5.0   -0.18    3.19    1.95    24.56865    76.34636   156.64670
   369  C   4.0    0.04    4.18    3.96    26.86284    74.82924   156.26927
   370  C   4.0    0.11    3.18    3.03    27.48427    73.28803   158.71397
   371  O   6.0   -0.25    1.14    1.80    27.33010    74.18873   160.74531
   372  C   4.0   -0.03    4.29    4.18    29.18035    76.50629   155.71833
   373  C   4.0   -0.02    3.52    3.12    29.24276    77.64831   153.06635
   374  C   4.0   -0.04    3.45    3.10    27.53911    79.53031   152.27333
   375  C   4.0   -0.04    3.46    3.10    31.17386    76.93472   151.42507
   376  C   4.0   -0.04    3.41    3.08    27.80930    80.77033   150.05312
   377  C   4.0   -0.05    3.43    3.09    31.45179    78.11379   149.14722
   378  C   4.0    0.06    3.45    3.10    29.83109    80.07225   148.44934
   379  O   6.0   -0.25    2.10    1.84    30.16142    81.38503   146.23834
   380  H   1.0    0.10    1.03    1.43    24.80737    77.96100   157.59421
   381  H   1.0    0.05    1.04    1.44    26.51219    73.51335   154.71260
   382  H   1.0    0.06    1.03    1.43    29.17345    78.03509   157.10605
   383  H   1.0    0.05    1.04    1.43    30.86455    75.38581   155.95335
   384  H   1.0    0.06    1.03    1.43    26.03475    80.12838   153.54637
   385  H   1.0    0.07    1.04    1.43    32.49090    75.49935   151.95552
   386  H   1.0    0.06    1.04    1.43    26.61959    82.29351   149.50113
   387  H   1.0    0.05    1.03    1.43    32.97175    77.55758   147.90437
   388  H   1.0    0.12    1.03    1.43    31.52347    80.65954   145.26802
   389  H   1.0    0.11    1.08    1.44    52.58205    58.49294   141.93405
   390  H   1.0    0.06    1.04    1.43    33.54047    92.68506   137.01686
   391  H   1.0    0.10    1.07    1.44    28.38931    92.74445   129.66351
   392  H   1.0    0.07    1.04    1.43    22.57904    88.50485   135.66352
   393  H   1.0    0.11    1.07    1.44    16.63881    85.21257   130.28384
   394  H   1.0    0.08    1.04    1.44    15.18095    82.76639   135.91543
   395  H   1.0    0.09    1.08    1.44    21.62006    71.17267   149.29937
   396  H   1.0    0.07    1.05    1.44    26.97800    66.41692   151.17268
   397  H   1.0    0.09    1.08    1.44    32.18870    65.44148   151.63515
   398  H   1.0    0.06    1.05    1.44    38.46544    61.67938   153.39065
   399  H   1.0    0.09    1.17    1.46    46.92885    64.90180   156.27561
   400  H   1.0    0.07    1.04    1.43    52.97219    63.32204   158.03956
   401  H   1.0    0.11    1.08    1.44    28.33715    59.11770   141.15982
   402  H   1.0    0.07    1.05    1.44    18.19961    63.97276   143.83154
   403  H   1.0    0.11    1.07    1.44    20.91146    85.16576   158.73776
   404  H   1.0    0.07    1.05    1.44    21.94240    92.19960   149.70937
   405  H   1.0    0.10    1.07    1.44    17.34337    82.42670   147.34420
   406  H   1.0    0.06    1.04    1.43    19.15673    78.49999   153.52317
   407  H   1.0    0.09    1.07    1.44    23.91370    76.77077   155.13558
   408  H   1.0    0.07    1.05    1.44    28.03074    71.48400   158.58023

  Z AO/shell   Hii/eV     exponent
  1     Wed Apr 25 08:07:45 CEST 2018   EN: 2.200 GM2: 0.406  GM3: 0.0800  RAES: 1.40
     1s    -10.707211    1.230000
  6     Wed Apr 25 08:07:45 CEST 2018   EN: 2.550 GM2: 0.538  GM3: 0.1500  RAES: 3.00
     2s    -13.970922    2.096432
     2p    -10.063292    1.800000
  7     Wed Apr 25 08:07:45 CEST 2018   EN: 3.040 GM2: 0.461  GM3:-0.0640  RAES: 1.90
     2s    -16.686243    2.339881
     2p    -12.523956    2.014332
  8     Wed Apr 25 08:07:45 CEST 2018   EN: 3.440 GM2: 0.452  GM3:-0.0517  RAES: 1.80
     2s    -20.229985    2.439742
     2p    -15.503117    2.137023
 no old-style atom pair restraining (fixing) potential

molecular fragmentation (1/2 indicates fragments):
111111111111111111111111111111111111111111111111111111111111111111111111
111111111111111111111111111111111111111111111111111111111111111111111111
111111111111111111111111111111111111122222222222222222222222222222222222
222222222222222222222222222222222222222222222222222222222222222222222222
222222222222222222222222222222222222222222222222222222222222222222222222
222222222222222222222222222211222222222222222222
# atoms in fragment 1/2:   183   225
 fragment masses (1/2) :     1220.48     1523.79
CMA distance (Bohr)    :  15.377
constraining FC (au)   :  0.0500
           ------------------------------------------------- 
          |        Self-Consistent Charge Iterations        |
           ------------------------------------------------- 

 Ncao       : 987
 Nao        : 987
 Nshell     : 601
 Nel        : 1090
 T(el)      :   500.0
 intcut     :    35.0
 scfconv/Eh :  0.100E-06
   qconv/e  :  0.100E-04
 intneglect :  0.100E-08
 broydamp   :      0.400
 iter      E             dE          RMSdq      gap      omega  full diag
   1   -623.1150546 -0.623115E+03  0.464E+00    2.78       0.0  T
   2   -624.5463847 -0.143133E+01  0.219E+00    1.76       1.0  T
   3   -624.6358349 -0.894501E-01  0.124E+00    2.01       1.0  T
   4   -624.7452935 -0.109459E+00  0.285E-01    1.31       1.0  T
   5   -624.7524637 -0.717021E-02  0.152E-01    1.46       1.0  T
   6   -624.7545350 -0.207121E-02  0.693E-02    1.37       1.0  T
   7   -624.7549824 -0.447483E-03  0.323E-02    1.36       1.0  T
   8   -624.7550844 -0.101917E-03  0.160E-02    1.35       1.0  T
   9   -624.7551117 -0.273667E-04  0.769E-03    1.34       1.0  T
  10   -624.7551172 -0.548074E-05  0.346E-03    1.34       1.4  T
  11   -624.7551183 -0.109686E-05  0.152E-03    1.33       3.3  T
  12   -624.7551185 -0.232203E-06  0.703E-04    1.33       7.0  T
  13   -624.7551186 -0.464626E-07  0.328E-04    1.33      15.1  T
  14   -624.7551186 -0.761815E-08  0.146E-04    1.33      33.9  T
  15   -624.7551186 -0.205080E-08  0.658E-05    1.33      75.3  T
  16   -624.7551186 -0.456566E-09  0.319E-05    1.33     155.1  T
speedup  1.96
cpu  time for SCC   18.66 s
wall time for SCC    9.54 s

   *** convergence criteria satisfied after 16 iterations ***

          eigenvalues
 #    :         533        534        535        536        537        538        539        540
 occ. :        2.000      2.000      2.000      2.000      2.000      2.000      2.000      2.000
 eps  :       -10.220    -10.213    -10.211    -10.180    -10.087    -10.033    -10.002     -9.988
 #    :         541        542        543        544        545        546        547        548
 occ. :        2.000      2.000      2.000      2.000      2.000      0.000      0.000      0.000
 eps  :        -9.904     -9.798     -9.703     -9.693     -9.568     -8.236     -8.076     -8.023
 #    :         549        550        551        552        553        554        555        556
 occ. :        0.000      0.000      0.000      0.000      0.000      0.000      0.000      0.000
 eps  :        -7.682     -7.647     -7.644     -7.643     -7.510     -7.394     -7.184     -6.719


   #   Z            q   n(s)   n(p)   n(d)      C6AA      α(0)
   1   7 N     -0.391  1.330  4.062  0.000    30.138     8.153
   2   6 C      0.005  1.076  2.919  0.000    20.528     6.456
   3   6 C      0.267  1.050  2.683  0.000    22.496     7.767
   4   8 O     -0.451  1.724  4.727  0.000    22.732     6.392
   5   6 C      0.065  1.040  2.895  0.000    19.728     6.367
   6   8 O     -0.454  1.710  4.744  0.000    21.921     6.320
   7   1 H      0.167  0.833  0.000  0.000     1.289     1.778
   8   1 H      0.034  0.966  0.000  0.000     2.536     2.490
   9   1 H      0.052  0.948  0.000  0.000     2.301     2.372
  10   1 H      0.047  0.953  0.000  0.000     2.361     2.403
  11   1 H      0.346  0.654  0.000  0.000     0.599     1.215
  12   7 N     -0.191  1.257  3.934  0.000    25.149     7.448
  13   6 C      0.001  1.075  2.925  0.000    20.563     6.455
  14   6 C      0.314  1.010  2.676  0.000    21.667     7.622
  15   8 O     -0.431  1.692  4.739  0.000    22.298     6.331
  16   6 C     -0.021  1.063  2.958  0.000    20.914     6.505
  17   6 C     -0.126  1.045  3.081  0.000    22.975     6.836
  18   6 C     -0.118  1.036  3.082  0.000    22.815     6.811
  19   1 H      0.194  0.806  0.000  0.000     1.138     1.671
  20   1 H      0.062  0.938  0.000  0.000     2.176     2.307
  21   1 H      0.059  0.941  0.000  0.000     2.212     2.326
  22   1 H      0.063  0.937  0.000  0.000     2.170     2.303
  23   1 H      0.053  0.947  0.000  0.000     2.286     2.364
  24   1 H      0.035  0.965  0.000  0.000     2.520     2.483
  25   1 H      0.055  0.945  0.000  0.000     2.254     2.348
  26   1 H      0.033  0.967  0.000  0.000     2.545     2.495
  27   1 H      0.049  0.951  0.000  0.000     2.338     2.391
  28   7 N     -0.207  1.249  3.957  0.000    25.495     7.499
  29   6 C      0.021  1.062  2.917  0.000    20.226     6.405
  30   6 C      0.264  1.046  2.690  0.000    22.546     7.776
  31   8 O     -0.494  1.746  4.748  0.000    23.649     6.520
  32   6 C     -0.084  1.060  3.024  0.000    22.097     6.692
  33   6 C     -0.092  1.056  3.037  0.000    22.264     6.718
  34   6 C     -0.031  1.059  2.972  0.000    21.226     6.576
  35   7 N     -0.157  1.219  3.938  0.000    24.396     7.336
  36   6 C      0.227  1.022  2.750  0.000    23.225     7.890
  37   7 N     -0.234  1.240  3.994  0.000    26.124     7.591
  38   7 N     -0.267  1.236  4.031  0.000    26.921     7.706
  39   1 H      0.205  0.795  0.000  0.000     1.080     1.628
  40   1 H      0.052  0.948  0.000  0.000     2.294     2.369
  41   1 H      0.078  0.922  0.000  0.000     1.998     2.211
  42   1 H      0.075  0.925  0.000  0.000     2.031     2.229
  43   1 H      0.085  0.915  0.000  0.000     1.932     2.174
  44   1 H      0.083  0.917  0.000  0.000     1.947     2.182
  45   1 H      0.089  0.911  0.000  0.000     1.884     2.146
  46   1 H      0.092  0.908  0.000  0.000     1.859     2.132
  47   1 H      0.226  0.774  0.000  0.000     0.985     1.554
  48   1 H      0.243  0.757  0.000  0.000     0.910     1.494
  49   1 H      0.252  0.748  0.000  0.000     0.875     1.465
  50   1 H      0.242  0.758  0.000  0.000     0.917     1.500
  51   1 H      0.236  0.764  0.000  0.000     0.941     1.520
  52   7 N     -0.081  1.233  3.848  0.000    22.816     7.094
  53   6 C      0.027  1.057  2.917  0.000    20.094     6.376
  54   6 C      0.299  1.021  2.680  0.000    21.931     7.669
  55   8 O     -0.453  1.687  4.766  0.000    22.764     6.397
  56   6 C     -0.064  1.051  3.013  0.000    21.689     6.625
  57   6 C     -0.074  1.053  3.021  0.000    21.888     6.657
  58   6 C     -0.024  1.063  2.961  0.000    21.027     6.534
  59   1 H      0.036  0.964  0.000  0.000     2.508     2.477
  60   1 H      0.069  0.931  0.000  0.000     2.092     2.262
  61   1 H      0.035  0.965  0.000  0.000     2.515     2.480
  62   1 H      0.076  0.924  0.000  0.000     2.021     2.223
  63   1 H      0.045  0.955  0.000  0.000     2.381     2.413
  64   1 H      0.093  0.907  0.000  0.000     1.850     2.127
  65   1 H      0.060  0.940  0.000  0.000     2.200     2.319
  66   7 N     -0.218  1.269  3.949  0.000    25.746     7.536
  67   6 C      0.016  1.063  2.921  0.000    20.314     6.418
  68   6 C      0.268  1.042  2.690  0.000    22.473     7.763
  69   8 O     -0.412  1.707  4.705  0.000    21.920     6.277
  70   6 C     -0.061  1.053  3.008  0.000    21.655     6.624
  71   6 C      0.008  1.077  2.915  0.000    27.826     8.653
  72   6 C     -0.034  1.076  2.957  0.000    28.843     8.808
  73   6 C     -0.048  1.078  2.970  0.000    29.198     8.861
  74   6 C     -0.032  1.075  2.957  0.000    28.804     8.801
  75   6 C     -0.044  1.087  2.958  0.000    29.099     8.846
  76   6 C     -0.036  1.086  2.951  0.000    28.905     8.817
  77   1 H      0.208  0.792  0.000  0.000     1.066     1.617
  78   1 H      0.095  0.905  0.000  0.000     1.835     2.118
  79   1 H      0.055  0.945  0.000  0.000     2.260     2.351
  80   1 H      0.016  0.984  0.000  0.000     2.797     2.616
  81   1 H      0.008  0.992  0.000  0.000     2.923     2.674
  82   1 H      0.068  0.932  0.000  0.000     2.108     2.270
  83   1 H      0.039  0.961  0.000  0.000     2.467     2.456
  84   1 H      0.075  0.925  0.000  0.000     2.030     2.228
  85   1 H      0.045  0.955  0.000  0.000     2.379     2.412
  86   7 N     -0.200  1.242  3.958  0.000    25.339     7.476
  87   6 C      0.001  1.072  2.927  0.000    20.568     6.459
  88   6 C      0.268  1.044  2.688  0.000    22.478     7.763
  89   8 O     -0.457  1.734  4.723  0.000    22.862     6.411
  90   6 C     -0.077  1.060  3.018  0.000    21.974     6.674
  91   6 C     -0.073  1.050  3.024  0.000    21.903     6.663
  92   6 C     -0.103  1.059  3.045  0.000    22.472     6.749
  93   6 C     -0.030  1.056  2.974  0.000    21.206     6.574
  94   7 N     -0.174  1.242  3.932  0.000    24.759     7.390
  95   1 H      0.176  0.824  0.000  0.000     1.235     1.741
  96   1 H      0.094  0.906  0.000  0.000     1.843     2.123
  97   1 H      0.052  0.948  0.000  0.000     2.289     2.366
  98   1 H      0.076  0.924  0.000  0.000     2.026     2.226
  99   1 H      0.053  0.947  0.000  0.000     2.281     2.362
 100   1 H      0.055  0.945  0.000  0.000     2.262     2.352
 101   1 H      0.085  0.915  0.000  0.000     1.925     2.170
 102   1 H      0.091  0.909  0.000  0.000     1.869     2.138
 103   1 H      0.080  0.920  0.000  0.000     1.979     2.200
 104   1 H      0.092  0.908  0.000  0.000     1.856     2.130
 105   1 H      0.283  0.717  0.000  0.000     0.767     1.372
 106   1 H      0.270  0.730  0.000  0.000     0.809     1.409
 107   1 H      0.265  0.735  0.000  0.000     0.828     1.425
 108   7 N     -0.184  1.245  3.939  0.000    24.994     7.425
 109   6 C      0.006  1.065  2.928  0.000    20.480     6.445
 110   6 C      0.275  1.036  2.689  0.000    22.356     7.743
 111   8 O     -0.469  1.736  4.733  0.000    23.108     6.445
 112   6 C     -0.070  1.054  3.016  0.000    21.837     6.652
 113   6 C     -0.100  1.060  3.041  0.000    22.407     6.739
 114   6 C      0.285  1.039  2.676  0.000    22.174     7.710
 115   8 O     -0.484  1.735  4.749  0.000    23.427     6.489
 116   7 N     -0.291  1.266  4.025  0.000    27.506     7.789
 117   1 H      0.205  0.795  0.000  0.000     1.079     1.627
 118   1 H      0.086  0.914  0.000  0.000     1.919     2.167
 119   1 H      0.082  0.918  0.000  0.000     1.958     2.188
 120   1 H      0.066  0.934  0.000  0.000     2.131     2.283
 121   1 H      0.057  0.943  0.000  0.000     2.234     2.337
 122   1 H      0.068  0.932  0.000  0.000     2.113     2.273
 123   1 H      0.221  0.779  0.000  0.000     1.004     1.569
 124   1 H      0.231  0.769  0.000  0.000     0.961     1.535
 125   7 N     -0.199  1.249  3.950  0.000    25.322     7.474
 126   6 C      0.006  1.067  2.927  0.000    20.486     6.446
 127   6 C      0.262  1.046  2.692  0.000    22.577     7.781
 128   8 O     -0.464  1.711  4.753  0.000    22.992     6.429
 129   6 C     -0.096  1.065  3.031  0.000    22.321     6.725
 130   6 C     -0.091  1.056  3.036  0.000    22.245     6.716
 131   6 C     -0.035  1.061  2.974  0.000    21.281     6.584
 132   7 N     -0.150  1.217  3.933  0.000    24.246     7.313
 133   6 C      0.221  1.031  2.748  0.000    23.335     7.909
 134   7 N     -0.262  1.235  4.027  0.000    26.803     7.689
 135   7 N     -0.232  1.233  3.999  0.000    26.083     7.585
 136   1 H      0.218  0.782  0.000  0.000     1.019     1.581
 137   1 H      0.094  0.906  0.000  0.000     1.838     2.120
 138   1 H      0.070  0.930  0.000  0.000     2.090     2.261
 139   1 H      0.093  0.907  0.000  0.000     1.847     2.125
 140   1 H      0.076  0.924  0.000  0.000     2.024     2.225
 141   1 H      0.070  0.930  0.000  0.000     2.090     2.261
 142   1 H      0.095  0.905  0.000  0.000     1.830     2.115
 143   1 H      0.100  0.900  0.000  0.000     1.786     2.090
 144   1 H      0.218  0.782  0.000  0.000     1.021     1.582
 145   1 H      0.240  0.760  0.000  0.000     0.922     1.504
 146   1 H      0.255  0.745  0.000  0.000     0.866     1.457
 147   1 H      0.250  0.750  0.000  0.000     0.885     1.474
 148   1 H      0.262  0.738  0.000  0.000     0.840     1.435
 149   7 N     -0.134  1.224  3.910  0.000    23.906     7.262
 150   6 C      0.012  1.061  2.926  0.000    20.378     6.428
 151   6 C      0.257  1.059  2.684  0.000    22.678     7.800
 152   8 O     -0.465  1.743  4.722  0.000    23.032     6.434
 153   6 C     -0.092  1.056  3.035  0.000    22.227     6.709
 154   6 C     -0.089  1.049  3.040  0.000    22.189     6.706
 155   6 C     -0.098  1.052  3.046  0.000    22.369     6.733
 156   6 C     -0.054  1.071  2.983  0.000    21.645     6.642
 157   7 N     -0.161  1.238  3.923  0.000    24.476     7.348
 158   1 H      0.189  0.811  0.000  0.000     1.166     1.691
 159   1 H      0.096  0.904  0.000  0.000     1.825     2.113
 160   1 H      0.084  0.916  0.000  0.000     1.943     2.180
 161   1 H      0.064  0.936  0.000  0.000     2.150     2.293
 162   1 H      0.074  0.926  0.000  0.000     2.046     2.237
 163   1 H      0.068  0.932  0.000  0.000     2.112     2.273
 164   1 H      0.070  0.930  0.000  0.000     2.085     2.258
 165   1 H      0.086  0.914  0.000  0.000     1.915     2.164
 166   1 H      0.123  0.877  0.000  0.000     1.592     1.973
 167   1 H      0.113  0.887  0.000  0.000     1.670     2.021
 168   1 H      0.294  0.706  0.000  0.000     0.730     1.339
 169   1 H      0.297  0.703  0.000  0.000     0.722     1.331
 170   1 H      0.295  0.705  0.000  0.000     0.729     1.338
 171   7 N     -0.149  1.232  3.917  0.000    24.229     7.311
 172   6 C      0.019  1.068  2.912  0.000    20.256     6.408
 173   6 C      0.193  1.093  2.714  0.000    23.872     8.002
 174   8 O     -0.350  1.741  4.610  0.000    20.715     6.102
 175   6 C      0.082  1.032  2.886  0.000    19.437     6.317
 176   8 O     -0.461  1.733  4.728  0.000    22.075     6.342
 177   1 H      0.225  0.775  0.000  0.000     0.985     1.554
 178   1 H      0.095  0.905  0.000  0.000     1.827     2.114
 179   1 H      0.047  0.953  0.000  0.000     2.356     2.400
 180   1 H      0.034  0.966  0.000  0.000     2.528     2.487
 181   1 H      0.350  0.650  0.000  0.000     0.592     1.210
 182   7 N     -0.407  1.319  4.087  0.000    30.560     8.210
 183   6 C      0.028  1.065  2.907  0.000    20.116     6.388
 184   6 C      0.271  1.052  2.677  0.000    22.417     7.753
 185   8 O     -0.509  1.762  4.747  0.000    23.992     6.567
 186   6 C     -0.036  1.074  2.962  0.000    21.174     6.545
 187   6 C     -0.064  1.048  3.016  0.000    21.717     6.635
 188   6 C     -0.125  1.042  3.083  0.000    22.959     6.832
 189   6 C     -0.104  1.033  3.071  0.000    22.557     6.774
 190   1 H      0.187  0.813  0.000  0.000     1.173     1.696
 191   1 H      0.025  0.975  0.000  0.000     2.657     2.549
 192   1 H      0.057  0.943  0.000  0.000     2.236     2.338
 193   1 H      0.041  0.959  0.000  0.000     2.438     2.441
 194   1 H      0.055  0.945  0.000  0.000     2.263     2.353
 195   1 H      0.068  0.932  0.000  0.000     2.103     2.268
 196   1 H      0.047  0.953  0.000  0.000     2.361     2.403
 197   1 H      0.035  0.965  0.000  0.000     2.510     2.477
 198   1 H      0.034  0.966  0.000  0.000     2.532     2.488
 199   1 H      0.039  0.961  0.000  0.000     2.457     2.451
 200   1 H      0.017  0.983  0.000  0.000     2.778     2.607
 201   7 N     -0.170  1.241  3.928  0.000    24.671     7.377
 202   6 C      0.021  1.057  2.921  0.000    20.225     6.404
 203   6 C      0.192  1.088  2.720  0.000    23.898     8.006
 204   8 O     -0.367  1.773  4.594  0.000    21.036     6.149
 205   6 C     -0.090  1.060  3.030  0.000    22.221     6.711
 206   6 C     -0.087  1.053  3.034  0.000    22.164     6.703
 207   6 C     -0.037  1.061  2.976  0.000    21.324     6.589
 208   7 N     -0.141  1.223  3.917  0.000    24.043     7.283
 209   6 C      0.216  1.029  2.754  0.000    23.427     7.924
 210   7 N     -0.221  1.230  3.991  0.000    25.835     7.549
 211   7 N     -0.277  1.254  4.023  0.000    27.160     7.740
 212   1 H      0.226  0.774  0.000  0.000     0.983     1.553
 213   1 H      0.100  0.900  0.000  0.000     1.787     2.091
 214   1 H      0.077  0.923  0.000  0.000     2.008     2.216
 215   1 H      0.110  0.890  0.000  0.000     1.699     2.038
 216   1 H      0.064  0.936  0.000  0.000     2.155     2.296
 217   1 H      0.061  0.939  0.000  0.000     2.183     2.311
 218   1 H      0.100  0.900  0.000  0.000     1.782     2.087
 219   1 H      0.101  0.899  0.000  0.000     1.773     2.082
 220   1 H      0.216  0.784  0.000  0.000     1.029     1.589
 221   1 H      0.269  0.731  0.000  0.000     0.815     1.414
 222   1 H      0.253  0.747  0.000  0.000     0.872     1.463
 223   1 H      0.214  0.786  0.000  0.000     1.037     1.595
 224   1 H      0.239  0.761  0.000  0.000     0.928     1.509
 225   7 N     -0.389  1.317  4.072  0.000    30.074     8.145
 226   6 C      0.046  1.063  2.891  0.000    19.826     6.344
 227   6 C      0.202  1.096  2.702  0.000    23.707     7.974
 228   8 O     -0.401  1.768  4.633  0.000    21.702     6.246
 229   6 C     -0.047  1.052  2.995  0.000    21.418     6.588
 230   6 C     -0.095  1.063  3.032  0.000    22.314     6.726
 231   6 C      0.361  1.030  2.609  0.000    20.879     7.478
 232   8 O     -0.604  1.733  4.871  0.000    26.206     6.863
 233   8 O     -0.606  1.766  4.840  0.000    26.269     6.872
 234   1 H      0.162  0.838  0.000  0.000     1.320     1.799
 235   1 H      0.030  0.970  0.000  0.000     2.587     2.515
 236   1 H      0.052  0.948  0.000  0.000     2.291     2.367
 237   1 H      0.056  0.944  0.000  0.000     2.240     2.341
 238   1 H      0.017  0.983  0.000  0.000     2.776     2.605
 239   1 H      0.016  0.984  0.000  0.000     2.793     2.614
 240   7 N     -0.391  1.311  4.079  0.000    30.114     8.150
 241   6 C      0.024  1.061  2.915  0.000    20.182     6.397
 242   6 C      0.229  1.071  2.700  0.000    23.196     7.888
 243   8 O     -0.359  1.720  4.639  0.000    20.870     6.125
 244   6 C     -0.004  1.051  2.953  0.000    20.618     6.458
 245   6 C     -0.102  1.036  3.066  0.000    22.493     6.761
 246   6 C     -0.109  1.042  3.067  0.000    22.626     6.781
 247   1 H      0.145  0.855  0.000  0.000     1.435     1.877
 248   1 H      0.083  0.917  0.000  0.000     1.948     2.183
 249   1 H      0.015  0.985  0.000  0.000     2.815     2.624
 250   1 H      0.044  0.956  0.000  0.000     2.397     2.421
 251   1 H      0.008  0.992  0.000  0.000     2.919     2.672
 252   1 H      0.050  0.950  0.000  0.000     2.324     2.384
 253   1 H      0.049  0.951  0.000  0.000     2.334     2.389
 254   1 H      0.049  0.951  0.000  0.000     2.337     2.391
 255   1 H      0.035  0.965  0.000  0.000     2.523     2.484
 256   7 N     -0.379  1.303  4.076  0.000    29.803     8.108
 257   6 C      0.035  1.061  2.904  0.000    20.010     6.372
 258   6 C      0.211  1.076  2.712  0.000    23.523     7.943
 259   8 O     -0.356  1.737  4.619  0.000    20.817     6.117
 260   6 C     -0.045  1.050  2.995  0.000    21.376     6.582
 261   6 C     -0.080  1.062  3.018  0.000    22.022     6.682
 262   6 C      0.363  1.031  2.606  0.000    20.840     7.471
 263   8 O     -0.545  1.725  4.820  0.000    24.795     6.676
 264   8 O     -0.684  1.804  4.880  0.000    28.279     7.130
 265   1 H      0.154  0.846  0.000  0.000     1.373     1.836
 266   1 H      0.057  0.943  0.000  0.000     2.234     2.337
 267   1 H      0.017  0.983  0.000  0.000     2.785     2.610
 268   1 H      0.035  0.965  0.000  0.000     2.523     2.484
 269   1 H      0.022  0.978  0.000  0.000     2.700     2.569
 270   1 H      0.007  0.993  0.000  0.000     2.938     2.680
 271   7 N     -0.317  1.355  3.961  0.000    28.142     7.879
 272   6 C      0.034  1.062  2.904  0.000    20.002     6.367
 273   6 C      0.196  1.098  2.706  0.000    23.816     7.992
 274   8 O     -0.387  1.770  4.617  0.000    21.415     6.204
 275   6 C     -0.065  1.060  3.005  0.000    21.729     6.634
 276   6 C     -0.070  1.053  3.016  0.000    21.813     6.646
 277   6 C      0.013  1.042  2.945  0.000    20.396     6.436
 278   1 H      0.049  0.951  0.000  0.000     2.336     2.390
 279   1 H      0.052  0.948  0.000  0.000     2.296     2.370
 280   1 H      0.069  0.931  0.000  0.000     2.095     2.264
 281   1 H      0.051  0.949  0.000  0.000     2.311     2.377
 282   1 H      0.057  0.943  0.000  0.000     2.233     2.337
 283   1 H      0.042  0.958  0.000  0.000     2.416     2.430
 284   1 H      0.013  0.987  0.000  0.000     2.841     2.636
 285   7 N     -0.379  1.347  4.032  0.000    29.800     8.107
 286   6 C      0.038  1.049  2.913  0.000    19.947     6.362
 287   6 C      0.235  1.064  2.700  0.000    23.071     7.866
 288   8 O     -0.586  1.805  4.781  0.000    25.772     6.806
 289   6 C      0.112  1.059  2.829  0.000    18.865     6.205
 290   8 O     -0.494  1.732  4.762  0.000    22.762     6.440
 291   6 C     -0.116  1.038  3.078  0.000    22.790     6.808
 292   1 H      0.173  0.827  0.000  0.000     1.259     1.759
 293   1 H      0.045  0.955  0.000  0.000     2.389     2.417
 294   1 H      0.037  0.963  0.000  0.000     2.492     2.469
 295   1 H      0.342  0.658  0.000  0.000     0.607     1.224
 296   1 H      0.056  0.944  0.000  0.000     2.250     2.346
 297   1 H      0.046  0.954  0.000  0.000     2.367     2.406
 298   1 H      0.027  0.973  0.000  0.000     2.629     2.536
 299   7 N     -0.110  1.220  3.890  0.000    23.401     7.185
 300   6 C      0.006  1.069  2.925  0.000    20.489     6.447
 301   6 C      0.216  1.069  2.716  0.000    23.444     7.930
 302   8 O     -0.316  1.711  4.605  0.000    20.070     6.006
 303   6 C     -0.067  1.052  3.015  0.000    21.786     6.645
 304   6 C     -0.074  1.047  3.027  0.000    21.908     6.664
 305   6 C     -0.089  1.058  3.030  0.000    22.190     6.707
 306   6 C     -0.052  1.066  2.986  0.000    21.629     6.642
 307   7 N     -0.162  1.230  3.932  0.000    24.501     7.352
 308   1 H      0.234  0.766  0.000  0.000     0.947     1.524
 309   1 H      0.076  0.924  0.000  0.000     2.027     2.227
 310   1 H      0.059  0.941  0.000  0.000     2.209     2.324
 311   1 H      0.073  0.927  0.000  0.000     2.054     2.241
 312   1 H      0.068  0.932  0.000  0.000     2.110     2.271
 313   1 H      0.061  0.939  0.000  0.000     2.190     2.315
 314   1 H      0.061  0.939  0.000  0.000     2.186     2.312
 315   1 H      0.080  0.920  0.000  0.000     1.974     2.197
 316   1 H      0.122  0.878  0.000  0.000     1.594     1.975
 317   1 H      0.114  0.886  0.000  0.000     1.665     2.018
 318   1 H      0.292  0.708  0.000  0.000     0.737     1.344
 319   1 H      0.273  0.727  0.000  0.000     0.798     1.399
 320   1 H      0.304  0.696  0.000  0.000     0.704     1.315
 321   7 N     -0.406  1.330  4.076  0.000    30.550     8.209
 322   6 C      0.055  1.049  2.896  0.000    19.667     6.316
 323   6 C      0.266  1.057  2.678  0.000    22.516     7.770
 324   8 O     -0.508  1.766  4.742  0.000    23.962     6.563
 325   6 C     -0.093  1.072  3.021  0.000    22.269     6.719
 326   6 C      0.347  1.038  2.615  0.000    21.110     7.519
 327   8 O     -0.592  1.771  4.821  0.000    25.924     6.827
 328   8 O     -0.588  1.756  4.832  0.000    25.836     6.815
 329   1 H      0.195  0.805  0.000  0.000     1.132     1.667
 330   1 H      0.009  0.991  0.000  0.000     2.900     2.663
 331   1 H      0.041  0.959  0.000  0.000     2.431     2.438
 332   1 H      0.038  0.962  0.000  0.000     2.481     2.463
 333   7 N     -0.186  1.250  3.936  0.000    25.035     7.431
 334   6 C      0.038  1.061  2.901  0.000    19.948     6.362
 335   6 C      0.213  1.080  2.707  0.000    23.485     7.937
 336   8 O     -0.356  1.741  4.614  0.000    20.814     6.117
 337   6 C     -0.063  1.056  3.007  0.000    21.708     6.634
 338   6 C     -0.106  1.071  3.034  0.000    22.526     6.759
 339   6 C      0.362  1.034  2.604  0.000    20.851     7.472
 340   8 O     -0.653  1.786  4.866  0.000    27.447     7.024
 341   8 O     -0.655  1.777  4.877  0.000    27.499     7.031
 342   1 H      0.197  0.803  0.000  0.000     1.121     1.659
 343   1 H      0.056  0.944  0.000  0.000     2.246     2.343
 344   1 H      0.074  0.926  0.000  0.000     2.042     2.235
 345   1 H      0.058  0.942  0.000  0.000     2.224     2.332
 346   1 H      0.045  0.955  0.000  0.000     2.387     2.416
 347   1 H      0.052  0.948  0.000  0.000     2.291     2.367
 348   7 N     -0.388  1.322  4.066  0.000    30.029     8.139
 349   6 C      0.052  1.050  2.898  0.000    19.725     6.326
 350   6 C      0.185  1.099  2.716  0.000    24.034     8.029
 351   8 O     -0.399  1.783  4.617  0.000    21.665     6.241
 352   6 C     -0.062  1.054  3.008  0.000    21.678     6.626
 353   6 C      0.009  1.079  2.911  0.000    27.808     8.650
 354   6 C     -0.043  1.080  2.963  0.000    29.068     8.842
 355   6 C     -0.039  1.078  2.961  0.000    28.965     8.826
 356   6 C     -0.033  1.082  2.951  0.000    28.822     8.804
 357   6 C     -0.030  1.082  2.948  0.000    28.754     8.794
 358   6 C     -0.032  1.080  2.953  0.000    28.806     8.801
 359   1 H      0.161  0.839  0.000  0.000     1.329     1.806
 360   1 H      0.064  0.936  0.000  0.000     2.153     2.295
 361   1 H      0.056  0.944  0.000  0.000     2.251     2.346
 362   1 H      0.039  0.961  0.000  0.000     2.465     2.455
 363   1 H      0.023  0.977  0.000  0.000     2.688     2.564
 364   1 H      0.045  0.955  0.000  0.000     2.377     2.411
 365   1 H      0.039  0.961  0.000  0.000     2.467     2.456
 366   1 H      0.061  0.939  0.000  0.000     2.187     2.313
 367   1 H      0.046  0.954  0.000  0.000     2.364     2.405
 368   7 N     -0.380  1.317  4.062  0.000    29.814     8.109
 369   6 C      0.037  1.065  2.898  0.000    19.981     6.369
 370   6 C      0.210  1.083  2.707  0.000    23.549     7.947
 371   8 O     -0.351  1.735  4.615  0.000    20.717     6.102
 372   6 C     -0.065  1.054  3.011  0.000    21.733     6.636
 373   6 C     -0.006  1.087  2.919  0.000    28.164     8.705
 374   6 C     -0.034  1.078  2.957  0.000    28.855     8.809
 375   6 C     -0.033  1.081  2.951  0.000    28.814     8.803
 376   6 C     -0.059  1.070  2.989  0.000    29.476     8.903
 377   6 C     -0.065  1.072  2.993  0.000    29.616     8.924
 378   6 C      0.133  1.052  2.816  0.000    25.092     8.210
 379   8 O     -0.392  1.697  4.695  0.000    20.690     6.140
 380   1 H      0.153  0.847  0.000  0.000     1.379     1.839
 381   1 H      0.056  0.944  0.000  0.000     2.247     2.344
 382   1 H      0.042  0.958  0.000  0.000     2.427     2.436
 383   1 H      0.038  0.962  0.000  0.000     2.481     2.463
 384   1 H      0.009  0.991  0.000  0.000     2.899     2.663
 385   1 H      0.041  0.959  0.000  0.000     2.442     2.443
 386   1 H      0.050  0.950  0.000  0.000     2.325     2.384
 387   1 H      0.050  0.950  0.000  0.000     2.316     2.380
 388   1 H      0.335  0.665  0.000  0.000     0.625     1.241
 389   1 H      0.184  0.816  0.000  0.000     1.193     1.711
 390   1 H      0.088  0.912  0.000  0.000     1.894     2.152
 391   1 H      0.164  0.836  0.000  0.000     1.309     1.792
 392   1 H      0.070  0.930  0.000  0.000     2.085     2.258
 393   1 H      0.176  0.824  0.000  0.000     1.236     1.742
 394   1 H      0.075  0.925  0.000  0.000     2.032     2.229
 395   1 H      0.184  0.816  0.000  0.000     1.190     1.709
 396   1 H      0.041  0.959  0.000  0.000     2.436     2.441
 397   1 H      0.171  0.829  0.000  0.000     1.265     1.762
 398   1 H      0.062  0.938  0.000  0.000     2.170     2.304
 399   1 H      0.185  0.815  0.000  0.000     1.183     1.704
 400   1 H      0.077  0.923  0.000  0.000     2.012     2.218
 401   1 H      0.196  0.804  0.000  0.000     1.127     1.663
 402   1 H      0.057  0.943  0.000  0.000     2.238     2.339
 403   1 H      0.177  0.823  0.000  0.000     1.232     1.739
 404   1 H      0.081  0.919  0.000  0.000     1.968     2.193
 405   1 H      0.189  0.811  0.000  0.000     1.161     1.688
 406   1 H      0.072  0.928  0.000  0.000     2.068     2.249
 407   1 H      0.172  0.828  0.000  0.000     1.259     1.758
 408   1 H      0.059  0.941  0.000  0.000     2.215     2.327

 Mol. C6AA /au·bohr⁶  :    1493255.413601
 Mol. C8AA /au·bohr⁸  :   33054959.296659
 Mol. α(0) /au        :       1833.825606

 
molecular dipole:
                 x           y           z       tot (Debye)
 q only:      106.798     130.253     233.877
   full:      107.583     130.257     235.639     736.976
molecular quadrupole (traceless):
                xx          xy          yy          xz          yz          zz
 q only:   -11861.566   11441.910   -7430.986   20492.798   21779.904   19292.552
  q+dip:   -12102.693   11525.655   -7681.007   20759.921   21961.176   19783.700
   full:   -12098.931   11526.559   -7678.866   20759.959   21959.167   19777.797
speedup  1.96
cpu  time for grad   22.97 s
wall time for grad   11.69 s

SCC energy    :    -624.7761889
rep           :       7.8755182
ES            :       2.1986952
AES           :      -0.1237504
AXC           :       0.2263703
disp          :      -0.4871496
XB            :       0.0000000
fix           :       0.0000000
Gborn         :       0.0000000
Gsasa         :       0.0000000
Ghb           :       0.0000000
Gshift        :       0.0000000
Gsolv         :      -0.7896980     -495.54
Etot ala COSMO:    -624.7761889
grad norm     :       0.9070167
total E       :    -616.8560404
atomizationE  :     112.2666492    70448.39
(atE without considering molecular charge,
 total energy contains solvation terms)
H-L gap (eV)  :          1.3327

------------------------------------------------------------------------
 * finished run on 2019/05/12 at 12:15:19.951     
------------------------------------------------------------------------
 total:
 * wall-time:     0 d,  0 h,  0 min, 12.227 sec
 *  cpu-time:     0 d,  0 h,  0 min, 23.871 sec
 * ratio c/w:     1.952 speedup
 SCF:
 * wall-time:     0 d,  0 h,  0 min, 11.981 sec
 *  cpu-time:     0 d,  0 h,  0 min, 23.545 sec
 * ratio c/w:     1.965 speedup

