      -----------------------------------------------------------      
     |                   =====================                   |     
     |                           x T B                           |     
     |                   =====================                   |     
     |                         S. Grimme                         |     
     |          Mulliken Center for Theoretical Chemistry        |     
     |                    University of Bonn                     |     
     |                 Version 6.0.1 (SAW181210)                 |     
      -----------------------------------------------------------      

   This program is distributed in the hope that it will be useful,
   but WITHOUT ANY WARRANTY; without even the implied warranty of
   MERCHANTABILITY or FITNESS FOR A PARTICULAR PURPOSE.
   
   FOR NON-COMMERCIAL, ACADEMIA USE ONLY.
   
   Cite this work as:
   S. Grimme, C. Bannwarth, P. Shushkov, J. Comput. Theory Chem., 2017,
   13, 1989-2009.
   C. Bannwarth, S. Ehlert and S. Grimme., ChemRxiv, 2018, preprint.
   http://doi.org/10.26434/chemrxiv.7246238.v1
   
   for sTDA-xTB:
   S. Grimme and C. Bannwarth, J. Chem. Phys., 2016, 145, 054103.
   
   in the mass-spec context:
   V. Asgeirsson, C. Bauer and S. Grimme, Chem. Sci., 2017, 8, 4879.
   
   if GBSA is used:
   P. Shushkov, F. März and S. Grimme, unpublished.
   
   for ANC optimizer:
   S. Grimme, unpublished.
   Rational Function algorithm used in ANCopt:
   F. Eckert, P. Pulay, H.-J. Werner, J. Comput. Chem., 1997, 18, 1473.
   
   with help from (in alphabetical order)
   C. Bannwarth, F. Bohle, G. Brandenburg, E. Caldeweyher, M. Checinski,
   S. Dohm, S. Ehlert, S. Ehrlich, F. März, H. Neugebauer, J. Pisarek,
   P. Pracht, P. Shushkov, and S. Spicher.
   
 * started run on 2019/05/05 at 23:27:14.927     
========================================================================
 # omp threads = 2
========================================================================
number of atoms            : 797
number of electrons        : 2172
charge                     : -1
spin                       : .0
first test random number   : .7879

########################################################################
# WARNING! Please study the warnings concerning your input carefully
#  - Process number higher than OMP_NUM_THREADS, I hope you know what you are doing.
########################################################################

           ------------------------------------------------- 
          |                 G F N 2 - x T B                 |
          | Geometry, Frequencies, Noncovalent interactions |
          |            JCTC 2018 parametrisation            |
           ------------------------------------------------- 
 
      method parameters     
 k(s)        :  1.8500
 k(p)        :  2.2300
 k(d)        :  2.2300
 k(f)        :  2.0000
 kEN (H0ij)  : -2.0000
 D4 a1       :  0.5200
 D4 a2       :  5.0000
 D4 s6       :  1.0000
 D4 s8       :  2.7000
 D4 s9       :  5.0000
 alphaj      :  2.0000

 Solvent             : h2o
 Using internal parameter file: .param_gbsa2_h2o
 Gsolv ref. state (COSMO-RS): gsolv [1 M gas/solution]
 temperature (mdtemp)       :    298.150000000000     
 dielectric constant        :    80.2000000000000     
 rho                        :    1.00000000000000     
 mass                       :    18.0000000000000     
 surface tension            :    15.5689454083859     
 probe radius               :   0.975313790000000     
 vdW radii scaling          :    1.00000000000000     
 Gshift (Eh)                :   1.857443126794793E-003
 c1                         :    1.55243817000000     
 soset                      :   0.130326360000000     
 HB correction              :  T

            Z     q(EN)     CN     RAES       Cart. coordinates
     1  N   5.0   -0.07    4.34    3.88   -13.67784    39.31386     6.92018
     2  C   4.0    0.00    4.48    4.51   -15.34268    41.53618     6.74065
     3  C   4.0    0.14    3.43    3.09   -14.53577    43.72826     8.47164
     4  O   6.0   -0.30    1.24    1.80   -13.44729    43.22937    10.48042
     5  C   4.0   -0.03    4.37    4.32   -17.94106    40.49305     7.47954
     6  C   4.0   -0.04    4.31    4.22   -17.37414    38.26128     9.07257
     7  C   4.0   -0.03    4.30    4.20   -15.00820    37.11800     7.99165
     8  H   1.0    0.05    1.06    1.44   -13.03344    38.85277     5.12116
     9  H   1.0    0.07    1.07    1.44   -12.14716    39.75605     8.07102
    10  H   1.0    0.05    1.05    1.44   -15.41827    42.22782     4.80179
    11  H   1.0    0.05    1.03    1.43   -18.99553    41.91034     8.53778
    12  H   1.0    0.06    1.03    1.43   -18.98986    39.95070     5.79201
    13  H   1.0    0.05    1.03    1.43   -17.07178    38.85654    11.02088
    14  H   1.0    0.05    1.03    1.43   -18.93883    36.92525     8.97809
    15  H   1.0    0.04    1.02    1.43   -13.88193    36.22605     9.46753
    16  H   1.0    0.04    1.02    1.43   -15.45985    35.74606     6.52333
    17  N   5.0   -0.09    3.64    2.20   -15.02143    46.15278     7.75166
    18  C   4.0    0.04    4.55    4.60   -14.33357    48.26360     9.43351
    19  C   4.0    0.15    3.40    3.08   -16.09291    48.30895    11.71252
    20  O   6.0   -0.30    1.25    1.80   -18.29822    47.59653    11.47064
    21  C   4.0   -0.05    4.35    4.30   -14.71530    50.62009     7.77811
    22  C   4.0   -0.03    4.30    4.21   -15.27277    49.67145     5.17218
    23  C   4.0   -0.01    4.35    4.28   -16.30078    47.08063     5.45942
    24  H   1.0    0.06    1.05    1.44   -12.36259    48.16156    10.02122
    25  H   1.0    0.05    1.03    1.43   -16.29511    51.72558     8.50377
    26  H   1.0    0.03    1.03    1.43   -12.99754    51.75581     7.78756
    27  H   1.0    0.06    1.03    1.43   -16.65793    50.90355     4.27456
    28  H   1.0    0.05    1.03    1.43   -13.53611    49.64121     4.06669
    29  H   1.0    0.05    1.02    1.43   -18.34357    47.12410     5.72398
    30  H   1.0    0.05    1.02    1.43   -15.82645    45.91467     3.82858
    31  N   5.0   -0.14    3.42    2.03   -15.12348    49.04595    13.93484
    32  C   4.0    0.04    4.47    4.50   -16.66171    49.09508    16.23653
    33  C   4.0    0.14    3.42    3.09   -16.60691    51.69912    17.45918
    34  O   6.0   -0.32    1.30    1.80   -14.56979    52.65154    18.05255
    35  C   4.0   -0.02    4.24    4.08   -15.93795    46.92945    18.07901
    36  C   4.0   -0.07    4.11    3.83   -17.05478    47.33008    20.71140
    37  C   4.0   -0.07    4.10    3.79   -16.73541    44.37077    17.01509
    38  H   1.0    0.12    1.09    1.44   -13.29800    49.61098    14.18806
    39  H   1.0    0.05    1.08    1.44   -18.63081    48.83241    15.69606
    40  H   1.0    0.06    1.06    1.44   -13.88760    46.94079    18.28121
    41  H   1.0    0.04    1.00    1.43   -16.49164    45.76349    21.92460
    42  H   1.0    0.05    1.00    1.43   -16.34235    49.10264    21.47863
    43  H   1.0    0.05    1.00    1.43   -19.10891    47.40189    20.56400
    44  H   1.0    0.04    1.00    1.43   -16.20251    42.89489    18.34924
    45  H   1.0    0.05    1.00    1.43   -18.77632    44.36510    16.74108
    46  H   1.0    0.07    1.00    1.43   -15.78299    44.06652    15.21418
    47  N   5.0   -0.15    3.43    2.03   -18.83490    52.86319    17.80878
    48  C   4.0    0.03    4.51    4.54   -18.92183    55.34440    19.00119
    49  C   4.0    0.15    3.39    3.08   -19.17127    55.00803    21.83767
    50  O   6.0   -0.29    1.21    1.80   -21.06478    53.99892    22.74285
    51  C   4.0   -0.02    4.30    4.20   -20.85313    57.22468    17.84468
    52  C   4.0   -0.05    4.22    4.04   -20.50920    57.42310    14.96096
    53  C   4.0   -0.08    4.10    3.81   -20.58478    59.81172    19.11836
    54  C   4.0   -0.08    4.05    3.71   -22.62380    58.57961    13.60792
    55  H   1.0    0.08    1.05    1.44   -20.54699    52.14321    17.29666
    56  H   1.0    0.05    1.09    1.44   -17.10580    56.24958    18.64782
    57  H   1.0    0.05    1.06    1.44   -22.75608    56.51603    18.18861
    58  H   1.0    0.03    1.04    1.43   -18.83679    58.56261    14.58113
    59  H   1.0    0.04    1.04    1.43   -20.25597    55.52393    14.20318
    60  H   1.0    0.04    1.00    1.43   -21.94917    61.11185    18.28877
    61  H   1.0    0.05    1.00    1.43   -20.94572    59.60574    21.13658
    62  H   1.0    0.04    1.00    1.43   -18.67238    60.51280    18.81600
    63  H   1.0    0.05    1.01    1.43   -22.18727    58.62686    11.59536
    64  H   1.0    0.04    1.01    1.43   -24.32077    57.45901    13.93295
    65  H   1.0    0.04    1.01    1.43   -22.90159    60.49580    14.31089
    66  N   5.0   -0.15    3.43    2.03   -17.21351    55.83006    23.20961
    67  C   4.0    0.03    4.26    4.13   -16.99242    55.67511    25.95917
    68  C   4.0    0.08    3.16    3.03   -18.13570    58.02404    27.29331
    69  O   6.0   -0.28    1.11    1.80   -19.61536    57.73302    29.07532
    70  C   4.0   -0.05    4.23    4.05   -14.22019    55.22346    26.70183
    71  C   4.0   -0.05    4.16    3.93   -12.96163    52.94067    25.37524
    72  C   4.0   -0.01    4.20    4.00   -13.56256    50.35364    26.49018
    73  N   5.0   -0.14    3.39    2.02   -12.62904    50.08719    29.08099
    74  C   4.0    0.09    3.35    3.06   -14.02555    50.46135    31.13701
    75  N   5.0   -0.18    3.27    1.97   -16.44251    51.10575    30.92914
    76  N   5.0   -0.19    3.23    1.96   -13.01643    50.19868    33.41413
    77  H   1.0    0.07    1.06    1.44   -15.66394    56.65965    22.41971
    78  H   1.0    0.06    1.06    1.44   -18.05822    54.04994    26.64136
    79  H   1.0    0.04    1.03    1.43   -13.12982    56.90154    26.21617
    80  H   1.0    0.05    1.03    1.43   -14.13137    54.88898    28.73139
    81  H   1.0    0.05    1.03    1.43   -13.57768    52.91422    23.40993
    82  H   1.0    0.04    1.03    1.43   -10.91884    53.18445    25.46973
    83  H   1.0    0.04    1.04    1.43   -15.60536    50.08530    26.51474
    84  H   1.0    0.04    1.02    1.43   -12.67439    48.89666    25.33556
    85  H   1.0    0.07    1.06    1.44   -10.78467    49.58074    29.32477
    86  H   1.0    0.08    1.04    1.43   -17.23808    51.31551    29.18493
    87  H   1.0    0.09    1.02    1.43   -17.50453    51.38921    32.51273
    88  H   1.0    0.08    1.02    1.43   -11.16072    49.70735    33.59555
    89  H   1.0    0.08    1.03    1.43   -14.09547    50.48781    34.98450
    90  N   5.0   -0.20    3.21    1.96   -10.97364    60.49580    17.92405
    91  C   4.0    0.03    4.26    4.13   -11.49709    58.03159    16.82234
    92  C   4.0    0.14    3.39    3.08    -9.15005    56.38753    16.73163
    93  O   6.0   -0.28    1.23    1.80    -7.06002    57.32106    16.24786
    94  C   4.0   -0.08    4.12    3.83   -12.62715    58.31694    14.21263
    95  H   1.0    0.10    1.05    1.44    -9.45997    61.40853    17.15304
    96  H   1.0    0.05    1.07    1.44   -12.83691    57.03571    18.02988
    97  H   1.0    0.04    1.00    1.43   -12.99942    56.44611    13.43406
    98  H   1.0    0.03    1.00    1.43   -14.38459    59.38086    14.35625
    99  H   1.0    0.04    1.00    1.43   -11.29300    59.32417    13.01076
   100  N   5.0   -0.14    3.46    2.06    -9.50910    53.92522    17.20784
   101  C   4.0    0.04    4.45    4.47    -7.48709    52.05817    17.24186
   102  C   4.0    0.15    3.39    3.08    -7.73654    50.16655    15.09702
   103  O   6.0   -0.30    1.28    1.80    -9.84547    49.49003    14.36381
   104  C   4.0    0.05    4.22    4.05    -7.39072    50.71269    19.81378
   105  O   6.0   -0.24    2.09    1.84    -9.68862    49.35964    20.25597
   106  C   4.0   -0.07    4.07    3.74    -6.83703    52.51548    21.99263
   107  H   1.0    0.12    1.11    1.44   -11.23820    53.16177    17.58579
   108  H   1.0    0.05    1.07    1.44    -5.68619    53.01059    16.93950
   109  H   1.0    0.04    1.05    1.44    -5.82791    49.37098    19.76842
   110  H   1.0    0.11    1.01    1.43    -9.61493    48.50738    21.89814
   111  H   1.0    0.04    1.00    1.43    -6.78790    51.47802    23.77086
   112  H   1.0    0.05    1.00    1.43    -5.01533    53.43200    21.70350
   113  H   1.0    0.05    1.00    1.43    -8.30157    53.95923    22.10223
   114  N   5.0   -0.14    3.34    2.00    -5.57280    49.28594    14.16539
   115  C   4.0    0.02    4.25    4.09    -5.42918    47.38488    12.17739
   116  C   4.0    0.15    3.29    3.05    -2.96309    47.32819    10.72419
   117  O   6.0   -0.28    1.22    1.80    -1.44186    49.09508    10.86592
   118  H   1.0    0.09    1.06    1.44    -3.83614    49.86987    14.76632
   119  H   1.0    0.05    1.03    1.43    -5.69752    45.52539    13.02210
   120  H   1.0    0.06    1.03    1.43    -6.94285    47.73070    10.82246
   121  N   5.0   -0.14    3.45    2.05    -2.57003    45.25516     9.31257
   122  C   4.0    0.04    4.37    4.32    -0.41196    44.89611     7.64205
   123  C   4.0    0.15    3.46    3.10    -1.55335    44.43124     5.01533
   124  O   6.0   -0.30    1.25    1.80    -2.89506    42.55096     4.69975
   125  C   4.0    0.03    4.14    3.88     1.22643    42.68513     8.50377
   126  O   6.0   -0.25    2.02    1.83     3.75678    42.98560     7.66851
   127  H   1.0    0.08    1.06    1.44    -3.77000    43.74716     9.29934
   128  H   1.0    0.06    1.06    1.44     0.83337    46.53639     7.61749
   129  H   1.0    0.05    1.02    1.43     1.20565    42.59820    10.56168
   130  H   1.0    0.05    1.02    1.43     0.46487    40.94091     7.71764
   131  H   1.0    0.12    1.01    1.43     4.78479    41.55318     8.23543
   132  N   5.0   -0.09    3.60    2.16    -1.29257    46.18868     3.16718
   133  C   4.0    0.02    4.51    4.55     0.17763    48.56785     3.20309
   134  C   4.0    0.15    3.35    3.06    -1.02045    50.70513     4.75833
   135  O   6.0   -0.29    1.23    1.80    -3.12372    50.40466     5.71075
   136  C   4.0   -0.05    4.36    4.32     0.38361    49.23681     0.38928
   137  C   4.0   -0.05    4.30    4.19    -2.01823    48.23525    -0.71243
   138  C   4.0    0.00    4.37    4.33    -2.46987    45.78239     0.66707
   139  H   1.0    0.04    1.05    1.44     2.05980    48.23903     3.97409
   140  H   1.0    0.05    1.03    1.43     0.52156    51.27771     0.15118
   141  H   1.0    0.04    1.03    1.43     2.02768    48.31840    -0.44409
   142  H   1.0    0.04    1.03    1.43    -3.55646    49.56562    -0.37983
   143  H   1.0    0.04    1.03    1.43    -1.78768    47.91589    -2.73443
   144  H   1.0    0.05    1.02    1.43    -4.48810    45.41956     0.86360
   145  H   1.0    0.05    1.02    1.43    -1.56469    44.21581    -0.31747
   146  N   5.0   -0.14    3.42    2.03     0.34204    52.84997     5.00966
   147  C   4.0    0.04    4.47    4.49    -0.47243    55.06661     6.44963
   148  C   4.0    0.15    3.46    3.10    -2.86105    56.20801     5.26667
   149  O   6.0   -0.28    1.22    1.80    -2.74388    57.10941     3.11427
   150  C   4.0   -0.02    4.26    4.12     1.66674    57.02248     6.76711
   151  C   4.0   -0.06    4.11    3.83     0.85227    59.13519     8.53589
   152  C   4.0   -0.07    4.11    3.83     4.09126    55.76959     7.72142
   153  H   1.0    0.07    1.06    1.44     2.07492    53.09752     4.20275
   154  H   1.0    0.05    1.08    1.44    -0.99589    54.43545     8.33936
   155  H   1.0    0.05    1.06    1.44     2.07114    57.84640     4.92274
   156  H   1.0    0.05    1.00    1.43     2.39617    60.48446     8.72486
   157  H   1.0    0.06    1.00    1.43    -0.80502    60.06872     7.74599
   158  H   1.0    0.06    1.00    1.43     0.39495    58.33017    10.37649
   159  H   1.0    0.05    1.00    1.43     5.55390    57.20578     7.92173
   160  H   1.0    0.05    1.00    1.43     3.71709    54.88898     9.54501
   161  H   1.0    0.04    1.00    1.43     4.68841    54.34285     6.36082
   162  N   5.0   -0.09    3.61    2.17    -5.05502    56.08896     6.61026
   163  C   4.0    0.04    4.57    4.63    -7.42284    56.99980     5.48398
   164  C   4.0    0.16    3.38    3.07    -7.51544    59.80605     4.90006
   165  O   6.0   -0.30    1.26    1.80    -6.49121    61.37074     6.29657
   166  C   4.0   -0.05    4.37    4.33    -9.44107    56.21557     7.40962
   167  C   4.0   -0.04    4.30    4.20    -8.21464    54.23891     9.02344
   168  C   4.0   -0.00    4.36    4.31    -5.51800    55.01937     9.14816
   169  H   1.0    0.06    1.07    1.44    -7.69496    56.01148     3.69819
   170  H   1.0    0.04    1.03    1.43    -9.99665    57.84451     8.53967
   171  H   1.0    0.04    1.02    1.43   -11.08135    55.44834     6.42696
   172  H   1.0    0.05    1.03    1.43    -9.06879    54.22380    10.89805
   173  H   1.0    0.05    1.03    1.43    -8.41117    52.38698     8.14472
   174  H   1.0    0.06    1.02    1.43    -5.23076    56.44233    10.60892
   175  H   1.0    0.06    1.03    1.43    -4.29724    53.39610     9.49587
   176  N   5.0   -0.12    3.51    2.08    -8.70786    60.40131     2.75900
   177  C   4.0    0.04    4.46    4.48    -9.06879    62.97890     1.86516
   178  C   4.0    0.14    3.46    3.10   -11.60292    63.80282     2.88939
   179  O   6.0   -0.31    1.33    1.80   -13.39816    62.32694     2.82136
   180  C   4.0    0.06    4.24    4.07    -9.05935    63.06960    -1.03557
   181  O   6.0   -0.23    2.10    1.84    -7.04490    61.54459    -1.98043
   182  C   4.0   -0.07    4.07    3.74    -8.84014    65.75301    -2.05035
   183  H   1.0    0.11    1.10    1.44    -9.46753    59.08984     1.56847
   184  H   1.0    0.07    1.06    1.44    -7.57024    64.24690     2.48877
   185  H   1.0    0.05    1.05    1.44   -10.85837    62.33639    -1.71965
   186  H   1.0    0.12    1.01    1.43    -7.02789    61.59373    -3.83236
   187  H   1.0    0.04    1.00    1.43    -8.84014    65.73034    -4.11015
   188  H   1.0    0.05    1.00    1.43   -10.43129    66.88685    -1.39462
   189  H   1.0    0.06    1.00    1.43    -7.08836    66.61473    -1.39084
   190  N   5.0   -0.14    3.43    2.04   -11.77110    66.11962     3.85504
   191  C   4.0    0.04    4.47    4.49   -14.15783    67.04559     4.86982
   192  C   4.0    0.15    3.39    3.07   -15.37859    68.89941     3.03868
   193  O   6.0   -0.30    1.23    1.80   -14.15216    70.63229     2.09382
   194  C   4.0   -0.02    4.23    4.06   -13.94996    68.09816     7.63638
   195  C   4.0   -0.05    4.14    3.88   -12.45329    66.29159     9.42784
   196  C   4.0   -0.07    4.05    3.71   -16.55589    68.82760     8.77022
   197  C   4.0   -0.08    3.99    3.60   -13.45296    63.59873     9.74343
   198  H   1.0    0.11    1.08    1.44   -10.31034    67.37251     3.95709
   199  H   1.0    0.07    1.10    1.44   -15.42961    65.42987     4.98510
   200  H   1.0    0.05    1.06    1.44   -12.85392    69.83482     7.48143
   201  H   1.0    0.05    1.03    1.43   -10.53144    66.13096     8.70219
   202  H   1.0    0.04    1.03    1.43   -12.42873    67.14007    11.30434
   203  H   1.0    0.04    1.00    1.43   -16.27999    69.54003    10.68262
   204  H   1.0    0.05    1.00    1.43   -17.41382    70.28458     7.59481
   205  H   1.0    0.05    1.00    1.43   -17.76153    67.15708     8.81179
   206  H   1.0    0.04    1.00    1.43   -12.22275    62.57450    11.03789
   207  H   1.0    0.04    1.00    1.43   -15.36536    63.67810    10.50688
   208  H   1.0    0.05    1.00    1.43   -13.46808    62.66898     7.90472
   209  N   5.0   -0.13    3.48    2.06   -17.79366    68.47422     2.50767
   210  C   4.0    0.03    4.32    4.23   -19.33568    70.13718     0.95998
   211  C   4.0    0.07    3.22    3.04   -21.55421    70.98378     2.58703
   212  O   6.0   -0.31    1.21    1.80   -22.38758    69.60428     4.28401
   213  C   4.0   -0.05    4.33    4.26   -20.28999    68.81437    -1.45509
   214  C   4.0   -0.02    4.19    3.97   -18.52687    68.65941    -3.72843
   215  C   4.0   -0.08    4.12    3.84   -16.82801    70.98378    -3.94386
   216  C   4.0   -0.07    4.10    3.81   -17.06045    66.20655    -3.72843
   217  H   1.0    0.11    1.09    1.44   -18.76498    66.93598     3.14828
   218  H   1.0    0.05    1.07    1.44   -18.25664    71.77557     0.33070
   219  H   1.0    0.05    1.04    1.43   -20.76998    66.87551    -0.95242
   220  H   1.0    0.03    1.03    1.43   -21.97562    69.81593    -2.08626
   221  H   1.0    0.04    1.07    1.44   -19.67205    68.65752    -5.44052
   222  H   1.0    0.04    1.00    1.43   -15.61292    70.77591    -5.59359
   223  H   1.0    0.04    1.00    1.43   -18.00720    72.65996    -4.14795
   224  H   1.0    0.06    1.01    1.43   -15.68095    71.13495    -2.23933
   225  H   1.0    0.04    1.00    1.43   -15.82457    66.16308    -5.37627
   226  H   1.0    0.05    1.00    1.43   -15.93795    66.09694    -2.00500
   227  H   1.0    0.05    1.00    1.43   -18.38703    64.63241    -3.80402
   228  N   5.0   -0.18    3.24    1.96    -4.33881    75.20164     8.72297
   229  C   4.0    0.03    4.22    4.03    -5.93752    73.06247     8.09370
   230  C   4.0    0.08    3.23    3.04    -7.22631    72.38406    10.59758
   231  O   6.0   -0.28    1.14    1.80    -5.95642    71.57715    12.38148
   232  C   4.0   -0.02    4.33    4.25    -4.32558    70.87417     7.10726
   233  C   4.0    0.15    3.22    3.04    -5.77500    68.68209     6.00555
   234  O   6.0   -0.30    1.24    1.80    -6.89183    68.86539     3.96653
   235  N   5.0   -0.17    3.20    1.96    -5.59926    66.49568     7.21875
   236  H   1.0    0.10    1.03    1.43    -2.45286    74.80858     8.69463
   237  H   1.0    0.05    1.05    1.44    -7.30946    73.48766     6.61782
   238  H   1.0    0.07    1.03    1.43    -3.08781    71.59605     5.62760
   239  H   1.0    0.06    1.04    1.43    -3.20120    70.14096     8.67006
   240  H   1.0    0.12    1.06    1.44    -6.54034    64.94799     6.55735
   241  H   1.0    0.10    1.03    1.43    -4.52400    66.36151     8.81179
   242  N   5.0   -0.21    3.20    1.95   -23.70094    65.08027     6.65561
   243  C   4.0    0.03    4.35    4.28   -23.26631    62.81071     5.10982
   244  C   4.0    0.14    3.37    3.07   -20.46951    61.98868     5.06636
   245  O   6.0   -0.31    1.27    1.80   -18.87458    63.33417     4.01000
   246  C   4.0   -0.02    4.32    4.24   -24.35857    63.17165     2.40562
   247  C   4.0   -0.05    4.23    4.06   -27.20449    63.82738     2.47176
   248  C   4.0   -0.06    4.09    3.79   -23.81622    60.86051     0.73888
   249  C   4.0   -0.08    4.07    3.75   -27.85456    65.95522     0.94108
   250  H   1.0    0.12    1.07    1.44   -23.06033    66.69977     5.82980
   251  H   1.0    0.06    1.07    1.44   -24.20550    61.24980     6.06980
   252  H   1.0    0.05    1.07    1.44   -23.39481    64.78358     1.55902
   253  H   1.0    0.04    1.04    1.43   -28.27597    62.20600     1.78768
   254  H   1.0    0.04    1.05    1.44   -27.74307    64.25824     4.41251
   255  H   1.0    0.05    1.00    1.43   -24.60801    61.18366    -1.13573
   256  H   1.0    0.06    1.00    1.43   -21.77720    60.59406     0.60471
   257  H   1.0    0.06    1.00    1.43   -24.68549    59.19944     1.59115
   258  H   1.0    0.04    1.01    1.43   -29.88035    66.29348     1.08848
   259  H   1.0    0.05    1.01    1.43   -26.81710    67.60495     1.60816
   260  H   1.0    0.04    1.01    1.43   -27.35000    65.55270    -1.01478
   261  N   5.0   -0.14    3.42    2.03   -19.89126    59.76069     6.14917
   262  C   4.0    0.04    4.33    4.26   -17.30233    58.76859     6.16240
   263  C   4.0    0.15    3.39    3.08   -16.98675    56.91099     3.97409
   264  O   6.0   -0.32    1.26    1.80   -18.33979    55.02126     3.88528
   265  C   4.0   -0.08    4.11    3.81   -16.72785    57.49869     8.66817
   266  H   1.0    0.10    1.08    1.44   -21.17438    58.61741     7.02222
   267  H   1.0    0.06    1.07    1.44   -15.96629    60.31249     5.88839
   268  H   1.0    0.04    1.00    1.43   -14.79844    56.78060     8.62849
   269  H   1.0    0.04    1.00    1.43   -16.93194    58.88008    10.18184
   270  H   1.0    0.05    1.00    1.43   -18.05066    55.94534     8.95163
   271  N   5.0   -0.14    3.40    2.02   -15.25009    57.46279     2.18830
   272  C   4.0    0.03    4.37    4.32   -14.92695    55.90565    -0.06614
   273  C   4.0    0.14    3.32    3.06   -12.26810    54.76048    -0.47810
   274  O   6.0   -0.31    1.23    1.80   -10.34247    56.04171    -0.15307
   275  C   4.0    0.04    4.14    3.89   -15.73008    57.38909    -2.39995
   276  O   6.0   -0.23    2.03    1.83   -16.39526    55.74692    -4.40873
   277  H   1.0    0.11    1.09    1.44   -14.05767    58.97457     2.27334
   278  H   1.0    0.06    1.08    1.44   -16.10424    54.24080     0.22299
   279  H   1.0    0.05    1.02    1.43   -17.36091    58.55505    -1.92185
   280  H   1.0    0.06    1.02    1.43   -14.16350    58.58339    -3.00466
   281  H   1.0    0.13    1.02    1.43   -17.80311    54.65843    -3.89661
   282  N   5.0   -0.12    3.44    2.04   -12.23975    52.29817    -1.19809
   283  C   4.0    0.04    4.34    4.28   -10.09303    50.64843    -1.87083
   284  C   4.0    0.15    3.48    3.11   -11.12860    48.77005    -3.87583
   285  O   6.0   -0.27    1.31    1.80   -13.43784    48.44879    -3.95898
   286  C   4.0    0.05    4.21    4.01    -9.13305    49.08563     0.42708
   287  O   6.0   -0.24    2.11    1.84   -10.83947    47.06740     0.98833
   288  C   4.0   -0.06    4.07    3.75    -8.59447    50.65599     2.75711
   289  H   1.0    0.12    1.09    1.44   -13.87437    51.28716    -1.34737
   290  H   1.0    0.05    1.04    1.43    -8.53211    51.77849    -2.60026
   291  H   1.0    0.04    1.05    1.44    -7.31135    48.28628    -0.10771
   292  H   1.0    0.12    1.01    1.43   -10.21775    46.09609     2.43775
   293  H   1.0    0.06    1.00    1.43    -7.93118    49.44468     4.28590
   294  H   1.0    0.06    1.00    1.43    -7.14694    52.06006     2.34137
   295  H   1.0    0.05    1.00    1.43   -10.30846    51.62353     3.36560
   296  N   5.0   -0.10    3.62    2.18    -9.57713    47.36976    -5.37249
   297  C   4.0    0.04    4.54    4.59   -10.68829    45.55184    -7.18285
   298  C   4.0    0.15    3.34    3.06   -12.10747    43.31630    -5.97720
   299  O   6.0   -0.28    1.21    1.80   -13.60603    42.08420    -7.26033
   300  C   4.0   -0.04    4.36    4.32    -8.39983    44.65233    -8.71920
   301  C   4.0   -0.04    4.31    4.21    -6.38538    46.58174    -8.25810
   302  C   4.0   -0.02    4.34    4.28    -6.79923    47.42456    -5.61060
   303  H   1.0    0.07    1.05    1.44   -11.99787    46.55151    -8.41873
   304  H   1.0    0.05    1.03    1.43    -7.80268    42.79473    -8.05968
   305  H   1.0    0.05    1.02    1.43    -8.89116    44.56541   -10.71853
   306  H   1.0    0.06    1.03    1.43    -4.52589    45.72570    -8.47731
   307  H   1.0    0.05    1.03    1.43    -6.59892    48.15211    -9.57524
   308  H   1.0    0.04    1.02    1.43    -5.91862    46.12443    -4.27645
   309  H   1.0    0.04    1.02    1.43    -6.07169    49.32941    -5.32147
   310  N   5.0   -0.13    3.45    2.04   -11.67095    42.83064    -3.51489
   311  C   4.0    0.04    4.31    4.22   -12.83502    40.77273    -2.05980
   312  C   4.0    0.15    3.33    3.06   -15.46552    41.42279    -0.87305
   313  O   6.0   -0.31    1.22    1.80   -16.49353    39.89778     0.57070
   314  C   4.0    0.03    4.14    3.88   -10.99254    39.80330    -0.05480
   315  O   6.0   -0.25    2.05    1.83    -9.60170    41.78562     1.10171
   316  H   1.0    0.10    1.08    1.44   -10.46530    43.88133    -2.43964
   317  H   1.0    0.06    1.06    1.44   -13.20163    39.22315    -3.36749
   318  H   1.0    0.05    1.02    1.43   -12.06590    38.81686     1.40029
   319  H   1.0    0.04    1.01    1.43    -9.66595    38.50695    -0.95242
   320  H   1.0    0.12    1.01    1.43    -8.44707    41.09209     2.37161
   321  N   5.0   -0.12    3.33    1.99   -16.53510    43.61299    -1.53635
   322  C   4.0    0.02    4.24    4.08   -19.01064    44.40478    -0.61038
   323  C   4.0    0.14    3.26    3.05   -19.33757    47.19780    -0.03968
   324  O   6.0   -0.28    1.22    1.80   -17.68217    48.74170    -0.61983
   325  H   1.0    0.12    1.07    1.44   -15.71685    44.88855    -2.72687
   326  H   1.0    0.07    1.04    1.43   -20.42227    43.90400    -2.02390
   327  H   1.0    0.05    1.04    1.43   -19.41126    43.37677     1.13006
   328  N   5.0   -0.14    3.39    2.02   -21.51075    47.85164     1.14706
   329  C   4.0    0.03    4.37    4.33   -22.20806    50.41978     1.93886
   330  C   4.0    0.14    3.36    3.07   -23.75008    50.43868     4.38038
   331  O   6.0   -0.29    1.21    1.80   -25.40359    48.83052     4.74510
   332  C   4.0   -0.03    4.25    4.10   -23.60457    51.86542    -0.15685
   333  C   4.0   -0.03    4.20    4.01   -21.83011    53.32807    -1.87272
   334  C   4.0    0.24    3.11    3.03   -23.00741    55.14409    -3.75489
   335  O   6.0   -0.30    1.18    1.80   -25.05777    56.18722    -3.19364
   336  O   6.0   -0.28    1.17    1.80   -21.82822    55.58818    -5.75988
   337  H   1.0    0.09    1.06    1.44   -22.87891    46.57041     1.59871
   338  H   1.0    0.06    1.07    1.44   -20.45439    51.40810     2.37539
   339  H   1.0    0.06    1.03    1.43   -24.64770    50.51993    -1.31714
   340  H   1.0    0.06    1.03    1.43   -24.90470    53.20901     0.70865
   341  H   1.0    0.05    1.04    1.43   -20.57156    54.44111    -0.68030
   342  H   1.0    0.07    1.04    1.43   -20.73974    51.96368    -2.96498
   343  N   5.0   -0.13    3.42    2.03   -23.18883    52.28305     6.04523
   344  C   4.0    0.04    4.23    4.06   -24.45872    52.65532     8.46786
   345  C   4.0    0.07    3.20    3.04   -25.53776    55.32740     8.67573
   346  O   6.0   -0.31    1.17    1.80   -24.46817    57.13019     7.63827
   347  C   4.0   -0.07    4.10    3.81   -22.64837    52.14321    10.62593
   348  H   1.0    0.10    1.07    1.44   -21.80555    53.58885     5.73721
   349  H   1.0    0.06    1.06    1.44   -26.05554    51.36275     8.61526
   350  H   1.0    0.04    1.00    1.43   -23.63480    52.43234    12.41172
   351  H   1.0    0.06    1.00    1.43   -21.98318    50.19868    10.49743
   352  H   1.0    0.05    1.00    1.43   -21.05533    53.43956    10.48609
   353  O   6.0   -0.34    1.99    1.83   -10.56546    54.26348    -7.15639
   354  H   1.0    0.16    1.02    1.43    -9.29178    55.21023    -7.15639
   355  H   1.0    0.17    1.02    1.43   -11.84102    55.20834    -7.15639
   356  O   6.0   -0.35    1.99    1.82    -0.07748    35.87078     5.64272
   357  H   1.0    0.16    1.02    1.43     1.19620    36.81753     5.64272
   358  H   1.0    0.16    1.02    1.43    -1.35304    36.81564     5.64272
   359  O   6.0   -0.35    1.99    1.83     9.94287    44.73188    -2.71869
   360  H   1.0    0.15    1.02    1.43     9.16172    45.29118    -1.45446
   361  H   1.0    0.16    1.02    1.43     9.69998    43.16458    -2.75081
   362  O   6.0   -0.35    1.99    1.83   -33.76751    30.97671     5.73154
   363  H   1.0    0.15    1.02    1.43   -34.64246    30.57987     6.99577
   364  H   1.0    0.16    1.02    1.43   -32.53163    29.98272     5.69941
   365  N   5.0   -0.20    3.19    1.95   -39.81842    49.52249     3.23332
   366  C   4.0    0.03    4.31    4.22   -40.08298    47.06584     4.48621
   367  C   4.0    0.15    3.38    3.07   -38.29341    45.04006     3.51300
   368  O   6.0   -0.30    1.22    1.80   -37.58665    45.00226     1.29635
   369  C   4.0   -0.04    4.29    4.18   -42.81741    46.09074     4.47109
   370  C   4.0   -0.03    4.26    4.11   -44.14967    46.17578     1.94453
   371  C   4.0    0.14    3.25    3.04   -46.95024    46.07940     2.35082
   372  O   6.0   -0.29    1.20    1.80   -48.03872    44.06118     2.84971
   373  N   5.0   -0.19    3.18    1.95   -48.16345    48.27716     2.22043
   374  H   1.0    0.10    1.03    1.43   -39.01906    49.40910     1.48343
   375  H   1.0    0.04    1.07    1.44   -39.47826    47.40410     6.42696
   376  H   1.0    0.06    1.03    1.43   -42.80607    44.12543     5.09092
   377  H   1.0    0.04    1.04    1.43   -43.91912    47.23592     5.78256
   378  H   1.0    0.03    1.05    1.44   -43.67913    47.92567     0.96565
   379  H   1.0    0.05    1.03    1.43   -43.58653    44.55629     0.80313
   380  H   1.0    0.07    1.03    1.43   -47.18457    49.89854     1.86138
   381  H   1.0    0.09    1.02    1.43   -50.07207    48.34141     2.47932
   382  N   5.0   -0.13    3.49    2.07   -37.56019    43.36387     5.23832
   383  C   4.0    0.04    4.44    4.45   -35.91802    41.21903     4.73943
   384  C   4.0    0.15    3.43    3.09   -37.68303    39.03451     4.12905
   385  O   6.0   -0.30    1.25    1.80   -39.20803    38.31263     5.74099
   386  C   4.0    0.05    4.22    4.05   -34.25506    40.69558     7.07702
   387  O   6.0   -0.24    2.09    1.84   -32.95115    42.96136     7.77055
   388  C   4.0   -0.06    4.06    3.73   -32.37667    38.55074     6.65750
   389  H   1.0    0.08    1.06    1.44   -38.10254    43.45080     7.08647
   390  H   1.0    0.06    1.06    1.44   -34.63112    41.52517     3.16151
   391  H   1.0    0.05    1.05    1.44   -35.47394    40.08708     8.62093
   392  H   1.0    0.12    1.01    1.43   -31.88724    42.65144     9.25399
   393  H   1.0    0.05    1.00    1.43   -31.25040    38.25783     8.35826
   394  H   1.0    0.06    1.00    1.43   -33.38390    36.81030     6.21342
   395  H   1.0    0.06    1.00    1.43   -31.11812    39.01183     5.09470
   396  N   5.0   -0.13    3.42    2.03   -37.54319    38.03106     1.81036
   397  C   4.0    0.04    4.46    4.48   -39.15701    35.91268     1.10738
   398  C   4.0    0.15    3.36    3.07   -37.58476    33.49761     0.68975
   399  O   6.0   -0.30    1.24    1.80   -35.53441    33.61288    -0.38550
   400  C   4.0   -0.02    4.23    4.06   -40.96359    36.55519    -1.12817
   401  C   4.0   -0.07    4.10    3.81   -39.53496    37.32052    -3.51111
   402  C   4.0   -0.07    4.09    3.79   -42.82308    34.41791    -1.67619
   403  H   1.0    0.11    1.09    1.44   -36.35455    38.64144     0.42141
   404  H   1.0    0.06    1.08    1.44   -40.36833    35.48371     2.71743
   405  H   1.0    0.05    1.06    1.44   -42.06719    38.18980    -0.53479
   406  H   1.0    0.04    1.00    1.43   -40.89367    37.74571    -5.00021
   407  H   1.0    0.06    1.00    1.43   -38.39545    38.98726    -3.10293
   408  H   1.0    0.05    1.01    1.43   -38.31797    35.76339    -4.09315
   409  H   1.0    0.04    1.00    1.43   -44.03439    34.96971    -3.24844
   410  H   1.0    0.06    1.00    1.43   -41.76672    32.71904    -2.16563
   411  H   1.0    0.05    1.00    1.43   -43.96636    34.07587     0.00378
   412  N   5.0   -0.13    3.45    2.05   -38.53340    31.33954     1.63083
   413  C   4.0    0.04    4.24    4.07   -37.39957    28.83755     1.30958
   414  C   4.0    0.08    3.22    3.04   -38.21026    27.81709    -1.26234
   415  O   6.0   -0.30    1.14    1.80   -40.30219    28.40669    -2.11460
   416  C   4.0   -0.07    4.12    3.84   -38.32364    27.08388     3.37694
   417  H   1.0    0.08    1.06    1.44   -40.15668    31.26773     2.66829
   418  H   1.0    0.07    1.05    1.44   -35.34354    28.91880     1.41729
   419  H   1.0    0.04    1.00    1.43   -37.46571    25.23006     3.11616
   420  H   1.0    0.05    1.00    1.43   -37.77940    27.85867     5.20619
   421  H   1.0    0.05    1.00    1.43   -40.37399    26.93270     3.25978
   422  N   5.0   -0.19    3.19    1.95    14.16427    51.52888    -6.63987
   423  C   4.0    0.03    4.35    4.29    11.52279    51.86731    -7.34285
   424  C   4.0    0.15    3.36    3.07    10.21740    49.29816    -7.76047
   425  O   6.0   -0.30    1.24    1.80    11.34241    47.58014    -8.83573
   426  C   4.0   -0.03    4.23    4.06    11.17592    53.75310    -9.57839
   427  C   4.0   -0.07    4.10    3.81    12.55304    52.89854   -11.96134
   428  C   4.0   -0.07    4.09    3.79     8.39524    54.29483   -10.12641
   429  H   1.0    0.09    1.02    1.43    15.28720    50.80468    -8.02882
   430  H   1.0    0.04    1.07    1.44    10.54563    52.70185    -5.73280
   431  H   1.0    0.04    1.06    1.44    12.03974    55.52615    -8.98502
   432  H   1.0    0.04    1.00    1.43    12.24191    54.28781   -13.45044
   433  H   1.0    0.04    1.00    1.43    14.56623    52.74507   -11.55315
   434  H   1.0    0.05    1.01    1.43    11.81302    51.06603   -12.54337
   435  H   1.0    0.04    1.00    1.43     8.26746    55.61976   -11.69866
   436  H   1.0    0.06    1.00    1.43     7.45216    52.53056   -10.61585
   437  H   1.0    0.05    1.00    1.43     7.52738    55.11392    -8.44645
   438  N   5.0   -0.13    3.45    2.05     7.87414    49.04068    -6.81939
   439  C   4.0    0.04    4.32    4.24     6.27426    46.80775    -7.14064
   440  C   4.0    0.15    3.41    3.08     4.98518    46.99960    -9.71256
   441  O   6.0   -0.31    1.26    1.80     4.44982    49.10606   -10.56483
   442  C   4.0   -0.07    4.12    3.84     4.29351    46.73119    -5.07328
   443  H   1.0    0.07    1.06    1.44     7.00031    50.41057    -5.78193
   444  H   1.0    0.07    1.05    1.44     7.37265    45.06781    -7.03293
   445  H   1.0    0.05    1.00    1.43     3.11702    45.06128    -5.33407
   446  H   1.0    0.04    1.00    1.43     5.23661    46.64725    -3.24403
   447  H   1.0    0.05    1.00    1.43     3.13741    48.43126    -5.19045
   448  N   5.0   -0.13    3.40    2.02     4.48481    44.82759   -10.95222
   449  C   4.0    0.04    4.42    4.42     3.25084    44.75013   -13.45233
   450  C   4.0    0.16    3.35    3.07     0.62171    45.99689   -13.30493
   451  O   6.0   -0.30    1.20    1.80    -0.74284    45.55601   -11.46056
   452  C   4.0   -0.03    4.23    4.05     3.19390    42.05951   -14.65986
   453  C   4.0   -0.07    4.10    3.79     2.32225    42.15196   -17.41319
   454  C   4.0   -0.08    4.11    3.82     5.76720    40.76961   -14.49546
   455  H   1.0    0.09    1.06    1.44     4.91498    43.07717   -10.27003
   456  H   1.0    0.06    1.07    1.44     4.41151    45.86539   -14.73734
   457  H   1.0    0.05    1.06    1.44     1.83775    40.94268   -13.58461
   458  H   1.0    0.04    1.00    1.43     2.31178    40.23879   -18.17853
   459  H   1.0    0.07    1.00    1.43     0.42362    42.94982   -17.48878
   460  H   1.0    0.06    1.00    1.43     3.62305    43.33066   -18.49034
   461  H   1.0    0.04    1.00    1.43     5.63792    38.90349   -15.35717
   462  H   1.0    0.04    1.00    1.43     7.15558    41.91377   -15.49890
   463  H   1.0    0.06    1.01    1.43     6.30358    40.59269   -12.51503
   464  N   5.0   -0.14    3.41    2.03     0.01405    47.60119   -15.24568
   465  C   4.0    0.04    4.33    4.25    -2.30251    49.08514   -15.63685
   466  C   4.0    0.15    3.35    3.06    -2.46676    51.44077   -13.89452
   467  O   6.0   -0.30    1.22    1.80    -4.29547    52.90743   -14.05326
   468  C   4.0   -0.02    4.24    4.08    -4.72591    47.45468   -15.52725
   469  C   4.0    0.25    3.11    3.03    -5.03235    45.57793   -17.69098
   470  O   6.0   -0.28    1.19    1.80    -3.55375    45.72679   -19.54103
   471  O   6.0   -0.28    1.17    1.80    -6.77433    43.99177   -17.55870
   472  H   1.0    0.12    1.12    1.45     1.24254    47.91114   -16.69888
   473  H   1.0    0.06    1.06    1.44    -2.26197    49.87663   -17.53792
   474  H   1.0    0.06    1.03    1.43    -4.70681    46.37468   -13.77358
   475  H   1.0    0.06    1.03    1.43    -6.35820    48.70963   -15.56504
   476  N   5.0   -0.12    3.37    2.01    -0.49254    51.88014   -12.37708
   477  C   4.0    0.02    4.24    4.08    -0.35890    54.08263   -10.71601
   478  C   4.0    0.15    3.30    3.05     0.39821    56.44869   -12.14275
   479  O   6.0   -0.30    1.29    1.80     0.69645    56.37431   -14.45388
   480  H   1.0    0.10    1.08    1.44     1.05113    50.73333   -12.25991
   481  H   1.0    0.06    1.03    1.43    -2.20008    54.40305    -9.85051
   482  H   1.0    0.04    1.03    1.43     1.02977    53.74097    -9.23257
   483  N   5.0   -0.13    3.40    2.02     0.76639    58.56621   -10.78782
   484  C   4.0    0.04    4.35    4.30     1.58833    60.95225   -11.95189
   485  C   4.0    0.06    3.22    3.04     4.02157    61.95340   -10.77081
   486  O   6.0   -0.29    1.13    1.80     4.15004    62.21086    -8.45778
   487  C   4.0    0.06    4.21    4.02    -0.53587    62.92693   -11.87819
   488  O   6.0   -0.24    2.09    1.84    -2.57876    62.06605   -13.41831
   489  C   4.0   -0.07    4.07    3.75     0.32698    65.54825   -12.75502
   490  H   1.0    0.09    1.05    1.44     0.50804    58.68108    -8.88108
   491  H   1.0    0.05    1.07    1.44     2.06276    60.58027   -13.92098
   492  H   1.0    0.05    1.05    1.44    -1.15241    63.15577    -9.92610
   493  H   1.0    0.11    1.01    1.43    -3.95525    63.30502   -13.39375
   494  H   1.0    0.04    1.00    1.43    -1.24608    66.87448   -12.66620
   495  H   1.0    0.05    1.00    1.43     1.84633    66.23125   -11.54371
   496  H   1.0    0.04    1.00    1.43     1.01090    65.45215   -14.69577
   497  N   5.0   -0.19    3.16    1.95    14.56458    67.32905    11.74339
   498  C   4.0    0.03    4.18    3.96    12.63896    68.08296     9.87823
   499  C   4.0    0.08    3.21    3.04    10.91246    70.23053    10.71160
   500  O   6.0   -0.26    1.12    1.80     9.96306    70.30646    12.84888
   501  C   4.0    0.03    4.14    3.88    11.05817    65.82832     8.99762
   502  O   6.0   -0.23    2.04    1.83     9.15900    65.16825    10.76640
   503  H   1.0    0.09    1.03    1.43    14.38317    65.48521    12.27251
   504  H   1.0    0.03    1.06    1.44    13.70665    68.81504     8.27574
   505  H   1.0    0.03    1.01    1.43    10.15522    66.31512     7.21182
   506  H   1.0    0.04    1.02    1.43    12.30672    64.21000     8.73683
   507  H   1.0    0.11    1.01    1.43     8.18755    63.72146    10.14090
   508  N   5.0   -0.20    3.20    1.96     5.66546    71.04161     7.68237
   509  C   4.0    0.03    4.29    4.17     3.21170    70.22718     6.73750
   510  C   4.0    0.14    3.34    3.06     2.07982    67.85640     7.99228
   511  O   6.0   -0.30    1.24    1.80     0.55482    66.54826     6.79230
   512  C   4.0   -0.03    4.25    4.10     3.32991    69.89393     3.83866
   513  C   4.0   -0.04    4.20    4.00     3.96184    72.31428     2.33066
   514  C   4.0    0.15    3.22    3.04     2.49938    74.64702     3.14135
   515  O   6.0   -0.29    1.20    1.80     0.15698    74.67152     3.26419
   516  N   5.0   -0.19    3.18    1.95     3.88131    76.66029     3.72150
   517  H   1.0    0.08    1.02    1.43     7.02631    69.68232     7.56520
   518  H   1.0    0.06    1.06    1.44     1.89147    71.72775     7.23639
   519  H   1.0    0.04    1.03    1.43     4.78420    68.50131     3.40403
   520  H   1.0    0.07    1.03    1.43     1.49477    69.22500     3.18671
   521  H   1.0    0.03    1.03    1.43     5.96641    72.72754     2.56499
   522  H   1.0    0.05    1.03    1.43     3.53838    71.97815     0.34267
   523  H   1.0    0.08    1.03    1.43     5.80326    76.57415     3.60812
   524  H   1.0    0.09    1.02    1.43     3.02062    78.29089     4.28086
   525  N   5.0   -0.13    3.43    2.03     2.68737    67.38235    10.41491
   526  C   4.0    0.04    4.39    4.36     1.57561    65.28285    11.83220
   527  C   4.0    0.16    3.41    3.08    -0.38393    66.39031    13.62366
   528  O   6.0   -0.27    1.23    1.80     0.24522    68.06716    15.10332
   529  C   4.0   -0.02    4.25    4.10     3.60710    63.80889    13.31753
   530  C   4.0    0.25    3.10    3.02     2.73019    61.45003    14.74616
   531  O   6.0   -0.27    1.19    1.80     0.55954    61.43403    15.69291
   532  O   6.0   -0.28    1.17    1.80     4.25493    59.65948    14.99372
   533  H   1.0    0.10    1.05    1.44     3.94540    68.42725    11.43347
   534  H   1.0    0.05    1.06    1.44     0.67306    63.94349    10.55475
   535  H   1.0    0.05    1.03    1.43     5.05415    63.19981    11.98527
   536  H   1.0    0.07    1.03    1.43     4.42720    65.08319    14.71215
   537  N   5.0   -0.13    3.40    2.02    -2.73597    65.41859    13.53674
   538  C   4.0    0.05    4.28    4.16    -4.82405    66.28382    15.14489
   539  C   4.0    0.11    3.20    3.04    -4.30775    66.08876    17.97759
   540  O   6.0   -0.27    1.12    1.80    -5.36167    67.58161    19.41378
   541  C   4.0    0.03    4.15    3.90    -7.27896    64.93848    14.47026
   542  O   6.0   -0.23    2.07    1.83    -6.91115    62.29451    14.23027
   543  H   1.0    0.09    1.06    1.44    -3.26031    63.99864    12.34432
   544  H   1.0    0.08    1.07    1.44    -5.05965    68.29059    14.74238
   545  H   1.0    0.05    1.02    1.43    -8.66039    65.28650    15.95937
   546  H   1.0    0.04    1.01    1.43    -7.97279    65.67912    12.67880
   547  H   1.0    0.11    1.01    1.43    -8.51166    61.46865    13.79563
   548  N   5.0   -0.20    3.19    1.95    -2.19494    57.61802   -19.06104
   549  C   4.0    0.04    4.29    4.17    -2.59807    54.92609   -19.63551
   550  C   4.0    0.15    3.33    3.06    -0.20137    53.65861   -20.67864
   551  O   6.0   -0.29    1.21    1.80    -0.09167    52.97350   -22.91041
   552  C   4.0   -0.02    4.29    4.18    -4.93563    54.54534   -21.35327
   553  C   4.0   -0.01    3.53    3.13    -7.27840    55.91596   -20.43865
   554  C   4.0   -0.03    3.45    3.10    -8.81986    54.88198   -18.57727
   555  C   4.0   -0.04    3.46    3.10    -7.94535    58.25411   -21.42697
   556  C   4.0   -0.03    3.41    3.08   -10.97090    56.14727   -17.72311
   557  C   4.0   -0.04    3.44    3.09   -10.08010    59.54409   -20.58038
   558  C   4.0    0.07    3.44    3.09   -11.59447    58.48210   -18.73789
   559  O   6.0   -0.24    2.10    1.84   -13.69315    59.77763   -17.93098
   560  H   1.0    0.11    1.02    1.43    -3.06200    58.09936   -17.40753
   561  H   1.0    0.06    1.08    1.44    -3.01792    53.93742   -17.87807
   562  H   1.0    0.05    1.03    1.43    -4.49270    55.24838   -23.23922
   563  H   1.0    0.05    1.03    1.43    -5.37624    52.53439   -21.43642
   564  H   1.0    0.06    1.03    1.43    -8.34346    53.06661   -17.77791
   565  H   1.0    0.05    1.03    1.43    -6.78484    59.08997   -22.88206
   566  H   1.0    0.07    1.03    1.43   -12.14501    55.31229   -16.27747
   567  H   1.0    0.05    1.03    1.43   -10.54951    61.37004   -21.36272
   568  H   1.0    0.11    1.03    1.43   -13.83928    61.38000   -18.84750
   569  N   5.0   -0.14    3.39    2.02     1.74919    53.46244   -19.03647
   570  C   4.0    0.03    4.30    4.19     4.28907    52.51765   -19.62984
   571  C   4.0    0.16    3.35    3.06     4.43678    49.71824   -20.41030
   572  O   6.0   -0.31    1.29    1.80     3.57740    48.05467   -19.04025
   573  C   4.0   -0.07    4.10    3.81     6.07842    53.04668   -17.44721
   574  H   1.0    0.10    1.09    1.44     1.60675    53.97372   -17.18454
   575  H   1.0    0.05    1.07    1.44     4.88096    53.55982   -21.30414
   576  H   1.0    0.04    1.00    1.43     7.94995    52.33355   -17.92720
   577  H   1.0    0.04    1.00    1.43     6.16383    55.07949   -17.12785
   578  H   1.0    0.06    1.00    1.43     5.37595    52.09777   -15.75968
   579  N   5.0   -0.13    3.43    2.04     5.54804    49.24479   -22.64963
   580  C   4.0    0.03    4.35    4.29     5.97644    46.73399   -23.74000
   581  C   4.0    0.14    3.39    3.07     8.49677    45.70591   -22.74789
   582  O   6.0   -0.30    1.24    1.80    10.05334    47.13702   -21.75767
   583  C   4.0   -0.05    4.26    4.11     6.08651    46.86082   -26.65773
   584  C   4.0   -0.05    4.16    3.92     3.63607    47.66959   -27.95787
   585  C   4.0   -0.05    4.16    3.93     3.76464    47.43178   -30.84726
   586  C   4.0   -0.04    4.12    3.85     3.22671    44.79948   -31.84314
   587  N   5.0   -0.12    4.00    2.87     0.52078    44.08168   -31.56535
   588  H   1.0    0.08    1.06    1.44     6.20328    50.64212   -23.80425
   589  H   1.0    0.05    1.05    1.44     4.43248    45.47381   -23.21654
   590  H   1.0    0.04    1.03    1.43     7.54263    48.21648   -27.19253
   591  H   1.0    0.04    1.03    1.43     6.57137    44.98924   -27.37016
   592  H   1.0    0.05    1.03    1.43     2.09485    46.47646   -27.28890
   593  H   1.0    0.05    1.03    1.43     3.25109    49.64030   -27.49866
   594  H   1.0    0.04    1.03    1.43     2.37417    48.70632   -31.67496
   595  H   1.0    0.04    1.03    1.43     5.65762    47.95517   -31.46709
   596  H   1.0    0.03    1.02    1.43     3.70614    44.72497   -33.84436
   597  H   1.0    0.03    1.02    1.43     4.36092    43.43591   -30.79434
   598  H   1.0    0.05    1.01    1.43     0.23000    42.26852   -32.26833
   599  H   1.0    0.05    1.02    1.43     0.00705    44.12111   -29.66807
   600  H   1.0    0.05    1.02    1.43    -0.61390    45.34024   -32.55935
   601  N   5.0   -0.16    3.42    2.03     8.90137    43.22501   -23.06159
   602  C   4.0    0.03    4.30    4.20    11.20125    41.90601   -22.28680
   603  C   4.0    0.08    3.22    3.04    13.43590    42.81650   -23.86472
   604  O   6.0   -0.29    1.12    1.80    15.53345    43.03468   -22.89529
   605  C   4.0   -0.05    4.39    4.36    10.82884    39.05505   -22.62317
   606  C   4.0   -0.02    4.21    4.02    12.25961    37.36301   -20.82793
   607  C   4.0   -0.07    4.11    3.83    11.07320    37.39593   -18.20121
   608  C   4.0   -0.08    4.12    3.84    12.34137    34.68917   -21.83704
   609  H   1.0    0.06    1.07    1.44     7.62147    42.03656   -23.87795
   610  H   1.0    0.05    1.06    1.44    11.59883    42.26429   -20.29881
   611  H   1.0    0.03    1.04    1.43     8.82521    38.64016   -22.37939
   612  H   1.0    0.04    1.04    1.43    11.42525    38.55493   -24.52990
   613  H   1.0    0.05    1.06    1.44    14.18836    38.06634   -20.65974
   614  H   1.0    0.04    1.00    1.43    12.15341    36.15611   -16.96155
   615  H   1.0    0.05    1.00    1.43    11.10916    39.32164   -17.47367
   616  H   1.0    0.03    1.00    1.43     9.12763    36.73307   -18.33538
   617  H   1.0    0.04    1.00    1.43    13.38102    33.50448   -20.51235
   618  H   1.0    0.04    1.00    1.43    10.41401    33.99100   -22.04113
   619  H   1.0    0.04    1.00    1.43    13.28690    34.69174   -23.66819
   620  N   5.0   -0.19    3.21    1.96   -32.91525    40.41779   -14.29200
   621  C   4.0    0.04    4.24    4.08   -31.50929    42.26972   -12.82368
   622  C   4.0    0.09    3.19    3.03   -31.19560    44.68479   -14.40727
   623  O   6.0   -0.28    1.13    1.80   -30.77608    44.52983   -16.69195
   624  C   4.0    0.05    4.19    3.97   -29.04887    41.09998   -11.73898
   625  O   6.0   -0.24    2.08    1.84   -28.20416    42.53617    -9.61871
   626  C   4.0   -0.06    4.05    3.71   -26.92482    40.79951   -13.69484
   627  H   1.0    0.08    1.03    1.43   -31.87023    38.85687   -14.72663
   628  H   1.0    0.06    1.07    1.44   -32.51273    42.86120   -11.12482
   629  H   1.0    0.04    1.05    1.44   -29.49106    39.18002   -11.13616
   630  H   1.0    0.13    1.01    1.43   -26.65081    41.79918    -8.93273
   631  H   1.0    0.05    1.00    1.43   -25.26186    39.97181   -12.80667
   632  H   1.0    0.05    1.00    1.43   -27.54654    39.57119   -15.22741
   633  H   1.0    0.06    1.00    1.43   -26.42026    42.63821   -14.47530
   634  N   5.0   -0.20    3.20    1.96   -35.87645    56.65809    -4.55046
   635  C   4.0    0.03    4.31    4.22   -34.23994    54.63986    -5.46509
   636  C   4.0    0.14    3.40    3.08   -35.06009    52.15865    -4.26322
   637  O   6.0   -0.30    1.22    1.80   -35.28307    51.98291    -1.94075
   638  C   4.0   -0.03    4.30    4.21   -31.44882    55.19166    -4.86226
   639  C   4.0   -0.00    3.52    3.13   -29.61579    53.39831    -6.13783
   640  C   4.0   -0.03    3.45    3.10   -28.74840    53.85941    -8.57936
   641  C   4.0   -0.03    3.45    3.10   -28.68982    51.28182    -4.87549
   642  C   4.0   -0.02    3.42    3.08   -27.05710    52.21912    -9.76232
   643  C   4.0   -0.03    3.43    3.09   -27.00040    49.62831    -6.04334
   644  C   4.0    0.09    3.43    3.09   -26.18593    50.11019    -8.48676
   645  O   6.0   -0.22    2.10    1.84   -24.50030    48.52282    -9.65650
   646  H   1.0    0.09    1.02    1.43   -35.32654    57.37808    -2.84971
   647  H   1.0    0.04    1.06    1.44   -34.41380    54.47546    -7.51166
   648  H   1.0    0.05    1.03    1.43   -31.00095    57.10029    -5.49154
   649  H   1.0    0.06    1.03    1.43   -31.16725    55.03671    -2.82703
   650  H   1.0    0.05    1.03    1.43   -29.39658    55.51859    -9.57524
   651  H   1.0    0.06    1.03    1.43   -29.29075    50.91521    -2.95931
   652  H   1.0    0.07    1.03    1.43   -26.42971    52.59518   -11.66717
   653  H   1.0    0.08    1.04    1.43   -26.32955    47.97858    -5.04746
   654  H   1.0    0.14    1.03    1.43   -24.05999    47.12253    -8.52644
   655  N   5.0   -0.14    3.43    2.04   -35.53819    50.24436    -5.85815
   656  C   4.0    0.04    4.44    4.44   -36.31675    47.72725    -5.01722
   657  C   4.0    0.15    3.37    3.07   -34.17002    45.87720    -5.58414
   658  O   6.0   -0.30    1.22    1.80   -33.40658    45.62965    -7.77055
   659  C   4.0   -0.02    4.25    4.10   -38.91891    46.93167    -6.17562
   660  C   4.0   -0.05    4.12    3.84   -40.96359    49.02360    -5.89972
   661  C   4.0   -0.07    4.07    3.75   -39.86755    44.38999    -5.16462
   662  C   4.0   -0.07    3.94    3.53   -41.43035    50.15554    -3.16151
   663  H   1.0    0.08    1.05    1.44   -35.39646    50.39365    -7.77433
   664  H   1.0    0.06    1.07    1.44   -36.56242    47.71402    -2.97254
   665  H   1.0    0.05    1.06    1.44   -38.56553    46.68601    -8.19007
   666  H   1.0    0.04    1.02    1.43   -40.42124    50.59963    -7.10915
   667  H   1.0    0.04    1.02    1.43   -42.75883    48.23747    -6.53089
   668  H   1.0    0.04    1.00    1.43   -41.67791    43.95157    -6.04334
   669  H   1.0    0.05    1.00    1.43   -38.49183    42.92923    -5.62571
   670  H   1.0    0.05    1.00    1.43   -40.09243    44.52227    -3.12183
   671  H   1.0    0.04    0.99    1.43   -42.90623    51.58796    -3.27112
   672  H   1.0    0.04    1.00    1.43   -42.01806    48.63809    -1.89917
   673  H   1.0    0.06    1.00    1.43   -39.68047    51.00025    -2.47743
   674  N   5.0   -0.13    3.42    2.03   -33.13823    44.68479    -3.59048
   675  C   4.0    0.04    4.36    4.31   -31.09544    42.83286    -3.76811
   676  C   4.0    0.14    3.38    3.07   -32.16880    40.16645    -3.35615
   677  O   6.0   -0.31    1.27    1.80   -33.86200    39.79796    -1.79146
   678  C   4.0   -0.04    4.22    4.05   -28.98084    43.47347    -1.85571
   679  C   4.0   -0.03    4.18    3.96   -26.62624    41.80484    -1.95965
   680  C   4.0    0.24    3.11    3.02   -24.63447    42.35475    -3.95331
   681  O   6.0   -0.30    1.20    1.80   -24.14125    44.61109    -4.47109
   682  O   6.0   -0.28    1.17    1.80   -23.43449    40.52739    -4.86415
   683  H   1.0    0.10    1.06    1.44   -33.70893    44.98336    -1.77445
   684  H   1.0    0.06    1.07    1.44   -30.24317    42.84797    -5.64272
   685  H   1.0    0.06    1.03    1.43   -28.36857    45.41044    -2.19964
   686  H   1.0    0.05    1.03    1.43   -29.75940    43.30718     0.04346
   687  H   1.0    0.05    1.03    1.43   -25.67949    41.95035    -0.13606
   688  H   1.0    0.05    1.04    1.43   -27.24985    39.86788    -2.27901
   689  N   5.0   -0.15    3.42    2.03   -31.18993    38.33153    -4.79235
   690  C   4.0    0.04    4.44    4.44   -32.00629    35.70103    -4.63172
   691  C   4.0    0.14    3.36    3.07   -29.70838    33.90957    -4.48243
   692  O   6.0   -0.30    1.20    1.80   -28.25329    33.68658    -6.29090
   693  C   4.0   -0.01    4.23    4.06   -33.96782    34.98860    -6.71231
   694  C   4.0   -0.07    4.10    3.81   -33.31776    36.12811    -9.27855
   695  C   4.0   -0.07    4.10    3.79   -34.42892    32.14268    -6.88427
   696  H   1.0    0.09    1.06    1.44   -29.80665    38.62444    -6.10193
   697  H   1.0    0.07    1.09    1.44   -32.93414    35.43080    -2.81191
   698  H   1.0    0.04    1.07    1.44   -35.75550    35.83142    -6.13216
   699  H   1.0    0.04    1.00    1.43   -34.75206    35.56497   -10.64483
   700  H   1.0    0.04    1.00    1.43   -33.27618    38.18035    -9.11037
   701  H   1.0    0.05    1.00    1.43   -31.47150    35.43458    -9.87193
   702  H   1.0    0.04    1.00    1.43   -35.81220    31.77607    -8.36582
   703  H   1.0    0.06    1.00    1.43   -32.65257    31.20159    -7.33214
   704  H   1.0    0.06    1.00    1.43   -35.14323    31.46804    -5.07391
   705  N   5.0   -0.13    3.42    2.03   -29.38335    32.69070    -2.26200
   706  C   4.0    0.03    4.35    4.30   -27.34622    30.89168    -1.69319
   707  C   4.0    0.15    3.36    3.07   -28.44793    28.25929    -1.17352
   708  O   6.0   -0.28    1.23    1.80   -30.65702    28.05520    -0.45542
   709  C   4.0   -0.04    4.25    4.11   -25.75130    31.80819     0.55747
   710  C   4.0   -0.03    4.22    4.05   -24.13747    34.13067    -0.02835
   711  C   4.0    0.15    3.22    3.04   -22.48774    34.89979     2.16563
   712  O   6.0   -0.29    1.20    1.80   -23.39481    35.62733     4.19330
   713  N   5.0   -0.17    3.18    1.95   -20.01787    34.82042     1.78201
   714  H   1.0    0.10    1.06    1.44   -30.56443    32.93258    -0.75967
   715  H   1.0    0.05    1.06    1.44   -26.09901    30.71782    -3.32403
   716  H   1.0    0.06    1.03    1.43   -27.01552    32.29574     2.10893
   717  H   1.0    0.05    1.03    1.43   -24.48329    30.29074     1.13195
   718  H   1.0    0.05    1.04    1.43   -22.91293    33.71304    -1.63083
   719  H   1.0    0.06    1.03    1.43   -25.37524    35.71237    -0.48188
   720  H   1.0    0.09    1.03    1.43   -19.32623    34.26106     0.07181
   721  H   1.0    0.10    1.02    1.43   -18.80655    35.31931     3.19553
   722  N   5.0   -0.13    3.40    2.02   -26.91537    26.25051    -1.55902
   723  C   4.0    0.04    4.22    4.04   -27.69393    23.61434    -1.17919
   724  C   4.0    0.08    3.18    3.03   -27.79787    22.87168     1.62516
   725  O   6.0   -0.27    1.13    1.80   -27.13457    24.40047     3.25222
   726  C   4.0   -0.08    4.09    3.79   -25.96106    21.84745    -2.64751
   727  H   1.0    0.07    1.06    1.44   -25.08611    26.40736    -2.14673
   728  H   1.0    0.05    1.06    1.44   -29.61390    23.44427    -1.90484
   729  H   1.0    0.04    1.00    1.43   -26.56955    19.90292    -2.34137
   730  H   1.0    0.04    1.00    1.43   -26.07255    22.31043    -4.65062
   731  H   1.0    0.05    1.00    1.43   -24.02976    22.09311    -1.97665
   732  N   5.0   -0.20    3.20    1.95    17.60111    46.17703   -13.24257
   733  C   4.0    0.03    4.35    4.28    14.91485    45.56877   -13.08194
   734  C   4.0    0.14    3.35    3.07    14.51236    42.68300   -12.93265
   735  O   6.0   -0.31    1.20    1.80    15.04679    41.31136   -14.74112
   736  C   4.0   -0.02    4.23    4.06    13.31711    46.91130   -15.16253
   737  C   4.0   -0.06    4.10    3.81    14.62898    46.91808   -17.72878
   738  C   4.0   -0.06    4.10    3.80    10.62192    45.88765   -15.33450
   739  H   1.0    0.09    1.02    1.43    18.54642    45.12553   -14.55215
   740  H   1.0    0.06    1.09    1.44    14.21690    46.23720   -11.26214
   741  H   1.0    0.04    1.07    1.44    13.15317    48.88089   -14.58239
   742  H   1.0    0.06    1.01    1.43    13.42414    47.87865   -19.09505
   743  H   1.0    0.04    1.00    1.43    16.42706    47.90820   -17.56059
   744  H   1.0    0.07    1.00    1.43    14.95150    44.97240   -18.32215
   745  H   1.0    0.06    1.00    1.43     9.61278    46.90231   -16.81604
   746  H   1.0    0.05    1.00    1.43    10.69508    43.87876   -15.78236
   747  H   1.0    0.06    1.00    1.43     9.68051    46.16895   -13.52414
   748  N   5.0   -0.13    3.42    2.03    13.61930    41.79207   -10.71223
   749  C   4.0    0.03    4.35    4.30    13.07987    39.12836   -10.14342
   750  C   4.0    0.15    3.36    3.07    10.24929    38.76628    -9.62374
   751  O   6.0   -0.29    1.23    1.80     8.96800    40.57736    -8.90565
   752  C   4.0   -0.04    4.25    4.11    14.67106    38.20537    -7.89276
   753  C   4.0   -0.03    4.22    4.05    17.48929    37.96900    -8.47857
   754  C   4.0    0.15    3.22    3.04    18.98023    36.92485    -6.28460
   755  O   6.0   -0.28    1.20    1.80    19.15677    38.07416    -4.25692
   756  N   5.0   -0.19    3.18    1.95    20.14643    34.74619    -6.66821
   757  H   1.0    0.10    1.06    1.44    13.23824    42.93586    -9.20989
   758  H   1.0    0.05    1.06    1.44    13.55291    37.96131   -11.77425
   759  H   1.0    0.07    1.03    1.43    14.46117    39.54400    -6.34129
   760  H   1.0    0.05    1.03    1.43    13.99091    36.34852    -7.31828
   761  H   1.0    0.04    1.04    1.43    17.73988    36.69970   -10.08106
   762  H   1.0    0.06    1.03    1.43    18.24020    39.83179    -8.93210
   763  H   1.0    0.08    1.03    1.43    20.00783    33.86753    -8.37841
   764  H   1.0    0.09    1.02    1.43    21.18414    33.94660    -5.25470
   765  N   5.0   -0.14    3.40    2.02     9.27593    36.43465   -10.00925
   766  C   4.0    0.03    4.22    4.04     6.60365    35.79082    -9.62941
   767  C   4.0    0.08    3.18    3.03     5.90852    35.50950    -6.82506
   768  O   6.0   -0.27    1.13    1.80     7.56414    35.69947    -5.19801
   769  C   4.0   -0.08    4.09    3.79     5.93992    33.40666   -11.09773
   770  H   1.0    0.07    1.06    1.44    10.32639    34.92889   -10.59695
   771  H   1.0    0.04    1.06    1.44     5.49638    37.36852   -10.35507
   772  H   1.0    0.04    1.00    1.43     3.95166    32.96136   -10.79159
   773  H   1.0    0.04    1.00    1.43     6.28513    33.73471   -13.10084
   774  H   1.0    0.04    1.00    1.43     7.11832    31.85694   -10.42688
   775  H   1.0    0.09    1.08    1.44   -41.35237    50.23313     3.04750
   776  H   1.0    0.05    1.04    1.43   -37.05301    26.68509    -2.23722
   777  H   1.0    0.09    1.07    1.44    14.83300    53.03101    -6.20515
   778  H   1.0    0.05    1.04    1.43     5.49385    62.39423   -11.87040
   779  H   1.0    0.05    1.04    1.43   -17.67341    59.76075    26.70921
   780  H   1.0    0.09    1.08    1.44   -12.32285    61.50975    17.71407
   781  H   1.0    0.05    1.04    1.43   -22.35421    72.66993     2.29049
   782  H   1.0    0.10    1.07    1.44    -4.60502    76.45707     7.60691
   783  H   1.0    0.05    1.04    1.43    -9.09475    72.59495    10.78609
   784  H   1.0    0.09    1.07    1.44   -25.36885    65.27043     6.92852
   785  H   1.0    0.05    1.04    1.43   -27.12333    55.63237     9.65757
   786  H   1.0    0.09    1.07    1.44    16.11453    67.53598    11.07449
   787  H   1.0    0.05    1.05    1.44    10.51337    71.63967     9.51740
   788  H   1.0    0.09    1.08    1.44     6.20525    72.37933     6.78143
   789  H   1.0    0.08    1.04    1.43    -3.13069    64.76434    18.63449
   790  H   1.0    0.11    1.08    1.44    -0.52824    57.92430   -18.91657
   791  H   1.0    0.05    1.04    1.44    13.19405    43.23668   -25.69120
   792  H   1.0    0.09    1.07    1.44   -34.27234    39.90245   -13.40584
   793  H   1.0    0.06    1.04    1.43   -31.33211    46.37967   -13.58277
   794  H   1.0    0.09    1.07    1.44   -35.87851    57.93856    -5.66982
   795  H   1.0    0.05    1.04    1.43   -28.40226    21.15256     2.12556
   796  H   1.0    0.09    1.07    1.44    17.78831    47.81265   -13.66949
   797  H   1.0    0.05    1.04    1.43     4.11752    35.17336    -6.32467

  Z AO/shell   Hii/eV     exponent
  1     Wed Apr 25 08:07:45 CEST 2018   EN: 2.200 GM2: 0.406  GM3: 0.0800  RAES: 1.40
     1s    -10.707211    1.230000
  6     Wed Apr 25 08:07:45 CEST 2018   EN: 2.550 GM2: 0.538  GM3: 0.1500  RAES: 3.00
     2s    -13.970922    2.096432
     2p    -10.063292    1.800000
  7     Wed Apr 25 08:07:45 CEST 2018   EN: 3.040 GM2: 0.461  GM3:-0.0640  RAES: 1.90
     2s    -16.686243    2.339881
     2p    -12.523956    2.014332
  8     Wed Apr 25 08:07:45 CEST 2018   EN: 3.440 GM2: 0.452  GM3:-0.0517  RAES: 1.80
     2s    -20.229985    2.439742
     2p    -15.503117    2.137023
 no old-style atom pair restraining (fixing) potential

molecular fragmentation (1/2 indicates fragments):
111111111111111111111111111111111111111111111111111111111111111111111111
111111111111111112222222222222222222222222222222222222222222222222222222
222222222222222222222222222222222222222222222222222222222222222222222222
222222222222222222222222222222222222222222222222222222222222222222222222
222222222222222222222222222222222222222222222222222222222222222222222222
222222222222222222222222222222222222222222222222222222222222222222222222
222222222222222222222222222222222222222222222222222222222222222222222222
222222222222222222222222222222222222222222222222222222222222222222222222
222222222222222222222222222222222222222222222222222222222222222222222222
222222222222222222222222222222222222222222222222222222222222222222222222
222222222222222222222222222222222222222222222222222222222212222222222222
22222
# atoms in fragment 1/2:    90   707
 fragment masses (1/2) :      566.74     4894.51
CMA distance (Bohr)    :  20.311
constraining FC (au)   :  0.0500
           ------------------------------------------------- 
          |        Self-Consistent Charge Iterations        |
           ------------------------------------------------- 

 Ncao       : 1943
 Nao        : 1943
 Nshell     : 1179
 Nel        : 2172
 T(el)      :   500.0
 intcut     :    35.0
 scfconv/Eh :  0.100E-06
   qconv/e  :  0.100E-04
 intneglect :  0.100E-08
 broydamp   :      0.400
 iter      E             dE          RMSdq      gap      omega  full diag
   1  -1249.4429063 -0.124944E+04  0.475E+00    3.19       0.0  T
   2  -1252.7883584 -0.334545E+01  0.219E+00    1.67       1.0  T
   3  -1253.0138741 -0.225516E+00  0.126E+00    1.80       1.0  T
   4  -1253.2169401 -0.203066E+00  0.272E-01    1.00       1.0  T
   5  -1253.2297568 -0.128168E-01  0.131E-01    1.17       1.0  T
   6  -1253.2319707 -0.221389E-02  0.546E-02    1.20       1.0  T
   7  -1253.2325225 -0.551794E-03  0.251E-02    1.23       1.0  T
   8  -1253.2325896 -0.671063E-04  0.129E-02    1.26       1.0  T
   9  -1253.2326254 -0.357346E-04  0.574E-03    1.27       1.0  T
  10  -1253.2326313 -0.588817E-05  0.282E-03    1.28       1.3  T
  11  -1253.2326328 -0.153892E-05  0.114E-03    1.28       3.1  T
  12  -1253.2326330 -0.196977E-06  0.499E-04    1.28       7.1  T
  13  -1253.2326330 -0.543785E-07  0.228E-04    1.28      15.5  T
  14  -1253.2326331 -0.792147E-08  0.106E-04    1.28      33.4  T
  15  -1253.2326331 -0.235718E-08  0.420E-05    1.28      84.3  T
  16  -1253.2326331 -0.397677E-09  0.179E-05    1.28     198.2  T
speedup  1.91
cpu  time for SCC    1 m 53.9 s
wall time for SCC    0 m 59.7 s

   *** convergence criteria satisfied after 16 iterations ***

          eigenvalues
 #    :        1074       1075       1076       1077       1078       1079       1080       1081
 occ. :        2.000      2.000      2.000      2.000      2.000      2.000      2.000      2.000
 eps  :       -10.188    -10.124    -10.108    -10.075    -10.060    -10.035    -10.020    -10.008
 #    :        1082       1083       1084       1085       1086       1087       1088       1089
 occ. :        2.000      2.000      2.000      2.000      2.000      0.000      0.000      0.000
 eps  :        -9.950     -9.904     -9.902     -9.873     -9.869     -8.593     -8.484     -8.307
 #    :        1090       1091       1092       1093       1094       1095       1096       1097
 occ. :        0.000      0.000      0.000      0.000      0.000      0.000      0.000      0.000
 eps  :        -8.087     -8.070     -8.003     -7.930     -7.902     -7.901     -7.889     -7.863


   #   Z            q   n(s)   n(p)   n(d)      C6AA      α(0)
   1   7 N     -0.035  1.228  3.807  0.000    21.917     6.953
   2   6 C     -0.015  1.067  2.948  0.000    20.841     6.498
   3   6 C      0.250  1.044  2.706  0.000    22.797     7.818
   4   8 O     -0.454  1.740  4.714  0.000    22.785     6.400
   5   6 C     -0.071  1.046  3.024  0.000    21.822     6.646
   6   6 C     -0.085  1.042  3.043  0.000    22.083     6.685
   7   6 C     -0.050  1.058  2.992  0.000    21.513     6.612
   8   1 H      0.261  0.739  0.000  0.000     0.843     1.438
   9   1 H      0.292  0.708  0.000  0.000     0.736     1.344
  10   1 H      0.085  0.915  0.000  0.000     1.928     2.171
  11   1 H      0.076  0.924  0.000  0.000     2.025     2.226
  12   1 H      0.071  0.929  0.000  0.000     2.076     2.253
  13   1 H      0.096  0.904  0.000  0.000     1.819     2.109
  14   1 H      0.098  0.902  0.000  0.000     1.803     2.100
  15   1 H      0.139  0.861  0.000  0.000     1.469     1.896
  16   1 H      0.113  0.887  0.000  0.000     1.671     2.022
  17   7 N     -0.080  1.241  3.839  0.000    22.788     7.090
  18   6 C      0.010  1.071  2.919  0.000    20.403     6.429
  19   6 C      0.273  1.040  2.686  0.000    22.379     7.747
  20   8 O     -0.493  1.747  4.745  0.000    23.620     6.516
  21   6 C     -0.069  1.052  3.017  0.000    21.791     6.642
  22   6 C     -0.065  1.037  3.027  0.000    21.718     6.630
  23   6 C     -0.000  1.048  2.953  0.000    20.626     6.473
  24   1 H      0.084  0.916  0.000  0.000     1.939     2.178
  25   1 H      0.054  0.946  0.000  0.000     2.266     2.354
  26   1 H      0.053  0.947  0.000  0.000     2.283     2.363
  27   1 H      0.044  0.956  0.000  0.000     2.393     2.419
  28   1 H      0.059  0.941  0.000  0.000     2.216     2.328
  29   1 H      0.052  0.948  0.000  0.000     2.301     2.372
  30   1 H      0.055  0.945  0.000  0.000     2.262     2.352
  31   7 N     -0.173  1.251  3.922  0.000    24.745     7.388
  32   6 C      0.008  1.065  2.927  0.000    20.451     6.440
  33   6 C      0.266  1.047  2.687  0.000    22.520     7.771
  34   8 O     -0.464  1.729  4.734  0.000    22.993     6.429
  35   6 C     -0.023  1.063  2.960  0.000    20.951     6.511
  36   6 C     -0.129  1.046  3.083  0.000    23.039     6.844
  37   6 C     -0.122  1.044  3.077  0.000    22.888     6.822
  38   1 H      0.237  0.763  0.000  0.000     0.937     1.516
  39   1 H      0.067  0.933  0.000  0.000     2.120     2.277
  40   1 H      0.070  0.930  0.000  0.000     2.084     2.258
  41   1 H      0.074  0.926  0.000  0.000     2.046     2.237
  42   1 H      0.049  0.951  0.000  0.000     2.337     2.390
  43   1 H      0.045  0.955  0.000  0.000     2.386     2.415
  44   1 H      0.063  0.937  0.000  0.000     2.166     2.301
  45   1 H      0.042  0.958  0.000  0.000     2.423     2.434
  46   1 H      0.043  0.957  0.000  0.000     2.404     2.425
  47   7 N     -0.158  1.243  3.916  0.000    24.429     7.341
  48   6 C      0.003  1.065  2.932  0.000    20.532     6.451
  49   6 C      0.274  1.039  2.687  0.000    22.366     7.744
  50   8 O     -0.479  1.753  4.726  0.000    23.317     6.474
  51   6 C     -0.030  1.069  2.961  0.000    21.074     6.530
  52   6 C     -0.069  1.045  3.024  0.000    21.824     6.651
  53   6 C     -0.122  1.044  3.078  0.000    22.896     6.823
  54   6 C     -0.112  1.033  3.079  0.000    22.702     6.794
  55   1 H      0.207  0.793  0.000  0.000     1.072     1.622
  56   1 H      0.072  0.928  0.000  0.000     2.064     2.247
  57   1 H      0.055  0.945  0.000  0.000     2.253     2.347
  58   1 H      0.042  0.958  0.000  0.000     2.427     2.436
  59   1 H      0.038  0.962  0.000  0.000     2.479     2.462
  60   1 H      0.061  0.939  0.000  0.000     2.190     2.314
  61   1 H      0.044  0.956  0.000  0.000     2.391     2.418
  62   1 H      0.050  0.950  0.000  0.000     2.315     2.379
  63   1 H      0.032  0.968  0.000  0.000     2.561     2.503
  64   1 H      0.037  0.963  0.000  0.000     2.488     2.467
  65   1 H      0.051  0.949  0.000  0.000     2.312     2.378
  66   7 N     -0.163  1.242  3.921  0.000    24.535     7.357
  67   6 C      0.014  1.065  2.921  0.000    20.358     6.427
  68   6 C      0.195  1.092  2.713  0.000    23.832     7.994
  69   8 O     -0.351  1.764  4.587  0.000    20.726     6.104
  70   6 C     -0.095  1.060  3.035  0.000    22.306     6.724
  71   6 C     -0.096  1.056  3.040  0.000    22.330     6.728
  72   6 C     -0.031  1.057  2.975  0.000    21.217     6.573
  73   7 N     -0.143  1.211  3.933  0.000    24.104     7.292
  74   6 C      0.230  1.017  2.753  0.000    23.168     7.881
  75   7 N     -0.244  1.229  4.015  0.000    26.369     7.627
  76   7 N     -0.256  1.238  4.018  0.000    26.650     7.667
  77   1 H      0.213  0.787  0.000  0.000     1.044     1.601
  78   1 H      0.101  0.899  0.000  0.000     1.777     2.085
  79   1 H      0.074  0.926  0.000  0.000     2.038     2.233
  80   1 H      0.090  0.910  0.000  0.000     1.876     2.142
  81   1 H      0.075  0.925  0.000  0.000     2.033     2.230
  82   1 H      0.086  0.914  0.000  0.000     1.921     2.168
  83   1 H      0.085  0.915  0.000  0.000     1.927     2.171
  84   1 H      0.099  0.901  0.000  0.000     1.791     2.093
  85   1 H      0.236  0.764  0.000  0.000     0.939     1.518
  86   1 H      0.233  0.767  0.000  0.000     0.954     1.530
  87   1 H      0.249  0.751  0.000  0.000     0.886     1.475
  88   1 H      0.252  0.748  0.000  0.000     0.874     1.464
  89   1 H      0.256  0.744  0.000  0.000     0.862     1.455
  90   7 N     -0.395  1.323  4.072  0.000    30.237     8.167
  91   6 C      0.027  1.053  2.921  0.000    20.139     6.392
  92   6 C      0.266  1.046  2.689  0.000    22.516     7.770
  93   8 O     -0.514  1.774  4.740  0.000    24.091     6.581
  94   6 C     -0.122  1.046  3.076  0.000    22.884     6.820
  95   1 H      0.156  0.844  0.000  0.000     1.363     1.829
  96   1 H      0.065  0.935  0.000  0.000     2.145     2.291
  97   1 H      0.049  0.951  0.000  0.000     2.334     2.389
  98   1 H      0.063  0.937  0.000  0.000     2.167     2.302
  99   1 H      0.023  0.977  0.000  0.000     2.688     2.564
 100   7 N     -0.182  1.246  3.937  0.000    24.947     7.418
 101   6 C      0.015  1.056  2.929  0.000    20.331     6.421
 102   6 C      0.267  1.043  2.690  0.000    22.493     7.766
 103   8 O     -0.461  1.729  4.732  0.000    22.946     6.422
 104   6 C      0.110  1.047  2.843  0.000    18.872     6.202
 105   8 O     -0.466  1.728  4.738  0.000    22.179     6.357
 106   6 C     -0.141  1.048  3.093  0.000    23.284     6.881
 107   1 H      0.256  0.744  0.000  0.000     0.859     1.452
 108   1 H      0.056  0.944  0.000  0.000     2.249     2.345
 109   1 H      0.031  0.969  0.000  0.000     2.575     2.510
 110   1 H      0.342  0.658  0.000  0.000     0.609     1.226
 111   1 H      0.081  0.919  0.000  0.000     1.965     2.192
 112   1 H      0.040  0.960  0.000  0.000     2.443     2.444
 113   1 H      0.068  0.932  0.000  0.000     2.103     2.268
 114   7 N     -0.154  1.231  3.923  0.000    24.334     7.326
 115   6 C     -0.039  1.048  2.991  0.000    21.345     6.591
 116   6 C      0.277  1.037  2.686  0.000    22.308     7.734
 117   8 O     -0.493  1.762  4.731  0.000    23.624     6.517
 118   1 H      0.205  0.795  0.000  0.000     1.083     1.630
 119   1 H      0.109  0.891  0.000  0.000     1.709     2.045
 120   1 H      0.101  0.899  0.000  0.000     1.773     2.083
 121   7 N     -0.177  1.243  3.933  0.000    24.829     7.401
 122   6 C      0.020  1.054  2.926  0.000    20.253     6.410
 123   6 C      0.252  1.053  2.695  0.000    22.772     7.815
 124   8 O     -0.472  1.735  4.737  0.000    23.171     6.454
 125   6 C      0.070  1.039  2.892  0.000    19.624     6.346
 126   8 O     -0.497  1.733  4.764  0.000    22.838     6.451
 127   1 H      0.230  0.770  0.000  0.000     0.966     1.539
 128   1 H      0.074  0.926  0.000  0.000     2.044     2.236
 129   1 H      0.055  0.945  0.000  0.000     2.264     2.353
 130   1 H      0.056  0.944  0.000  0.000     2.244     2.343
 131   1 H      0.354  0.646  0.000  0.000     0.579     1.195
 132   7 N     -0.074  1.238  3.836  0.000    22.679     7.073
 133   6 C      0.004  1.071  2.925  0.000    20.496     6.444
 134   6 C      0.269  1.045  2.686  0.000    22.459     7.760
 135   8 O     -0.471  1.746  4.725  0.000    23.158     6.452
 136   6 C     -0.077  1.053  3.024  0.000    21.937     6.663
 137   6 C     -0.077  1.045  3.032  0.000    21.934     6.663
 138   6 C     -0.012  1.054  2.959  0.000    20.831     6.504
 139   1 H      0.076  0.924  0.000  0.000     2.017     2.221
 140   1 H      0.057  0.943  0.000  0.000     2.229     2.335
 141   1 H      0.081  0.919  0.000  0.000     1.967     2.193
 142   1 H      0.044  0.956  0.000  0.000     2.395     2.420
 143   1 H      0.068  0.932  0.000  0.000     2.108     2.271
 144   1 H      0.075  0.925  0.000  0.000     2.033     2.229
 145   1 H      0.088  0.912  0.000  0.000     1.903     2.157
 146   7 N     -0.178  1.247  3.932  0.000    24.866     7.406
 147   6 C      0.023  1.063  2.915  0.000    20.199     6.401
 148   6 C      0.264  1.050  2.686  0.000    22.549     7.776
 149   8 O     -0.510  1.760  4.749  0.000    24.000     6.568
 150   6 C     -0.015  1.059  2.956  0.000    20.799     6.487
 151   6 C     -0.097  1.035  3.061  0.000    22.401     6.748
 152   6 C     -0.123  1.047  3.076  0.000    22.915     6.826
 153   1 H      0.207  0.793  0.000  0.000     1.073     1.623
 154   1 H      0.062  0.938  0.000  0.000     2.180     2.309
 155   1 H      0.046  0.954  0.000  0.000     2.375     2.410
 156   1 H      0.039  0.961  0.000  0.000     2.461     2.453
 157   1 H      0.027  0.973  0.000  0.000     2.631     2.537
 158   1 H      0.036  0.964  0.000  0.000     2.501     2.473
 159   1 H      0.055  0.945  0.000  0.000     2.257     2.349
 160   1 H      0.053  0.947  0.000  0.000     2.277     2.360
 161   1 H      0.059  0.941  0.000  0.000     2.211     2.325
 162   7 N     -0.085  1.243  3.842  0.000    22.905     7.108
 163   6 C      0.023  1.061  2.917  0.000    20.176     6.392
 164   6 C      0.278  1.040  2.682  0.000    22.303     7.733
 165   8 O     -0.496  1.742  4.754  0.000    23.692     6.526
 166   6 C     -0.064  1.050  3.014  0.000    21.694     6.626
 167   6 C     -0.064  1.041  3.023  0.000    21.695     6.626
 168   6 C     -0.004  1.048  2.955  0.000    20.671     6.478
 169   1 H      0.062  0.938  0.000  0.000     2.176     2.307
 170   1 H      0.057  0.943  0.000  0.000     2.238     2.340
 171   1 H      0.047  0.953  0.000  0.000     2.359     2.402
 172   1 H      0.071  0.929  0.000  0.000     2.072     2.251
 173   1 H      0.068  0.932  0.000  0.000     2.112     2.272
 174   1 H      0.063  0.937  0.000  0.000     2.161     2.299
 175   1 H      0.081  0.919  0.000  0.000     1.966     2.193
 176   7 N     -0.172  1.248  3.924  0.000    24.721     7.384
 177   6 C      0.023  1.055  2.922  0.000    20.197     6.399
 178   6 C      0.269  1.041  2.690  0.000    22.456     7.761
[...]
 511   8 O     -0.510  1.760  4.750  0.000    24.008     6.569
 512   6 C     -0.062  1.053  3.009  0.000    21.688     6.630
 513   6 C     -0.100  1.062  3.038  0.000    22.401     6.738
 514   6 C      0.284  1.040  2.676  0.000    22.196     7.714
 515   8 O     -0.528  1.766  4.762  0.000    24.416     6.625
 516   7 N     -0.280  1.272  4.008  0.000    27.239     7.751
 517   1 H      0.144  0.856  0.000  0.000     1.441     1.881
 518   1 H      0.052  0.948  0.000  0.000     2.289     2.366
 519   1 H      0.048  0.952  0.000  0.000     2.339     2.392
 520   1 H      0.049  0.951  0.000  0.000     2.327     2.386
 521   1 H      0.062  0.938  0.000  0.000     2.173     2.306
 522   1 H      0.080  0.920  0.000  0.000     1.976     2.198
 523   1 H      0.232  0.768  0.000  0.000     0.957     1.532
 524   1 H      0.241  0.759  0.000  0.000     0.918     1.501
 525   7 N     -0.173  1.249  3.924  0.000    24.746     7.388
 526   6 C      0.037  1.056  2.907  0.000    19.967     6.364
 527   6 C      0.282  1.044  2.674  0.000    22.221     7.719
 528   8 O     -0.490  1.746  4.744  0.000    23.556     6.507
 529   6 C     -0.093  1.070  3.023  0.000    22.268     6.718
 530   6 C      0.368  1.022  2.611  0.000    20.767     7.458
 531   8 O     -0.642  1.774  4.868  0.000    27.172     6.989
 532   8 O     -0.636  1.767  4.869  0.000    27.021     6.969
 533   1 H      0.219  0.781  0.000  0.000     1.016     1.579
 534   1 H      0.051  0.949  0.000  0.000     2.304     2.374
 535   1 H      0.041  0.959  0.000  0.000     2.436     2.441
 536   1 H      0.045  0.955  0.000  0.000     2.380     2.413
 537   7 N     -0.171  1.244  3.927  0.000    24.699     7.381
 538   6 C      0.024  1.057  2.919  0.000    20.191     6.400
 539   6 C      0.216  1.082  2.702  0.000    23.434     7.928
 540   8 O     -0.347  1.743  4.604  0.000    20.650     6.093
 541   6 C      0.078  1.035  2.887  0.000    19.486     6.323
 542   8 O     -0.464  1.734  4.729  0.000    22.125     6.350
 543   1 H      0.201  0.799  0.000  0.000     1.102     1.645
 544   1 H      0.113  0.887  0.000  0.000     1.673     2.023
 545   1 H      0.068  0.932  0.000  0.000     2.106     2.269
 546   1 H      0.052  0.948  0.000  0.000     2.294     2.369
 547   1 H      0.322  0.678  0.000  0.000     0.658     1.275
 548   7 N     -0.372  1.325  4.047  0.000    29.603     8.081
 549   6 C      0.040  1.056  2.903  0.000    19.913     6.357
 550   6 C      0.264  1.056  2.680  0.000    22.542     7.774
 551   8 O     -0.489  1.744  4.745  0.000    23.545     6.506
 552   6 C     -0.065  1.053  3.012  0.000    21.741     6.638
 553   6 C      0.009  1.083  2.908  0.000    27.815     8.651
 554   6 C     -0.033  1.082  2.951  0.000    28.823     8.804
 555   6 C     -0.041  1.087  2.954  0.000    29.027     8.835
 556   6 C     -0.059  1.073  2.986  0.000    29.462     8.901
 557   6 C     -0.077  1.080  2.997  0.000    29.929     8.971
 558   6 C      0.143  1.045  2.812  0.000    24.890     8.176
 559   8 O     -0.460  1.737  4.723  0.000    22.048     6.339
 560   1 H      0.153  0.847  0.000  0.000     1.383     1.842
 561   1 H      0.016  0.984  0.000  0.000     2.798     2.616
 562   1 H      0.070  0.930  0.000  0.000     2.085     2.258
 563   1 H      0.024  0.976  0.000  0.000     2.670     2.556
 564   1 H      0.008  0.992  0.000  0.000     2.923     2.673
 565   1 H      0.065  0.935  0.000  0.000     2.140     2.288
 566   1 H      0.019  0.981  0.000  0.000     2.744     2.590
 567   1 H      0.059  0.941  0.000  0.000     2.209     2.324
 568   1 H      0.355  0.645  0.000  0.000     0.576     1.193
 569   7 N     -0.197  1.255  3.942  0.000    25.279     7.467
 570   6 C      0.025  1.059  2.916  0.000    20.162     6.396
 571   6 C      0.275  1.046  2.678  0.000    22.345     7.740
 572   8 O     -0.485  1.745  4.740  0.000    23.453     6.493
 573   6 C     -0.119  1.041  3.077  0.000    22.829     6.813
 574   1 H      0.209  0.791  0.000  0.000     1.059     1.612
 575   1 H      0.065  0.935  0.000  0.000     2.144     2.290
 576   1 H      0.072  0.928  0.000  0.000     2.060     2.244
 577   1 H      0.073  0.927  0.000  0.000     2.058     2.243
 578   1 H      0.054  0.946  0.000  0.000     2.274     2.358
 579   7 N     -0.156  1.243  3.913  0.000    24.365     7.331
 580   6 C      0.011  1.065  2.924  0.000    20.399     6.433
 581   6 C      0.270  1.044  2.686  0.000    22.439     7.757
 582   8 O     -0.492  1.762  4.730  0.000    23.609     6.514
 583   6 C     -0.089  1.062  3.028  0.000    22.204     6.708
 584   6 C     -0.080  1.052  3.028  0.000    22.028     6.682
 585   6 C     -0.097  1.054  3.044  0.000    22.354     6.731
 586   6 C     -0.055  1.058  2.996  0.000    21.650     6.642
 587   7 N     -0.145  1.233  3.912  0.000    24.131     7.296
 588   1 H      0.218  0.782  0.000  0.000     1.020     1.582
 589   1 H      0.080  0.920  0.000  0.000     1.982     2.202
 590   1 H      0.068  0.932  0.000  0.000     2.103     2.268
 591   1 H      0.087  0.913  0.000  0.000     1.910     2.161
 592   1 H      0.055  0.945  0.000  0.000     2.257     2.350
 593   1 H      0.053  0.947  0.000  0.000     2.278     2.361
 594   1 H      0.084  0.916  0.000  0.000     1.943     2.180
 595   1 H      0.094  0.906  0.000  0.000     1.842     2.122
 596   1 H      0.131  0.869  0.000  0.000     1.531     1.935
 597   1 H      0.121  0.879  0.000  0.000     1.608     1.983
 598   1 H      0.306  0.694  0.000  0.000     0.695     1.306
 599   1 H      0.281  0.719  0.000  0.000     0.773     1.377
 600   1 H      0.295  0.705  0.000  0.000     0.727     1.336
 601   7 N     -0.179  1.250  3.929  0.000    24.883     7.409
 602   6 C      0.027  1.059  2.914  0.000    20.140     6.392
 603   6 C      0.204  1.084  2.711  0.000    23.663     7.967
 604   8 O     -0.368  1.765  4.603  0.000    21.061     6.153
 605   6 C     -0.083  1.062  3.021  0.000    22.076     6.687
 606   6 C     -0.011  1.048  2.963  0.000    20.737     6.477
 607   6 C     -0.115  1.044  3.071  0.000    22.762     6.802
 608   6 C     -0.123  1.046  3.077  0.000    22.902     6.822
 609   1 H      0.225  0.775  0.000  0.000     0.985     1.555
 610   1 H      0.083  0.917  0.000  0.000     1.944     2.180
 611   1 H      0.079  0.921  0.000  0.000     1.989     2.206
 612   1 H      0.069  0.931  0.000  0.000     2.099     2.266
 613   1 H      0.035  0.965  0.000  0.000     2.522     2.483
 614   1 H      0.044  0.956  0.000  0.000     2.391     2.418
 615   1 H      0.030  0.970  0.000  0.000     2.592     2.518
 616   1 H      0.046  0.954  0.000  0.000     2.366     2.405
 617   1 H      0.050  0.950  0.000  0.000     2.325     2.384
 618   1 H      0.054  0.946  0.000  0.000     2.272     2.357
 619   1 H      0.044  0.956  0.000  0.000     2.396     2.421
 620   7 N     -0.370  1.322  4.048  0.000    29.559     8.075
 621   6 C      0.030  1.054  2.916  0.000    20.083     6.384
 622   6 C      0.205  1.089  2.706  0.000    23.650     7.964
 623   8 O     -0.348  1.748  4.600  0.000    20.668     6.095
 624   6 C      0.123  1.051  2.826  0.000    18.677     6.172
 625   8 O     -0.484  1.733  4.750  0.000    22.543     6.409
 626   6 C     -0.125  1.045  3.080  0.000    22.963     6.835
 627   1 H      0.171  0.829  0.000  0.000     1.269     1.764
 628   1 H      0.063  0.937  0.000  0.000     2.164     2.300
 629   1 H      0.034  0.966  0.000  0.000     2.527     2.486
 630   1 H      0.288  0.712  0.000  0.000     0.757     1.367
 631   1 H      0.045  0.955  0.000  0.000     2.386     2.416
 632   1 H      0.072  0.928  0.000  0.000     2.058     2.244
 633   1 H      0.041  0.959  0.000  0.000     2.441     2.443
 634   7 N     -0.379  1.323  4.055  0.000    29.784     8.105
 635   6 C      0.036  1.058  2.906  0.000    19.981     6.367
 636   6 C      0.276  1.047  2.676  0.000    22.324     7.737
 637   8 O     -0.490  1.750  4.739  0.000    23.562     6.508
 638   6 C     -0.064  1.056  3.008  0.000    21.729     6.636
 639   6 C      0.002  1.085  2.913  0.000    27.970     8.675
 640   6 C     -0.045  1.085  2.960  0.000    29.119     8.849
 641   6 C     -0.035  1.082  2.953  0.000    28.867     8.811
 642   6 C     -0.061  1.075  2.985  0.000    29.507     8.908
 643   6 C     -0.070  1.082  2.988  0.000    29.737     8.942
 644   6 C      0.146  1.047  2.807  0.000    24.823     8.165
 645   8 O     -0.436  1.714  4.722  0.000    21.563     6.269
 646   1 H      0.168  0.832  0.000  0.000     1.287     1.777
 647   1 H      0.035  0.965  0.000  0.000     2.511     2.478
 648   1 H      0.053  0.947  0.000  0.000     2.288     2.366
 649   1 H      0.040  0.960  0.000  0.000     2.450     2.448
 650   1 H      0.051  0.949  0.000  0.000     2.312     2.378
 651   1 H      0.009  0.991  0.000  0.000     2.905     2.665
 652   1 H      0.047  0.953  0.000  0.000     2.359     2.402
 653   1 H      0.030  0.970  0.000  0.000     2.582     2.513
 654   1 H      0.317  0.683  0.000  0.000     0.671     1.287
 655   7 N     -0.173  1.250  3.924  0.000    24.753     7.389
 656   6 C      0.020  1.063  2.917  0.000    20.255     6.410
 657   6 C      0.274  1.048  2.679  0.000    22.374     7.745
 658   8 O     -0.496  1.751  4.745  0.000    23.699     6.527
 659   6 C     -0.021  1.069  2.951  0.000    20.911     6.505
 660   6 C     -0.073  1.063  3.009  0.000    21.902     6.665
 661   6 C     -0.113  1.041  3.071  0.000    22.717     6.797
 662   6 C     -0.118  1.047  3.071  0.000    22.839     6.819
 663   1 H      0.197  0.803  0.000  0.000     1.121     1.659
 664   1 H      0.075  0.925  0.000  0.000     2.032     2.229
 665   1 H      0.042  0.958  0.000  0.000     2.426     2.436
 666   1 H      0.039  0.961  0.000  0.000     2.467     2.456
 667   1 H      0.064  0.936  0.000  0.000     2.152     2.294
 668   1 H      0.070  0.930  0.000  0.000     2.084     2.258
 669   1 H      0.025  0.975  0.000  0.000     2.654     2.548
 670   1 H      0.052  0.948  0.000  0.000     2.294     2.368
 671   1 H      0.054  0.946  0.000  0.000     2.276     2.359
 672   1 H      0.047  0.953  0.000  0.000     2.361     2.403
 673   1 H      0.035  0.965  0.000  0.000     2.516     2.481
 674   7 N     -0.175  1.250  3.926  0.000    24.795     7.395
 675   6 C      0.031  1.056  2.913  0.000    20.073     6.381
 676   6 C      0.270  1.048  2.682  0.000    22.437     7.756
 677   8 O     -0.471  1.730  4.741  0.000    23.145     6.450
 678   6 C     -0.050  1.050  3.000  0.000    21.471     6.597
 679   6 C     -0.085  1.059  3.026  0.000    22.128     6.697
 680   6 C      0.367  1.023  2.610  0.000    20.776     7.459
 681   8 O     -0.657  1.779  4.878  0.000    27.559     7.038
 682   8 O     -0.646  1.771  4.874  0.000    27.270     7.001
 683   1 H      0.209  0.791  0.000  0.000     1.060     1.613
 684   1 H      0.058  0.942  0.000  0.000     2.221     2.331
 685   1 H      0.034  0.966  0.000  0.000     2.531     2.488
 686   1 H      0.044  0.956  0.000  0.000     2.395     2.420
 687   1 H      0.040  0.960  0.000  0.000     2.446     2.446
 688   1 H      0.023  0.977  0.000  0.000     2.696     2.567
 689   7 N     -0.161  1.243  3.917  0.000    24.477     7.348
 690   6 C      0.008  1.066  2.926  0.000    20.454     6.441
 691   6 C      0.272  1.049  2.679  0.000    22.406     7.751
 692   8 O     -0.493  1.752  4.741  0.000    23.640     6.519
 693   6 C     -0.016  1.062  2.954  0.000    20.830     6.492
 694   6 C     -0.113  1.040  3.074  0.000    22.730     6.799
 695   6 C     -0.116  1.042  3.074  0.000    22.777     6.806
 696   1 H      0.182  0.818  0.000  0.000     1.202     1.717
 697   1 H      0.095  0.905  0.000  0.000     1.828     2.115
 698   1 H      0.050  0.950  0.000  0.000     2.315     2.379
 699   1 H      0.062  0.938  0.000  0.000     2.174     2.306
 700   1 H      0.023  0.977  0.000  0.000     2.693     2.566
 701   1 H      0.045  0.955  0.000  0.000     2.386     2.416
 702   1 H      0.067  0.933  0.000  0.000     2.124     2.279
 703   1 H      0.044  0.956  0.000  0.000     2.400     2.422
 704   1 H      0.045  0.955  0.000  0.000     2.389     2.417
 705   7 N     -0.164  1.246  3.918  0.000    24.540     7.357
 706   6 C      0.015  1.063  2.922  0.000    20.333     6.423
 707   6 C      0.269  1.047  2.684  0.000    22.463     7.761
 708   8 O     -0.476  1.749  4.727  0.000    23.259     6.466
 709   6 C     -0.066  1.054  3.013  0.000    21.768     6.642
 710   6 C     -0.088  1.053  3.035  0.000    22.171     6.703
 711   6 C      0.283  1.037  2.680  0.000    22.199     7.715
 712   8 O     -0.510  1.752  4.758  0.000    23.995     6.568
 713   7 N     -0.262  1.264  3.998  0.000    26.792     7.687
 714   1 H      0.212  0.788  0.000  0.000     1.045     1.601
 715   1 H      0.078  0.922  0.000  0.000     2.003     2.213
 716   1 H      0.070  0.930  0.000  0.000     2.086     2.259
 717   1 H      0.078  0.922  0.000  0.000     2.001     2.212
 718   1 H      0.051  0.949  0.000  0.000     2.313     2.378
 719   1 H      0.041  0.959  0.000  0.000     2.432     2.439
 720   1 H      0.223  0.777  0.000  0.000     0.996     1.563
 721   1 H      0.238  0.762  0.000  0.000     0.930     1.510
 722   7 N     -0.166  1.242  3.924  0.000    24.584     7.364
 723   6 C      0.025  1.059  2.916  0.000    20.175     6.398
 724   6 C      0.197  1.089  2.714  0.000    23.804     7.990
 725   8 O     -0.367  1.763  4.604  0.000    21.040     6.150
 726   6 C     -0.141  1.048  3.093  0.000    23.282     6.880
 727   1 H      0.215  0.785  0.000  0.000     1.032     1.591
 728   1 H      0.103  0.897  0.000  0.000     1.754     2.071
 729   1 H      0.090  0.910  0.000  0.000     1.878     2.143
 730   1 H      0.083  0.917  0.000  0.000     1.945     2.181
 731   1 H      0.076  0.924  0.000  0.000     2.020     2.223
 732   7 N     -0.389  1.331  4.058  0.000    30.066     8.144
 733   6 C      0.018  1.065  2.917  0.000    20.287     6.416
 734   6 C      0.271  1.055  2.673  0.000    22.411     7.751
 735   8 O     -0.487  1.744  4.743  0.000    23.499     6.499
 736   6 C     -0.015  1.064  2.951  0.000    20.813     6.489
 737   6 C     -0.107  1.039  3.069  0.000    22.607     6.780
 738   6 C     -0.093  1.036  3.057  0.000    22.341     6.740
 739   1 H      0.159  0.841  0.000  0.000     1.340     1.814
 740   1 H      0.055  0.945  0.000  0.000     2.263     2.352
 741   1 H      0.025  0.975  0.000  0.000     2.655     2.548
 742   1 H      0.049  0.951  0.000  0.000     2.329     2.386
 743   1 H      0.031  0.969  0.000  0.000     2.574     2.509
 744   1 H      0.045  0.955  0.000  0.000     2.379     2.412
 745   1 H      0.033  0.967  0.000  0.000     2.539     2.492
 746   1 H      0.027  0.973  0.000  0.000     2.627     2.535
 747   1 H      0.021  0.979  0.000  0.000     2.724     2.581
 748   7 N     -0.166  1.244  3.922  0.000    24.592     7.365
 749   6 C      0.016  1.063  2.921  0.000    20.321     6.421
 750   6 C      0.270  1.049  2.681  0.000    22.441     7.757
 751   8 O     -0.491  1.754  4.737  0.000    23.595     6.513
 752   6 C     -0.063  1.052  3.011  0.000    21.707     6.633
 753   6 C     -0.097  1.057  3.041  0.000    22.351     6.730
 754   6 C      0.289  1.035  2.675  0.000    22.092     7.696
 755   8 O     -0.528  1.765  4.764  0.000    24.415     6.625
 756   7 N     -0.280  1.271  4.009  0.000    27.242     7.752
 757   1 H      0.201  0.799  0.000  0.000     1.101     1.644
 758   1 H      0.085  0.915  0.000  0.000     1.930     2.172
 759   1 H      0.061  0.939  0.000  0.000     2.187     2.313
 760   1 H      0.065  0.935  0.000  0.000     2.142     2.289
 761   1 H      0.065  0.935  0.000  0.000     2.143     2.289
 762   1 H      0.072  0.928  0.000  0.000     2.062     2.245
 763   1 H      0.236  0.764  0.000  0.000     0.942     1.520
 764   1 H      0.238  0.762  0.000  0.000     0.933     1.513
 765   7 N     -0.166  1.243  3.923  0.000    24.592     7.365
 766   6 C      0.025  1.058  2.917  0.000    20.164     6.396
 767   6 C      0.195  1.089  2.715  0.000    23.829     7.994
 768   8 O     -0.368  1.763  4.605  0.000    21.047     6.151
 769   6 C     -0.142  1.048  3.094  0.000    23.290     6.881
 770   1 H      0.220  0.780  0.000  0.000     1.008     1.572
 771   1 H      0.092  0.908  0.000  0.000     1.859     2.132
 772   1 H      0.083  0.917  0.000  0.000     1.945     2.181
 773   1 H      0.088  0.912  0.000  0.000     1.898     2.155
 774   1 H      0.080  0.920  0.000  0.000     1.979     2.200
 775   1 H      0.194  0.806  0.000  0.000     1.136     1.669
 776   1 H      0.079  0.921  0.000  0.000     1.988     2.205
 777   1 H      0.187  0.813  0.000  0.000     1.172     1.696
 778   1 H      0.106  0.894  0.000  0.000     1.734     2.059
 779   1 H      0.084  0.916  0.000  0.000     1.940     2.178
 780   1 H      0.187  0.813  0.000  0.000     1.177     1.699
 781   1 H      0.097  0.903  0.000  0.000     1.815     2.107
 782   1 H      0.201  0.799  0.000  0.000     1.102     1.644
 783   1 H      0.083  0.917  0.000  0.000     1.948     2.183
 784   1 H      0.185  0.815  0.000  0.000     1.185     1.705
 785   1 H      0.106  0.894  0.000  0.000     1.733     2.058
 786   1 H      0.198  0.802  0.000  0.000     1.114     1.653
 787   1 H      0.085  0.915  0.000  0.000     1.928     2.171
 788   1 H      0.196  0.804  0.000  0.000     1.128     1.663
 789   1 H      0.076  0.924  0.000  0.000     2.024     2.224
 790   1 H      0.184  0.816  0.000  0.000     1.189     1.708
 791   1 H      0.086  0.914  0.000  0.000     1.913     2.163
 792   1 H      0.193  0.807  0.000  0.000     1.140     1.672
 793   1 H      0.058  0.942  0.000  0.000     2.227     2.333
 794   1 H      0.197  0.803  0.000  0.000     1.123     1.660
 795   1 H      0.096  0.904  0.000  0.000     1.824     2.112
 796   1 H      0.178  0.822  0.000  0.000     1.223     1.732
 797   1 H      0.088  0.912  0.000  0.000     1.893     2.152

 Mol. C6AA /au·bohr⁶  :    5700947.805889
 Mol. C8AA /au·bohr⁸  :  125427572.168013
 Mol. α(0) /au        :       3552.751905

 
molecular dipole:
                 x           y           z       tot (Debye)
 q only:       33.094     -79.300      18.650
   full:       34.708     -77.741      15.971     220.175
molecular quadrupole (traceless):
                xx          xy          yy          xz          yz          zz
 q only:      890.797    2585.679   -5359.860   -1542.055    1196.090    4469.062
  q+dip:      794.238    2679.500   -5129.174   -1484.662     923.023    4334.936
   full:      797.387    2681.302   -5128.333   -1475.741     925.444    4330.946
speedup  1.92
cpu  time for grad    2 m 18.0 s
wall time for grad    1 m 11.9 s

SCC energy    :   -1253.2613404
rep           :      14.4173238
ES            :       4.3573635
AES           :      -0.1035025
AXC           :       0.3470847
disp          :      -1.0033963
XB            :       0.0000000
fix           :       0.0000000
Gborn         :       0.0000000
Gsasa         :       0.0000000
Ghb           :       0.0000000
Gshift        :       0.0000000
Gsolv         :      -1.1610342     -728.56
Etot ala COSMO:   -1253.2613404
grad norm     :       1.0790896
total E       :   -1238.7507408
atomizationE  :     221.3702199   138911.91
(atE without considering molecular charge,
 total energy contains solvation terms)
H-L gap (eV)  :          1.2760

------------------------------------------------------------------------
 * finished run on 2019/05/05 at 23:28:30.263     
------------------------------------------------------------------------
 total:
 * wall-time:     0 d,  0 h,  1 min, 15.334 sec
 *  cpu-time:     0 d,  0 h,  2 min, 23.587 sec
 * ratio c/w:     1.906 speedup
 SCF:
 * wall-time:     0 d,  0 h,  1 min, 14.420 sec
 *  cpu-time:     0 d,  0 h,  2 min, 22.389 sec
 * ratio c/w:     1.913 speedup

