      -----------------------------------------------------------      
     |                   =====================                   |     
     |                           x T B                           |     
     |                   =====================                   |     
     |                         S. Grimme                         |     
     |          Mulliken Center for Theoretical Chemistry        |     
     |                    University of Bonn                     |     
     |                 Version 6.0.1 (SAW181210)                 |     
      -----------------------------------------------------------      

   This program is distributed in the hope that it will be useful,
   but WITHOUT ANY WARRANTY; without even the implied warranty of
   MERCHANTABILITY or FITNESS FOR A PARTICULAR PURPOSE.
   
   FOR NON-COMMERCIAL, ACADEMIA USE ONLY.
   
   Cite this work as:
   S. Grimme, C. Bannwarth, P. Shushkov, J. Comput. Theory Chem., 2017,
   13, 1989-2009.
   C. Bannwarth, S. Ehlert and S. Grimme., ChemRxiv, 2018, preprint.
   http://doi.org/10.26434/chemrxiv.7246238.v1
   
   for sTDA-xTB:
   S. Grimme and C. Bannwarth, J. Chem. Phys., 2016, 145, 054103.
   
   in the mass-spec context:
   V. Asgeirsson, C. Bauer and S. Grimme, Chem. Sci., 2017, 8, 4879.
   
   if GBSA is used:
   P. Shushkov, F. März and S. Grimme, unpublished.
   
   for ANC optimizer:
   S. Grimme, unpublished.
   Rational Function algorithm used in ANCopt:
   F. Eckert, P. Pulay, H.-J. Werner, J. Comput. Chem., 1997, 18, 1473.
   
   with help from (in alphabetical order)
   C. Bannwarth, F. Bohle, G. Brandenburg, E. Caldeweyher, M. Checinski,
   S. Dohm, S. Ehlert, S. Ehrlich, F. März, H. Neugebauer, J. Pisarek,
   P. Pracht, P. Shushkov, and S. Spicher.
   
 * started run on 2019/05/11 at 21:01:03.849     
========================================================================
 # omp threads = 2
========================================================================
number of atoms            : 168
number of electrons        : 452
charge                     : 0
spin                       : .0
first test random number   : .7532

########################################################################
# WARNING! Please study the warnings concerning your input carefully
#  - Process number higher than OMP_NUM_THREADS, I hope you know what you are doing.
########################################################################

           ------------------------------------------------- 
          |                 G F N 2 - x T B                 |
          | Geometry, Frequencies, Noncovalent interactions |
          |            JCTC 2018 parametrisation            |
           ------------------------------------------------- 
 
      method parameters     
 k(s)        :  1.8500
 k(p)        :  2.2300
 k(d)        :  2.2300
 k(f)        :  2.0000
 kEN (H0ij)  : -2.0000
 D4 a1       :  0.5200
 D4 a2       :  5.0000
 D4 s6       :  1.0000
 D4 s8       :  2.7000
 D4 s9       :  5.0000
 alphaj      :  2.0000

 Solvent             : h2o
 Using internal parameter file: .param_gbsa2_h2o
 Gsolv ref. state (COSMO-RS): gsolv [1 M gas/solution]
 temperature (mdtemp)       :    298.150000000000     
 dielectric constant        :    80.2000000000000     
 rho                        :    1.00000000000000     
 mass                       :    18.0000000000000     
 surface tension            :    15.5689454083859     
 probe radius               :   0.975313790000000     
 vdW radii scaling          :    1.00000000000000     
 Gshift (Eh)                :   1.857443126794793E-003
 c1                         :    1.55243817000000     
 soset                      :   0.130326360000000     
 HB correction              :  T

            Z     q(EN)     CN     RAES       Cart. coordinates
     1  N   5.0   -0.21    3.20    1.96   -10.14010   172.70565    16.04921
     2  C   4.0    0.04    4.25    4.10   -10.90299   172.88251    13.46432
     3  C   4.0    0.07    3.19    3.03   -12.07032   170.41116    12.47503
     4  O   6.0   -0.32    1.18    1.80   -12.82697   170.22411    10.29135
     5  C   4.0   -0.04    4.25    4.11    -8.73593   173.78664    11.78573
     6  C   4.0   -0.03    4.22    4.04    -9.76719   175.58133     9.75758
     7  C   4.0    0.15    3.22    3.04   -10.83239   178.02524    10.85916
     8  O   6.0   -0.28    1.20    1.80   -13.07745   178.32558    11.29778
     9  N   5.0   -0.18    3.18    1.95    -9.12945   179.85658    11.27674
    10  H   1.0    0.08    1.02    1.43    -8.25570   172.61572    16.43075
    11  H   1.0    0.06    1.07    1.44   -12.44810   174.25901    13.36512
    12  H   1.0    0.04    1.03    1.43    -7.32261   174.71866    12.95778
    13  H   1.0    0.05    1.02    1.43    -7.84358   172.15584    10.85194
    14  H   1.0    0.04    1.03    1.43    -8.28863   176.01914     8.39800
    15  H   1.0    0.06    1.03    1.43   -11.31007   174.60355     8.78536
    16  H   1.0    0.08    1.03    1.43    -7.28874   179.62198    10.83683
    17  H   1.0    0.10    1.03    1.43    -9.70405   181.52188    12.00309
    18  N   5.0   -0.20    3.15    1.95   -18.80118   169.52447    14.18068
    19  C   4.0    0.04    4.18    3.97   -20.02670   170.27388    11.84313
    20  C   4.0    0.10    3.16    3.03   -21.61022   168.22579    10.45769
    21  O   6.0   -0.27    1.15    1.80   -23.71742   168.74376    10.04964
    22  C   4.0   -0.03    4.18    3.96   -18.25799   171.81529    10.10820
    23  C   4.0   -0.02    4.17    3.94   -17.23305   170.61531     7.65773
    24  C   4.0    0.25    3.08    3.02   -18.41092   171.58646     5.14326
    25  O   6.0   -0.30    1.19    1.80   -18.11615   173.89447     4.68423
    26  O   6.0   -0.29    1.17    1.80   -19.36398   170.08184     3.70444
    27  H   1.0    0.09    1.01    1.43   -17.17649   170.44741    14.72985
    28  H   1.0    0.06    1.07    1.44   -21.55150   171.57564    12.41210
    29  H   1.0    0.06    1.03    1.43   -19.26575   173.54174     9.55763
    30  H   1.0    0.06    1.02    1.43   -16.64742   172.45652    11.28007
    31  H   1.0    0.07    1.05    1.44   -15.22823   171.16258     7.48541
    32  H   1.0    0.06    1.03    1.43   -17.32427   168.59193     7.72704
    33  N   5.0   -0.12    4.13    3.23   -20.31981   177.38671    -3.05971
    34  C   4.0    0.00    4.26    4.11   -18.06189   177.91517    -1.45823
    35  C   4.0    0.16    3.45    3.09   -16.39379   179.74660    -3.03583
    36  O   6.0   -0.30    1.31    1.80   -16.64805   179.69224    -5.29906
    37  C   4.0    0.04    4.13    3.86   -16.66556   175.36313    -0.97466
    38  O   6.0   -0.25    2.06    1.83   -14.49641   175.66649     0.48521
    39  H   1.0    0.05    1.02    1.43   -20.98776   175.56086    -2.75269
    40  H   1.0    0.06    1.02    1.43   -21.74839   178.64340    -2.72754
    41  H   1.0    0.08    1.06    1.44   -19.68081   177.64122    -4.93463
    42  H   1.0    0.05    1.04    1.43   -18.58642   178.72118     0.35585
    43  H   1.0    0.06    1.01    1.43   -17.97963   174.07813    -0.02157
    44  H   1.0    0.05    1.01    1.43   -16.08197   174.53889    -2.78964
    45  H   1.0    0.14    1.04    1.43   -15.00589   175.51901     2.22331
    46  N   5.0   -0.14    3.41    2.02   -14.79901   181.31006    -1.79006
    47  C   4.0    0.03    4.39    4.36   -12.80255   182.47421    -3.33389
    48  C   4.0    0.17    3.41    3.08   -11.12119   180.22191    -4.26206
    49  O   6.0   -0.29    1.21    1.80   -10.94484   179.57134    -6.38625
    50  C   4.0   -0.04    4.23    4.07   -11.07818   184.48801    -2.11500
    51  C   4.0   -0.03    4.12    3.84   -11.95313   186.15910     0.10008
    52  C   4.0    0.25    3.11    3.03    -9.73554   186.27028     2.07142
    53  O   6.0   -0.29    1.18    1.80    -9.04542   184.20880     2.95356
    54  O   6.0   -0.27    1.16    1.80    -8.81201   188.39082     2.53887
    55  H   1.0    0.09    1.06    1.44   -14.52733   181.11027     0.06554
    56  H   1.0    0.07    1.05    1.44   -13.75720   183.26714    -4.99290
    57  H   1.0    0.06    1.06    1.44    -9.38192   183.54804    -1.41514
    58  H   1.0    0.05    1.03    1.43   -10.46398   185.71784    -3.64631
    59  H   1.0    0.06    1.02    1.43   -12.37102   188.07986    -0.51028
    60  H   1.0    0.05    1.02    1.43   -13.61701   185.40784     1.05160
    61  N   5.0   -0.13    3.50    2.08   -10.06462   179.05028    -2.27308
    62  C   4.0    0.03    4.27    4.14    -8.17333   177.05334    -2.28349
    63  C   4.0    0.15    3.42    3.08    -9.17812   174.52900    -3.31970
    64  O   6.0   -0.32    1.39    1.80    -9.00364   174.00896    -5.56075
    65  C   4.0   -0.07    4.14    3.88    -7.16831   176.86445     0.40609
    66  H   1.0    0.08    1.09    1.44   -10.21076   179.92929    -0.56271
    67  H   1.0    0.05    1.05    1.44    -6.62754   177.59303    -3.58581
    68  H   1.0    0.04    1.00    1.43    -5.77315   175.39567     0.59863
    69  H   1.0    0.05    0.99    1.43    -6.26130   178.66765     0.94215
    70  H   1.0    0.05    1.00    1.43    -8.69916   176.54765     1.73502
    71  N   5.0   -0.15    3.45    2.05   -10.18546   172.84622    -1.72040
    72  C   4.0    0.03    4.41    4.40   -10.55667   170.25132    -2.47639
    73  C   4.0    0.15    3.55    3.14   -11.85332   169.93932    -5.02636
    74  O   6.0   -0.31    1.32    1.80   -11.57913   167.97077    -6.19581
    75  C   4.0   -0.04    4.34    4.28   -12.12248   168.64949    -0.64236
    76  C   4.0   -0.02    4.14    3.88   -11.21267   168.22702     2.08365
    77  C   4.0   -0.07    4.11    3.83   -12.73210   166.01890     3.20285
    78  C   4.0   -0.08    4.09    3.78    -8.39978   167.64880     2.40932
    79  H   1.0    0.08    1.07    1.44   -10.58663   173.35783     0.06532
    80  H   1.0    0.04    1.07    1.44    -8.73132   169.35680    -2.67839
    81  H   1.0    0.05    1.02    1.43   -14.06040   169.42222    -0.51422
    82  H   1.0    0.05    1.04    1.43   -12.29453   166.79808    -1.56470
    83  H   1.0    0.05    1.05    1.44   -11.70026   169.90093     3.20399
    84  H   1.0    0.05    1.00    1.43   -12.28112   165.77141     5.18731
    85  H   1.0    0.05    1.00    1.43   -14.76176   166.36110     3.06398
    86  H   1.0    0.04    1.00    1.43   -12.30169   164.26692     2.21584
    87  H   1.0    0.04    0.99    1.43    -8.04719   167.35353     4.44735
    88  H   1.0    0.04    1.01    1.43    -7.89662   165.94721     1.43329
    89  H   1.0    0.04    1.01    1.43    -7.26464   169.20698     1.79303
    90  N   5.0   -0.14    3.53    2.10   -13.50151   171.67327    -5.84755
    91  C   4.0    0.03    4.44    4.45   -15.11241   171.05206    -7.98565
    92  C   4.0    0.16    3.38    3.07   -13.63583   170.58984   -10.45492
    93  O   6.0   -0.29    1.19    1.80   -14.56903   169.44417   -12.25646
    94  C   4.0   -0.04    4.23    4.05   -17.18045   173.04864    -8.33426
    95  C   4.0   -0.05    4.16    3.91   -19.72369   171.90848    -9.16970
    96  C   4.0   -0.05    4.13    3.86   -21.21935   170.54222    -7.07912
    97  C   4.0   -0.03    4.11    3.82   -23.29095   168.83680    -8.14919
    98  N   5.0   -0.12    4.01    2.90   -25.35806   170.33557    -9.35216
    99  H   1.0    0.10    1.07    1.44   -13.34443   173.52051    -5.34423
   100  H   1.0    0.06    1.07    1.44   -15.98057   169.23522    -7.56090
   101  H   1.0    0.05    1.03    1.43   -17.40125   174.07291    -6.55200
   102  H   1.0    0.05    1.02    1.43   -16.55374   174.43813    -9.73841
   103  H   1.0    0.04    1.03    1.43   -20.82233   173.46261    -9.95479
   104  H   1.0    0.06    1.03    1.43   -19.29094   170.61027   -10.70511
   105  H   1.0    0.04    1.03    1.43   -19.93528   169.36607    -5.97668
   106  H   1.0    0.04    1.02    1.43   -22.03529   171.94954    -5.78675
   107  H   1.0    0.05    1.03    1.43   -22.47428   167.62382    -9.58703
   108  H   1.0    0.05    1.02    1.43   -24.10132   167.68587    -6.63683
   109  H   1.0    0.06    1.02    1.43   -26.70219   169.17455   -10.15083
   110  H   1.0    0.06    1.01    1.43   -26.24376   171.49048    -8.03165
   111  H   1.0    0.06    1.03    1.43   -24.63419   171.46695   -10.73542
   112  N   5.0   -0.14    3.62    2.18   -11.28086   171.52918   -10.39056
   113  C   4.0    0.03    4.42    4.41    -9.38021   171.53450   -12.35874
   114  C   4.0    0.15    3.41    3.08    -8.07201   168.94330   -12.56044
   115  O   6.0   -0.29    1.20    1.80    -7.39136   167.92949   -14.51431
   116  C   4.0   -0.02    4.30    4.19    -7.52895   173.77583   -11.74006
   117  C   4.0   -0.04    4.21    4.03    -5.55786   173.05037    -9.76256
   118  C   4.0   -0.06    4.14    3.88    -9.07505   176.10464   -10.94071
   119  C   4.0   -0.07    3.98    3.59    -3.52878   175.01864    -9.16517
   120  H   1.0    0.10    1.15    1.45   -10.74865   172.44464    -8.82419
   121  H   1.0    0.06    1.03    1.43   -10.30642   171.90584   -14.22104
   122  H   1.0    0.05    1.06    1.44    -6.56652   174.21403   -13.49302
   123  H   1.0    0.06    1.07    1.44    -6.51190   172.66345    -7.98547
   124  H   1.0    0.05    1.04    1.43    -4.57115   171.34421   -10.37216
   125  H   1.0    0.05    1.00    1.43    -7.98998   177.81276   -11.26815
   126  H   1.0    0.05    0.99    1.43   -10.83798   176.26407   -12.04242
   127  H   1.0    0.08    1.01    1.43    -9.56344   176.06539    -8.92629
   128  H   1.0    0.04    0.98    1.43    -2.11063   174.21046    -7.82169
   129  H   1.0    0.04    1.00    1.43    -2.46874   175.57700   -10.82482
   130  H   1.0    0.05    1.00    1.43    -4.29511   176.69246    -8.25074
   131  N   5.0   -0.15    3.58    2.14    -7.75322   167.88465   -10.27150
   132  C   4.0    0.04    4.36    4.31    -6.62887   165.44492    -9.76686
   133  C   4.0    0.16    3.45    3.09    -8.51250   163.31380   -10.27690
   134  O   6.0   -0.29    1.28    1.80    -8.29634   161.21206    -9.38917
   135  C   4.0   -0.04    4.38    4.34    -5.83746   165.27972    -6.99057
   136  C   4.0   -0.02    4.15    3.89    -3.54995   166.78258    -6.02863
   137  C   4.0   -0.08    4.11    3.83    -4.25488   169.36407    -4.95734
   138  C   4.0   -0.07    4.14    3.88    -2.22278   165.34709    -3.95869
   139  H   1.0    0.10    1.12    1.45    -8.74320   168.56963    -8.81895
   140  H   1.0    0.06    1.04    1.43    -5.02041   165.15532   -11.08757
   141  H   1.0    0.06    1.04    1.43    -7.52510   165.81345    -5.94604
   142  H   1.0    0.06    1.06    1.44    -5.46779   163.28767    -6.69010
   143  H   1.0    0.04    1.04    1.43    -2.23085   167.02387    -7.64311
   144  H   1.0    0.04    0.98    1.43    -2.75107   170.76748    -5.38196
   145  H   1.0    0.05    1.00    1.43    -5.99081   170.11170    -5.79088
   146  H   1.0    0.04    1.02    1.43    -4.44950   169.27478    -2.96202
   147  H   1.0    0.04    1.00    1.43    -0.59363   166.41336    -3.31567
   148  H   1.0    0.04    1.00    1.43    -3.48069   165.03765    -2.35609
   149  H   1.0    0.05    0.99    1.43    -1.56268   163.48654    -4.59791
   150  N   5.0   -0.13    3.49    2.07   -10.51620   163.90872   -11.74707
   151  C   4.0    0.05    4.39    4.37   -12.12652   161.86406   -12.55589
   152  C   4.0    0.10    3.21    3.04   -11.28056   160.88783   -15.11581
   153  O   6.0   -0.25    1.12    1.80   -12.19340   158.95992   -16.02604
   154  C   4.0   -0.02    4.27    4.14   -14.95028   162.49722   -12.41161
   155  C   4.0    0.16    3.23    3.04   -16.33770   160.12837   -11.52777
   156  O   6.0   -0.26    1.20    1.80   -17.39277   158.68827   -12.95840
   157  N   5.0   -0.18    3.19    1.95   -16.18208   159.72116    -9.02266
   158  H   1.0    0.10    1.09    1.44   -10.84388   165.64417   -12.45729
   159  H   1.0    0.08    1.10    1.44   -11.72774   160.30050   -11.25038
   160  H   1.0    0.06    1.02    1.43   -15.21698   164.06876   -11.07095
   161  H   1.0    0.07    1.03    1.43   -15.67521   163.05037   -14.25638
   162  H   1.0    0.10    1.03    1.43   -17.02388   158.18036    -8.30089
   163  H   1.0    0.09    1.02    1.43   -15.24856   160.90982    -7.83577
   164  H   1.0    0.10    1.08    1.44   -10.69827   174.06819    16.90038
   165  H   1.0    0.06    1.05    1.44   -12.22476   168.91491    13.61889
   166  H   1.0    0.10    1.07    1.44   -19.87629   169.74203    15.48044
   167  H   1.0    0.06    1.04    1.43   -20.81247   166.58304     9.97186
   168  H   1.0    0.07    1.05    1.44    -9.95727   161.81900   -16.09197

  Z AO/shell   Hii/eV     exponent
  1     Wed Apr 25 08:07:45 CEST 2018   EN: 2.200 GM2: 0.406  GM3: 0.0800  RAES: 1.40
     1s    -10.707211    1.230000
  6     Wed Apr 25 08:07:45 CEST 2018   EN: 2.550 GM2: 0.538  GM3: 0.1500  RAES: 3.00
     2s    -13.970922    2.096432
     2p    -10.063292    1.800000
  7     Wed Apr 25 08:07:45 CEST 2018   EN: 3.040 GM2: 0.461  GM3:-0.0640  RAES: 1.90
     2s    -16.686243    2.339881
     2p    -12.523956    2.014332
  8     Wed Apr 25 08:07:45 CEST 2018   EN: 3.440 GM2: 0.452  GM3:-0.0517  RAES: 1.80
     2s    -20.229985    2.439742
     2p    -15.503117    2.137023
 no old-style atom pair restraining (fixing) potential

molecular fragmentation (1/2 indicates fragments):
111111111111111112222222222222222222222222222222222222222222222222222222
222222222222222222222222222222222222222222222222222222222222222222222222
222222222222222222211222
# atoms in fragment 1/2:    19   149
 fragment masses (1/2) :      130.15     1002.17
CMA distance (Bohr)    :  16.590
constraining FC (au)   :  0.0500
           ------------------------------------------------- 
          |        Self-Consistent Charge Iterations        |
           ------------------------------------------------- 

 Ncao       : 405
 Nao        : 405
 Nshell     : 247
 Nel        : 452
 T(el)      :   500.0
 intcut     :    35.0
 scfconv/Eh :  0.100E-06
   qconv/e  :  0.100E-04
 intneglect :  0.100E-08
 broydamp   :      0.400
 iter      E             dE          RMSdq      gap      omega  full diag
   1   -259.7272802 -0.259727E+03  0.462E+00    3.26       0.0  T
   2   -260.4003002 -0.673020E+00  0.214E+00    1.90       1.0  T
   3   -260.4441649 -0.438647E-01  0.122E+00    2.17       1.0  T
   4   -260.4812837 -0.371188E-01  0.261E-01    1.48       1.0  T
   5   -260.4836703 -0.238662E-02  0.130E-01    1.64       1.0  T
   6   -260.4840238 -0.353454E-03  0.530E-02    1.66       1.0  T
   7   -260.4841200 -0.961943E-04  0.208E-02    1.69       1.0  T
   8   -260.4841299 -0.994875E-05  0.924E-03    1.71       1.0  T
   9   -260.4841329 -0.294590E-05  0.392E-03    1.71       2.0  T
  10   -260.4841332 -0.331110E-06  0.155E-03    1.71       5.0  T
  11   -260.4841333 -0.103495E-06  0.680E-04    1.71      11.3  T
  12   -260.4841333 -0.135838E-07  0.259E-04    1.71      29.8  T
  13   -260.4841333 -0.161140E-08  0.131E-04    1.71      58.7  T
  14   -260.4841333 -0.484192E-09  0.447E-05    1.71     172.6  T
  15   -260.4841333 -0.574119E-10  0.160E-05    1.71     481.0  T
speedup  1.27
cpu  time for SCC    3.03 s
wall time for SCC    2.39 s

   *** convergence criteria satisfied after 15 iterations ***

          eigenvalues
 #    :         214        215        216        217        218        219        220        221
 occ. :        2.000      2.000      2.000      2.000      2.000      2.000      2.000      2.000
 eps  :       -11.010    -10.952    -10.858    -10.844    -10.753    -10.752    -10.674    -10.326
 #    :         222        223        224        225        226        227        228        229
 occ. :        2.000      2.000      2.000      2.000      2.000      0.000      0.000      0.000
 eps  :       -10.222    -10.162    -10.036     -9.770     -9.602     -7.888     -7.714     -7.423
 #    :         230        231        232        233        234        235        236        237
 occ. :        0.000      0.000      0.000      0.000      0.000      0.000      0.000      0.000
 eps  :        -6.919     -6.676     -6.544     -6.283     -6.171     -6.136     -6.053     -6.053


   #   Z            q   n(s)   n(p)   n(d)      C6AA      α(0)
   1   7 N     -0.395  1.311  4.084  0.000    30.232     8.166
   2   6 C      0.042  1.049  2.909  0.000    19.882     6.351
   3   6 C      0.190  1.094  2.717  0.000    23.944     8.013
   4   8 O     -0.370  1.759  4.611  0.000    21.093     6.158
   5   6 C     -0.062  1.059  3.004  0.000    21.695     6.631
   6   6 C     -0.099  1.059  3.040  0.000    22.377     6.734
   7   6 C      0.293  1.038  2.669  0.000    22.034     7.686
   8   8 O     -0.512  1.757  4.755  0.000    24.049     6.575
   9   7 N     -0.289  1.267  4.022  0.000    27.448     7.781
  10   1 H      0.172  0.828  0.000  0.000     1.263     1.761
  11   1 H      0.062  0.938  0.000  0.000     2.175     2.306
  12   1 H      0.060  0.940  0.000  0.000     2.199     2.319
  13   1 H      0.058  0.942  0.000  0.000     2.219     2.329
  14   1 H      0.065  0.935  0.000  0.000     2.140     2.288
  15   1 H      0.067  0.933  0.000  0.000     2.122     2.278
  16   1 H      0.229  0.771  0.000  0.000     0.969     1.542
  17   1 H      0.224  0.776  0.000  0.000     0.991     1.559
  18   7 N     -0.388  1.310  4.077  0.000    30.036     8.140
  19   6 C      0.035  1.065  2.900  0.000    20.008     6.373
  20   6 C      0.222  1.076  2.702  0.000    23.323     7.908
  21   8 O     -0.339  1.724  4.616  0.000    20.505     6.071
  22   6 C     -0.041  1.058  2.984  0.000    21.322     6.575
  23   6 C     -0.104  1.069  3.036  0.000    22.495     6.754
  24   6 C      0.370  1.024  2.606  0.000    20.729     7.451
  25   8 O     -0.664  1.762  4.902  0.000    27.755     7.063
  26   8 O     -0.609  1.748  4.861  0.000    26.346     6.882
  27   1 H      0.151  0.849  0.000  0.000     1.391     1.848
  28   1 H      0.021  0.979  0.000  0.000     2.720     2.579
  29   1 H      0.022  0.978  0.000  0.000     2.701     2.570
  30   1 H      0.029  0.971  0.000  0.000     2.606     2.524
  31   1 H      0.048  0.952  0.000  0.000     2.345     2.395
  32   1 H      0.016  0.984  0.000  0.000     2.799     2.616
  33   7 N     -0.157  1.235  3.922  0.000    24.385     7.334
  34   6 C     -0.038  1.084  2.953  0.000    21.275     6.572
  35   6 C      0.268  1.035  2.697  0.000    22.482     7.765
  36   8 O     -0.420  1.727  4.693  0.000    22.083     6.300
  37   6 C      0.062  1.040  2.898  0.000    19.760     6.370
  38   8 O     -0.454  1.700  4.754  0.000    21.930     6.322
  39   1 H      0.302  0.698  0.000  0.000     0.708     1.319
  40   1 H      0.317  0.683  0.000  0.000     0.664     1.276
  41   1 H      0.315  0.685  0.000  0.000     0.672     1.284
  42   1 H      0.123  0.877  0.000  0.000     1.590     1.972
  43   1 H      0.084  0.916  0.000  0.000     1.938     2.177
  44   1 H      0.073  0.927  0.000  0.000     2.049     2.239
  45   1 H      0.325  0.675  0.000  0.000     0.649     1.266
  46   7 N     -0.170  1.254  3.916  0.000    24.681     7.378
  47   6 C      0.002  1.079  2.919  0.000    20.551     6.454
  48   6 C      0.280  1.036  2.684  0.000    22.259     7.725
  49   8 O     -0.421  1.720  4.701  0.000    22.106     6.304
  50   6 C     -0.061  1.051  3.011  0.000    21.678     6.629
  51   6 C     -0.098  1.069  3.029  0.000    22.374     6.736
  52   6 C      0.370  1.026  2.604  0.000    20.725     7.450
  53   8 O     -0.639  1.764  4.876  0.000    27.108     6.981
  54   8 O     -0.658  1.783  4.875  0.000    27.587     7.042
  55   1 H      0.204  0.796  0.000  0.000     1.086     1.632
  56   1 H      0.095  0.905  0.000  0.000     1.835     2.119
  57   1 H      0.037  0.963  0.000  0.000     2.486     2.466
  58   1 H      0.046  0.954  0.000  0.000     2.365     2.405
  59   1 H      0.022  0.978  0.000  0.000     2.710     2.575
  60   1 H      0.032  0.968  0.000  0.000     2.560     2.502
  61   7 N     -0.194  1.251  3.943  0.000    25.205     7.456
  62   6 C      0.027  1.060  2.913  0.000    20.137     6.392
  63   6 C      0.267  1.047  2.687  0.000    22.501     7.768
  64   8 O     -0.470  1.732  4.738  0.000    23.119     6.447
  65   6 C     -0.134  1.043  3.091  0.000    23.138     6.858
  66   1 H      0.202  0.798  0.000  0.000     1.096     1.640
  67   1 H      0.069  0.931  0.000  0.000     2.092     2.262
  68   1 H      0.076  0.924  0.000  0.000     2.023     2.224
  69   1 H      0.058  0.942  0.000  0.000     2.227     2.334
  70   1 H      0.064  0.936  0.000  0.000     2.158     2.297
  71   7 N     -0.165  1.235  3.930  0.000    24.579     7.363
  72   6 C      0.018  1.055  2.927  0.000    20.276     6.411
  73   6 C      0.277  1.043  2.679  0.000    22.312     7.736
  74   8 O     -0.488  1.742  4.746  0.000    23.527     6.503
  75   6 C     -0.073  1.060  3.013  0.000    21.887     6.659
  76   6 C     -0.008  1.058  2.950  0.000    20.685     6.469
  77   6 C     -0.112  1.043  3.069  0.000    22.695     6.792
  78   6 C     -0.119  1.038  3.081  0.000    22.829     6.813
  79   1 H      0.215  0.785  0.000  0.000     1.032     1.591
  80   1 H      0.087  0.913  0.000  0.000     1.910     2.161
  81   1 H      0.052  0.948  0.000  0.000     2.297     2.370
  82   1 H      0.070  0.930  0.000  0.000     2.082     2.256
  83   1 H      0.024  0.976  0.000  0.000     2.667     2.554
  84   1 H      0.038  0.962  0.000  0.000     2.477     2.461
  85   1 H      0.033  0.967  0.000  0.000     2.544     2.494
  86   1 H      0.047  0.953  0.000  0.000     2.363     2.404
  87   1 H      0.040  0.960  0.000  0.000     2.455     2.451
  88   1 H      0.053  0.947  0.000  0.000     2.286     2.364
  89   1 H      0.044  0.956  0.000  0.000     2.402     2.423
  90   7 N     -0.182  1.246  3.936  0.000    24.947     7.418
  91   6 C      0.006  1.067  2.927  0.000    20.482     6.443
  92   6 C      0.269  1.045  2.685  0.000    22.451     7.758
  93   8 O     -0.489  1.751  4.738  0.000    23.545     6.506
  94   6 C     -0.082  1.058  3.025  0.000    22.073     6.689
  95   6 C     -0.096  1.056  3.040  0.000    22.336     6.729
  96   6 C     -0.100  1.057  3.044  0.000    22.417     6.742
  97   6 C     -0.054  1.061  2.993  0.000    21.640     6.641
  98   7 N     -0.147  1.228  3.919  0.000    24.164     7.301
  99   1 H      0.197  0.803  0.000  0.000     1.122     1.660
 100   1 H      0.101  0.899  0.000  0.000     1.779     2.086
 101   1 H      0.064  0.936  0.000  0.000     2.154     2.295
 102   1 H      0.063  0.937  0.000  0.000     2.168     2.303
 103   1 H      0.084  0.916  0.000  0.000     1.934     2.175
 104   1 H      0.075  0.925  0.000  0.000     2.029     2.228
 105   1 H      0.081  0.919  0.000  0.000     1.971     2.196
 106   1 H      0.084  0.916  0.000  0.000     1.937     2.176
 107   1 H      0.119  0.881  0.000  0.000     1.624     1.993
 108   1 H      0.122  0.878  0.000  0.000     1.594     1.975
 109   1 H      0.300  0.700  0.000  0.000     0.713     1.323
 110   1 H      0.303  0.697  0.000  0.000     0.704     1.315
 111   1 H      0.294  0.706  0.000  0.000     0.732     1.341
 112   7 N     -0.189  1.242  3.947  0.000    25.102     7.441
 113   6 C      0.011  1.078  2.912  0.000    20.412     6.435
 114   6 C      0.273  1.044  2.683  0.000    22.388     7.748
 115   8 O     -0.493  1.753  4.740  0.000    23.624     6.517
 116   6 C     -0.021  1.069  2.952  0.000    20.920     6.506
 117   6 C     -0.075  1.052  3.023  0.000    21.934     6.668
 118   6 C     -0.126  1.047  3.079  0.000    22.974     6.836
 119   6 C     -0.099  1.040  3.059  0.000    22.458     6.760
 120   1 H      0.221  0.779  0.000  0.000     1.004     1.570
 121   1 H      0.065  0.935  0.000  0.000     2.137     2.286
 122   1 H      0.044  0.956  0.000  0.000     2.396     2.421
 123   1 H      0.073  0.927  0.000  0.000     2.051     2.240
 124   1 H      0.028  0.972  0.000  0.000     2.611     2.527
 125   1 H      0.048  0.952  0.000  0.000     2.340     2.392
 126   1 H      0.040  0.960  0.000  0.000     2.450     2.448
 127   1 H      0.079  0.921  0.000  0.000     1.994     2.208
 128   1 H      0.028  0.972  0.000  0.000     2.622     2.532
 129   1 H      0.034  0.966  0.000  0.000     2.537     2.491
 130   1 H      0.038  0.962  0.000  0.000     2.479     2.462
 131   7 N     -0.190  1.250  3.940  0.000    25.131     7.445
 132   6 C      0.023  1.063  2.914  0.000    20.208     6.403
 133   6 C      0.275  1.046  2.679  0.000    22.352     7.743
 134   8 O     -0.470  1.742  4.729  0.000    23.134     6.449
 135   6 C     -0.085  1.057  3.028  0.000    22.104     6.692
 136   6 C     -0.007  1.056  2.951  0.000    20.672     6.467
 137   6 C     -0.118  1.045  3.073  0.000    22.814     6.810
 138   6 C     -0.115  1.044  3.071  0.000    22.747     6.798
 139   1 H      0.215  0.785  0.000  0.000     1.031     1.590
 140   1 H      0.070  0.930  0.000  0.000     2.082     2.256
 141   1 H      0.066  0.934  0.000  0.000     2.131     2.283
 142   1 H      0.074  0.926  0.000  0.000     2.038     2.232
 143   1 H      0.029  0.971  0.000  0.000     2.606     2.525
 144   1 H      0.034  0.966  0.000  0.000     2.534     2.490
 145   1 H      0.042  0.958  0.000  0.000     2.423     2.434
 146   1 H      0.049  0.951  0.000  0.000     2.330     2.387
 147   1 H      0.048  0.952  0.000  0.000     2.341     2.392
 148   1 H      0.045  0.955  0.000  0.000     2.389     2.417
 149   1 H      0.035  0.965  0.000  0.000     2.521     2.483
 150   7 N     -0.178  1.236  3.943  0.000    24.859     7.405
 151   6 C      0.028  1.054  2.918  0.000    20.095     6.381
 152   6 C      0.201  1.084  2.715  0.000    23.719     7.976
 153   8 O     -0.364  1.760  4.604  0.000    20.975     6.140
 154   6 C     -0.103  1.064  3.039  0.000    22.463     6.747
 155   6 C      0.298  1.030  2.672  0.000    21.951     7.672
 156   8 O     -0.478  1.750  4.728  0.000    23.307     6.473
 157   7 N     -0.291  1.266  4.025  0.000    27.498     7.788
 158   1 H      0.197  0.803  0.000  0.000     1.121     1.658
 159   1 H      0.116  0.884  0.000  0.000     1.646     2.006
 160   1 H      0.096  0.904  0.000  0.000     1.821     2.111
 161   1 H      0.084  0.916  0.000  0.000     1.941     2.179
 162   1 H      0.235  0.765  0.000  0.000     0.945     1.523
 163   1 H      0.231  0.769  0.000  0.000     0.963     1.537
 164   1 H      0.183  0.817  0.000  0.000     1.195     1.712
 165   1 H      0.078  0.922  0.000  0.000     1.994     2.208
 166   1 H      0.185  0.815  0.000  0.000     1.186     1.706
 167   1 H      0.062  0.938  0.000  0.000     2.181     2.309
 168   1 H      0.075  0.925  0.000  0.000     2.035     2.231

 Mol. C6AA /au·bohr⁶  :     247488.124654
 Mol. C8AA /au·bohr⁸  :    5419243.134011
 Mol. α(0) /au        :        738.612369

 
molecular dipole:
                 x           y           z       tot (Debye)
 q only:      -13.721      -4.361      -7.513
   full:      -12.977      -2.517      -5.848      36.740
molecular quadrupole (traceless):
                xx          xy          yy          xz          yz          zz
 q only:     1388.351   -3542.019   -1951.734     427.145   -2084.741     563.383
  q+dip:     1055.657   -3388.790   -1310.219     383.894   -1655.477     254.561
   full:     1058.905   -3389.701   -1312.742     384.447   -1656.725     253.837
speedup  1.25
cpu  time for grad    4.11 s
wall time for grad    3.28 s

SCC energy    :    -260.4888058
rep           :       3.0049131
ES            :       1.0328805
AES           :      -0.0369059
AXC           :       0.0768407
disp          :      -0.1915105
XB            :       0.0000000
fix           :       0.0000000
Gborn         :       0.0000000
Gsasa         :       0.0000000
Ghb           :       0.0000000
Gshift        :       0.0000000
Gsolv         :      -0.3186453     -199.95
Etot ala COSMO:    -260.4888058
grad norm     :       0.3787190
total E       :    -257.4709611
atomizationE  :      46.0126302    28873.36
(atE without considering molecular charge,
 total energy contains solvation terms)
H-L gap (eV)  :          1.7142

------------------------------------------------------------------------
 * finished run on 2019/05/11 at 21:01:07.610     
------------------------------------------------------------------------
 total:
 * wall-time:     0 d,  0 h,  0 min,  3.758 sec
 *  cpu-time:     0 d,  0 h,  0 min,  4.465 sec
 * ratio c/w:     1.188 speedup
 SCF:
 * wall-time:     0 d,  0 h,  0 min,  3.488 sec
 *  cpu-time:     0 d,  0 h,  0 min,  4.325 sec
 * ratio c/w:     1.240 speedup

