      -----------------------------------------------------------      
     |                   =====================                   |     
     |                           x T B                           |     
     |                   =====================                   |     
     |                         S. Grimme                         |     
     |          Mulliken Center for Theoretical Chemistry        |     
     |                    University of Bonn                     |     
     |                 Version 6.0.1 (SAW181210)                 |     
      -----------------------------------------------------------      

   This program is distributed in the hope that it will be useful,
   but WITHOUT ANY WARRANTY; without even the implied warranty of
   MERCHANTABILITY or FITNESS FOR A PARTICULAR PURPOSE.
   
   FOR NON-COMMERCIAL, ACADEMIA USE ONLY.
   
   Cite this work as:
   S. Grimme, C. Bannwarth, P. Shushkov, J. Comput. Theory Chem., 2017,
   13, 1989-2009.
   C. Bannwarth, S. Ehlert and S. Grimme., ChemRxiv, 2018, preprint.
   http://doi.org/10.26434/chemrxiv.7246238.v1
   
   for sTDA-xTB:
   S. Grimme and C. Bannwarth, J. Chem. Phys., 2016, 145, 054103.
   
   in the mass-spec context:
   V. Asgeirsson, C. Bauer and S. Grimme, Chem. Sci., 2017, 8, 4879.
   
   if GBSA is used:
   P. Shushkov, F. März and S. Grimme, unpublished.
   
   for ANC optimizer:
   S. Grimme, unpublished.
   Rational Function algorithm used in ANCopt:
   F. Eckert, P. Pulay, H.-J. Werner, J. Comput. Chem., 1997, 18, 1473.
   
   with help from (in alphabetical order)
   C. Bannwarth, F. Bohle, G. Brandenburg, E. Caldeweyher, M. Checinski,
   S. Dohm, S. Ehlert, S. Ehrlich, F. März, H. Neugebauer, J. Pisarek,
   P. Pracht, P. Shushkov, and S. Spicher.
   
 * started run on 2019/05/06 at 07:35:30.334     
========================================================================
 # omp threads = 2
========================================================================
number of atoms            : 432
number of electrons        : 1132
charge                     : -1
spin                       : .0
first test random number   : .7731

########################################################################
# WARNING! Please study the warnings concerning your input carefully
#  - Process number higher than OMP_NUM_THREADS, I hope you know what you are doing.
########################################################################

           ------------------------------------------------- 
          |                 G F N 2 - x T B                 |
          | Geometry, Frequencies, Noncovalent interactions |
          |            JCTC 2018 parametrisation            |
           ------------------------------------------------- 
 
      method parameters     
 k(s)        :  1.8500
 k(p)        :  2.2300
 k(d)        :  2.2300
 k(f)        :  2.0000
 kEN (H0ij)  : -2.0000
 D4 a1       :  0.5200
 D4 a2       :  5.0000
 D4 s6       :  1.0000
 D4 s8       :  2.7000
 D4 s9       :  5.0000
 alphaj      :  2.0000

 Solvent             : h2o
 Using internal parameter file: .param_gbsa2_h2o
 Gsolv ref. state (COSMO-RS): gsolv [1 M gas/solution]
 temperature (mdtemp)       :    298.150000000000     
 dielectric constant        :    80.2000000000000     
 rho                        :    1.00000000000000     
 mass                       :    18.0000000000000     
 surface tension            :    15.5689454083859     
 probe radius               :   0.975313790000000     
 vdW radii scaling          :    1.00000000000000     
 Gshift (Eh)                :   1.857443126794793E-003
 c1                         :    1.55243817000000     
 soset                      :   0.130326360000000     
 HB correction              :  T

            Z     q(EN)     CN     RAES       Cart. coordinates
     1  N   5.0   -0.23    3.11    1.94    61.86387     1.04596   -27.65512
     2  C   4.0    0.03    4.26    4.12    62.29218     1.89172   -25.01543
     3  C   4.0    0.15    3.37    3.07    63.72903     0.14641   -23.06002
     4  O   6.0   -0.29    1.34    1.80    63.18133     0.29480   -20.80916
     5  C   4.0   -0.03    4.30    4.19    59.90923     2.82502   -23.64580
     6  C   4.0    0.17    3.36    3.07    60.63493     3.91121   -21.03544
     7  O   6.0   -0.31    1.22    1.80    62.40014     5.39534   -20.78043
     8  N   5.0   -0.19    3.18    1.95    59.02602     3.37075   -19.14908
     9  H   1.0    0.07    1.02    1.43    60.03917     0.92055   -28.20161
    10  H   1.0    0.04    1.06    1.44    63.61033     3.50286   -25.13192
    11  H   1.0    0.03    1.02    1.43    59.03604     4.36277   -24.70927
    12  H   1.0    0.04    1.03    1.43    58.56725     1.28556   -23.39730
    13  H   1.0    0.09    1.03    1.43    59.47224     4.00444   -17.41011
    14  H   1.0    0.08    1.03    1.43    57.75452     1.96740   -19.28041
    15  N   5.0   -0.15    3.45    2.05    65.61284    -1.27864   -24.05210
    16  C   4.0    0.03    4.40    4.39    67.96656    -1.98985   -22.77167
    17  C   4.0    0.15    3.41    3.08    69.60479     0.43142   -22.56948
    18  O   6.0   -0.31    1.33    1.80    70.93369     0.89075   -20.73412
    19  C   4.0   -0.03    4.22    4.04    69.42370    -4.14898   -24.14231
    20  C   4.0   -0.08    4.11    3.82    71.14994    -5.47487   -22.24652
    21  C   4.0   -0.08    4.11    3.82    67.71989    -6.11291   -25.38747
    22  H   1.0    0.07    1.08    1.44    65.84595    -1.06927   -25.94756
    23  H   1.0    0.05    1.05    1.44    67.50646    -2.56027   -20.83345
    24  H   1.0    0.04    1.05    1.44    70.58159    -3.25559   -25.60638
    25  H   1.0    0.03    1.00    1.43    72.36915    -6.80519   -23.22402
    26  H   1.0    0.05    1.00    1.43    72.33345    -4.10526   -21.26335
    27  H   1.0    0.03    1.00    1.43    70.04129    -6.49660   -20.85112
    28  H   1.0    0.03    1.00    1.43    68.88773    -7.58900   -26.19721
    29  H   1.0    0.04    1.00    1.43    66.46765    -6.95407   -23.99340
    30  H   1.0    0.04    1.00    1.43    66.57614    -5.28725   -26.87583
    31  N   5.0   -0.15    3.46    2.06    69.40904     2.03851   -24.51694
    32  C   4.0    0.03    4.45    4.46    70.52832     4.52920   -24.53715
    33  C   4.0    0.16    3.71    3.25    70.64631     5.79411   -21.96790
    34  O   6.0   -0.32    1.43    1.80    72.69577     6.48628   -21.14340
    35  C   4.0   -0.05    4.43    4.44    69.03262     6.32636   -26.19594
    36  C   4.0   -0.02    4.27    4.14    70.12506     8.99206   -25.92545
    37  C   4.0   -0.08    4.09    3.78    72.26868     9.35534   -27.83540
    38  C   4.0   -0.08    4.09    3.78    67.98196    10.91781   -26.10004
    39  H   1.0    0.07    1.07    1.44    68.43374     1.59056   -26.11391
    40  H   1.0    0.04    1.05    1.44    72.49658     4.40116   -25.19682
    41  H   1.0    0.03    1.02    1.43    69.08777     5.70439   -28.16552
    42  H   1.0    0.04    1.04    1.43    67.06834     6.31271   -25.56666
    43  H   1.0    0.05    1.11    1.45    70.95042     9.22224   -24.06197
    44  H   1.0    0.03    1.00    1.43    73.01721    11.26444   -27.70585
    45  H   1.0    0.04    1.00    1.43    73.79146     8.04264   -27.42762
    46  H   1.0    0.03    1.00    1.43    71.59259     9.04276   -29.75038
    47  H   1.0    0.03    1.00    1.43    68.69132    12.84216   -25.99020
    48  H   1.0    0.03    1.00    1.43    66.96857    10.71149   -27.88036
    49  H   1.0    0.04    1.00    1.43    66.66248    10.64044   -24.55188
    50  N   5.0   -0.15    3.49    2.07    68.48035     6.45194   -20.83552
    51  C   4.0    0.04    4.50    4.54    68.75675     7.58784   -18.36823
    52  C   4.0    0.18    3.82    3.36    70.90633     6.23522   -16.97494
    53  O   6.0   -0.30    1.42    1.80    72.76213     7.32524   -16.12143
    54  C   4.0   -0.03    4.27    4.13    66.48231     7.28627   -16.63564
    55  C   4.0    0.25    3.22    3.04    67.56790     7.28408   -13.79359
    56  O   6.0   -0.30    1.19    1.80    67.69638     5.21289   -12.67561
    57  O   6.0   -0.29    1.16    1.80    68.24704     9.36565   -12.93877
    58  H   1.0    0.10    1.06    1.44    66.74189     5.83337   -21.33516
    59  H   1.0    0.05    1.05    1.44    69.27552     9.58583   -18.53629
    60  H   1.0    0.05    1.02    1.43    65.15500     8.83832   -16.88181
    61  H   1.0    0.06    1.02    1.43    65.51429     5.49941   -16.98768
    62  N   5.0   -0.11    3.71    2.28    70.48953     3.74694   -16.72721
    63  C   4.0    0.04    4.44    4.44    71.96639     2.26270   -14.96270
    64  C   4.0    0.17    3.58    3.15    74.68494     2.94238   -15.58724
    65  O   6.0   -0.31    1.30    1.80    76.20398     3.50309   -13.92971
    66  C   4.0   -0.04    4.36    4.32    71.20414    -0.49641   -15.24605
    67  C   4.0   -0.03    4.16    3.91    72.11324    -2.31116   -13.21008
    68  C   4.0   -0.08    4.08    3.77    71.06396    -1.60501   -10.60022
    69  C   4.0   -0.08    4.09    3.78    71.36028    -5.00427   -14.02941
    70  H   1.0    0.09    1.08    1.44    68.72457     3.11457   -17.08631
    71  H   1.0    0.06    1.05    1.44    71.57890     2.94371   -13.03403
    72  H   1.0    0.05    1.03    1.43    69.12973    -0.52650   -15.25017
    73  H   1.0    0.06    1.04    1.43    71.85191    -1.13468   -17.09478
    74  H   1.0    0.04    1.05    1.44    74.17952    -2.19722   -13.11722
    75  H   1.0    0.03    1.00    1.43    71.68820    -2.96447    -9.19503
    76  H   1.0    0.04    1.00    1.43    71.71584     0.25501   -10.03203
    77  H   1.0    0.04    1.00    1.43    69.00818    -1.57490   -10.63512
    78  H   1.0    0.03    1.00    1.43    72.00728    -6.36634   -12.63631
    79  H   1.0    0.04    1.00    1.43    69.31892    -5.14444   -14.19944
    80  H   1.0    0.04    1.00    1.43    72.22463    -5.44088   -15.83786
    81  N   5.0   -0.13    3.51    2.09    75.36779     2.93329   -18.01117
    82  C   4.0    0.04    4.39    4.35    77.86201     3.83074   -18.65676
    83  C   4.0    0.16    3.57    3.15    78.44405     6.47929   -17.70313
    84  O   6.0   -0.31    1.34    1.80    80.37810     6.86274   -16.47742
    85  C   4.0   -0.08    4.15    3.90    78.31317     3.86956   -21.47676
    86  H   1.0    0.11    1.09    1.44    74.04937     2.65102   -19.36484
    87  H   1.0    0.05    1.06    1.44    79.23762     2.58630   -17.71408
    88  H   1.0    0.04    1.01    1.43    80.11971     4.74789   -21.86824
    89  H   1.0    0.04    1.00    1.43    78.32797     1.96207   -22.24378
    90  H   1.0    0.06    1.01    1.43    76.83452     4.96364   -22.39319
    91  N   5.0   -0.14    3.58    2.14    77.04215     8.38407   -18.53686
    92  C   4.0    0.04    4.61    4.68    77.82497    10.91083   -17.86852
    93  C   4.0    0.16    3.65    3.20    78.14246    11.24019   -15.05543
    94  O   6.0   -0.31    1.29    1.80    79.56018    12.86332   -14.17175
    95  C   4.0   -0.02    4.43    4.42    75.86752    12.88022   -18.54969
    96  C   4.0   -0.05    4.20    3.99    75.39675    12.92871   -21.40705
    97  C   4.0   -0.07    4.18    3.96    76.63948    15.47743   -17.53396
    98  C   4.0   -0.08    4.02    3.66    72.61108    13.51099   -21.93147
    99  H   1.0    0.12    1.11    1.45    75.30363     8.07545   -19.26080
   100  H   1.0    0.04    1.05    1.44    79.64499    11.31340   -18.78374
   101  H   1.0    0.05    1.07    1.44    74.10946    12.30192   -17.61013
   102  H   1.0    0.03    1.03    1.43    76.54732    14.38811   -22.27619
   103  H   1.0    0.04    1.03    1.43    75.85972    11.10006   -22.23099
   104  H   1.0    0.03    1.00    1.43    75.49871    16.93254   -18.43682
   105  H   1.0    0.05    1.01    1.43    76.34806    15.61935   -15.51155
   106  H   1.0    0.04    1.00    1.43    78.61794    15.84148   -17.93635
   107  H   1.0    0.03    1.00    1.43    72.28610    13.65069   -23.95241
   108  H   1.0    0.04    1.00    1.43    71.40883    12.04871   -21.14176
   109  H   1.0    0.04    1.00    1.43    72.08502    15.29779   -21.06101
   110  N   5.0   -0.13    3.57    2.13    76.57771     9.78361   -13.72682
   111  C   4.0    0.04    4.30    4.19    77.00203     9.38546   -11.06263
   112  C   4.0    0.16    3.46    3.10    79.80406     8.48183   -10.74724
   113  O   6.0   -0.30    1.42    1.80    81.45811    10.05765   -10.26303
   114  C   4.0   -0.07    4.08    3.76    74.92014     7.72981    -9.96392
   115  H   1.0    0.13    1.15    1.45    75.43148     8.54091   -14.60870
   116  H   1.0    0.06    1.05    1.44    76.99453    11.24772   -10.12152
   117  H   1.0    0.04    1.00    1.43    75.14339     7.55302    -7.93197
   118  H   1.0    0.06    1.00    1.43    73.09573     8.58171   -10.38394
   119  H   1.0    0.07    1.01    1.43    74.96098     5.86839   -10.82918
   120  N   5.0   -0.14    3.43    2.04    80.43674     6.05156   -10.99191
   121  C   4.0    0.03    4.46    4.48    82.94169     5.25660   -10.14673
   122  C   4.0    0.17    3.51    3.12    84.95650     7.13403   -11.13627
   123  O   6.0   -0.31    1.27    1.80    86.44647     8.10606    -9.64853
   124  C   4.0   -0.03    4.19    3.98    83.34434     2.38440   -10.58690
   125  C   4.0   -0.07    4.11    3.82    84.95246     1.87822   -12.92742
   126  C   4.0   -0.08    4.05    3.71    84.36180     1.00937    -8.18876
   127  H   1.0    0.10    1.07    1.44    79.17829     4.78234   -11.67913
   128  H   1.0    0.05    1.06    1.44    82.98006     5.58129    -8.08639
   129  H   1.0    0.04    1.06    1.44    81.45753     1.60836   -10.94534
   130  H   1.0    0.05    1.00    1.43    85.22116    -0.13698   -13.21142
   131  H   1.0    0.05    1.00    1.43    84.03574     2.65832   -14.59046
   132  H   1.0    0.05    1.00    1.43    86.79678     2.76444   -12.73697
   133  H   1.0    0.04    1.00    1.43    84.53363    -0.99270    -8.59479
   134  H   1.0    0.04    1.00    1.43    86.20401     1.75354    -7.66689
   135  H   1.0    0.04    1.00    1.43    83.05783     1.27435    -6.62839
   136  N   5.0   -0.14    3.48    2.07    85.01914     7.58327   -13.60291
   137  C   4.0    0.04    4.55    4.60    86.91519     9.13332   -14.79454
   138  C   4.0    0.16    3.57    3.15    87.33609    11.73786   -13.72590
   139  O   6.0   -0.32    1.27    1.80    89.51898    12.54145   -13.60706
   140  C   4.0   -0.02    4.36    4.31    86.20025     9.67507   -17.53270
   141  C   4.0   -0.07    4.22    4.03    87.94078    11.71165   -18.59445
   142  C   4.0   -0.07    4.12    3.84    86.37513     7.26943   -19.11199
   143  H   1.0    0.11    1.10    1.44    83.52296     7.04525   -14.67303
   144  H   1.0    0.07    1.06    1.44    88.75297     8.16856   -14.71151
   145  H   1.0    0.05    1.05    1.44    84.24010    10.35496   -17.56041
   146  H   1.0    0.03    1.00    1.43    87.74794    11.82068   -20.64266
   147  H   1.0    0.05    1.02    1.43    87.52684    13.57851   -17.85331
   148  H   1.0    0.06    1.00    1.43    89.89821    11.26644   -18.14949
   149  H   1.0    0.03    1.00    1.43    86.00492     7.68790   -21.08477
   150  H   1.0    0.05    1.00    1.43    88.25359     6.45686   -18.94748
   151  H   1.0    0.05    1.00    1.43    85.00049     5.88633   -18.46796
   152  N   5.0   -0.14    3.51    2.08    85.23367    13.10477   -13.24058
   153  C   4.0    0.04    4.46    4.48    85.34296    15.66479   -12.28467
   154  C   4.0    0.15    3.43    3.09    85.21256    15.87516    -9.41259
   155  O   6.0   -0.32    1.24    1.80    85.76866    17.83181    -8.29461
   156  C   4.0   -0.04    4.30    4.19    83.32924    17.37741   -13.36802
   157  C   4.0   -0.04    4.03    3.68    83.64536    17.80369   -16.19228
   158  S   6.0   -0.05    2.51    3.10    86.72163    18.85270   -17.56205
   159  C   4.0   -0.07    3.96    3.55    87.07983    21.99785   -16.29065
   160  H   1.0    0.11    1.08    1.44    83.50380    12.29889   -13.37151
   161  H   1.0    0.05    1.08    1.44    87.21413    16.39938   -12.84687
   162  H   1.0    0.06    1.04    1.43    81.48089    16.51328   -13.08925
   163  H   1.0    0.05    1.03    1.43    83.39730    19.16846   -12.34449
   164  H   1.0    0.04    1.08    1.44    83.33812    16.01941   -17.17696
   165  H   1.0    0.03    1.06    1.44    82.24542    19.16585   -16.85007
   166  H   1.0    0.06    1.06    1.44    88.92495    22.65613   -16.86818
   167  H   1.0    0.04    1.05    1.44    85.58360    23.16962   -17.04371
   168  H   1.0    0.05    1.07    1.44    86.98956    21.84789   -14.25140
   169  N   5.0   -0.13    3.48    2.06    84.52204    13.74187    -8.28044
   170  C   4.0    0.02    4.28    4.16    84.72211    13.32684    -5.59353
   171  C   4.0    0.16    3.36    3.07    87.49898    13.46677    -4.90406
   172  O   6.0   -0.32    1.27    1.80    88.17085    15.09054    -3.40078
   173  H   1.0    0.12    1.13    1.45    83.89872    12.28226    -9.34413
   174  H   1.0    0.05    1.02    1.43    83.71752    14.80929    -4.54866
   175  H   1.0    0.04    1.02    1.43    83.89782    11.48743    -5.16484
   176  N   5.0   -0.14    3.46    2.05    88.91009    11.78232    -6.16838
   177  C   4.0    0.03    4.35    4.28    91.63946    11.67996    -6.47579
   178  C   4.0    0.16    3.54    3.13    92.79046    14.25322    -6.44621
   179  O   6.0   -0.29    1.22    1.80    94.34736    14.88323    -4.87237
   180  C   4.0   -0.06    4.20    4.01    92.47720    10.62725    -9.03756
   181  H   1.0    0.11    1.10    1.44    87.97728    10.49524    -7.25819
   182  H   1.0    0.05    1.05    1.44    92.46310    10.55584    -4.93547
   183  H   1.0    0.05    1.01    1.43    94.49252    10.95162    -9.26167
   184  H   1.0    0.06    0.99    1.43    92.13380     8.58944    -9.11365
   185  H   1.0    0.08    1.03    1.43    91.51029    11.45047   -10.64012
   186  N   5.0   -0.14    3.59    2.14    91.98797    15.65622    -8.37840
   187  C   4.0    0.03    4.36    4.31    92.91688    18.17253    -8.95519
   188  C   4.0    0.16    3.49    3.11    92.76126    19.81755    -6.60888
   189  O   6.0   -0.28    1.20    1.80    94.48497    21.18493    -5.88671
   190  C   4.0   -0.07    4.14    3.88    91.33132    19.43769   -10.99675
   191  H   1.0    0.09    1.09    1.44    90.82543    14.88435    -9.68042
   192  H   1.0    0.05    1.05    1.44    94.90297    18.05413    -9.55135
   193  H   1.0    0.04    1.00    1.43    92.06317    21.31552   -11.38599
   194  H   1.0    0.04    1.00    1.43    91.39468    18.33062   -12.73192
   195  H   1.0    0.06    1.00    1.43    89.37873    19.62919   -10.37702
   196  N   5.0   -0.13    3.57    2.13    90.47049    19.60870    -5.53786
   197  C   4.0    0.04    4.48    4.50    89.67532    21.23205    -3.47534
   198  C   4.0    0.17    3.48    3.11    91.49871    20.71268    -1.26596
   199  O   6.0   -0.27    1.23    1.80    92.78572    22.38039    -0.29749
   200  C   4.0   -0.03    4.27    4.14    86.81488    20.95116    -2.90379
   201  C   4.0   -0.02    3.58    3.15    86.20690    22.84682    -0.84806
   202  C   4.0   -0.03    3.53    3.13    87.38445    25.21578    -0.82233
   203  C   4.0   -0.04    3.45    3.10    84.74701    22.14757     1.21599
   204  C   4.0   -0.04    3.37    3.07    87.26812    26.75469     1.27027
   205  C   4.0   -0.04    3.39    3.07    84.63465    23.70051     3.31179
   206  C   4.0   -0.04    3.39    3.08    85.92170    25.96072     3.35396
   207  H   1.0    0.11    1.10    1.44    89.10537    18.55342    -6.35643
   208  H   1.0    0.05    1.07    1.44    90.08186    23.17697    -4.07467
   209  H   1.0    0.05    1.02    1.43    85.78415    21.30537    -4.65440
   210  H   1.0    0.06    1.03    1.43    86.40623    19.04125    -2.26123
   211  H   1.0    0.05    1.04    1.43    88.37317    25.90799    -2.46504
   212  H   1.0    0.05    1.03    1.43    83.79397    20.33985     1.21416
   213  H   1.0    0.05    1.03    1.43    88.19984    28.56716     1.27322
   214  H   1.0    0.05    1.03    1.43    83.54867    23.16433     4.94463
   215  H   1.0    0.05    1.03    1.43    85.74979    27.19395     4.96495
   216  N   5.0   -0.13    3.50    2.08    91.59530    18.25922    -0.64755
   217  C   4.0    0.05    4.37    4.33    93.07935    17.43785     1.45995
   218  C   4.0    0.11    3.26    3.05    95.79535    18.39017     1.16216
   219  O   6.0   -0.27    1.11    1.80    96.81499    19.48323     2.97624
   220  C   4.0   -0.03    4.31    4.22    92.77438    14.63654     1.92900
   221  C   4.0    0.16    3.24    3.04    93.80705    13.99926     4.52728
   222  O   6.0   -0.28    1.19    1.80    92.76692    14.57607     6.49959
   223  N   5.0   -0.18    3.19    1.95    96.01391    12.74339     4.41133
   224  H   1.0    0.11    1.11    1.44    90.49989    16.99560    -1.59083
   225  H   1.0    0.07    1.06    1.44    92.40595    18.43242     3.17106
   226  H   1.0    0.05    1.03    1.43    90.75920    14.20646     1.87454
   227  H   1.0    0.05    1.03    1.43    93.72108    13.55519     0.45072
   228  H   1.0    0.10    1.03    1.43    96.88275    12.26441     6.04353
   229  H   1.0    0.08    1.03    1.43    96.83107    12.25701     2.77025
   230  N   5.0   -0.22    3.26    1.97    70.48953    16.72721     3.74694
   231  C   4.0    0.03    4.23    4.06    71.96639    14.96270     2.26270
   232  C   4.0    0.08    3.23    3.04    74.68494    15.58724     2.94238
   233  O   6.0   -0.31    1.14    1.80    76.20398    13.92971     3.50309
   234  C   4.0   -0.05    4.35    4.30    71.20414    15.24605    -0.49641
   235  C   4.0   -0.03    4.16    3.91    72.11324    13.21008    -2.31116
   236  C   4.0   -0.08    4.08    3.77    71.06396    10.60022    -1.60501
   237  C   4.0   -0.08    4.09    3.78    71.36028    14.02941    -5.00427
   238  H   1.0    0.07    1.03    1.43    68.72457    17.08631     3.11457
   239  H   1.0    0.04    1.05    1.44    71.57890    13.03403     2.94371
   240  H   1.0    0.03    1.03    1.43    69.12973    15.25017    -0.52650
   241  H   1.0    0.04    1.03    1.43    71.85191    17.09478    -1.13468
   242  H   1.0    0.04    1.05    1.44    74.17952    13.11722    -2.19722
   243  H   1.0    0.04    1.00    1.43    71.68820     9.19503    -2.96447
   244  H   1.0    0.04    1.00    1.43    71.71584    10.03203     0.25501
   245  H   1.0    0.04    1.00    1.43    69.00818    10.63512    -1.57490
   246  H   1.0    0.04    1.00    1.43    72.00728    12.63631    -6.36634
   247  H   1.0    0.04    1.00    1.43    69.31892    14.19944    -5.14444
   248  H   1.0    0.04    1.00    1.43    72.22463    15.83786    -5.44088
   249  N   5.0   -0.21    3.19    1.95    80.43674    10.99191     6.05156
   250  C   4.0    0.03    4.24    4.09    82.94169    10.14673     5.25660
   251  C   4.0    0.08    3.18    3.03    84.95650    11.13627     7.13403
   252  O   6.0   -0.29    1.11    1.80    86.44647     9.64853     8.10606
   253  C   4.0   -0.02    4.19    3.98    83.34434    10.58690     2.38440
   254  C   4.0   -0.07    4.09    3.79    84.95246    12.92742     1.87822
   255  C   4.0   -0.08    4.05    3.71    84.36180     8.18876     1.00937
   256  H   1.0    0.11    1.04    1.43    79.17829    11.67913     4.78234
   257  H   1.0    0.05    1.06    1.44    82.98006     8.08639     5.58129
   258  H   1.0    0.04    1.06    1.44    81.45753    10.94534     1.60836
   259  H   1.0    0.05    1.00    1.43    85.22116    13.21142    -0.13698
   260  H   1.0    0.05    1.00    1.43    84.03574    14.59046     2.65832
   261  H   1.0    0.05    1.00    1.43    86.79678    12.73697     2.76444
   262  H   1.0    0.04    1.00    1.43    84.53363     8.59479    -0.99270
   263  H   1.0    0.05    1.00    1.43    86.20401     7.66689     1.75354
   264  H   1.0    0.04    1.00    1.43    83.05783     6.62839     1.27435
   265  N   5.0   -0.21    3.22    1.96    76.57771   -13.72682    -9.78361
   266  C   4.0    0.03    4.12    3.85    77.00203   -11.06263    -9.38546
   267  C   4.0    0.07    3.15    3.03    79.80406   -10.74724    -8.48183
   268  O   6.0   -0.32    1.17    1.80    81.45811   -10.26303   -10.05765
   269  C   4.0   -0.09    4.06    3.74    74.92014    -9.96392    -7.72981
   270  H   1.0    0.07    1.03    1.43    75.43148   -14.60870    -8.54091
   271  H   1.0    0.04    1.05    1.44    76.99453   -10.12152   -11.24772
   272  H   1.0    0.04    1.00    1.43    75.14339    -7.93197    -7.55302
   273  H   1.0    0.03    1.00    1.43    73.09573   -10.38394    -8.58171
   274  H   1.0    0.03    1.00    1.43    74.96098   -10.82918    -5.86839
   275  N   5.0   -0.21    3.19    1.95    84.52204    -8.28044   -13.74187
   276  C   4.0    0.01    4.19    3.98    84.72211    -5.59353   -13.32684
   277  C   4.0    0.15    3.33    3.06    87.49898    -4.90406   -13.46677
   278  O   6.0   -0.33    1.27    1.80    88.17085    -3.40078   -15.09054
   279  H   1.0    0.12    1.07    1.44    83.89872    -9.34413   -12.28226
   280  H   1.0    0.04    1.02    1.43    83.71752    -4.54866   -14.80929
   281  H   1.0    0.04    1.02    1.43    83.89782    -5.16484   -11.48743
   282  N   5.0   -0.15    3.43    2.04    88.91009    -6.16838   -11.78232
   283  C   4.0    0.03    4.21    4.02    91.63946    -6.47579   -11.67996
   284  C   4.0    0.09    3.33    3.06    92.79046    -6.44621   -14.25322
   285  O   6.0   -0.29    1.13    1.80    94.34736    -4.87237   -14.88323
   286  C   4.0   -0.08    4.14    3.88    92.47720    -9.03756   -10.62725
   287  H   1.0    0.07    1.08    1.44    87.97728    -7.25819   -10.49524
   288  H   1.0    0.05    1.05    1.44    92.46310    -4.93547   -10.55584
   289  H   1.0    0.04    1.01    1.43    94.49252    -9.26167   -10.95162
   290  H   1.0    0.04    0.99    1.43    92.13380    -9.11365    -8.58944
   291  H   1.0    0.04    1.00    1.43    91.51029   -10.64012   -11.45047
   292  N   5.0   -0.19    3.26    1.97    90.47049    -5.53786   -19.60870
   293  C   4.0    0.03    4.38    4.35    89.67532    -3.47534   -21.23205
   294  C   4.0    0.16    3.45    3.09    91.49871    -1.26596   -20.71268
   295  O   6.0   -0.31    1.25    1.80    92.78572    -0.29749   -22.38039
   296  C   4.0   -0.04    4.27    4.13    86.81488    -2.90379   -20.95116
   297  C   4.0   -0.02    3.58    3.15    86.20690    -0.84806   -22.84682
   298  C   4.0   -0.04    3.53    3.13    87.38445    -0.82233   -25.21578
   299  C   4.0   -0.05    3.46    3.10    84.74701     1.21599   -22.14757
   300  C   4.0   -0.04    3.38    3.07    87.26812     1.27027   -26.75469
   301  C   4.0   -0.05    3.39    3.08    84.63465     3.31179   -23.70051
   302  C   4.0   -0.05    3.40    3.08    85.92170     3.35396   -25.96072
   303  H   1.0    0.09    1.03    1.43    89.10537    -6.35643   -18.55342
   304  H   1.0    0.04    1.06    1.44    90.08186    -4.07467   -23.17697
   305  H   1.0    0.04    1.02    1.43    85.78415    -4.65440   -21.30537
   306  H   1.0    0.05    1.03    1.43    86.40623    -2.26123   -19.04125
   307  H   1.0    0.05    1.04    1.43    88.37317    -2.46504   -25.90799
   308  H   1.0    0.04    1.03    1.43    83.79397     1.21416   -20.33985
   309  H   1.0    0.04    1.03    1.43    88.19984     1.27322   -28.56716
   310  H   1.0    0.04    1.03    1.43    83.54867     4.94463   -23.16433
   311  H   1.0    0.04    1.03    1.43    85.74979     4.96495   -27.19395
   312  N   5.0   -0.14    3.50    2.08    91.59530    -0.64755   -18.25922
   313  C   4.0    0.05    4.37    4.33    93.07935     1.45995   -17.43785
   314  C   4.0    0.10    3.26    3.05    95.79535     1.16216   -18.39017
   315  O   6.0   -0.28    1.12    1.80    96.81499     2.97624   -19.48323
   316  C   4.0   -0.03    4.31    4.22    92.77438     1.92900   -14.63654
   317  C   4.0    0.15    3.24    3.04    93.80705     4.52728   -13.99926
   318  O   6.0   -0.30    1.20    1.80    92.76692     6.49959   -14.57607
   319  N   5.0   -0.19    3.19    1.95    96.01391     4.41133   -12.74339
   320  H   1.0    0.11    1.11    1.44    90.49989    -1.59083   -16.99560
   321  H   1.0    0.06    1.06    1.44    92.40595     3.17106   -18.43242
   322  H   1.0    0.05    1.03    1.43    90.75920     1.87454   -14.20646
   323  H   1.0    0.05    1.03    1.43    93.72108     0.45072   -13.55519
   324  H   1.0    0.09    1.03    1.43    96.88275     6.04353   -12.26441
   325  H   1.0    0.08    1.03    1.43    96.83107     2.77025   -12.25701
   326  N   5.0   -0.20    3.17    1.95    95.61868     3.40279   -25.67065
   327  C   4.0    0.03    4.32    4.23    95.51466     6.14579   -25.68242
   328  C   4.0    0.08    3.37    3.07    98.08438     7.32827   -25.24309
   329  O   6.0   -0.30    1.13    1.80    98.92121     8.99021   -26.62474
   330  C   4.0   -0.02    4.35    4.29    93.92080     7.43226   -23.63398
   331  C   4.0   -0.05    4.16    3.92    91.05460     7.01635   -24.06708
   332  C   4.0   -0.07    4.18    3.97    94.59029    10.25920   -23.48540
   333  C   4.0   -0.08    4.04    3.69    90.16735     7.57017   -26.71787
   334  H   1.0    0.12    1.04    1.43    94.41940     2.41901   -24.55305
   335  H   1.0    0.04    1.06    1.44    94.88517     6.79263   -27.55561
   336  H   1.0    0.06    1.05    1.44    94.40307     6.57608   -21.81208
   337  H   1.0    0.05    1.03    1.43    90.58275     5.06253   -23.59350
   338  H   1.0    0.03    1.03    1.43    90.07250     8.23540   -22.73109
   339  H   1.0    0.04    1.00    1.43    93.16142    11.23996   -22.37273
   340  H   1.0    0.05    1.01    1.43    96.39276    10.56779   -22.56699
   341  H   1.0    0.05    1.00    1.43    94.64429    11.11431   -25.35027
   342  H   1.0    0.03    1.00    1.43    88.14615     7.90818   -26.73653
   343  H   1.0    0.04    1.00    1.43    91.06692     9.27131   -27.46568
   344  H   1.0    0.04    1.00    1.43    90.56876     6.00947   -27.99519
   345  N   5.0   -0.22    3.16    1.95    97.33959    27.09492   -14.34190
   346  C   4.0    0.02    4.18    3.95    94.64762    26.36736   -14.22935
   347  C   4.0    0.06    3.30    3.05    93.43471    26.95337   -16.76147
   348  O   6.0   -0.34    1.27    1.80    91.81773    25.62855   -17.76947
   349  C   4.0   -0.04    4.29    4.18    92.99604    27.85657   -12.30549
   350  C   4.0   -0.02    3.52    3.12    90.36229    26.78887   -11.83626
   351  C   4.0   -0.04    3.49    3.11    89.71212    26.05778    -9.40074
   352  C   4.0   -0.04    3.51    3.12    88.46191    26.74933   -13.62609
   353  C   4.0   -0.04    3.39    3.08    87.29267    25.28068    -8.79412
   354  C   4.0   -0.05    3.47    3.10    86.04571    25.95609   -13.00810
   355  C   4.0   -0.05    3.36    3.07    85.42086    25.17111   -10.60755
   356  H   1.0    0.08    1.02    1.43    98.18822    27.81574   -12.77923
   357  H   1.0    0.04    1.05    1.44    94.52417    24.34743   -13.79360
   358  H   1.0    0.04    1.03    1.43    94.02378    27.86207   -10.50954
   359  H   1.0    0.04    1.03    1.43    92.83701    29.80559   -12.95229
   360  H   1.0    0.05    1.03    1.43    91.14417    26.11402    -7.93842
   361  H   1.0    0.06    1.05    1.44    88.80109    27.45071   -15.50794
   362  H   1.0    0.05    1.03    1.43    86.86035    24.78284    -6.85166
   363  H   1.0    0.04    1.03    1.43    84.59068    26.06733   -14.44038
   364  H   1.0    0.05    1.03    1.43    83.53304    24.56494   -10.14082
   365  N   5.0   -0.22    3.21    1.96    96.43746    23.16429   -22.61394
   366  C   4.0    0.02    4.37    4.32    95.46687    20.66870   -21.99924
   367  C   4.0    0.15    3.47    3.10    92.56839    20.54991   -22.30444
   368  O   6.0   -0.31    1.22    1.80    91.50323    18.56333   -22.92982
   369  C   4.0   -0.03    4.29    4.19    96.13480    19.80572   -19.24690
   370  C   4.0   -0.05    4.19    3.97    95.99631    16.91067   -19.12825
   371  C   4.0   -0.07    4.23    4.06    94.31436    20.87245   -17.28979
   372  C   4.0   -0.07    4.02    3.65    95.45531    15.72231   -16.51280
   373  H   1.0    0.08    1.02    1.43    97.03580    24.19811   -21.10610
   374  H   1.0    0.04    1.05    1.44    96.26569    19.30333   -23.33980
   375  H   1.0    0.03    1.05    1.44    98.04862    20.47051   -18.84375
   376  H   1.0    0.05    1.04    1.43    94.47610    16.29489   -20.38999
   377  H   1.0    0.04    1.02    1.43    97.76114    16.11720   -19.85438
   378  H   1.0    0.03    1.01    1.43    95.07985    20.54713   -15.41629
   379  H   1.0    0.07    1.08    1.44    94.08626    22.85027   -17.60355
   380  H   1.0    0.05    1.01    1.43    92.48519    19.94607   -17.43488
   381  H   1.0    0.05    1.00    1.43    95.70669    13.68863   -16.66336
   382  H   1.0    0.04    1.00    1.43    96.76825    16.43581   -15.10464
   383  H   1.0    0.05    1.00    1.43    93.52828    16.06044   -15.90091
   384  N   5.0   -0.14    3.52    2.09    91.37023    22.71358   -21.82217
   385  C   4.0    0.04    4.25    4.10    88.73545    23.01225   -22.42865
   386  C   4.0    0.08    3.23    3.04    88.41783    22.72140   -25.32729
   387  O   6.0   -0.30    1.14    1.80    87.12594    21.02893   -26.28703
   388  C   4.0   -0.08    4.11    3.82    87.76953    25.58544   -21.56574
   389  H   1.0    0.10    1.10    1.44    92.30187    24.25861   -21.20580
   390  H   1.0    0.06    1.09    1.44    87.66107    21.46168   -21.56842
   391  H   1.0    0.04    1.00    1.43    85.75573    25.71957   -21.96802
   392  H   1.0    0.05    1.02    1.43    88.07771    25.79116   -19.55594
   393  H   1.0    0.04    1.00    1.43    88.74981    27.09411   -22.53972
   394  N   5.0   -0.20    3.21    1.96    89.00776    16.59896   -28.65834
   395  C   4.0    0.03    4.21    4.02    86.84847    14.90903   -28.33416
   396  C   4.0    0.08    3.25    3.04    85.42998    15.02144   -30.83238
   397  O   6.0   -0.31    1.11    1.80    84.75952    13.17691   -32.07079
   398  C   4.0   -0.04    4.27    4.14    85.05964    15.55293   -26.11678
   399  C   4.0   -0.02    4.18    3.97    82.73932    13.76817   -25.97701
   400  C   4.0   -0.08    4.15    3.91    83.41098    10.99344   -26.20174
   401  C   4.0   -0.08    4.14    3.87    81.30211    13.97901   -23.50523
   402  H   1.0    0.12    1.04    1.43    89.30503    17.91995   -27.31092
   403  H   1.0    0.04    1.05    1.44    87.58913    12.98665   -28.08681
   404  H   1.0    0.05    1.02    1.43    86.16012    15.40907   -24.37812
   405  H   1.0    0.06    1.03    1.43    84.43103    17.50253   -26.28763
   406  H   1.0    0.04    1.05    1.44    81.46913    14.25526   -27.54650
   407  H   1.0    0.04    1.00    1.43    81.73274     9.83230   -25.95466
   408  H   1.0    0.05    1.00    1.43    84.19904    10.53718   -28.05076
   409  H   1.0    0.03    1.00    1.43    84.78583    10.48099   -24.75898
   410  H   1.0    0.03    1.01    1.43    79.77904    12.61818   -23.50829
   411  H   1.0    0.04    1.00    1.43    82.56330    13.57452   -21.93063
   412  H   1.0    0.03    1.00    1.43    80.53824    15.87181   -23.23149
   413  H   1.0    0.08    1.07    1.44    62.60686     2.13632   -28.72826
   414  H   1.0    0.07    1.04    1.43    96.71496    18.12859    -0.46786
   415  H   1.0    0.09    1.07    1.44    70.30895    16.12711     5.32803
   416  H   1.0    0.05    1.05    1.44    75.27090    17.38382     2.93900
   417  H   1.0    0.09    1.07    1.44    79.60275     9.69665     6.77221
   418  H   1.0    0.06    1.04    1.43    85.03824    12.97823     7.54820
   419  H   1.0    0.09    1.07    1.44    75.87110   -13.96700   -11.31187
   420  H   1.0    0.04    1.04    1.43    80.23372   -10.93792    -6.65151
   421  H   1.0    0.09    1.07    1.44    83.43695    -8.57868   -15.01709
   422  H   1.0    0.05    1.05    1.44    92.28885    -7.74820   -15.52769
   423  H   1.0    0.09    1.07    1.44    91.13796    -6.78188   -20.55709
   424  H   1.0    0.06    1.04    1.43    96.71496    -0.46786   -18.12859
   425  H   1.0    0.09    1.07    1.44    95.30669     2.81611   -27.23623
   426  H   1.0    0.06    1.05    1.44    99.15173     6.75705   -23.79204
   427  H   1.0    0.09    1.07    1.44    98.27936    25.73409   -14.73884
   428  H   1.0    0.05    1.05    1.44    93.94351    28.50231   -17.71697
   429  H   1.0    0.09    1.07    1.44    97.77003    23.01338   -23.65991
   430  H   1.0    0.05    1.04    1.43    89.27634    23.93116   -26.49798
   431  H   1.0    0.09    1.07    1.44    90.44083    15.68475   -28.71404
   432  H   1.0    0.06    1.05    1.44    84.97408    16.69350   -31.58566

  Z AO/shell   Hii/eV     exponent
  1     Wed Apr 25 08:07:45 CEST 2018   EN: 2.200 GM2: 0.406  GM3: 0.0800  RAES: 1.40
     1s    -10.707211    1.230000
  6     Wed Apr 25 08:07:45 CEST 2018   EN: 2.550 GM2: 0.538  GM3: 0.1500  RAES: 3.00
     2s    -13.970922    2.096432
     2p    -10.063292    1.800000
  7     Wed Apr 25 08:07:45 CEST 2018   EN: 3.040 GM2: 0.461  GM3:-0.0640  RAES: 1.90
     2s    -16.686243    2.339881
     2p    -12.523956    2.014332
  8     Wed Apr 25 08:07:45 CEST 2018   EN: 3.440 GM2: 0.452  GM3:-0.0517  RAES: 1.80
     2s    -20.229985    2.439742
     2p    -15.503117    2.137023
 16     Tue Apr 24 11:44:34 CEST 2018   EN: 2.580 GM2: 0.340  GM3:-0.0502  RAES: 3.10
     3s    -20.029654    1.981333
     3p    -11.377694    2.025643
     3d     -0.420282    1.702555
 no old-style atom pair restraining (fixing) potential

molecular fragmentation (1/2 indicates fragments):
111111111111111111111111111111111111111111111111111111111111111111111111
111111111111111111111111111111111111111111111111111111111111111111111111
111111111111111111111111111111111111111111111111111111111111111111111111
111111111111122222222222222222222222222222222222222222222222222222222222
222222222222222222222222222222222222222222222222222222222222222222222222
222222222222222222222222222222222222222222222222222211222222222222222222
# atoms in fragment 1/2:   231   201
 fragment masses (1/2) :     1600.91     1248.65
CMA distance (Bohr)    :   8.278
constraining FC (au)   :  0.0500
           ------------------------------------------------- 
          |        Self-Consistent Charge Iterations        |
           ------------------------------------------------- 

 Ncao       : 1038
 Nao        : 1037
 Nshell     : 633
 Nel        : 1132
 T(el)      :   500.0
 intcut     :    35.0
 scfconv/Eh :  0.100E-06
   qconv/e  :  0.100E-04
 intneglect :  0.100E-08
 broydamp   :      0.400
 iter      E             dE          RMSdq      gap      omega  full diag
   1   -642.2864041 -0.642286E+03  0.449E+00    2.62       0.0  T
   2   -643.7706875 -0.148428E+01  0.211E+00    1.37       1.0  T
   3   -643.8670329 -0.963454E-01  0.125E+00    1.79       1.0  T
   4   -643.9854736 -0.118441E+00  0.229E-01    1.27       1.0  T
   5   -643.9912333 -0.575976E-02  0.110E-01    1.38       1.0  T
   6   -643.9920657 -0.832416E-03  0.477E-02    1.35       1.0  T
   7   -643.9923109 -0.245212E-03  0.195E-02    1.35       1.0  T
   8   -643.9923357 -0.247206E-04  0.982E-03    1.35       1.0  T
   9   -643.9923454 -0.972966E-05  0.447E-03    1.35       1.1  T
  10   -643.9923472 -0.176194E-05  0.194E-03    1.35       2.5  T
  11   -643.9923474 -0.256527E-06  0.926E-04    1.35       5.2  T
  12   -643.9923475 -0.495386E-07  0.412E-04    1.35      11.7  T
  13   -643.9923475 -0.158561E-07  0.206E-04    1.35      23.4  T
  14   -643.9923475 -0.179989E-08  0.106E-04    1.35      45.3  T
  15   -643.9923475 -0.101147E-08  0.412E-05    1.35     116.8  T
  16   -643.9923475 -0.158479E-09  0.184E-05    1.35     261.7  T
speedup  1.93
cpu  time for SCC   23.18 s
wall time for SCC   11.99 s

   *** convergence criteria satisfied after 16 iterations ***

          eigenvalues
 #    :         554        555        556        557        558        559        560        561
 occ. :        2.000      2.000      2.000      2.000      2.000      2.000      2.000      2.000
 eps  :       -10.494    -10.452    -10.244    -10.208    -10.185    -10.151     -9.851     -9.836
 #    :         562        563        564        565        566        567        568        569
 occ. :        2.000      2.000      2.000      2.000      2.000      0.000      0.000      0.000
 eps  :        -9.823     -9.724     -9.712     -9.519     -9.463     -8.113     -7.884     -7.816
 #    :         570        571        572        573        574        575        576        577
 occ. :        0.000      0.000      0.000      0.000      0.000      0.000      0.000      0.000
 eps  :        -7.806     -7.797     -7.626     -7.597     -7.554     -7.358     -7.225     -7.033


   #   Z            q   n(s)   n(p)   n(d)      C6AA      α(0)
   1   7 N     -0.389  1.320  4.069  0.000    30.061     8.143
   2   6 C      0.029  1.068  2.903  0.000    20.112     6.390
   3   6 C      0.265  1.058  2.677  0.000    22.526     7.771
   4   8 O     -0.472  1.764  4.709  0.000    23.184     6.456
   5   6 C     -0.101  1.064  3.036  0.000    22.416     6.740
   6   6 C      0.305  1.042  2.653  0.000    21.826     7.649
   7   8 O     -0.536  1.753  4.783  0.000    24.593     6.649
   8   7 N     -0.290  1.269  4.021  0.000    27.487     7.786
   9   1 H      0.183  0.817  0.000  0.000     1.198     1.714
  10   1 H      0.044  0.956  0.000  0.000     2.401     2.423
  11   1 H      0.079  0.921  0.000  0.000     1.994     2.208
  12   1 H      0.068  0.932  0.000  0.000     2.103     2.268
  13   1 H      0.212  0.788  0.000  0.000     1.048     1.604
  14   1 H      0.233  0.767  0.000  0.000     0.953     1.529
  15   7 N     -0.181  1.264  3.917  0.000    24.924     7.415
  16   6 C      0.009  1.079  2.912  0.000    20.440     6.440
  17   6 C      0.267  1.049  2.684  0.000    22.494     7.766
  18   8 O     -0.481  1.752  4.729  0.000    23.370     6.482
  19   6 C     -0.018  1.064  2.954  0.000    20.860     6.497
  20   6 C     -0.120  1.041  3.079  0.000    22.849     6.815
  21   6 C     -0.129  1.042  3.087  0.000    23.032     6.843
  22   1 H      0.215  0.785  0.000  0.000     1.032     1.591
  23   1 H      0.083  0.917  0.000  0.000     1.945     2.181
  24   1 H      0.049  0.951  0.000  0.000     2.335     2.390
  25   1 H      0.065  0.935  0.000  0.000     2.141     2.288
  26   1 H      0.035  0.965  0.000  0.000     2.510     2.478
  27   1 H      0.054  0.946  0.000  0.000     2.271     2.357
  28   1 H      0.070  0.930  0.000  0.000     2.089     2.260
  29   1 H      0.056  0.944  0.000  0.000     2.246     2.344
  30   1 H      0.058  0.942  0.000  0.000     2.227     2.334
  31   7 N     -0.189  1.247  3.942  0.000    25.091     7.439
  32   6 C      0.022  1.057  2.921  0.000    20.210     6.401
  33   6 C      0.296  1.039  2.665  0.000    21.978     7.679
  34   8 O     -0.488  1.739  4.749  0.000    23.515     6.502
  35   6 C     -0.086  1.064  3.023  0.000    22.126     6.694
  36   6 C     -0.020  1.056  2.964  0.000    20.895     6.501
  37   6 C     -0.120  1.043  3.077  0.000    22.859     6.818
  38   6 C     -0.117  1.042  3.075  0.000    22.806     6.809
  39   1 H      0.219  0.781  0.000  0.000     1.012     1.576
  40   1 H      0.080  0.920  0.000  0.000     1.982     2.202
  41   1 H      0.082  0.918  0.000  0.000     1.964     2.191
  42   1 H      0.048  0.952  0.000  0.000     2.347     2.396
  43   1 H      0.035  0.965  0.000  0.000     2.515     2.480
  44   1 H      0.048  0.952  0.000  0.000     2.348     2.396
  45   1 H      0.042  0.958  0.000  0.000     2.424     2.435
  46   1 H      0.058  0.942  0.000  0.000     2.223     2.331
  47   1 H      0.047  0.953  0.000  0.000     2.363     2.404
  48   1 H      0.055  0.945  0.000  0.000     2.257     2.349
  49   1 H      0.030  0.970  0.000  0.000     2.582     2.513
  50   7 N     -0.187  1.253  3.934  0.000    25.065     7.436
  51   6 C      0.053  1.049  2.898  0.000    19.678     6.313
  52   6 C      0.315  1.038  2.647  0.000    21.652     7.621
  53   8 O     -0.501  1.735  4.766  0.000    23.805     6.542
  54   6 C     -0.105  1.073  3.032  0.000    22.502     6.754
  55   6 C      0.370  1.028  2.602  0.000    20.729     7.450
  56   8 O     -0.624  1.766  4.858  0.000    26.728     6.931
  57   8 O     -0.630  1.773  4.857  0.000    26.860     6.948
  58   1 H      0.210  0.790  0.000  0.000     1.058     1.611
  59   1 H      0.042  0.958  0.000  0.000     2.420     2.433
  60   1 H      0.037  0.963  0.000  0.000     2.493     2.469
  61   1 H      0.031  0.969  0.000  0.000     2.576     2.510
  62   7 N     -0.183  1.256  3.926  0.000    24.955     7.419
  63   6 C      0.047  1.054  2.899  0.000    19.798     6.335
  64   6 C      0.290  1.041  2.670  0.000    22.091     7.698
  65   8 O     -0.517  1.735  4.782  0.000    24.158     6.590
  66   6 C     -0.071  1.058  3.013  0.000    21.853     6.654
  67   6 C     -0.010  1.057  2.952  0.000    20.716     6.474
  68   6 C     -0.111  1.039  3.072  0.000    22.684     6.792
  69   6 C     -0.121  1.045  3.076  0.000    22.882     6.821
  70   1 H      0.187  0.813  0.000  0.000     1.174     1.697
  71   1 H      0.046  0.954  0.000  0.000     2.372     2.408
  72   1 H      0.042  0.958  0.000  0.000     2.420     2.433
  73   1 H      0.068  0.932  0.000  0.000     2.103     2.268
  74   1 H      0.030  0.970  0.000  0.000     2.590     2.517
  75   1 H      0.055  0.945  0.000  0.000     2.256     2.349
  76   1 H      0.021  0.979  0.000  0.000     2.716     2.577
  77   1 H      0.038  0.962  0.000  0.000     2.471     2.458
  78   1 H      0.057  0.943  0.000  0.000     2.230     2.335
  79   1 H      0.047  0.953  0.000  0.000     2.353     2.399
  80   1 H      0.052  0.948  0.000  0.000     2.301     2.372
  81   7 N     -0.182  1.246  3.936  0.000    24.936     7.416
  82   6 C      0.040  1.050  2.910  0.000    19.899     6.350
  83   6 C      0.284  1.042  2.673  0.000    22.185     7.715
  84   8 O     -0.514  1.736  4.778  0.000    24.094     6.581
  85   6 C     -0.134  1.042  3.092  0.000    23.120     6.854
  86   1 H      0.220  0.780  0.000  0.000     1.010     1.574
  87   1 H      0.064  0.936  0.000  0.000     2.151     2.294
  88   1 H      0.070  0.930  0.000  0.000     2.085     2.258
  89   1 H      0.079  0.921  0.000  0.000     1.994     2.208
  90   1 H      0.067  0.933  0.000  0.000     2.123     2.279
  91   7 N     -0.185  1.251  3.935  0.000    25.020     7.429
  92   6 C      0.035  1.052  2.913  0.000    19.963     6.358
  93   6 C      0.289  1.036  2.674  0.000    22.096     7.700
  94   8 O     -0.501  1.740  4.762  0.000    23.813     6.543
  95   6 C     -0.016  1.061  2.955  0.000    20.806     6.485
  96   6 C     -0.073  1.055  3.018  0.000    21.897     6.662
  97   6 C     -0.114  1.040  3.074  0.000    22.740     6.799
  98   6 C     -0.105  1.039  3.065  0.000    22.556     6.773
  99   1 H      0.231  0.769  0.000  0.000     0.961     1.536
 100   1 H      0.060  0.940  0.000  0.000     2.197     2.318
 101   1 H      0.026  0.974  0.000  0.000     2.643     2.542
 102   1 H      0.068  0.932  0.000  0.000     2.102     2.267
 103   1 H      0.041  0.959  0.000  0.000     2.433     2.439
 104   1 H      0.058  0.942  0.000  0.000     2.219     2.329
 105   1 H      0.033  0.967  0.000  0.000     2.541     2.493
 106   1 H      0.054  0.946  0.000  0.000     2.274     2.358
 107   1 H      0.057  0.943  0.000  0.000     2.232     2.336
 108   1 H      0.019  0.981  0.000  0.000     2.751     2.594
 109   1 H      0.039  0.961  0.000  0.000     2.457     2.451
 110   7 N     -0.206  1.260  3.946  0.000    25.482     7.497
 111   6 C      0.040  1.060  2.900  0.000    19.913     6.355
 112   6 C      0.269  1.056  2.674  0.000    22.452     7.759
 113   8 O     -0.489  1.737  4.752  0.000    23.536     6.504
 114   6 C     -0.118  1.038  3.080  0.000    22.819     6.812
 115   1 H      0.232  0.768  0.000  0.000     0.955     1.531
 116   1 H      0.059  0.941  0.000  0.000     2.215     2.327
 117   1 H      0.059  0.941  0.000  0.000     2.205     2.322
 118   1 H      0.048  0.952  0.000  0.000     2.342     2.393
 119   1 H      0.061  0.939  0.000  0.000     2.188     2.313
 120   7 N     -0.174  1.254  3.920  0.000    24.756     7.390
 121   6 C      0.016  1.076  2.908  0.000    20.312     6.418
 122   6 C      0.289  1.041  2.670  0.000    22.097     7.697
 123   8 O     -0.507  1.732  4.775  0.000    23.937     6.560
 124   6 C     -0.023  1.070  2.953  0.000    20.949     6.511
 125   6 C     -0.115  1.037  3.078  0.000    22.757     6.803
 126   6 C     -0.127  1.047  3.080  0.000    23.002     6.840
 127   1 H      0.219  0.781  0.000  0.000     1.014     1.577
 128   1 H      0.069  0.931  0.000  0.000     2.092     2.262
 129   1 H      0.051  0.949  0.000  0.000     2.307     2.375
 130   1 H      0.064  0.936  0.000  0.000     2.151     2.293
 131   1 H      0.038  0.962  0.000  0.000     2.472     2.459
 132   1 H      0.038  0.962  0.000  0.000     2.480     2.463
 133   1 H      0.063  0.937  0.000  0.000     2.159     2.298
 134   1 H      0.057  0.943  0.000  0.000     2.238     2.339
 135   1 H      0.053  0.947  0.000  0.000     2.277     2.360
 136   7 N     -0.182  1.245  3.937  0.000    24.953     7.419
 137   6 C      0.023  1.057  2.921  0.000    20.188     6.396
 138   6 C      0.284  1.042  2.674  0.000    22.189     7.715
 139   8 O     -0.484  1.741  4.743  0.000    23.437     6.491
 140   6 C     -0.006  1.058  2.948  0.000    20.637     6.459
 141   6 C     -0.104  1.037  3.067  0.000    22.544     6.769
 142   6 C     -0.114  1.042  3.072  0.000    22.743     6.799
 143   1 H      0.221  0.779  0.000  0.000     1.006     1.571
 144   1 H      0.090  0.910  0.000  0.000     1.879     2.143
 145   1 H      0.025  0.975  0.000  0.000     2.660     2.550
 146   1 H      0.044  0.956  0.000  0.000     2.397     2.421
 147   1 H      0.040  0.960  0.000  0.000     2.453     2.449
 148   1 H      0.051  0.949  0.000  0.000     2.303     2.373
 149   1 H      0.054  0.946  0.000  0.000     2.269     2.355
 150   1 H      0.049  0.951  0.000  0.000     2.328     2.386
 151   1 H      0.044  0.956  0.000  0.000     2.396     2.421
 152   7 N     -0.187  1.244  3.944  0.000    25.062     7.435
 153   6 C      0.028  1.053  2.920  0.000    20.111     6.385
 154   6 C      0.263  1.044  2.693  0.000    22.570     7.780
 155   8 O     -0.494  1.738  4.756  0.000    23.651     6.520
 156   6 C     -0.067  1.049  3.018  0.000    21.765     6.640
 157   6 C     -0.015  1.070  2.945  0.000    20.862     6.505
 158  16 S     -0.240  1.926  4.255  0.060   151.359    20.707
 159   6 C     -0.070  1.061  3.009  0.000    21.909     6.676
 160   1 H      0.206  0.794  0.000  0.000     1.077     1.625
 161   1 H      0.081  0.919  0.000  0.000     1.971     2.196
 162   1 H      0.074  0.926  0.000  0.000     2.040     2.234
 163   1 H      0.061  0.939  0.000  0.000     2.193     2.316
 164   1 H      0.045  0.955  0.000  0.000     2.381     2.413
 165   1 H      0.058  0.942  0.000  0.000     2.228     2.334
 166   1 H      0.094  0.906  0.000  0.000     1.841     2.122
 167   1 H      0.069  0.931  0.000  0.000     2.096     2.264
 168   1 H      0.054  0.946  0.000  0.000     2.276     2.359
 169   7 N     -0.186  1.245  3.941  0.000    25.039     7.432
 170   6 C     -0.023  1.051  2.973  0.000    21.055     6.544
 171   6 C      0.275  1.037  2.688  0.000    22.342     7.740
 172   8 O     -0.471  1.733  4.738  0.000    23.160     6.452
 173   1 H      0.235  0.765  0.000  0.000     0.944     1.522
 174   1 H      0.089  0.911  0.000  0.000     1.888     2.149
 175   1 H      0.078  0.922  0.000  0.000     2.002     2.213
 176   7 N     -0.190  1.251  3.939  0.000    25.128     7.445
 177   6 C      0.017  1.057  2.926  0.000    20.289     6.413
 178   6 C      0.286  1.030  2.684  0.000    22.156     7.710
 179   8 O     -0.487  1.743  4.744  0.000    23.506     6.500
 180   6 C     -0.141  1.048  3.093  0.000    23.233     6.868
 181   1 H      0.236  0.764  0.000  0.000     0.941     1.520
 182   1 H      0.080  0.920  0.000  0.000     1.976     2.198
 183   1 H      0.066  0.934  0.000  0.000     2.130     2.282
 184   1 H      0.071  0.929  0.000  0.000     2.079     2.255
 185   1 H      0.087  0.913  0.000  0.000     1.910     2.161
 186   7 N     -0.189  1.244  3.945  0.000    25.106     7.442
 187   6 C      0.026  1.057  2.917  0.000    20.138     6.389
 188   6 C      0.286  1.035  2.680  0.000    22.161     7.709
 189   8 O     -0.495  1.752  4.743  0.000    23.670     6.523
 190   6 C     -0.122  1.042  3.080  0.000    22.889     6.820
 191   1 H      0.205  0.795  0.000  0.000     1.082     1.630
 192   1 H      0.065  0.935  0.000  0.000     2.143     2.290
 193   1 H      0.066  0.934  0.000  0.000     2.128     2.281
 194   1 H      0.070  0.930  0.000  0.000     2.083     2.257
 195   1 H      0.060  0.940  0.000  0.000     2.200     2.320
 196   7 N     -0.189  1.252  3.937  0.000    25.092     7.440
 197   6 C      0.028  1.068  2.904  0.000    20.111     6.385
 198   6 C      0.283  1.041  2.676  0.000    22.212     7.718
 199   8 O     -0.491  1.755  4.735  0.000    23.580     6.510
 200   6 C     -0.080  1.059  3.021  0.000    22.019     6.680
 201   6 C      0.008  1.085  2.907  0.000    27.834     8.654
 202   6 C     -0.037  1.081  2.956  0.000    28.914     8.818
 203   6 C     -0.042  1.080  2.961  0.000    29.038     8.837
 204   6 C     -0.032  1.079  2.953  0.000    28.791     8.799
 205   6 C     -0.035  1.078  2.956  0.000    28.866     8.811
 206   6 C     -0.037  1.078  2.959  0.000    28.927     8.820
 207   1 H      0.217  0.783  0.000  0.000     1.023     1.584
 208   1 H      0.065  0.935  0.000  0.000     2.137     2.286
 209   1 H      0.075  0.925  0.000  0.000     2.030     2.228
 210   1 H      0.069  0.931  0.000  0.000     2.102     2.267
 211   1 H      0.028  0.972  0.000  0.000     2.608     2.525
 212   1 H      0.037  0.963  0.000  0.000     2.488     2.467
 213   1 H      0.039  0.961  0.000  0.000     2.459     2.452
 214   1 H      0.044  0.956  0.000  0.000     2.395     2.420
 215   1 H      0.041  0.959  0.000  0.000     2.436     2.441
 216   7 N     -0.185  1.250  3.935  0.000    25.002     7.426
 217   6 C      0.046  1.049  2.906  0.000    19.809     6.336
 218   6 C      0.208  1.087  2.705  0.000    23.585     7.953
 219   8 O     -0.368  1.762  4.606  0.000    21.052     6.152
 220   6 C     -0.104  1.060  3.044  0.000    22.467     6.746
 221   6 C      0.294  1.031  2.674  0.000    22.007     7.681
 222   8 O     -0.482  1.750  4.732  0.000    23.393     6.485
 223   7 N     -0.291  1.270  4.022  0.000    27.514     7.790
 224   1 H      0.237  0.763  0.000  0.000     0.937     1.517
 225   1 H      0.078  0.922  0.000  0.000     2.004     2.214
 226   1 H      0.089  0.911  0.000  0.000     1.888     2.149
 227   1 H      0.079  0.921  0.000  0.000     1.993     2.207
 228   1 H      0.240  0.760  0.000  0.000     0.924     1.505
 229   1 H      0.233  0.767  0.000  0.000     0.953     1.529
 230   7 N     -0.392  1.317  4.075  0.000    30.155     8.156
 231   6 C      0.043  1.054  2.903  0.000    19.866     6.349
 232   6 C      0.202  1.093  2.706  0.000    23.713     7.976
 233   8 O     -0.381  1.753  4.628  0.000    21.310     6.189
 234   6 C     -0.071  1.062  3.009  0.000    21.850     6.653
 235   6 C     -0.010  1.057  2.953  0.000    20.726     6.476
 236   6 C     -0.113  1.040  3.073  0.000    22.715     6.796
 237   6 C     -0.112  1.042  3.070  0.000    22.696     6.793
 238   1 H      0.172  0.828  0.000  0.000     1.262     1.760
 239   1 H      0.038  0.962  0.000  0.000     2.481     2.463
 240   1 H      0.058  0.942  0.000  0.000     2.224     2.332
 241   1 H      0.057  0.943  0.000  0.000     2.231     2.336
 242   1 H      0.026  0.974  0.000  0.000     2.646     2.544
 243   1 H      0.032  0.968  0.000  0.000     2.557     2.500
 244   1 H      0.045  0.955  0.000  0.000     2.386     2.416
 245   1 H      0.042  0.958  0.000  0.000     2.423     2.434
 246   1 H      0.027  0.973  0.000  0.000     2.625     2.533
 247   1 H      0.042  0.958  0.000  0.000     2.426     2.436
 248   1 H      0.042  0.958  0.000  0.000     2.423     2.434
 249   7 N     -0.397  1.308  4.089  0.000    30.289     8.174
 250   6 C      0.032  1.068  2.900  0.000    20.053     6.380
 251   6 C      0.206  1.092  2.701  0.000    23.622     7.959
 252   8 O     -0.377  1.759  4.618  0.000    21.233     6.178
 253   6 C     -0.019  1.074  2.946  0.000    20.885     6.501
 254   6 C     -0.112  1.037  3.075  0.000    22.693     6.793
 255   6 C     -0.120  1.046  3.074  0.000    22.873     6.821
 256   1 H      0.175  0.825  0.000  0.000     1.245     1.748
 257   1 H      0.046  0.954  0.000  0.000     2.365     2.405
 258   1 H      0.049  0.951  0.000  0.000     2.336     2.390
 259   1 H      0.043  0.957  0.000  0.000     2.411     2.428
 260   1 H      0.048  0.952  0.000  0.000     2.350     2.397
 261   1 H      0.029  0.971  0.000  0.000     2.606     2.524
 262   1 H      0.041  0.959  0.000  0.000     2.434     2.440
 263   1 H      0.047  0.953  0.000  0.000     2.353     2.399
 264   1 H      0.050  0.950  0.000  0.000     2.316     2.380
 265   7 N     -0.385  1.310  4.075  0.000    29.964     8.130
 266   6 C      0.041  1.058  2.902  0.000    19.916     6.358
 267   6 C      0.195  1.104  2.701  0.000    23.829     7.994
 268   8 O     -0.362  1.752  4.610  0.000    20.930     6.134
 269   6 C     -0.126  1.043  3.083  0.000    22.984     6.836
 270   1 H      0.173  0.827  0.000  0.000     1.253     1.754
 271   1 H      0.051  0.949  0.000  0.000     2.309     2.376
 272   1 H      0.044  0.956  0.000  0.000     2.399     2.422
 273   1 H      0.059  0.941  0.000  0.000     2.214     2.327
 274   1 H      0.056  0.944  0.000  0.000     2.244     2.343
 275   7 N     -0.405  1.310  4.095  0.000    30.511     8.204
 276   6 C     -0.007  1.045  2.962  0.000    20.775     6.503
 277   6 C      0.269  1.043  2.688  0.000    22.460     7.760
 278   8 O     -0.479  1.741  4.738  0.000    23.322     6.475
 279   1 H      0.194  0.806  0.000  0.000     1.138     1.671
 280   1 H      0.042  0.958  0.000  0.000     2.426     2.436
 281   1 H      0.037  0.963  0.000  0.000     2.486     2.466
 282   7 N     -0.168  1.242  3.926  0.000    24.633     7.371
 283   6 C      0.025  1.052  2.923  0.000    20.167     6.396
 284   6 C      0.209  1.077  2.714  0.000    23.566     7.952
 285   8 O     -0.368  1.752  4.616  0.000    21.061     6.153
 286   6 C     -0.139  1.044  3.095  0.000    23.207     6.864
 287   1 H      0.226  0.774  0.000  0.000     0.982     1.552
 288   1 H      0.085  0.915  0.000  0.000     1.925     2.170
 289   1 H      0.075  0.925  0.000  0.000     2.036     2.232
 290   1 H      0.084  0.916  0.000  0.000     1.941     2.179
 291   1 H      0.082  0.918  0.000  0.000     1.962     2.191
 292   7 N     -0.390  1.317  4.073  0.000    30.106     8.149
 293   6 C      0.032  1.066  2.902  0.000    20.041     6.375
 294   6 C      0.272  1.048  2.680  0.000    22.409     7.752
 295   8 O     -0.501  1.753  4.748  0.000    23.803     6.541
 296   6 C     -0.080  1.061  3.019  0.000    22.021     6.680
 297   6 C      0.007  1.087  2.906  0.000    27.863     8.659
 298   6 C     -0.038  1.081  2.957  0.000    28.951     8.824
 299   6 C     -0.043  1.080  2.963  0.000    29.059     8.840
 300   6 C     -0.031  1.078  2.953  0.000    28.768     8.796
 301   6 C     -0.035  1.078  2.957  0.000    28.876     8.812
 302   6 C     -0.036  1.078  2.958  0.000    28.899     8.816
 303   1 H      0.162  0.838  0.000  0.000     1.323     1.802
 304   1 H      0.037  0.963  0.000  0.000     2.493     2.469
 305   1 H      0.061  0.939  0.000  0.000     2.185     2.312
 306   1 H      0.065  0.935  0.000  0.000     2.146     2.291
 307   1 H      0.034  0.966  0.000  0.000     2.528     2.486
 308   1 H      0.028  0.972  0.000  0.000     2.615     2.529
 309   1 H      0.035  0.965  0.000  0.000     2.521     2.483
 310   1 H      0.030  0.970  0.000  0.000     2.584     2.514
 311   1 H      0.041  0.959  0.000  0.000     2.436     2.441
 312   7 N     -0.176  1.249  3.927  0.000    24.820     7.399
 313   6 C      0.047  1.047  2.906  0.000    19.792     6.334
 314   6 C      0.201  1.088  2.711  0.000    23.718     7.976
 315   8 O     -0.366  1.766  4.599  0.000    21.007     6.145
 316   6 C     -0.107  1.061  3.046  0.000    22.536     6.757
 317   6 C      0.290  1.033  2.678  0.000    22.091     7.696
 318   8 O     -0.479  1.752  4.728  0.000    23.334     6.476
 319   7 N     -0.289  1.268  4.021  0.000    27.447     7.781
 320   1 H      0.246  0.754  0.000  0.000     0.898     1.485
 321   1 H      0.064  0.936  0.000  0.000     2.149     2.292
 322   1 H      0.089  0.911  0.000  0.000     1.890     2.150
 323   1 H      0.086  0.914  0.000  0.000     1.914     2.164
 324   1 H      0.227  0.773  0.000  0.000     0.979     1.550
 325   1 H      0.237  0.763  0.000  0.000     0.934     1.514
 326   7 N     -0.391  1.310  4.081  0.000    30.128     8.152
 327   6 C      0.043  1.053  2.903  0.000    19.863     6.348
 328   6 C      0.209  1.090  2.700  0.000    23.564     7.952
 329   8 O     -0.400  1.753  4.647  0.000    21.673     6.242
 330   6 C     -0.017  1.068  2.949  0.000    20.828     6.489
 331   6 C     -0.055  1.048  3.007  0.000    21.569     6.612
 332   6 C     -0.105  1.039  3.066  0.000    22.558     6.772
 333   6 C     -0.102  1.034  3.068  0.000    22.505     6.765
 334   1 H      0.172  0.828  0.000  0.000     1.263     1.760
 335   1 H      0.043  0.957  0.000  0.000     2.416     2.431
 336   1 H      0.042  0.958  0.000  0.000     2.428     2.437
 337   1 H      0.029  0.971  0.000  0.000     2.606     2.524
 338   1 H      0.043  0.957  0.000  0.000     2.404     2.425
 339   1 H      0.047  0.953  0.000  0.000     2.361     2.403
 340   1 H      0.031  0.969  0.000  0.000     2.565     2.505
 341   1 H      0.040  0.960  0.000  0.000     2.446     2.446
 342   1 H      0.044  0.956  0.000  0.000     2.390     2.417
 343   1 H      0.033  0.967  0.000  0.000     2.539     2.492
 344   1 H      0.036  0.964  0.000  0.000     2.503     2.474
 345   7 N     -0.388  1.312  4.075  0.000    30.035     8.139
 346   6 C      0.039  1.058  2.903  0.000    19.946     6.363
 347   6 C      0.193  1.093  2.714  0.000    23.877     8.003
 348   8 O     -0.365  1.750  4.615  0.000    21.000     6.144
 349   6 C     -0.073  1.061  3.012  0.000    21.879     6.658
 350   6 C      0.009  1.082  2.909  0.000    27.812     8.650
 351   6 C     -0.038  1.081  2.957  0.000    28.941     8.823
 352   6 C     -0.041  1.079  2.962  0.000    29.022     8.835
 353   6 C     -0.031  1.080  2.951  0.000    28.778     8.798
 354   6 C     -0.034  1.083  2.951  0.000    28.850     8.809
 355   6 C     -0.034  1.077  2.957  0.000    28.847     8.807
 356   1 H      0.168  0.832  0.000  0.000     1.284     1.775
 357   1 H      0.047  0.953  0.000  0.000     2.358     2.401
 358   1 H      0.061  0.939  0.000  0.000     2.183     2.311
 359   1 H      0.070  0.930  0.000  0.000     2.083     2.257
 360   1 H      0.020  0.980  0.000  0.000     2.734     2.586
 361   1 H      0.051  0.949  0.000  0.000     2.310     2.377
 362   1 H      0.027  0.973  0.000  0.000     2.628     2.535
 363   1 H      0.046  0.954  0.000  0.000     2.375     2.410
 364   1 H      0.035  0.965  0.000  0.000     2.520     2.482
 365   7 N     -0.394  1.322  4.071  0.000    30.196     8.161
 366   6 C      0.021  1.068  2.911  0.000    20.238     6.408
 367   6 C      0.269  1.049  2.682  0.000    22.461     7.761
 368   8 O     -0.512  1.762  4.750  0.000    24.061     6.577
 369   6 C     -0.023  1.072  2.951  0.000    20.942     6.509
 370   6 C     -0.060  1.054  3.007  0.000    21.658     6.626
 371   6 C     -0.128  1.039  3.089  0.000    23.010     6.839
 372   6 C     -0.104  1.039  3.065  0.000    22.549     6.773
 373   1 H      0.159  0.841  0.000  0.000     1.344     1.816
 374   1 H      0.033  0.967  0.000  0.000     2.540     2.492
 375   1 H      0.031  0.969  0.000  0.000     2.569     2.506
 376   1 H      0.037  0.963  0.000  0.000     2.489     2.467
 377   1 H      0.024  0.976  0.000  0.000     2.674     2.557
 378   1 H      0.040  0.960  0.000  0.000     2.454     2.450
 379   1 H      0.066  0.934  0.000  0.000     2.128     2.281
 380   1 H      0.040  0.960  0.000  0.000     2.455     2.450
 381   1 H      0.034  0.966  0.000  0.000     2.526     2.486
 382   1 H      0.035  0.965  0.000  0.000     2.511     2.478
 383   1 H      0.038  0.962  0.000  0.000     2.473     2.459
 384   7 N     -0.159  1.240  3.919  0.000    24.431     7.341
 385   6 C      0.028  1.058  2.914  0.000    20.114     6.387
 386   6 C      0.193  1.096  2.711  0.000    23.878     8.002
 387   8 O     -0.360  1.763  4.597  0.000    20.903     6.130
 388   6 C     -0.139  1.043  3.095  0.000    23.223     6.871
 389   1 H      0.231  0.769  0.000  0.000     0.962     1.536
 390   1 H      0.089  0.911  0.000  0.000     1.892     2.151
 391   1 H      0.064  0.936  0.000  0.000     2.154     2.295
 392   1 H      0.094  0.906  0.000  0.000     1.840     2.121
 393   1 H      0.071  0.929  0.000  0.000     2.070     2.250
 394   7 N     -0.380  1.309  4.071  0.000    29.814     8.109
 395   6 C      0.045  1.057  2.898  0.000    19.840     6.346
 396   6 C      0.206  1.093  2.701  0.000    23.636     7.963
 397   8 O     -0.395  1.755  4.639  0.000    21.574     6.227
 398   6 C     -0.072  1.061  3.011  0.000    21.878     6.660
 399   6 C     -0.009  1.056  2.953  0.000    20.703     6.472
 400   6 C     -0.108  1.040  3.068  0.000    22.601     6.776
 401   6 C     -0.113  1.042  3.070  0.000    22.696     6.790
 402   1 H      0.166  0.834  0.000  0.000     1.295     1.783
 403   1 H      0.044  0.956  0.000  0.000     2.394     2.420
 404   1 H      0.050  0.950  0.000  0.000     2.315     2.379
 405   1 H      0.065  0.935  0.000  0.000     2.140     2.288
 406   1 H      0.026  0.974  0.000  0.000     2.639     2.540
 407   1 H      0.039  0.961  0.000  0.000     2.457     2.451
 408   1 H      0.039  0.961  0.000  0.000     2.463     2.454
 409   1 H      0.031  0.969  0.000  0.000     2.577     2.510
 410   1 H      0.050  0.950  0.000  0.000     2.317     2.381
 411   1 H      0.030  0.970  0.000  0.000     2.592     2.518
 412   1 H      0.037  0.963  0.000  0.000     2.485     2.465
 413   1 H      0.194  0.806  0.000  0.000     1.138     1.671
 414   1 H      0.078  0.922  0.000  0.000     1.994     2.208
 415   1 H      0.182  0.818  0.000  0.000     1.203     1.718
 416   1 H      0.080  0.920  0.000  0.000     1.981     2.201
 417   1 H      0.179  0.821  0.000  0.000     1.220     1.730
 418   1 H      0.072  0.928  0.000  0.000     2.062     2.246
 419   1 H      0.190  0.810  0.000  0.000     1.159     1.686
 420   1 H      0.080  0.920  0.000  0.000     1.973     2.197
 421   1 H      0.177  0.823  0.000  0.000     1.229     1.737
 422   1 H      0.078  0.922  0.000  0.000     2.001     2.212
 423   1 H      0.183  0.817  0.000  0.000     1.199     1.715
 424   1 H      0.088  0.912  0.000  0.000     1.895     2.153
 425   1 H      0.180  0.820  0.000  0.000     1.213     1.725
 426   1 H      0.063  0.937  0.000  0.000     2.168     2.302
 427   1 H      0.179  0.821  0.000  0.000     1.221     1.731
 428   1 H      0.088  0.912  0.000  0.000     1.895     2.152
 429   1 H      0.187  0.813  0.000  0.000     1.172     1.696
 430   1 H      0.078  0.922  0.000  0.000     2.001     2.212
 431   1 H      0.175  0.825  0.000  0.000     1.243     1.746
 432   1 H      0.070  0.930  0.000  0.000     2.079     2.255

 Mol. C6AA /au·bohr⁶  :    1692967.677977
 Mol. C8AA /au·bohr⁸  :   37729983.543718
 Mol. α(0) /au        :       1956.906986

 
molecular dipole:
                 x           y           z       tot (Debye)
 q only:      -88.420     -22.565       5.890
   full:      -92.765     -24.679       5.390     244.376
molecular quadrupole (traceless):
                xx          xy          yy          xz          yz          zz
 q only:    -7750.333   -2883.750    3895.261     968.984     211.279    3855.072
  q+dip:    -8376.526   -3185.794    4183.937     991.115     230.450    4192.589
   full:    -8377.224   -3191.531    4186.131     988.516     232.583    4191.093
speedup  1.95
cpu  time for grad   30.88 s
wall time for grad   15.85 s

SCC energy    :    -644.0176101
rep           :       8.2120973
ES            :       1.6255290
AES           :      -0.0316399
AXC           :       0.2535545
disp          :      -0.5660231
XB            :       0.0000000
fix           :       0.0000000
Gborn         :       0.0000000
Gsasa         :       0.0000000
Ghb           :       0.0000000
Gshift        :       0.0000000
Gsolv         :      -0.3241170     -203.39
Etot ala COSMO:    -644.0176101
grad norm     :       0.7273467
total E       :    -635.7538399
atomizationE  :     119.5103366    74993.87
(atE without considering molecular charge,
 total energy contains solvation terms)
H-L gap (eV)  :          1.3503

------------------------------------------------------------------------
 * finished run on 2019/05/06 at 07:35:47.357     
------------------------------------------------------------------------
 total:
 * wall-time:     0 d,  0 h,  0 min, 17.022 sec
 *  cpu-time:     0 d,  0 h,  0 min, 33.052 sec
 * ratio c/w:     1.942 speedup
 SCF:
 * wall-time:     0 d,  0 h,  0 min, 16.765 sec
 *  cpu-time:     0 d,  0 h,  0 min, 32.709 sec
 * ratio c/w:     1.951 speedup

