      -----------------------------------------------------------      
     |                   =====================                   |     
     |                           x T B                           |     
     |                   =====================                   |     
     |                         S. Grimme                         |     
     |          Mulliken Center for Theoretical Chemistry        |     
     |                    University of Bonn                     |     
     |                 Version 6.0.1 (SAW181210)                 |     
      -----------------------------------------------------------      

   This program is distributed in the hope that it will be useful,
   but WITHOUT ANY WARRANTY; without even the implied warranty of
   MERCHANTABILITY or FITNESS FOR A PARTICULAR PURPOSE.
   
   FOR NON-COMMERCIAL, ACADEMIA USE ONLY.
   
   Cite this work as:
   S. Grimme, C. Bannwarth, P. Shushkov, J. Comput. Theory Chem., 2017,
   13, 1989-2009.
   C. Bannwarth, S. Ehlert and S. Grimme., ChemRxiv, 2018, preprint.
   http://doi.org/10.26434/chemrxiv.7246238.v1
   
   for sTDA-xTB:
   S. Grimme and C. Bannwarth, J. Chem. Phys., 2016, 145, 054103.
   
   in the mass-spec context:
   V. Asgeirsson, C. Bauer and S. Grimme, Chem. Sci., 2017, 8, 4879.
   
   if GBSA is used:
   P. Shushkov, F. März and S. Grimme, unpublished.
   
   for ANC optimizer:
   S. Grimme, unpublished.
   Rational Function algorithm used in ANCopt:
   F. Eckert, P. Pulay, H.-J. Werner, J. Comput. Chem., 1997, 18, 1473.
   
   with help from (in alphabetical order)
   C. Bannwarth, F. Bohle, G. Brandenburg, E. Caldeweyher, M. Checinski,
   S. Dohm, S. Ehlert, S. Ehrlich, F. März, H. Neugebauer, J. Pisarek,
   P. Pracht, P. Shushkov, and S. Spicher.
   
 * started run on 2019/05/12 at 07:57:07.121     
========================================================================
 # omp threads = 2
========================================================================
number of atoms            : 379
number of electrons        : 1020
charge                     : -2
spin                       : .0
first test random number   : .5182

########################################################################
# WARNING! Please study the warnings concerning your input carefully
#  - Process number higher than OMP_NUM_THREADS, I hope you know what you are doing.
########################################################################

           ------------------------------------------------- 
          |                 G F N 2 - x T B                 |
          | Geometry, Frequencies, Noncovalent interactions |
          |            JCTC 2018 parametrisation            |
           ------------------------------------------------- 
 
      method parameters     
 k(s)        :  1.8500
 k(p)        :  2.2300
 k(d)        :  2.2300
 k(f)        :  2.0000
 kEN (H0ij)  : -2.0000
 D4 a1       :  0.5200
 D4 a2       :  5.0000
 D4 s6       :  1.0000
 D4 s8       :  2.7000
 D4 s9       :  5.0000
 alphaj      :  2.0000

 Solvent             : h2o
 Using internal parameter file: .param_gbsa2_h2o
 Gsolv ref. state (COSMO-RS): gsolv [1 M gas/solution]
 temperature (mdtemp)       :    298.150000000000     
 dielectric constant        :    80.2000000000000     
 rho                        :    1.00000000000000     
 mass                       :    18.0000000000000     
 surface tension            :    15.5689454083859     
 probe radius               :   0.975313790000000     
 vdW radii scaling          :    1.00000000000000     
 Gshift (Eh)                :   1.857443126794793E-003
 c1                         :    1.55243817000000     
 soset                      :   0.130326360000000     
 HB correction              :  T

            Z     q(EN)     CN     RAES       Cart. coordinates
     1  N   5.0   -0.19    3.22    1.96    13.83299    57.34824   -19.45739
     2  C   4.0    0.02    4.10    3.81    14.57432    54.82647   -18.60081
     3  C   4.0    0.07    3.17    3.03    13.14958    54.42268   -15.97980
     4  O   6.0   -0.30    1.19    1.80    12.10732    56.13085   -14.82393
     5  C   4.0   -0.09    4.07    3.75    17.41973    54.70754   -18.21234
     6  H   1.0    0.12    1.07    1.44    13.68069    58.48068   -17.95144
     7  H   1.0    0.03    1.03    1.43    14.23462    53.17133   -19.84552
     8  H   1.0    0.03    0.98    1.43    17.93039    52.81521   -17.44003
     9  H   1.0    0.03    1.00    1.43    18.35512    55.12690   -19.98256
    10  H   1.0    0.04    0.99    1.43    17.76754    56.15891   -16.72049
    11  N   5.0   -0.19    3.19    1.95    18.11441    40.27179   -12.77844
    12  C   4.0    0.03    4.30    4.20    18.36910    42.55014   -14.38926
    13  C   4.0    0.10    3.24    3.04    17.41021    42.25333   -17.05098
    14  O   6.0   -0.32    1.22    1.80    17.63718    40.61030   -18.12892
    15  C   4.0   -0.04    4.40    4.38    21.07118    43.21157   -14.56967
    16  C   4.0   -0.04    3.61    3.17    22.07794    44.79023   -12.53851
    17  C   4.0   -0.02    3.51    3.12    24.20163    44.49614   -11.10465
    18  C   4.0    0.00    3.85    3.40    21.15377    47.35243   -11.72936
    19  N   5.0   -0.10    3.44    2.04    24.65443    46.76978    -9.61060
    20  C   4.0    0.03    3.85    3.39    22.57671    48.39688    -9.90298
    21  C   4.0   -0.05    3.41    3.08    19.21970    48.98231   -12.60245
    22  C   4.0   -0.04    3.41    3.08    22.14862    50.62413    -8.54754
    23  C   4.0   -0.05    3.32    3.06    18.63936    51.29244   -11.48917
    24  C   4.0   -0.04    3.41    3.08    20.15217    52.02842    -9.34018
    25  H   1.0    0.08    1.03    1.43    19.82591    39.49130   -12.32685
    26  H   1.0    0.03    1.06    1.44    17.47878    44.13559   -13.37187
    27  H   1.0    0.04    1.08    1.44    22.22802    41.58377   -14.48463
    28  H   1.0    0.04    1.05    1.44    21.39651    44.32149   -16.30188
    29  H   1.0    0.05    1.01    1.43    25.32723    42.82257   -11.26875
    30  H   1.0    0.11    1.04    1.43    25.90436    46.64540    -8.00607
    31  H   1.0    0.04    0.98    1.43    17.83868    48.19617   -14.06978
    32  H   1.0    0.07    1.04    1.43    23.42513    51.33320    -7.16311
    33  H   1.0    0.05    1.02    1.43    16.97684    52.37049   -12.00419
    34  H   1.0    0.05    1.06    1.44    19.84708    53.80028    -8.55815
    35  N   5.0   -0.21    3.16    1.95    15.41183    47.18903   -23.65921
    36  C   4.0    0.02    4.21    4.02    16.35210    49.63034   -24.65299
    37  C   4.0    0.08    3.15    3.03    15.01035    50.35546   -27.23922
    38  O   6.0   -0.32    1.16    1.80    14.57580    48.77984   -28.60103
    39  C   4.0   -0.05    4.43    4.44    19.23385    49.91029   -24.94123
    40  C   4.0   -0.05    4.09    3.79    20.63153    50.62069   -22.65445
    41  S   6.0   -0.04    2.68    3.10    23.62936    51.81661   -23.67577
    42  C   4.0   -0.06    3.92    3.49    22.94694    53.59258   -25.98575
    43  H   1.0    0.10    1.06    1.44    15.58201    45.93481   -24.95202
    44  H   1.0    0.03    1.06    1.44    15.44750    51.00386   -23.40522
    45  H   1.0    0.04    1.07    1.44    19.83360    48.12329   -25.57847
    46  H   1.0    0.03    1.10    1.44    19.63477    51.51223   -26.33865
    47  H   1.0    0.03    1.07    1.44    19.58246    52.19621   -21.73686
    48  H   1.0    0.04    1.05    1.44    20.57719    48.93742   -21.45311
    49  H   1.0    0.04    1.01    1.43    24.67502    54.49414   -26.98338
    50  H   1.0    0.03    1.05    1.44    21.73026    52.67350   -27.51731
    51  H   1.0    0.03    1.05    1.44    21.79248    55.28515   -25.41264
    52  N   5.0   -0.21    3.17    1.95    26.79588    62.65597   -23.48656
    53  C   4.0    0.02    4.31    4.22    27.65480    61.44106   -21.01667
    54  C   4.0    0.18    3.35    3.06    28.65743    58.68363   -21.75957
    55  O   6.0   -0.34    1.35    1.80    28.85824    57.91840   -23.48223
    56  C   4.0   -0.03    4.21    4.03    25.37601    61.11400   -19.18047
    57  C   4.0   -0.09    4.04    3.68    24.80691    63.40028   -17.51701
    58  C   4.0   -0.08    4.02    3.65    22.87822    60.42658   -20.78775
    59  H   1.0    0.08    1.01    1.43    25.72437    61.34067   -24.52258
    60  H   1.0    0.04    1.05    1.44    28.99584    62.59801   -20.06738
    61  H   1.0    0.04    1.04    1.43    25.53120    59.37753   -17.99104
    62  H   1.0    0.03    0.99    1.43    23.10502    62.82016   -16.40394
    63  H   1.0    0.04    1.00    1.43    26.53955    63.60180   -16.36932
    64  H   1.0    0.03    1.01    1.43    24.46863    64.86116   -18.91240
    65  H   1.0    0.03    0.97    1.43    21.28359    60.05287   -19.43880
    66  H   1.0    0.03    0.99    1.43    22.59701    61.97941   -22.15789
    67  H   1.0    0.04    0.96    1.43    23.29994    58.60341   -21.82374
    68  N   5.0   -0.15    3.49    2.07    29.49359    57.63228   -19.53192
    69  C   4.0    0.04    4.39    4.37    30.54394    54.98000   -19.90833
    70  C   4.0    0.15    3.28    3.05    30.39229    53.40475   -17.14905
    71  O   6.0   -0.32    1.31    1.80    31.40833    54.33045   -15.36421
    72  C   4.0   -0.02    4.33    4.25    32.71892    54.69404   -21.21525
    73  C   4.0    0.15    3.28    3.05    33.87139    52.11772   -21.55356
    74  O   6.0   -0.30    1.26    1.80    32.57712    50.39875   -22.29357
    75  N   5.0   -0.16    3.11    1.94    36.23148    51.37960   -20.67320
    76  H   1.0    0.10    1.08    1.44    29.56677    57.97126   -17.74390
    77  H   1.0    0.05    1.10    1.44    28.89018    54.10167   -20.74142
    78  H   1.0    0.05    1.06    1.44    32.84136    55.59164   -23.03533
    79  H   1.0    0.05    1.08    1.44    34.24811    55.51451   -20.05146
    80  H   1.0    0.09    0.95    1.42    36.90784    49.42933   -21.07542
    81  H   1.0    0.08    1.05    1.44    37.24005    52.81596   -20.16511
    82  N   5.0   -0.13    3.47    2.06    29.37132    51.01337   -17.37122
    83  C   4.0    0.03    4.39    4.37    29.44247    49.37082   -15.20608
    84  C   4.0    0.19    3.35    3.06    32.41952    48.97238   -14.54497
    85  O   6.0   -0.31    1.33    1.80    34.10625    49.01280   -15.50535
    86  C   4.0   -0.04    4.43    4.42    28.54774    46.84778   -16.11141
    87  C   4.0   -0.05    4.36    4.31    26.93716    46.64048   -18.32119
    88  C   4.0   -0.05    4.29    4.18    28.25153    45.46667   -20.51444
    89  C   4.0   -0.04    4.26    4.11    29.63406    43.19609   -19.81473
    90  N   5.0   -0.11    4.00    2.86    28.07990    41.44186   -18.45787
    91  H   1.0    0.07    1.12    1.45    28.49382    50.07103   -18.97678
    92  H   1.0    0.05    1.09    1.44    28.31943    50.06419   -13.82073
    93  H   1.0    0.04    1.08    1.44    30.06694    45.35992   -16.53797
    94  H   1.0    0.04    1.03    1.43    27.37733    46.00520   -14.56354
    95  H   1.0    0.03    1.02    1.43    25.18517    45.51606   -18.00962
    96  H   1.0    0.04    1.11    1.45    26.64978    48.70900   -18.82987
    97  H   1.0    0.04    1.02    1.43    26.87327    44.95368   -22.00500
    98  H   1.0    0.06    1.03    1.43    29.58412    46.88008   -21.26002
    99  H   1.0    0.03    1.03    1.43    30.26461    42.09384   -21.44951
   100  H   1.0    0.04    1.05    1.44    31.13657    43.71989   -18.45580
   101  H   1.0    0.04    0.96    1.43    28.47975    39.42572   -18.81548
   102  H   1.0    0.04    0.98    1.43    28.32713    41.62312   -16.41314
   103  H   1.0    0.04    0.97    1.43    26.02745    41.70165   -18.75457
   104  N   5.0   -0.14    3.44    2.04    32.55630    49.31549   -11.83539
   105  C   4.0    0.03    4.40    4.38    35.15281    48.59938   -10.80582
   106  C   4.0    0.19    3.32    3.06    34.98691    45.83694    -9.28640
   107  O   6.0   -0.34    1.33    1.80    36.41274    44.71630    -9.11142
   108  C   4.0   -0.03    4.24    4.07    35.88420    50.63484    -8.81697
   109  C   4.0   -0.07    4.08    3.77    37.37477    49.42312    -6.56474
   110  C   4.0   -0.07    4.05    3.71    37.47290    52.69252   -10.20972
   111  H   1.0    0.09    1.05    1.44    31.27056    49.70241   -10.53471
   112  H   1.0    0.06    1.10    1.44    36.43793    48.65784   -12.25386
   113  H   1.0    0.05    1.05    1.44    34.23796    51.57290    -8.01348
   114  H   1.0    0.03    1.00    1.43    37.82104    50.87879    -5.18840
   115  H   1.0    0.06    1.01    1.43    35.98017    47.92772    -5.86367
   116  H   1.0    0.05    0.99    1.43    38.93329    48.39260    -7.55713
   117  H   1.0    0.04    0.99    1.43    37.95557    53.99843    -8.61579
   118  H   1.0    0.04    1.00    1.43    39.09237    51.66392   -10.94042
   119  H   1.0    0.06    1.00    1.43    36.18415    53.56649   -11.55235
   120  N   5.0   -0.13    3.57    2.13    32.53316    45.60709    -8.14663
   121  C   4.0    0.04    4.49    4.52    31.99818    43.16789    -6.89811
   122  C   4.0    0.16    3.52    3.12    29.43729    43.49051    -5.79537
   123  O   6.0   -0.32    1.47    1.80    28.38650    45.43358    -5.91577
   124  C   4.0    0.03    4.27    4.14    33.91302    42.60667    -5.03344
   125  O   6.0   -0.24    2.00    1.83    34.49983    44.71330    -3.28831
   126  H   1.0    0.11    1.09    1.44    31.07375    46.79433    -8.30563
   127  H   1.0    0.04    1.11    1.45    31.97032    41.75559    -8.21570
   128  H   1.0    0.04    1.05    1.44    33.35170    41.29283    -3.63753
   129  H   1.0    0.06    1.04    1.43    35.75497    42.14969    -5.72312
   130  H   1.0    0.11    0.95    1.42    35.89924    44.47082    -1.99732
   131  N   5.0   -0.14    3.43    2.04    28.66433    41.36071    -4.58670
   132  C   4.0    0.04    4.45    4.46    26.16169    41.36667    -3.45726
   133  C   4.0    0.19    3.40    3.08    25.57564    43.84372    -1.75262
   134  O   6.0   -0.32    1.44    1.80    26.60502    44.50851    -0.37359
   135  C   4.0   -0.03    4.33    4.26    25.75008    38.82829    -1.80815
   136  C   4.0    0.21    3.32    3.06    25.49310    36.95516    -2.94268
   137  O   6.0   -0.28    1.33    1.80    25.49439    36.59605    -5.32907
   138  O   6.0   -0.28    1.29    1.80    24.92167    34.72519    -2.04898
   139  H   1.0    0.08    1.05    1.44    29.41259    39.54864    -4.54141
   140  H   1.0    0.05    1.05    1.44    24.66070    41.22500    -4.89276
   141  H   1.0    0.05    1.10    1.44    27.46512    38.80433    -0.70972
   142  H   1.0    0.04    1.04    1.43    24.11852    39.33054    -0.54251
   143  N   5.0   -0.14    3.56    2.12    23.57042    45.16898    -2.88166
   144  C   4.0    0.03    4.49    4.53    22.62035    47.37090    -1.29700
   145  C   4.0    0.14    3.51    3.12    23.97945    49.51194    -1.80552
   146  O   6.0   -0.30    1.28    1.80    23.65680    51.76986    -1.13409
   147  C   4.0   -0.02    4.39    4.36    22.56157    46.70652     1.55328
   148  C   4.0   -0.02    3.64    3.19    20.71648    44.83641     2.52755
   149  C   4.0   -0.02    3.49    3.11    21.23800    42.36858     3.05989
   150  C   4.0   -0.00    3.76    3.30    18.00557    45.13480     2.21363
   151  N   5.0   -0.12    3.38    2.01    18.91422    41.08465     3.40888
   152  C   4.0    0.02    3.79    3.33    16.88271    42.80124     2.84736
   153  C   4.0   -0.05    3.41    3.08    16.24762    47.03631     1.51041
   154  C   4.0   -0.06    3.35    3.06    14.21378    42.33650     2.89349
   155  C   4.0   -0.05    3.36    3.07    13.70284    46.58976     1.31420
   156  C   4.0   -0.05    3.37    3.07    12.67768    44.28176     2.05959
   157  H   1.0    0.08    1.05    1.44    22.44073    44.86370    -4.33530
   158  H   1.0    0.04    1.09    1.44    20.70071    47.84852    -1.80268
   159  H   1.0    0.08    1.08    1.44    24.41891    45.85414     2.03013
   160  H   1.0    0.05    1.06    1.44    21.98518    48.36366     2.57919
   161  H   1.0    0.05    1.02    1.43    23.07833    41.54225     3.16351
   162  H   1.0    0.06    1.00    1.43    18.65808    39.16583     3.95261
   163  H   1.0    0.05    1.02    1.43    17.04729    48.81220     0.78658
   164  H   1.0    0.04    1.01    1.43    13.54296    40.42735     3.36582
   165  H   1.0    0.04    1.04    1.43    12.41025    48.08800     0.95642
   166  H   1.0    0.04    1.05    1.44    10.74148    43.98023     2.26052
   167  N   5.0   -0.11    3.62    2.18    26.24974    49.06459    -2.84142
   168  C   4.0    0.05    4.45    4.45    28.02977    51.19435    -3.39653
   169  C   4.0    0.16    3.42    3.08    28.34843    51.83340    -6.19553
   170  O   6.0   -0.32    1.31    1.80    28.27302    50.23072    -7.64962
   171  C   4.0   -0.03    4.26    4.13    30.68671    50.62959    -2.18000
   172  C   4.0   -0.04    4.26    4.11    32.25958    52.89041    -1.53199
   173  C   4.0   -0.04    4.24    4.08    34.98756    52.27079    -1.33172
   174  C   4.0   -0.04    4.21    4.02    36.55354    54.60357    -1.92282
   175  N   5.0   -0.10    4.05    3.01    38.18592    55.34146    -0.01150
   176  H   1.0    0.13    1.16    1.46    26.90820    47.51182    -3.65492
   177  H   1.0    0.08    1.09    1.44    27.47587    52.97371    -2.49677
   178  H   1.0    0.07    1.02    1.43    30.40885    49.53264    -0.43112
   179  H   1.0    0.06    1.04    1.43    31.72838    49.51837    -3.56983
   180  H   1.0    0.05    1.07    1.44    32.07374    54.18891    -3.08775
   181  H   1.0    0.07    1.07    1.44    31.70187    53.53533     0.26983
   182  H   1.0    0.07    1.05    1.44    35.53237    51.70862     0.54820
   183  H   1.0    0.04    1.03    1.43    35.54840    50.84391    -2.81298
   184  H   1.0    0.03    1.02    1.43    37.57391    54.14668    -3.69161
   185  H   1.0    0.04    1.03    1.43    35.15235    56.09754    -2.43076
   186  H   1.0    0.04    1.02    1.43    39.13009    57.02831    -0.54758
   187  H   1.0    0.08    1.07    1.44    37.10179    55.99228     1.48667
   188  H   1.0    0.06    1.00    1.43    39.61085    53.92582     0.33696
   189  N   5.0   -0.15    3.45    2.05    28.65504    54.32553    -6.42766
   190  C   4.0    0.03    4.29    4.17    28.38893    55.21496    -8.99106
   191  C   4.0    0.12    3.52    3.12    30.44714    57.55285    -9.56985
   192  O   6.0   -0.32    1.22    1.80    30.87375    58.88282    -7.45174
   193  C   4.0   -0.05    4.37    4.32    25.89692    56.17990    -9.76193
   194  C   4.0   -0.03    4.20    4.00    24.94270    57.00497   -12.40963
   195  C   4.0   -0.08    4.06    3.72    24.27415    54.62319   -13.91641
   196  C   4.0   -0.08    4.06    3.73    22.91928    58.99445   -12.21928
   197  H   1.0    0.11    1.08    1.44    29.03160    55.81607    -5.29723
   198  H   1.0    0.05    1.04    1.43    29.07116    53.96522   -10.56783
   199  H   1.0    0.05    1.08    1.44    24.54242    54.80726    -9.22434
   200  H   1.0    0.05    1.06    1.44    25.67028    58.00256    -8.78914
   201  H   1.0    0.05    1.07    1.44    26.55229    57.82534   -13.36501
   202  H   1.0    0.04    0.98    1.43    23.59567    55.37221   -15.77774
   203  H   1.0    0.05    1.00    1.43    25.87473    53.37572   -13.99313
   204  H   1.0    0.04    1.00    1.43    22.60091    53.89216   -12.85418
   205  H   1.0    0.03    0.98    1.43    22.37020    59.44971   -14.22610
   206  H   1.0    0.04    1.00    1.43    21.32361    58.08737   -11.25103
   207  H   1.0    0.03    1.00    1.43    23.65963    60.66003   -11.25643
   208  N   5.0   -0.15    3.45    2.05    31.59465    58.07358   -12.09428
   209  C   4.0    0.05    4.32    4.24    32.86876    59.75395   -11.71293
   210  C   4.0    0.17    3.52    3.12    32.40091    61.74915   -14.20776
   211  O   6.0   -0.31    1.47    1.80    31.21727    61.26220   -15.68918
   212  C   4.0   -0.04    4.21    4.02    35.92676    58.93630   -13.34620
   213  C   4.0   -0.01    4.29    4.19    37.37333    61.08889   -13.23788
   214  C   4.0    0.27    2.77    3.01    39.96298    60.72804   -15.65433
   215  O   6.0   -0.28    1.96    1.82    39.07201    59.29529   -15.74623
   216  O   6.0   -0.31    1.26    1.80    41.78233    61.62910   -16.02023
   217  H   1.0    0.12    1.16    1.45    31.19041    56.64489   -13.25516
   218  H   1.0    0.04    1.14    1.45    33.21905    61.06457   -10.55848
   219  H   1.0    0.04    1.02    1.43    36.45842    57.89807   -11.52079
   220  H   1.0    0.08    1.11    1.45    35.66434    58.07146   -14.64052
   221  H   1.0    0.05    1.01    1.43    36.57428    62.91377   -14.11618
   222  H   1.0    0.04    1.01    1.43    38.39884    61.63018   -11.56248
   223  N   5.0   -0.13    3.56    2.12    32.63354    64.06361   -13.64204
   224  C   4.0    0.03    4.39    4.37    31.96026    66.07355   -15.42099
   225  C   4.0    0.15    3.44    3.09    33.37442    67.44380   -16.99939
   226  O   6.0   -0.31    1.40    1.80    35.32891    67.88297   -16.69888
   227  C   4.0   -0.04    4.12    3.83    30.85205    68.91056   -13.58978
   228  C   4.0   -0.05    4.27    4.15    29.24810    67.67949   -11.79582
   229  C   4.0   -0.08    4.09    3.78    29.44268    70.57567   -15.39177
   230  C   4.0   -0.08    3.96    3.55    26.65544    66.69888   -12.35838
   231  H   1.0    0.06    1.07    1.44    33.41255    64.97642   -12.12032
   232  H   1.0    0.04    1.06    1.44    30.11798    65.59588   -16.34825
   233  H   1.0    0.05    1.10    1.44    32.50227    69.56755   -13.07333
   234  H   1.0    0.04    1.07    1.44    30.00651    66.28135   -10.61893
   235  H   1.0    0.03    1.03    1.43    28.89375    69.29887   -10.41627
   236  H   1.0    0.03    1.02    1.43    28.60754    72.08167   -14.43572
   237  H   1.0    0.04    1.03    1.43    30.48139    71.08635   -16.97162
   238  H   1.0    0.03    0.90    1.42    27.72597    69.38744   -16.31713
   239  H   1.0    0.03    0.94    1.42    25.47571    66.26062   -10.56058
   240  H   1.0    0.03    0.93    1.42    25.54341    68.41640   -13.27077
   241  H   1.0    0.04    1.05    1.44    26.79222    65.35134   -13.66183
   242  N   5.0   -0.14    3.40    2.02    32.63926    66.98727   -19.60445
   243  C   4.0    0.03    4.21    4.02    34.43748    67.52460   -21.88189
   244  C   4.0    0.08    3.23    3.04    33.97058    69.81378   -23.35310
   245  O   6.0   -0.32    1.16    1.80    35.32401    70.67949   -24.86322
   246  C   4.0   -0.05    4.31    4.23    34.57564    65.31487   -23.76479
   247  C   4.0   -0.03    4.18    3.96    34.82253    62.57293   -22.53345
   248  C   4.0   -0.07    4.05    3.72    34.61415    60.55703   -24.52820
   249  C   4.0   -0.06    4.05    3.71    37.27080    62.33080   -20.98345
   250  H   1.0    0.06    1.04    1.43    30.92585    66.58105   -20.33385
   251  H   1.0    0.06    1.03    1.43    36.47492    67.54404   -21.21513
   252  H   1.0    0.04    1.04    1.43    32.65974    65.29201   -24.55332
   253  H   1.0    0.04    1.05    1.44    36.12335    65.40652   -25.00055
   254  H   1.0    0.05    1.05    1.44    33.16970    62.20682   -21.32047
   255  H   1.0    0.04    0.99    1.43    34.72884    58.64808   -23.69004
   256  H   1.0    0.05    0.98    1.43    32.77956    60.81060   -25.55792
   257  H   1.0    0.03    0.99    1.43    36.17375    60.96138   -25.89522
   258  H   1.0    0.05    1.01    1.43    37.20020    60.42241   -20.24376
   259  H   1.0    0.04    1.01    1.43    38.72393    62.81239   -22.35977
   260  H   1.0    0.06    0.99    1.43    36.98549    63.91258   -19.57484
   261  N   5.0   -0.23    3.51    2.08    34.57174    65.82131    -4.41453
   262  C   4.0    0.04    4.67    4.73    33.63875    63.40520    -4.68709
   263  C   4.0    0.19    3.61    3.17    31.21150    63.58946    -3.03741
   264  O   6.0   -0.28    1.96    1.82    31.11276    64.84127    -2.33260
   265  C   4.0    0.21    3.78    3.31    35.38116    61.85282    -2.57756
   266  O   6.0   -0.39    2.00    1.83    35.28229    61.60190    -1.44865
   267  C   4.0   -0.11    3.67    3.21    38.35280    60.91366    -4.06876
   268  H   1.0    0.10    1.12    1.45    35.85039    66.07160    -3.70390
   269  H   1.0    0.04    1.09    1.44    32.98572    62.45004    -6.17442
   270  H   1.0    0.06    0.82    1.41    34.43556    59.55148    -3.26930
   271  H   1.0    0.08    0.47    1.40    36.63587    60.53770     0.39700
   272  H   1.0    0.05    1.05    1.44    38.85998    59.87008    -3.48906
   273  H   1.0    0.03    0.78    1.41    37.54971    60.80549    -6.35569
   274  H   1.0    0.04    1.01    1.43    38.68787    63.00249    -4.10216
   275  N   5.0   -0.10    3.74    2.33    29.76690    61.66099    -2.85916
   276  C   4.0    0.02    4.50    4.54    27.39467    61.75937    -1.37294
   277  C   4.0    0.15    3.37    3.07    26.97995    58.97189    -0.36589
   278  O   6.0   -0.32    1.26    1.80    27.23541    57.27536    -1.64783
   279  C   4.0   -0.02    4.32    4.23    25.03897    62.34757    -2.99325
   280  C   4.0   -0.05    4.21    4.02    24.93799    65.27110    -3.30615
   281  C   4.0   -0.07    4.12    3.84    22.56797    61.61233    -1.64750
   282  C   4.0   -0.08    3.96    3.56    24.81193    66.79644    -0.83356
   283  H   1.0    0.10    1.09    1.44    29.81751    59.93898    -3.72725
   284  H   1.0    0.04    1.04    1.43    27.47586    63.08968     0.26568
   285  H   1.0    0.04    1.08    1.44    25.12405    61.56311    -4.79044
   286  H   1.0    0.05    1.02    1.43    26.73584    65.86933    -4.19489
   287  H   1.0    0.03    1.03    1.43    23.31785    65.86931    -4.41180
   288  H   1.0    0.03    0.98    1.43    21.00735    62.20921    -2.95741
   289  H   1.0    0.05    1.00    1.43    22.66866    59.51147    -1.56352
   290  H   1.0    0.04    0.99    1.43    22.40248    62.56774     0.19327
   291  H   1.0    0.03    0.98    1.43    24.84754    68.83089    -1.41160
   292  H   1.0    0.03    1.00    1.43    23.01065    66.17768     0.02544
   293  H   1.0    0.04    0.96    1.43    26.59652    66.24475     0.27687
   294  N   5.0   -0.14    3.35    2.00    26.40665    58.91332     2.24464
   295  C   4.0    0.04    4.52    4.57    26.20862    56.39923     3.66745
   296  C   4.0    0.08    3.23    3.04    24.04287    56.41510     5.42704
   297  O   6.0   -0.30    1.17    1.80    23.88615    58.22125     6.83602
   298  C   4.0   -0.02    4.37    4.32    28.83709    55.91602     4.73549
   299  C   4.0    0.22    3.39    3.08    29.21455    53.58928     4.47091
   300  O   6.0   -0.26    1.28    1.80    27.81914    51.66980     3.59790
   301  O   6.0   -0.25    1.31    1.80    31.26038    52.46551     4.94864
   302  H   1.0    0.08    1.00    1.43    25.45022    60.37778     3.34094
   303  H   1.0    0.07    1.08    1.44    25.46737    55.18263     2.14165
   304  H   1.0    0.06    1.08    1.44    30.05968    57.05763     3.53747
   305  H   1.0    0.06    1.12    1.45    28.50453    56.42881     6.60839
   306  N   5.0   -0.21    3.17    1.95     9.06472    51.21592    -2.19646
   307  C   4.0    0.03    4.18    3.97     9.30895    53.95340    -2.87310
   308  C   4.0    0.06    3.17    3.03     9.93380    54.32435    -5.66676
   309  O   6.0   -0.29    1.16    1.80    11.26771    52.50786    -6.54149
   310  C   4.0   -0.05    4.18    3.97    10.87956    55.28621    -0.83477
   311  C   4.0   -0.02    3.49    3.11    13.81053    55.11867    -0.91975
   312  C   4.0   -0.02    3.44    3.09    15.40202    53.17253     0.11730
   313  C   4.0    0.00    3.64    3.19    15.48284    56.60720    -2.69980
   314  N   5.0   -0.12    3.38    2.01    17.87224    53.53601    -0.70373
   315  C   4.0    0.04    3.73    3.26    17.98002    55.47676    -2.54687
   316  C   4.0   -0.04    3.31    3.06    15.09601    58.25474    -4.84232
   317  C   4.0   -0.05    3.36    3.07    19.91629    56.11135    -4.25742
   318  C   4.0   -0.05    3.28    3.05    16.98740    59.06164    -6.46738
   319  C   4.0   -0.05    3.39    3.07    19.40663    57.85968    -6.07178
   320  H   1.0    0.10    1.05    1.44     9.89651    50.23403    -3.68410
   321  H   1.0    0.03    1.05    1.44     7.35822    54.72053    -2.84078
   322  H   1.0    0.03    1.04    1.43    10.63671    57.32955    -1.06551
   323  H   1.0    0.03    1.06    1.44    10.50256    54.56998     0.97971
   324  H   1.0    0.04    1.02    1.43    14.53825    51.97101     1.47012
   325  H   1.0    0.09    1.05    1.44    19.25406    52.39005    -0.16403
   326  H   1.0    0.04    0.95    1.42    13.00693    58.89331    -5.19785
   327  H   1.0    0.07    1.03    1.43    21.80487    55.51998    -3.84018
   328  H   1.0    0.04    1.04    1.43    16.72320    60.58923    -7.69726
   329  H   1.0    0.04    1.04    1.43    20.99266    58.80190    -6.88523
   330  N   5.0   -0.22    2.53    1.90    11.67290    60.32145   -11.48156
   331  C   4.0   -0.01    3.84    3.39    12.47384    63.57788   -12.48182
   332  C   4.0    0.05    3.19    3.03    12.03046    63.67837   -15.37580
   333  O   6.0   -0.29    1.07    1.80    11.63533    61.89635   -17.17682
   334  C   4.0   -0.03    4.06    3.72    15.42139    63.62322   -11.98519
   335  C   4.0   -0.06    4.14    3.88    16.20537    65.92137   -11.39822
   336  C   4.0   -0.09    3.79    3.32    16.87693    62.28216   -14.84251
   337  C   4.0   -0.11    3.73    3.27    18.81999    66.88403   -10.54187
   338  H   1.0    0.13    0.83    1.42    11.48552    59.23192   -13.52580
   339  H   1.0    0.04    1.08    1.44    11.48988    64.49453   -11.43206
   340  H   1.0    0.04    1.04    1.43    15.85945    62.16806   -10.52886
   341  H   1.0    0.03    0.88    1.42    15.67535    67.20430   -13.32470
   342  H   1.0    0.03    1.10    1.44    15.07076    66.68206    -9.96145
   343  H   1.0    0.03    0.92    1.42    18.91861    62.54837   -13.92798
   344  H   1.0    0.05    1.02    1.43    16.43209    60.44833   -14.64672
   345  H   1.0    0.05    1.06    1.44    16.25150    63.37252   -16.03118
   346  H   1.0    0.04    1.05    1.44    19.11538    68.48075   -10.66300
   347  H   1.0    0.04    1.05    1.44    19.24433    65.43843    -9.30397
   348  H   1.0    0.03    0.70    1.41    19.92318    65.73222   -12.53197
   349  N   5.0   -0.33    3.16    1.95    44.35834    56.95345     8.91813
   350  C   4.0    0.03    4.14    3.88    41.60483    56.69153     9.26002
   351  C   4.0    0.04    2.93    3.01    40.48695    54.07078     9.00253
   352  O   6.0   -0.27    0.80    1.80    41.83594    52.33167     6.76748
   353  C   4.0   -0.07    3.99    3.61    40.25918    58.51445     6.91314
   354  C   4.0    0.01    4.54    4.59    37.37729    58.79682     6.85600
   355  C   4.0    0.22    2.99    3.02    35.85436    56.59999     6.23161
   356  O   6.0   -0.27    1.60    1.81    34.40085    57.06771     6.87742
   357  O   6.0   -0.27    1.02    1.80    36.98936    54.32778     4.64316
   358  H   1.0    0.17    1.24    1.48    44.37928    56.83292     7.77969
   359  H   1.0    0.03    1.14    1.45    40.82982    57.90111    10.36122
   360  H   1.0    0.03    1.03    1.43    41.28729    60.06739     6.40711
   361  H   1.0    0.06    0.79    1.41    40.74846    57.10324     4.97432
   362  H   1.0    0.03    1.08    1.44    37.17018    59.63122     8.63443
   363  H   1.0    0.03    1.07    1.44    37.33126    60.18239     5.35896
   364  H   1.0    0.09    1.08    1.44    15.01356    57.95685   -20.51964
   365  H   1.0    0.05    1.04    1.43    13.07627    52.70323   -15.19930
   366  H   1.0    0.09    1.06    1.44    17.32865    40.68673   -11.32829
   367  H   1.0    0.04    1.08    1.44    16.49464    43.67782   -17.88981
   368  H   1.0    0.09    1.07    1.44    16.32471    46.74167   -22.29573
   369  H   1.0    0.04    1.05    1.44    14.58255    52.15867   -27.60863
   370  H   1.0    0.08    1.06    1.44    25.84538    64.02450   -23.14563
   371  H   1.0    0.05    1.07    1.44    32.36982    70.78678   -23.10428
   372  H   1.0    0.08    1.11    1.44    34.83298    66.50553    -5.94951
   373  H   1.0    0.05    1.05    1.44    22.80416    54.98804     5.41371
   374  H   1.0    0.09    1.07    1.44     9.87032    50.91998    -0.72814
   375  H   1.0    0.04    1.03    1.43     9.30748    55.85574    -6.57981
   376  H   1.0    0.11    1.02    1.43    12.92157    59.70395   -10.50582
   377  H   1.0    0.04    1.05    1.44    11.99909    65.34304   -16.26964
   378  H   1.0    0.10    1.09    1.44    44.85949    58.47423     9.49139
   379  H   1.0    0.06    1.02    1.43    39.06596    53.53500    10.12716

  Z AO/shell   Hii/eV     exponent
  1     Wed Apr 25 08:07:45 CEST 2018   EN: 2.200 GM2: 0.406  GM3: 0.0800  RAES: 1.40
     1s    -10.707211    1.230000
  6     Wed Apr 25 08:07:45 CEST 2018   EN: 2.550 GM2: 0.538  GM3: 0.1500  RAES: 3.00
     2s    -13.970922    2.096432
     2p    -10.063292    1.800000
  7     Wed Apr 25 08:07:45 CEST 2018   EN: 3.040 GM2: 0.461  GM3:-0.0640  RAES: 1.90
     2s    -16.686243    2.339881
     2p    -12.523956    2.014332
  8     Wed Apr 25 08:07:45 CEST 2018   EN: 3.440 GM2: 0.452  GM3:-0.0517  RAES: 1.80
     2s    -20.229985    2.439742
     2p    -15.503117    2.137023
 16     Tue Apr 24 11:44:34 CEST 2018   EN: 2.580 GM2: 0.340  GM3:-0.0502  RAES: 3.10
     3s    -20.029654    1.981333
     3p    -11.377694    2.025643
     3d     -0.420282    1.702555
 no old-style atom pair restraining (fixing) potential

molecular fragmentation (1/2 indicates fragments):
111111111122222222222222222222222222222222222222222222222222222222222222
222222222222222222222222222222222222222222222222222222222222222222222222
222222222222222222222222222222222222222222222222222222222222222222222222
222222222222222222222222222222222222222222222222222222222222222222222222
222222222222222222222222222222222222222222222222222222222222222222222222
2221122222222222222
# atoms in fragment 1/2:    12   367
 fragment masses (1/2) :       73.09     2513.03
CMA distance (Bohr)    :  15.295
constraining FC (au)   :  0.0500
           ------------------------------------------------- 
          |        Self-Consistent Charge Iterations        |
           ------------------------------------------------- 

 Ncao       : 931
 Nao        : 930
 Nshell     : 562
 Nel        : 1020
 T(el)      :   500.0
 intcut     :    35.0
 scfconv/Eh :  0.100E-06
   qconv/e  :  0.100E-04
 intneglect :  0.100E-08
 broydamp   :      0.400
 iter      E             dE          RMSdq      gap      omega  full diag
   1   -577.8900107 -0.577890E+03  0.476E+00    0.09       0.0  T
   2   -578.4784723 -0.588462E+00  0.290E+00    0.24       1.0  T
   3   -578.2738077  0.204665E+00  0.242E+00    0.10       1.0  T
   4   -579.3745465 -0.110074E+01  0.163E+00    0.12       1.0  T
   5   -579.6436341 -0.269088E+00  0.123E+00    0.25       1.0  T
   6   -580.0178700 -0.374236E+00  0.823E-01    0.05       1.0  T
   7   -580.0619478 -0.440778E-01  0.668E-01    0.10       1.0  T
   8   -580.0165067  0.454411E-01  0.702E-01    0.12       1.0  T
   9   -579.8055113  0.210995E+00  0.879E-01    0.03       1.0  T
  10   -580.0712487 -0.265737E+00  0.590E-01    0.22       1.0  T
  11   -580.1991476 -0.127899E+00  0.336E-01    0.03       1.0  T
  12   -580.1985759  0.571760E-03  0.313E-01    0.06       1.0  T
  13   -579.9449759  0.253600E+00  0.768E-01    0.06       1.0  T
  14   -580.0880867 -0.143111E+00  0.545E-01    0.17       1.0  T
  15   -580.1965388 -0.108452E+00  0.279E-01    0.04       1.0  T
  16   -580.2249477 -0.284088E-01  0.152E-01    0.02       1.0  T
  17   -580.1717238  0.532238E-01  0.329E-01    0.05       1.0  T
  18   -580.1822077 -0.104839E-01  0.299E-01    0.07       1.0  T
  19   -580.1759230  0.628470E-02  0.312E-01    0.10       1.0  T
  20   -580.2058761 -0.299530E-01  0.218E-01    0.06       1.0  T
  21   -580.2191521 -0.132761E-01  0.166E-01    0.03       1.0  T
  22   -580.2125445  0.660761E-02  0.196E-01    0.07       1.0  T
  23   -580.2309560 -0.184115E-01  0.101E-01    0.03       1.0  T
  24   -580.2371374 -0.618141E-02  0.211E-02    0.02       1.0  T
  25   -580.2371371  0.341437E-06  0.232E-02    0.02       1.0  T
  26   -580.2370493  0.877826E-04  0.260E-02    0.02       1.0  T
  27   -580.2369746  0.747098E-04  0.270E-02    0.02       1.0  T
  28   -580.2374034 -0.428761E-03  0.128E-02    0.02       1.0  T
  29   -580.2370754  0.327957E-03  0.243E-02    0.02       1.0  T
  30   -580.2374166 -0.341169E-03  0.104E-02    0.02       1.0  T
  31   -580.2374908 -0.742100E-04  0.160E-03    0.02       3.2  T
  32   -580.2374921 -0.131376E-05  0.782E-04    0.02       6.6  T
  33   -580.2374921  0.356465E-08  0.598E-04    0.02       8.6  T
  34   -580.2374911  0.983871E-06  0.136E-03    0.02       3.8  T
  35   -580.2374917 -0.556366E-06  0.100E-03    0.02       5.1  T
  36   -580.2374924 -0.717742E-06  0.177E-04    0.02      29.0  T
  37   -580.2374924 -0.233499E-07  0.706E-05    0.02      72.8  T
  38   -580.2374924  0.276816E-08  0.103E-04    0.02      49.9  T
  39   -580.2374924 -0.647447E-08  0.171E-05    0.02     300.3  T
speedup  2.00
cpu  time for SCC   42.00 s
wall time for SCC   21.03 s

   *** convergence criteria satisfied after 39 iterations ***

          eigenvalues
 #    :         498        499        500        501        502        503        504        505
 occ. :        2.000      2.000      2.000      2.000      2.000      2.000      2.000      2.000
 eps  :        -9.827     -9.739     -9.665     -9.652     -9.511     -9.422     -9.209     -9.098
 #    :         506        507        508        509        510        511        512        513
 occ. :        2.000      2.000      1.995      1.972      0.938      0.734      0.234      0.094
 eps  :        -8.878     -8.845     -8.629     -8.550     -8.362     -8.344     -8.280     -8.238
 #    :         514        515        516        517        518        519        520        521
 occ. :        0.031      0.001      0.000      0.000      0.000      0.000      0.000      0.000
 eps  :        -8.189     -8.044     -7.765     -7.291     -7.171     -6.874     -6.659     -6.563


   #   Z            q   n(s)   n(p)   n(d)      C6AA      α(0)
   1   7 N     -0.387  1.329  4.058  0.000    30.014     8.137
   2   6 C      0.036  1.063  2.901  0.000    20.008     6.374
   3   6 C      0.194  1.098  2.708  0.000    23.857     7.998
   4   8 O     -0.353  1.755  4.599  0.000    20.771     6.110
   5   6 C     -0.114  1.054  3.059  0.000    22.745     6.803
   6   1 H      0.173  0.827  0.000  0.000     1.252     1.753
   7   1 H      0.061  0.939  0.000  0.000     2.182     2.310
   8   1 H      0.058  0.942  0.000  0.000     2.228     2.335
   9   1 H      0.069  0.931  0.000  0.000     2.095     2.263
  10   1 H      0.037  0.963  0.000  0.000     2.490     2.468
  11   7 N     -0.393  1.330  4.063  0.000    30.182     8.159
  12   6 C      0.016  1.054  2.931  0.000    20.317     6.419
  13   6 C      0.246  1.038  2.715  0.000    22.872     7.833
  14   8 O     -0.271  1.647  4.624  0.000    19.268     5.885
  15   6 C     -0.066  1.038  3.028  0.000    21.734     6.633
  16   6 C     -0.037  1.078  2.959  0.000    28.916     8.821
  17   6 C     -0.021  1.078  2.942  0.000    28.517     8.759
  18   6 C     -0.022  1.077  2.945  0.000    28.312     8.708
  19   7 N     -0.165  1.292  3.873  0.000    24.558     7.360
  20   6 C      0.064  1.064  2.872  0.000    26.549     8.452
  21   6 C     -0.037  1.098  2.939  0.000    28.919     8.820
  22   6 C     -0.045  1.063  2.982  0.000    29.124     8.849
  23   6 C     -0.051  1.085  2.966  0.000    29.259     8.869
  24   6 C     -0.040  1.074  2.966  0.000    28.988     8.830
  25   1 H      0.158  0.842  0.000  0.000     1.345     1.817
  26   1 H      0.034  0.966  0.000  0.000     2.536     2.490
  27   1 H      0.076  0.924  0.000  0.000     2.024     2.224
  28   1 H      0.067  0.933  0.000  0.000     2.114     2.274
  29   1 H      0.046  0.954  0.000  0.000     2.369     2.407
  30   1 H      0.179  0.821  0.000  0.000     1.221     1.731
  31   1 H      0.026  0.974  0.000  0.000     2.642     2.542
  32   1 H     -0.008  1.008  0.000  0.000     3.200     2.798
  33   1 H      0.030  0.970  0.000  0.000     2.583     2.513
  34   1 H      0.017  0.983  0.000  0.000     2.784     2.609
  35   7 N     -0.403  1.338  4.065  0.000    30.468     8.198
  36   6 C      0.010  1.072  2.918  0.000    20.439     6.442
  37   6 C      0.214  1.075  2.712  0.000    23.478     7.934
  38   8 O     -0.314  1.702  4.611  0.000    20.028     6.000
  39   6 C     -0.079  1.048  3.031  0.000    21.936     6.657
  40   6 C     -0.020  1.059  2.961  0.000    20.938     6.516
  41  16 S     -0.187  1.860  4.252  0.075   148.976    20.543
  42   6 C     -0.011  1.030  2.980  0.000    20.890     6.529
  43   1 H      0.175  0.825  0.000  0.000     1.245     1.748
  44   1 H      0.040  0.960  0.000  0.000     2.444     2.445
  45   1 H      0.065  0.935  0.000  0.000     2.137     2.286
  46   1 H      0.047  0.953  0.000  0.000     2.361     2.404
  47   1 H      0.043  0.957  0.000  0.000     2.414     2.430
  48   1 H      0.075  0.925  0.000  0.000     2.027     2.227
  49   1 H      0.055  0.945  0.000  0.000     2.259     2.351
  50   1 H      0.045  0.955  0.000  0.000     2.389     2.418
  51   1 H      0.008  0.992  0.000  0.000     2.929     2.677
  52   7 N     -0.391  1.358  4.033  0.000    30.128     8.152
  53   6 C     -0.027  1.092  2.935  0.000    21.081     6.542
  54   6 C      0.338  1.006  2.656  0.000    21.254     7.549
  55   8 O     -0.276  1.619  4.657  0.000    19.349     5.898
  56   6 C     -0.035  1.087  2.948  0.000    21.171     6.547
  57   6 C     -0.117  1.055  3.062  0.000    22.814     6.813
  58   6 C     -0.104  1.069  3.036  0.000    22.612     6.791
  59   1 H      0.147  0.853  0.000  0.000     1.424     1.870
  60   1 H      0.051  0.949  0.000  0.000     2.312     2.378
  61   1 H      0.018  0.982  0.000  0.000     2.762     2.599
  62   1 H      0.043  0.957  0.000  0.000     2.410     2.428
  63   1 H      0.043  0.957  0.000  0.000     2.416     2.431
  64   1 H      0.053  0.947  0.000  0.000     2.283     2.363
  65   1 H      0.030  0.970  0.000  0.000     2.592     2.518
  66   1 H      0.044  0.956  0.000  0.000     2.396     2.421
  67   1 H      0.018  0.982  0.000  0.000     2.768     2.602
  68   7 N     -0.292  1.269  4.023  0.000    27.515     7.791
  69   6 C      0.016  1.051  2.933  0.000    20.344     6.429
  70   6 C      0.256  1.068  2.676  0.000    22.681     7.796
  71   8 O     -0.453  1.726  4.727  0.000    22.771     6.398
  72   6 C     -0.076  1.022  3.054  0.000    21.945     6.668
  73   6 C      0.271  1.052  2.677  0.000    22.428     7.754
  74   8 O     -0.466  1.720  4.746  0.000    23.048     6.437
  75   7 N     -0.305  1.301  4.004  0.000    27.858     7.839
  76   1 H      0.188  0.812  0.000  0.000     1.170     1.695
  77   1 H      0.058  0.942  0.000  0.000     2.219     2.330
  78   1 H      0.096  0.904  0.000  0.000     1.821     2.110
  79   1 H      0.047  0.953  0.000  0.000     2.356     2.401
  80   1 H      0.253  0.747  0.000  0.000     0.874     1.466
  81   1 H      0.207  0.793  0.000  0.000     1.071     1.621
  82   7 N     -0.208  1.283  3.925  0.000    25.525     7.503
  83   6 C     -0.007  1.060  2.947  0.000    20.714     6.482
  84   6 C      0.315  1.031  2.654  0.000    21.647     7.618
  85   8 O     -0.259  1.635  4.625  0.000    19.055     5.853
  86   6 C     -0.108  1.051  3.057  0.000    22.543     6.757
  87   6 C     -0.107  1.055  3.052  0.000    22.536     6.758
  88   6 C     -0.110  1.046  3.063  0.000    22.577     6.763
  89   6 C     -0.047  1.051  2.996  0.000    21.499     6.615
  90   7 N     -0.138  1.255  3.883  0.000    23.975     7.272
  91   1 H      0.259  0.741  0.000  0.000     0.852     1.447
  92   1 H      0.068  0.932  0.000  0.000     2.110     2.272
  93   1 H      0.072  0.928  0.000  0.000     2.065     2.248
  94   1 H      0.061  0.939  0.000  0.000     2.185     2.312
  95   1 H      0.072  0.928  0.000  0.000     2.063     2.246
  96   1 H      0.104  0.896  0.000  0.000     1.748     2.068
  97   1 H      0.094  0.906  0.000  0.000     1.844     2.123
  98   1 H      0.103  0.897  0.000  0.000     1.762     2.076
  99   1 H      0.135  0.865  0.000  0.000     1.499     1.915
 100   1 H      0.113  0.887  0.000  0.000     1.668     2.020
 101   1 H      0.307  0.693  0.000  0.000     0.694     1.306
 102   1 H      0.266  0.734  0.000  0.000     0.825     1.423
 103   1 H      0.288  0.712  0.000  0.000     0.751     1.358
 104   7 N     -0.304  1.303  4.001  0.000    27.817     7.833
 105   6 C     -0.058  1.109  2.949  0.000    21.662     6.636
 106   6 C      0.332  1.020  2.649  0.000    21.363     7.566
 107   8 O     -0.222  1.594  4.628  0.000    18.422     5.755
 108   6 C     -0.021  1.074  2.948  0.000    20.926     6.508
 109   6 C     -0.129  1.067  3.061  0.000    23.070     6.856
 110   6 C     -0.121  1.058  3.064  0.000    22.901     6.826
 111   1 H      0.160  0.840  0.000  0.000     1.333     1.809
 112   1 H      0.090  0.910  0.000  0.000     1.875     2.141
 113   1 H      0.002  0.998  0.000  0.000     3.030     2.722
 114   1 H      0.038  0.962  0.000  0.000     2.470     2.457
 115   1 H      0.038  0.962  0.000  0.000     2.472     2.459
 116   1 H      0.059  0.941  0.000  0.000     2.217     2.328
 117   1 H      0.016  0.984  0.000  0.000     2.790     2.612
 118   1 H      0.070  0.930  0.000  0.000     2.086     2.259
 119   1 H      0.059  0.941  0.000  0.000     2.206     2.323
 120   7 N     -0.297  1.265  4.031  0.000    27.637     7.808
 121   6 C      0.021  1.032  2.948  0.000    20.216     6.400
 122   6 C      0.297  1.022  2.682  0.000    21.968     7.677
 123   8 O     -0.417  1.707  4.710  0.000    22.014     6.291
 124   6 C      0.068  1.034  2.898  0.000    19.618     6.340
 125   8 O     -0.530  1.752  4.778  0.000    23.564     6.552
 126   1 H      0.196  0.804  0.000  0.000     1.128     1.663
 127   1 H      0.087  0.913  0.000  0.000     1.907     2.159
 128   1 H      0.043  0.957  0.000  0.000     2.410     2.428
 129   1 H      0.080  0.920  0.000  0.000     1.979     2.200
 130   1 H      0.330  0.670  0.000  0.000     0.638     1.256
 131   7 N     -0.199  1.258  3.940  0.000    25.312     7.472
 132   6 C     -0.020  1.089  2.931  0.000    20.941     6.517
 133   6 C      0.346  1.005  2.649  0.000    21.122     7.524
 134   8 O     -0.256  1.621  4.635  0.000    19.004     5.845
 135   6 C     -0.051  1.033  3.019  0.000    21.483     6.597
 136   6 C      0.366  0.985  2.648  0.000    20.789     7.464
 137   8 O     -0.669  1.767  4.902  0.000    27.856     7.077
 138   8 O     -0.724  1.796  4.928  0.000    29.342     7.263
 139   1 H      0.209  0.791  0.000  0.000     1.062     1.615
 140   1 H      0.049  0.951  0.000  0.000     2.332     2.388
 141   1 H      0.062  0.938  0.000  0.000     2.177     2.308
 142   1 H      0.045  0.955  0.000  0.000     2.386     2.416
 143   7 N     -0.306  1.283  4.023  0.000    27.875     7.841
 144   6 C      0.045  1.043  2.912  0.000    19.802     6.332
 145   6 C      0.287  1.024  2.688  0.000    22.133     7.705
 146   8 O     -0.555  1.768  4.787  0.000    25.040     6.709
 147   6 C     -0.063  1.040  3.023  0.000    21.698     6.630
 148   6 C     -0.036  1.079  2.957  0.000    28.855     8.811
 149   6 C     -0.004  1.073  2.931  0.000    28.116     8.695
 150   6 C     -0.022  1.081  2.941  0.000    28.517     8.759
 151   7 N     -0.145  1.264  3.881  0.000    24.141     7.297
 152   6 C      0.041  1.091  2.868  0.000    27.061     8.533
 153   6 C     -0.039  1.084  2.955  0.000    28.975     8.827
 154   6 C     -0.053  1.089  2.965  0.000    29.326     8.879
 155   6 C     -0.041  1.071  2.970  0.000    29.013     8.832
 156   6 C     -0.041  1.074  2.967  0.000    29.025     8.835
 157   1 H      0.193  0.807  0.000  0.000     1.144     1.675
 158   1 H      0.064  0.936  0.000  0.000     2.148     2.292
 159   1 H      0.052  0.948  0.000  0.000     2.298     2.371
 160   1 H      0.042  0.958  0.000  0.000     2.423     2.434
 161   1 H      0.020  0.980  0.000  0.000     2.738     2.587
 162   1 H      0.192  0.808  0.000  0.000     1.147     1.678
 163   1 H      0.011  0.989  0.000  0.000     2.871     2.650
 164   1 H      0.048  0.952  0.000  0.000     2.348     2.396
 165   1 H      0.043  0.957  0.000  0.000     2.403     2.424
 166   1 H      0.062  0.938  0.000  0.000     2.170     2.304
 167   7 N     -0.198  1.270  3.928  0.000    25.308     7.472
 168   6 C      0.020  1.065  2.914  0.000    20.236     6.405
 169   6 C      0.307  1.016  2.677  0.000    21.788     7.646
 170   8 O     -0.397  1.678  4.719  0.000    21.615     6.233
 171   6 C     -0.050  1.056  2.993  0.000    21.463     6.596
 172   6 C     -0.034  1.026  3.008  0.000    21.175     6.549
 173   6 C     -0.074  1.053  3.021  0.000    21.911     6.664
 174   6 C     -0.007  1.027  2.980  0.000    20.785     6.506
 175   7 N     -0.109  1.237  3.872  0.000    23.370     7.180
 176   1 H      0.229  0.771  0.000  0.000     0.969     1.542
 177   1 H      0.051  0.949  0.000  0.000     2.311     2.377
 178   1 H      0.027  0.973  0.000  0.000     2.628     2.535
 179   1 H      0.042  0.958  0.000  0.000     2.425     2.435
 180   1 H      0.027  0.973  0.000  0.000     2.635     2.538
 181   1 H      0.014  0.986  0.000  0.000     2.833     2.632
 182   1 H      0.047  0.953  0.000  0.000     2.360     2.402
 183   1 H      0.070  0.930  0.000  0.000     2.091     2.261
 184   1 H      0.067  0.933  0.000  0.000     2.121     2.278
 185   1 H      0.081  0.919  0.000  0.000     1.969     2.195
 186   1 H      0.252  0.748  0.000  0.000     0.875     1.465
 187   1 H      0.275  0.725  0.000  0.000     0.794     1.396
 188   1 H      0.284  0.716  0.000  0.000     0.763     1.369
 189   7 N     -0.195  1.243  3.951  0.000    25.221     7.459
 190   6 C      0.046  1.056  2.898  0.000    19.813     6.340
 191   6 C      0.164  1.132  2.705  0.000    24.432     8.107
 192   8 O     -0.526  1.828  4.699  0.000    24.380     6.620
 193   6 C     -0.080  1.039  3.040  0.000    22.011     6.678
 194   6 C     -0.016  1.058  2.957  0.000    20.820     6.490
 195   6 C     -0.124  1.056  3.068  0.000    22.947     6.833
 196   6 C     -0.107  1.051  3.056  0.000    22.619     6.784
 197   1 H      0.204  0.796  0.000  0.000     1.084     1.631
 198   1 H      0.055  0.945  0.000  0.000     2.263     2.353
 199   1 H      0.055  0.945  0.000  0.000     2.257     2.349
 200   1 H      0.028  0.972  0.000  0.000     2.612     2.527
 201   1 H      0.021  0.979  0.000  0.000     2.723     2.580
 202   1 H      0.058  0.942  0.000  0.000     2.228     2.334
 203   1 H      0.050  0.950  0.000  0.000     2.320     2.382
 204   1 H      0.045  0.955  0.000  0.000     2.390     2.418
 205   1 H      0.058  0.942  0.000  0.000     2.225     2.333
 206   1 H      0.044  0.956  0.000  0.000     2.402     2.424
 207   1 H      0.040  0.960  0.000  0.000     2.450     2.448
 208   7 N     -0.073  1.222  3.850  0.000    22.652     7.069
 209   6 C      0.023  1.029  2.948  0.000    20.165     6.390
 210   6 C      0.290  1.027  2.683  0.000    22.087     7.695
 211   8 O     -0.327  1.625  4.702  0.000    20.228     6.033
 212   6 C     -0.128  1.049  3.080  0.000    23.542     7.007
 213   6 C     -0.086  1.114  2.972  0.000    22.075     6.678
 214   6 C      0.546  0.911  2.543  0.000    18.430     7.001
 215   8 O     -0.113  1.556  4.557  0.000    16.309     5.436
 216   8 O     -0.431  1.667  4.765  0.000    22.275     6.330
 217   1 H      0.284  0.716  0.000  0.000     0.764     1.369
 218   1 H      0.086  0.914  0.000  0.000     1.913     2.163
 219   1 H      0.053  0.947  0.000  0.000     2.288     2.366
 220   1 H      0.123  0.877  0.000  0.000     1.586     1.969
 221   1 H      0.038  0.962  0.000  0.000     2.481     2.464
 222   1 H      0.044  0.956  0.000  0.000     2.398     2.421
 223   7 N     -0.196  1.246  3.950  0.000    25.251     7.463
 224   6 C     -0.022  1.059  2.963  0.000    21.470     6.685
 225   6 C      0.331  1.001  2.669  0.000    21.385     7.573
 226   8 O     -0.394  1.661  4.733  0.000    21.540     6.224
 227   6 C     -0.022  1.080  2.942  0.000    21.363     6.653
 228   6 C     -0.063  1.028  3.035  0.000    21.693     6.630
 229   6 C     -0.122  1.036  3.085  0.000    22.943     6.840
 230   6 C     -0.117  1.049  3.068  0.000    22.883     6.836
 231   1 H      0.174  0.826  0.000  0.000     1.246     1.749
 232   1 H      0.057  0.943  0.000  0.000     2.230     2.335
 233   1 H      0.070  0.930  0.000  0.000     2.086     2.259
 234   1 H      0.040  0.960  0.000  0.000     2.445     2.445
 235   1 H      0.049  0.951  0.000  0.000     2.337     2.391
 236   1 H      0.084  0.916  0.000  0.000     1.934     2.175
 237   1 H      0.054  0.946  0.000  0.000     2.270     2.356
 238   1 H      0.044  0.956  0.000  0.000     2.410     2.430
 239   1 H      0.033  0.967  0.000  0.000     2.551     2.499
 240   1 H      0.038  0.962  0.000  0.000     2.487     2.468
 241   1 H      0.073  0.927  0.000  0.000     2.051     2.239
 242   7 N     -0.301  1.319  3.982  0.000    27.753     7.824
 243   6 C      0.017  1.069  2.914  0.000    20.328     6.426
 244   6 C      0.222  1.056  2.721  0.000    23.317     7.909
 245   8 O     -0.372  1.728  4.645  0.000    21.135     6.164
 246   6 C     -0.078  1.062  3.016  0.000    21.982     6.674
 247   6 C     -0.021  1.069  2.952  0.000    20.914     6.506
 248   6 C     -0.116  1.057  3.059  0.000    22.791     6.811
 249   6 C     -0.122  1.053  3.069  0.000    22.913     6.828
 250   1 H      0.175  0.825  0.000  0.000     1.243     1.746
 251   1 H      0.086  0.914  0.000  0.000     1.918     2.166
 252   1 H      0.057  0.943  0.000  0.000     2.234     2.337
 253   1 H      0.077  0.923  0.000  0.000     2.011     2.217
 254   1 H      0.030  0.970  0.000  0.000     2.584     2.514
 255   1 H      0.049  0.951  0.000  0.000     2.338     2.391
 256   1 H      0.043  0.957  0.000  0.000     2.405     2.426
 257   1 H      0.040  0.960  0.000  0.000     2.449     2.448
 258   1 H      0.049  0.951  0.000  0.000     2.338     2.391
 259   1 H      0.057  0.943  0.000  0.000     2.230     2.335
 260   1 H      0.027  0.973  0.000  0.000     2.630     2.536
 261   7 N     -0.397  1.243  4.154  0.000    30.285     8.173
 262   6 C     -0.152  1.090  3.062  0.000    23.349     6.865
 263   6 C      0.419  0.934  2.647  0.000    19.962     7.320
 264   8 O     -0.079  1.434  4.645  0.000    15.831     5.356
 265   6 C      0.539  0.903  2.557  0.000    17.466     6.756
 266   8 O      0.360  1.402  4.238  0.000    10.981     4.449
 267   6 C     -0.206  1.040  3.166  0.000    26.983     7.780
 268   1 H      0.192  0.808  0.000  0.000     1.150     1.680
 269   1 H      0.063  0.937  0.000  0.000     2.158     2.297
 270   1 H     -0.848  1.848  0.000  0.000  1358.552    59.420
 271   1 H     -0.812  1.812  0.000  0.000  2697.521    94.656
 272   1 H      0.071  0.929  0.000  0.000     2.078     2.254
 273   1 H     -0.040  1.040  0.000  0.000     3.931     3.116
 274   1 H     -0.009  1.009  0.000  0.000     3.229     2.810
 275   7 N     -0.343  1.266  4.077  0.000    28.808     7.972
 276   6 C      0.014  1.085  2.901  0.000    20.359     6.426
 277   6 C      0.309  1.045  2.646  0.000    21.750     7.636
 278   8 O     -0.405  1.709  4.695  0.000    21.777     6.257
 279   6 C     -0.023  1.059  2.964  0.000    20.942     6.509
 280   6 C     -0.074  1.063  3.011  0.000    21.921     6.666
 281   6 C     -0.110  1.057  3.053  0.000    22.681     6.794
 282   6 C     -0.120  1.067  3.053  0.000    22.911     6.833
 283   1 H      0.164  0.836  0.000  0.000     1.313     1.795
 284   1 H      0.044  0.956  0.000  0.000     2.401     2.424
 285   1 H      0.047  0.953  0.000  0.000     2.362     2.403
 286   1 H      0.028  0.972  0.000  0.000     2.611     2.527
 287   1 H      0.059  0.941  0.000  0.000     2.208     2.323
 288   1 H      0.063  0.937  0.000  0.000     2.163     2.300
 289   1 H      0.012  0.988  0.000  0.000     2.851     2.641
 290   1 H      0.052  0.948  0.000  0.000     2.295     2.369
 291   1 H      0.066  0.934  0.000  0.000     2.129     2.282
 292   1 H      0.056  0.944  0.000  0.000     2.248     2.345
 293   1 H      0.025  0.975  0.000  0.000     2.660     2.551
 294   7 N     -0.275  1.330  3.945  0.000    27.102     7.732
 295   6 C      0.049  1.059  2.891  0.000    19.692     6.308
 296   6 C      0.196  1.073  2.731  0.000    23.818     7.993
 297   8 O     -0.367  1.731  4.636  0.000    21.028     6.148
 298   6 C     -0.052  1.024  3.028  0.000    21.493     6.597
 299   6 C      0.360  1.004  2.636  0.000    20.901     7.490
 300   8 O     -0.702  1.804  4.898  0.000    28.752     7.190
 301   8 O     -0.651  1.776  4.875  0.000    27.393     7.018
 302   1 H      0.204  0.796  0.000  0.000     1.088     1.634
 303   1 H      0.056  0.944  0.000  0.000     2.250     2.346
 304   1 H      0.061  0.939  0.000  0.000     2.191     2.315
 305   1 H      0.082  0.918  0.000  0.000     1.954     2.186
 306   7 N     -0.385  1.355  4.030  0.000    29.971     8.131
 307   6 C      0.037  1.065  2.899  0.000    19.984     6.369
 308   6 C      0.187  1.096  2.717  0.000    23.990     8.021
 309   8 O     -0.405  1.786  4.619  0.000    21.778     6.257
 310   6 C     -0.071  1.052  3.019  0.000    21.862     6.657
 311   6 C     -0.052  1.113  2.939  0.000    29.282     8.876
 312   6 C     -0.011  1.076  2.935  0.000    28.288     8.720
 313   6 C     -0.028  1.110  2.918  0.000    28.697     8.787
 314   7 N     -0.120  1.235  3.885  0.000    23.618     7.218
 315   6 C      0.047  1.086  2.867  0.000    26.949     8.515
 316   6 C     -0.030  1.105  2.925  0.000    28.756     8.792
 317   6 C     -0.039  1.069  2.970  0.000    28.961     8.823
 318   6 C     -0.054  1.080  2.975  0.000    29.351     8.883
 319   6 C     -0.041  1.077  2.964  0.000    29.010     8.833
 320   1 H      0.166  0.834  0.000  0.000     1.296     1.783
 321   1 H      0.073  0.927  0.000  0.000     2.050     2.239
 322   1 H      0.070  0.930  0.000  0.000     2.084     2.258
 323   1 H      0.081  0.919  0.000  0.000     1.969     2.194
 324   1 H      0.058  0.942  0.000  0.000     2.217     2.328
 325   1 H      0.155  0.845  0.000  0.000     1.369     1.833
 326   1 H      0.011  0.989  0.000  0.000     2.877     2.653
 327   1 H      0.008  0.992  0.000  0.000     2.918     2.671
 328   1 H      0.055  0.945  0.000  0.000     2.260     2.351
 329   1 H      0.031  0.969  0.000  0.000     2.567     2.506
 330   7 N     -0.432  1.494  3.938  0.000    31.731     8.361
 331   6 C     -0.012  1.099  2.913  0.000    22.120     6.930
 332   6 C      0.168  1.106  2.726  0.000    24.367     8.084
 333   8 O     -0.451  1.826  4.625  0.000    22.719     6.390
 334   6 C     -0.010  1.081  2.929  0.000    21.036     6.581
 335   6 C     -0.041  1.040  3.001  0.000    21.393     6.602
 336   6 C     -0.144  1.052  3.091  0.000    24.517     7.258
 337   6 C     -0.131  1.045  3.085  0.000    24.827     7.395
 338   1 H      0.170  0.830  0.000  0.000     1.314     1.809
 339   1 H      0.105  0.895  0.000  0.000     1.740     2.063
 340   1 H      0.036  0.964  0.000  0.000     2.498     2.472
 341   1 H     -0.010  1.010  0.000  0.000     3.264     2.833
 342   1 H      0.058  0.942  0.000  0.000     2.220     2.330
 343   1 H      0.040  0.960  0.000  0.000     2.458     2.453
 344   1 H      0.050  0.950  0.000  0.000     2.322     2.383
 345   1 H      0.081  0.919  0.000  0.000     1.973     2.196
 346   1 H      0.110  0.890  0.000  0.000     1.699     2.038
 347   1 H      0.067  0.933  0.000  0.000     2.118     2.276
 348   1 H     -0.009  1.009  0.000  0.000     3.549     3.015
 349   7 N     -0.440  1.240  4.200  0.000    31.523     8.339
 350   6 C      0.032  1.042  2.926  0.000    20.088     6.391
 351   6 C      0.091  1.133  2.776  0.000    25.967     8.336
 352   8 O     -0.636  1.925  4.712  0.000    27.107     6.977
 353   6 C     -0.069  1.113  2.955  0.000    22.487     6.868
 354   6 C     -0.109  1.078  3.031  0.000    22.485     6.734
 355   6 C      0.403  1.010  2.587  0.000    20.207     7.353
 356   8 O     -0.210  1.551  4.659  0.000    17.906     5.691
 357   8 O     -0.874  1.911  4.962  0.000    33.959     7.811
 358   1 H      0.237  0.763  0.000  0.000     0.933     1.511
 359   1 H      0.084  0.916  0.000  0.000     1.942     2.179
 360   1 H      0.056  0.944  0.000  0.000     2.248     2.344
 361   1 H     -0.048  1.048  0.000  0.000     4.158     3.209
 362   1 H      0.044  0.956  0.000  0.000     2.399     2.422
 363   1 H      0.033  0.967  0.000  0.000     2.548     2.496
 364   1 H      0.182  0.818  0.000  0.000     1.200     1.716
 365   1 H      0.066  0.934  0.000  0.000     2.130     2.282
 366   1 H      0.163  0.837  0.000  0.000     1.314     1.795
 367   1 H      0.020  0.980  0.000  0.000     2.732     2.584
 368   1 H      0.182  0.818  0.000  0.000     1.204     1.719
 369   1 H      0.051  0.949  0.000  0.000     2.307     2.375
 370   1 H      0.171  0.829  0.000  0.000     1.268     1.764
 371   1 H      0.050  0.950  0.000  0.000     2.323     2.383
 372   1 H      0.216  0.784  0.000  0.000     1.029     1.589
 373   1 H      0.058  0.942  0.000  0.000     2.219     2.329
 374   1 H      0.177  0.823  0.000  0.000     1.229     1.736
 375   1 H      0.083  0.917  0.000  0.000     1.943     2.180
 376   1 H      0.155  0.845  0.000  0.000     1.366     1.831
 377   1 H      0.083  0.917  0.000  0.000     1.948     2.183
 378   1 H      0.205  0.795  0.000  0.000     1.079     1.627
 379   1 H      0.039  0.961  0.000  0.000     2.462     2.454

 Mol. C6AA /au·bohr⁶  :    1564431.874773
 Mol. C8AA /au·bohr⁸  :   33938401.843380
 Mol. α(0) /au        :       1909.449147

 
molecular dipole:
                 x           y           z       tot (Debye)
 q only:      -62.986    -102.967     -22.963
   full:      -62.255    -101.665     -19.938     307.222
molecular quadrupole (traceless):
                xx          xy          yy          xz          yz          zz
 q only:      422.907   -5026.747   -4428.306   -1179.876   -1564.786    4005.399
  q+dip:      378.179   -4918.603   -4253.530   -1050.355   -1379.136    3875.350
   full:      381.597   -4914.660   -4258.832   -1049.194   -1378.367    3877.235
speedup  2.00
cpu  time for grad   48.13 s
wall time for grad   24.10 s

SCC energy    :    -580.2535788
rep           :      13.9537860
ES            :       2.0555939
AES           :      -0.0492227
AXC           :       0.2024599
disp          :      -0.6273323
XB            :       0.0000000
fix           :       0.0000000
Gborn         :       0.0000000
Gsasa         :       0.0000000
Ghb           :       0.0000000
Gshift        :       0.0000000
Gsolv         :      -0.6892250     -432.50
Etot ala COSMO:    -580.2535788
grad norm     :      15.4645188
total E       :    -566.2468605
atomizationE  :      98.7611855    61973.58
(atE without considering molecular charge,
 total energy contains solvation terms)
H-L gap (eV)  :          0.0181

------------------------------------------------------------------------
 * finished run on 2019/05/12 at 07:57:32.467     
------------------------------------------------------------------------
 total:
 * wall-time:     0 d,  0 h,  0 min, 25.343 sec
 *  cpu-time:     0 d,  0 h,  0 min, 50.350 sec
 * ratio c/w:     1.987 speedup
 SCF:
 * wall-time:     0 d,  0 h,  0 min, 25.006 sec
 *  cpu-time:     0 d,  0 h,  0 min, 49.872 sec
 * ratio c/w:     1.994 speedup

