      -----------------------------------------------------------      
     |                   =====================                   |     
     |                           x T B                           |     
     |                   =====================                   |     
     |                         S. Grimme                         |     
     |          Mulliken Center for Theoretical Chemistry        |     
     |                    University of Bonn                     |     
     |                 Version 6.0.1 (SAW181210)                 |     
      -----------------------------------------------------------      

   This program is distributed in the hope that it will be useful,
   but WITHOUT ANY WARRANTY; without even the implied warranty of
   MERCHANTABILITY or FITNESS FOR A PARTICULAR PURPOSE.
   
   FOR NON-COMMERCIAL, ACADEMIA USE ONLY.
   
   Cite this work as:
   S. Grimme, C. Bannwarth, P. Shushkov, J. Comput. Theory Chem., 2017,
   13, 1989-2009.
   C. Bannwarth, S. Ehlert and S. Grimme., ChemRxiv, 2018, preprint.
   http://doi.org/10.26434/chemrxiv.7246238.v1
   
   for sTDA-xTB:
   S. Grimme and C. Bannwarth, J. Chem. Phys., 2016, 145, 054103.
   
   in the mass-spec context:
   V. Asgeirsson, C. Bauer and S. Grimme, Chem. Sci., 2017, 8, 4879.
   
   if GBSA is used:
   P. Shushkov, F. März and S. Grimme, unpublished.
   
   for ANC optimizer:
   S. Grimme, unpublished.
   Rational Function algorithm used in ANCopt:
   F. Eckert, P. Pulay, H.-J. Werner, J. Comput. Chem., 1997, 18, 1473.
   
   with help from (in alphabetical order)
   C. Bannwarth, F. Bohle, G. Brandenburg, E. Caldeweyher, M. Checinski,
   S. Dohm, S. Ehlert, S. Ehrlich, F. März, H. Neugebauer, J. Pisarek,
   P. Pracht, P. Shushkov, and S. Spicher.
   
 * started run on 2019/05/10 at 16:39:14.067     
========================================================================
 # omp threads = 2
========================================================================
number of atoms            : 603
number of electrons        : 1588
charge                     : 2
spin                       : .0
first test random number   : .3793

########################################################################
# WARNING! Please study the warnings concerning your input carefully
#  - Process number higher than OMP_NUM_THREADS, I hope you know what you are doing.
########################################################################

           ------------------------------------------------- 
          |                 G F N 2 - x T B                 |
          | Geometry, Frequencies, Noncovalent interactions |
          |            JCTC 2018 parametrisation            |
           ------------------------------------------------- 
 
      method parameters     
 k(s)        :  1.8500
 k(p)        :  2.2300
 k(d)        :  2.2300
 k(f)        :  2.0000
 kEN (H0ij)  : -2.0000
 D4 a1       :  0.5200
 D4 a2       :  5.0000
 D4 s6       :  1.0000
 D4 s8       :  2.7000
 D4 s9       :  5.0000
 alphaj      :  2.0000

 Solvent             : h2o
 Using internal parameter file: .param_gbsa2_h2o
 Gsolv ref. state (COSMO-RS): gsolv [1 M gas/solution]
 temperature (mdtemp)       :    298.150000000000     
 dielectric constant        :    80.2000000000000     
 rho                        :    1.00000000000000     
 mass                       :    18.0000000000000     
 surface tension            :    15.5689454083859     
 probe radius               :   0.975313790000000     
 vdW radii scaling          :    1.00000000000000     
 Gshift (Eh)                :   1.857443126794793E-003
 c1                         :    1.55243817000000     
 soset                      :   0.130326360000000     
 HB correction              :  T

            Z     q(EN)     CN     RAES       Cart. coordinates
     1  N   5.0   -0.07    4.33    3.85     8.77951    65.77457   -35.05002
     2  C   4.0   -0.00    4.48    4.51     9.27032    66.38208   -32.33758
     3  C   4.0    0.14    3.41    3.08    11.75282    65.06807   -31.60608
     4  O   6.0   -0.30    1.29    1.80    12.77949    63.66509   -33.12641
     5  C   4.0   -0.04    4.33    4.25     6.99364    65.28441   -30.89516
     6  C   4.0   -0.04    4.25    4.10     4.88261    65.39576   -32.85541
     7  C   4.0   -0.03    4.28    4.16     6.23745    64.55693   -35.25230
     8  H   1.0    0.06    1.05    1.44     8.88054    67.35530   -36.16334
     9  H   1.0    0.09    1.10    1.44    10.23819    64.54233   -35.56885
    10  H   1.0    0.04    1.04    1.43     9.41001    68.42023   -32.05933
    11  H   1.0    0.05    1.03    1.43     7.35054    63.33184   -30.34502
    12  H   1.0    0.04    1.02    1.43     6.55731    66.35853   -29.20298
    13  H   1.0    0.05    1.02    1.43     3.32020    64.15537   -32.37684
    14  H   1.0    0.05    1.02    1.43     4.16308    67.31497   -33.04069
    15  H   1.0    0.05    1.02    1.43     6.46791    62.51110   -35.25242
    16  H   1.0    0.05    1.02    1.43     5.27927    65.14249   -36.97323
    17  N   5.0   -0.14    3.46    2.05    12.57462    65.53514   -29.27720
    18  C   4.0    0.04    4.50    4.53    14.58490    64.09882   -28.09447
    19  C   4.0    0.15    3.50    3.11    13.74879    63.58112   -25.37020
    20  O   6.0   -0.31    1.24    1.80    13.18917    65.33583   -23.96833
    21  C   4.0   -0.03    4.16    3.92    17.06679    65.57694   -28.07476
    22  S   6.0   -0.03    2.50    3.10    19.59758    63.53873   -26.78391
    23  H   1.0    0.09    1.07    1.44    11.67122    66.78487   -28.14451
    24  H   1.0    0.07    1.08    1.44    14.82559    62.32324   -29.12344
    25  H   1.0    0.05    1.06    1.44    17.60021    66.12250   -29.98419
    26  H   1.0    0.06    1.07    1.44    16.92319    67.22986   -26.86032
    27  N   5.0   -0.14    3.48    2.07    13.63548    61.15255   -24.73124
    28  C   4.0    0.04    4.44    4.45    12.77493    60.38977   -22.25492
    29  C   4.0    0.14    3.40    3.08    13.57833    57.67945   -21.68649
    30  O   6.0   -0.31    1.26    1.80    14.15763    56.16128   -23.33851
    31  C   4.0   -0.03    4.36    4.31     9.89884    60.74438   -22.00606
    32  C   4.0   -0.03    4.06    3.73     8.38472    59.38178   -24.02323
    33  S   6.0   -0.03    2.51    3.10     5.18390    60.68655   -24.20657
    34  C   4.0   -0.06    3.89    3.44     3.85116    59.38208   -21.34878
    35  H   1.0    0.12    1.10    1.44    14.01442    59.75581   -25.99473
    36  H   1.0    0.06    1.07    1.44    13.64975    61.63312   -20.84841
    37  H   1.0    0.05    1.03    1.43     9.33068    60.14791   -20.12333
    38  H   1.0    0.05    1.05    1.44     9.51710    62.76156   -22.18079
    39  H   1.0    0.05    1.08    1.44     9.19427    59.69698   -25.88838
    40  H   1.0    0.05    1.06    1.44     8.23822    57.35473   -23.68925
    41  H   1.0    0.05    1.05    1.44     1.81699    59.60393   -21.48879
    42  H   1.0    0.05    1.04    1.43     4.29471    57.38028   -21.26830
    43  H   1.0    0.04    1.04    1.43     4.57657    60.38712   -19.71322
    44  N   5.0   -0.14    3.48    2.07    13.60990    57.16045   -19.22005
    45  C   4.0    0.04    4.34    4.28    14.41328    54.76049   -18.18114
    46  C   4.0    0.14    3.42    3.08    12.85315    54.19928   -15.82524
    47  O   6.0   -0.32    1.29    1.80    11.83947    55.90540   -14.63200
    48  C   4.0   -0.07    4.11    3.82    17.21542    54.82681   -17.44730
    49  H   1.0    0.11    1.09    1.44    13.08220    58.51796   -17.96694
    50  H   1.0    0.07    1.07    1.44    14.11327    53.29583   -19.60486
    51  H   1.0    0.05    1.00    1.43    17.85785    52.93998   -16.96584
    52  H   1.0    0.04    1.00    1.43    18.31464    55.52090   -19.03608
    53  H   1.0    0.04    1.00    1.43    17.51870    56.07552   -15.84368
    54  N   5.0   -0.14    3.48    2.06    12.76837    51.76707   -15.15786
    55  C   4.0    0.04    4.30    4.21    11.38476    50.87322   -12.96629
    56  C   4.0    0.08    3.24    3.04    12.67775    48.47678   -12.04627
    57  O   6.0   -0.32    1.23    1.80    13.27546    46.81709   -13.56756
    58  C   4.0   -0.04    4.26    4.12     8.61588    50.32669   -13.69041
    59  C   4.0   -0.04    4.17    3.94     6.93682    49.55884   -11.47418
    60  C   4.0   -0.05    4.17    3.94     4.25109    48.97957   -12.38850
    61  C   4.0   -0.03    4.11    3.83     2.67224    47.76549   -10.30502
    62  N   5.0   -0.11    3.94    2.70     0.27844    46.72701   -11.31611
    63  H   1.0    0.11    1.09    1.44    13.54049    50.45396   -16.32302
    64  H   1.0    0.06    1.06    1.44    11.44709    52.32906   -11.50540
    65  H   1.0    0.06    1.03    1.43     7.85054    52.03523   -14.55369
    66  H   1.0    0.05    1.03    1.43     8.60155    48.82636   -15.10861
    67  H   1.0    0.05    1.03    1.43     7.71040    47.87758   -10.55770
    68  H   1.0    0.05    1.02    1.43     6.88737    51.07601   -10.07973
    69  H   1.0    0.05    1.02    1.43     3.33603    50.71107   -13.03096
    70  H   1.0    0.05    1.03    1.43     4.37855    47.66944   -13.97823
    71  H   1.0    0.05    1.02    1.43     3.76480    46.23495    -9.44702
    72  H   1.0    0.05    1.02    1.43     2.20705    49.16103    -8.86234
    73  H   1.0    0.07    1.02    1.43    -0.54837    45.56309   -10.01721
    74  H   1.0    0.06    0.91    1.42    -1.24159    48.20460   -11.77051
    75  H   1.0    0.07    1.03    1.43     0.62871    45.71611   -12.92562
    76  N   5.0   -0.18    3.20    1.96    18.02623    40.25134   -13.32242
    77  C   4.0    0.03    4.32    4.24    18.20588    42.66128   -14.61139
    78  C   4.0    0.15    3.40    3.08    17.01657    42.45999   -17.25604
    79  O   6.0   -0.28    1.21    1.80    17.48256    40.69484   -18.67246
    80  C   4.0   -0.04    4.28    4.17    20.96453    43.52354   -14.95571
    81  C   4.0   -0.02    3.66    3.21    21.99947    45.01783   -12.79434
    82  C   4.0   -0.01    3.60    3.17    24.03460    44.45694   -11.30080
    83  C   4.0    0.00    3.89    3.45    21.06224    47.39985   -11.92764
    84  N   5.0   -0.11    3.49    2.07    24.39626    46.30361    -9.53219
    85  C   4.0    0.04    3.89    3.45    22.61298    48.12955    -9.86380
    86  C   4.0   -0.04    3.40    3.08    19.08062    48.96659   -12.68181
    87  C   4.0   -0.04    3.40    3.08    22.15414    50.34069    -8.51789
    88  C   4.0   -0.04    3.38    3.07    18.64058    51.14828   -11.33740
    89  C   4.0   -0.04    3.38    3.07    20.14704    51.82248    -9.27118
    90  H   1.0    0.10    1.03    1.43    19.37581    38.96512   -13.71415
    91  H   1.0    0.05    1.06    1.44    17.14035    44.03436   -13.49823
    92  H   1.0    0.05    1.03    1.43    22.14889    41.87221   -15.28371
    93  H   1.0    0.04    1.04    1.43    21.02367    44.71451   -16.64177
    94  H   1.0    0.05    1.02    1.43    25.26354    42.84677   -11.35249
    95  H   1.0    0.09    1.05    1.44    25.84239    46.39781    -8.29199
    96  H   1.0    0.06    1.03    1.43    17.93059    48.49060   -14.29428
    97  H   1.0    0.06    1.03    1.43    23.33110    50.87111    -6.93224
    98  H   1.0    0.05    1.03    1.43    17.11066    52.38640   -11.87304
    99  H   1.0    0.05    1.03    1.43    19.72666    53.53463    -8.24093
   100  N   5.0   -0.14    3.53    2.10    15.57208    44.44402   -17.84862
   101  C   4.0    0.03    4.39    4.37    14.25408    44.78851   -20.22211
   102  C   4.0    0.15    3.41    3.08    14.91208    47.45754   -21.14196
   103  O   6.0   -0.32    1.29    1.80    15.05606    49.18741   -19.61669
   104  C   4.0   -0.04    4.25    4.11    11.38911    44.60374   -19.74058
   105  C   4.0   -0.02    4.23    4.05    10.67435    41.99749   -18.69756
   106  C   4.0    0.16    3.20    3.04     8.69142    42.00124   -16.61622
   107  O   6.0   -0.26    1.20    1.80     6.78136    40.68764   -16.80456
   108  N   5.0   -0.18    3.19    1.95     9.17940    43.41180   -14.58556
   109  H   1.0    0.11    1.11    1.44    15.05104    45.67181   -16.46825
   110  H   1.0    0.06    1.05    1.44    14.89986    43.33183   -21.53560
   111  H   1.0    0.06    1.03    1.43    10.89892    46.07517   -18.38014
   112  H   1.0    0.05    1.02    1.43    10.36695    44.97859   -21.48762
   113  H   1.0    0.07    1.03    1.43     9.99212    40.77970   -20.21209
   114  H   1.0    0.06    1.04    1.43    12.33569    41.09576   -17.86652
   115  H   1.0    0.11    1.06    1.44    10.86794    44.28099   -14.34105
   116  H   1.0    0.10    1.03    1.43     8.04205    43.27997   -13.05501
   117  N   5.0   -0.14    3.42    2.03    15.32752    47.75477   -23.62016
   118  C   4.0    0.04    4.41    4.41    15.96101    50.16731   -24.75782
   119  C   4.0    0.15    3.40    3.08    14.65136    50.51890   -27.32171
   120  O   6.0   -0.28    1.21    1.80    14.17055    48.74031   -28.71353
   121  C   4.0   -0.04    4.35    4.29    18.82109    50.38017   -25.29176
   122  C   4.0   -0.04    4.05    3.72    20.31030    50.93989   -22.90300
   123  S   6.0   -0.04    2.46    3.10    23.70176    51.17376   -23.48865
   124  C   4.0   -0.06    3.89    3.45    23.74645    53.84303   -25.63682
   125  H   1.0    0.10    1.06    1.44    15.11520    46.30388   -24.84475
   126  H   1.0    0.06    1.06    1.44    15.38543    51.66694   -23.45850
   127  H   1.0    0.06    1.03    1.43    19.47976    48.62489   -26.15061
   128  H   1.0    0.05    1.04    1.43    19.10712    51.90335   -26.65074
   129  H   1.0    0.04    1.07    1.44    19.69665    52.71814   -22.06729
   130  H   1.0    0.05    1.07    1.44    20.09704    49.43914   -21.51519
   131  H   1.0    0.06    1.05    1.44    25.58325    54.74223   -25.45238
   132  H   1.0    0.05    1.03    1.43    23.47648    53.20000   -27.56697
   133  H   1.0    0.04    1.04    1.43    22.27072    55.15872   -25.08955
   134  N   5.0   -0.14    3.48    2.06    14.32108    52.95723   -27.91474
   135  C   4.0    0.04    4.31    4.22    13.43254    53.88186   -30.33648
   136  C   4.0    0.15    3.43    3.09    14.68040    56.45861   -30.74308
   137  O   6.0   -0.31    1.30    1.80    14.43440    58.14794   -29.17713
   138  C   4.0   -0.05    4.10    3.80    10.55515    54.21948   -30.34402
   139  H   1.0    0.11    1.10    1.44    14.50838    54.27903   -26.54208
   140  H   1.0    0.06    1.05    1.44    13.99109    52.50881   -31.77662
   141  H   1.0    0.06    1.00    1.43     9.92061    54.84946   -32.19068
   142  H   1.0    0.06    1.00    1.43     9.66438    52.42094   -29.90923
   143  H   1.0    0.06    1.00    1.43    10.01553    55.59865   -28.92081
   144  N   5.0   -0.12    3.46    2.05    15.95802    56.78615   -32.89082
   145  C   4.0    0.04    4.28    4.16    17.20054    59.14887   -33.49648
   146  C   4.0    0.09    3.24    3.04    17.78843    59.19498   -36.30511
   147  O   6.0   -0.26    1.15    1.80    17.73357    57.26998   -37.58234
   148  C   4.0    0.03    4.15    3.90    19.71995    59.44238   -32.00884
   149  O   6.0   -0.25    2.05    1.83    21.54085    57.65441   -32.70690
   150  H   1.0    0.10    1.07    1.44    16.29824    55.33628   -34.08760
   151  H   1.0    0.07    1.06    1.44    15.94077    60.70984   -32.98602
   152  H   1.0    0.04    1.01    1.43    20.42760    61.37577   -32.25322
   153  H   1.0    0.06    1.02    1.43    19.32705    59.14793   -30.00305
   154  H   1.0    0.13    1.02    1.43    22.26115    58.14682   -34.32416
   155  N   5.0   -0.13    3.48    2.06    28.75698    61.14481   -33.57515
   156  C   4.0    0.03    4.48    4.50    27.14260    60.91990   -31.36166
   157  C   4.0    0.15    3.41    3.08    27.72498    63.10643   -29.56933
   158  O   6.0   -0.28    1.24    1.80    29.75974    64.18560   -29.55615
   159  C   4.0   -0.04    4.32    4.23    27.82989    58.35488   -30.17538
   160  C   4.0   -0.04    4.26    4.12    29.54667    57.09534   -32.13710
   161  C   4.0    0.01    4.27    4.14    30.80163    59.32922   -33.45575
   162  H   1.0    0.04    1.05    1.44    25.17359    61.01430   -31.97282
   163  H   1.0    0.06    1.03    1.43    28.85412    58.62818   -28.40913
   164  H   1.0    0.05    1.02    1.43    26.14442    57.24187   -29.80560
   165  H   1.0    0.05    1.02    1.43    30.91129    55.81819   -31.29338
   166  H   1.0    0.05    1.03    1.43    28.42307    56.04205   -33.49974
   167  H   1.0    0.06    1.02    1.43    32.35348    60.10933   -32.32631
   168  H   1.0    0.05    1.02    1.43    31.54061    58.86363   -35.32047
   169  N   5.0   -0.15    3.50    2.08    25.85759    63.66698   -27.92099
   170  C   4.0    0.04    4.49    4.52    26.18629    65.65550   -26.08039
   171  C   4.0    0.15    3.46    3.10    27.07311    64.69545   -23.49511
   172  O   6.0   -0.32    1.30    1.80    27.94085    66.20861   -21.95875
   173  C   4.0   -0.03    4.18    3.96    23.83125    67.27553   -25.71168
   174  S   6.0   -0.02    2.48    3.10    21.25830    65.67780   -24.07566
   175  H   1.0    0.08    1.11    1.45    24.13340    62.86281   -28.09707
   176  H   1.0    0.07    1.07    1.44    27.68374    66.90343   -26.79568
   177  H   1.0    0.07    1.08    1.44    24.27608    68.85635   -24.46480
   178  H   1.0    0.05    1.06    1.44    23.16936    68.01240   -27.51460
   179  N   5.0   -0.14    3.55    2.12    26.76194    62.24497   -23.06862
   180  C   4.0    0.04    4.49    4.53    27.41424    60.95102   -20.75722
   181  C   4.0    0.14    3.44    3.09    28.54578    58.38868   -21.47023
   182  O   6.0   -0.32    1.26    1.80    28.37582    57.57124   -23.62744
   183  C   4.0   -0.02    4.27    4.14    25.05274    60.59242   -19.07003
   184  C   4.0   -0.07    4.12    3.84    24.12440    63.14054   -18.10271
   185  C   4.0   -0.07    4.13    3.85    22.94557    59.21300   -20.47459
   186  H   1.0    0.09    1.10    1.44    26.31628    61.07147   -24.51795
   187  H   1.0    0.06    1.06    1.44    28.82113    62.05333   -19.72097
   188  H   1.0    0.04    1.06    1.44    25.66372    59.45201   -17.46182
   189  H   1.0    0.03    1.00    1.43    22.48335    62.89301   -16.89702
   190  H   1.0    0.04    1.00    1.43    25.59691    64.07455   -17.02346
   191  H   1.0    0.05    1.02    1.43    23.59909    64.37373   -19.65733
   192  H   1.0    0.03    1.00    1.43    21.38623    58.85702   -19.18790
   193  H   1.0    0.05    1.00    1.43    22.24477    60.35549   -22.03128
   194  H   1.0    0.05    1.00    1.43    23.62903    57.42046   -21.20678
   195  N   5.0   -0.15    3.46    2.05    29.57398    57.11812   -19.54362
   196  C   4.0    0.04    4.44    4.44    30.55467    54.58524   -19.80360
   197  C   4.0    0.15    3.49    3.11    30.27621    53.16438   -17.30331
   198  O   6.0   -0.32    1.29    1.80    30.57717    54.20783   -15.25309
   199  C   4.0   -0.02    4.31    4.22    33.37202    54.53785   -20.51610
   200  C   4.0    0.17    3.24    3.04    34.25105    51.88872   -21.20699
   201  O   6.0   -0.29    1.26    1.80    32.79008    50.17951   -21.73380
   202  N   5.0   -0.17    3.18    1.95    36.76027    51.60747   -21.29937
   203  H   1.0    0.11    1.10    1.44    29.94882    58.04183   -17.90429
   204  H   1.0    0.06    1.06    1.44    29.47447    53.64711   -21.29953
   205  H   1.0    0.05    1.03    1.43    33.64794    55.74512   -22.16819
   206  H   1.0    0.06    1.02    1.43    34.52024    55.29096   -18.97499
   207  H   1.0    0.11    1.03    1.43    37.47883    49.88282   -21.66556
   208  H   1.0    0.10    1.03    1.43    37.94613    52.97908   -20.73148
   209  N   5.0   -0.14    3.51    2.09    29.65039    50.73087   -17.56282
   210  C   4.0    0.04    4.43    4.44    29.78004    49.03439   -15.41983
   211  C   4.0    0.16    3.47    3.10    32.44270    49.12175   -14.28723
   212  O   6.0   -0.27    1.24    1.80    34.30421    49.28537   -15.64528
   213  C   4.0   -0.04    4.31    4.21    29.35068    46.32260   -16.31836
   214  C   4.0   -0.05    4.19    3.98    26.85535    45.99896   -17.73709
   215  C   4.0   -0.05    4.17    3.94    26.60066    43.32530   -18.80743
   216  C   4.0   -0.03    4.13    3.86    28.33240    42.93552   -21.07945
   217  N   5.0   -0.11    4.01    2.89    28.14017    40.28154   -22.00463
   218  H   1.0    0.10    1.11    1.44    30.04449    49.97072   -19.28452
   219  H   1.0    0.05    1.05    1.44    28.38059    49.61663   -14.01134
   220  H   1.0    0.06    1.03    1.43    30.95851    45.85846   -17.52193
   221  H   1.0    0.05    1.03    1.43    29.39684    45.09404   -14.66370
   222  H   1.0    0.04    1.03    1.43    25.32043    46.37647   -16.41995
   223  H   1.0    0.05    1.03    1.43    26.72386    47.37505   -19.26231
   224  H   1.0    0.05    1.03    1.43    27.06020    41.98105   -17.31546
   225  H   1.0    0.04    1.03    1.43    24.64539    43.04593   -19.38946
   226  H   1.0    0.05    1.02    1.43    27.78950    44.22678   -22.59038
   227  H   1.0    0.05    1.02    1.43    30.29072    43.32201   -20.57777
   228  H   1.0    0.07    1.02    1.43    29.27181    40.02121   -23.56664
   229  H   1.0    0.07    1.02    1.43    28.70773    39.04797   -20.60698
   230  H   1.0    0.07    1.02    1.43    26.29414    39.87730   -22.48413
   231  N   5.0   -0.15    3.45    2.04    32.55045    48.74529   -11.78057
   232  C   4.0    0.04    4.41    4.40    34.92228    48.31939   -10.48650
   233  C   4.0    0.08    3.24    3.04    34.88132    45.70565    -9.23829
   234  O   6.0   -0.26    1.11    1.80    36.61496    44.20062    -9.45704
   235  C   4.0   -0.02    4.26    4.11    35.49200    50.38391    -8.53556
   236  C   4.0   -0.07    4.13    3.87    37.69862    49.59063    -6.85941
   237  C   4.0   -0.06    4.11    3.82    36.02729    52.87660    -9.88551
   238  H   1.0    0.10    1.08    1.44    31.00796    49.07770   -10.69339
   239  H   1.0    0.07    1.07    1.44    36.40968    48.30372   -11.92727
   240  H   1.0    0.05    1.06    1.44    33.80317    50.61751    -7.36166
   241  H   1.0    0.04    1.00    1.43    38.32949    51.18097    -5.72744
   242  H   1.0    0.05    1.00    1.43    37.13447    48.06564    -5.60379
   243  H   1.0    0.06    1.00    1.43    39.27309    48.94321    -8.01040
   244  H   1.0    0.04    1.00    1.43    36.10881    54.42629    -8.53473
   245  H   1.0    0.06    1.00    1.43    37.81600    52.79025   -10.89545
   246  H   1.0    0.06    1.00    1.43    34.54554    53.30089   -11.24838
   247  N   5.0   -0.20    3.21    1.96    26.33835    49.31662    -3.14942
   248  C   4.0    0.03    4.33    4.25    28.11165    51.37067    -3.48841
   249  C   4.0    0.14    3.40    3.08    28.48753    51.95191    -6.30095
   250  O   6.0   -0.32    1.24    1.80    28.82876    50.28670    -7.88018
   251  C   4.0   -0.04    4.28    4.15    30.67199    50.72816    -2.29909
   252  C   4.0   -0.05    4.19    3.97    32.52906    52.93399    -2.40006
   253  C   4.0   -0.05    4.19    3.98    34.85676    52.31541    -0.81532
   254  C   4.0   -0.04    4.11    3.83    36.87688    54.36522    -0.92755
   255  N   5.0   -0.11    3.98    2.80    38.70848    53.98139     1.15394
   256  H   1.0    0.09    1.03    1.43    26.96420    47.60408    -3.73593
   257  H   1.0    0.06    1.07    1.44    27.31965    53.03066    -2.54604
   258  H   1.0    0.05    1.03    1.43    30.34487    50.23411    -0.32141
   259  H   1.0    0.05    1.02    1.43    31.47545    49.07192    -3.23592
   260  H   1.0    0.04    1.02    1.43    33.06953    53.34840    -4.34902
   261  H   1.0    0.05    1.03    1.43    31.60413    54.61824    -1.63918
   262  H   1.0    0.05    1.03    1.43    34.24135    52.10085     1.14583
   263  H   1.0    0.04    1.03    1.43    35.63401    50.51927    -1.45890
   264  H   1.0    0.04    1.02    1.43    37.85056    54.32491    -2.74749
   265  H   1.0    0.04    1.02    1.43    35.98830    56.20906    -0.68015
   266  H   1.0    0.07    1.02    1.43    40.30817    55.04292     0.93925
   267  H   1.0    0.06    0.96    1.42    37.76828    54.45696     2.97778
   268  H   1.0    0.06    1.03    1.43    39.20781    52.11643     1.28556
   269  N   5.0   -0.14    3.50    2.08    28.47504    54.41312    -6.83363
   270  C   4.0    0.03    4.38    4.35    28.48945    55.52264    -9.33149
   271  C   4.0    0.14    3.41    3.08    30.45334    57.63709    -9.37301
   272  O   6.0   -0.32    1.28    1.80    30.91761    58.85463    -7.45362
   273  C   4.0   -0.04    4.37    4.33    25.85030    56.69170    -9.75962
   274  C   4.0   -0.02    4.17    3.93    25.08090    57.17843   -12.50043
   275  C   4.0   -0.07    4.11    3.82    24.50036    54.71401   -13.87949
   276  C   4.0   -0.09    4.12    3.84    22.73522    58.85988   -12.51198
   277  H   1.0    0.11    1.10    1.44    28.22655    55.67540    -5.41512
   278  H   1.0    0.06    1.05    1.44    28.92653    54.07335   -10.72979
   279  H   1.0    0.04    1.04    1.43    24.46311    55.40875    -8.92825
   280  H   1.0    0.05    1.03    1.43    25.79321    58.47033    -8.70817
   281  H   1.0    0.05    1.05    1.44    26.62554    58.16145   -13.47047
   282  H   1.0    0.04    1.00    1.43    23.95934    55.09307   -15.82341
   283  H   1.0    0.06    1.00    1.43    26.14937    53.49773   -13.91287
   284  H   1.0    0.04    1.00    1.43    22.96543    53.72115   -12.94503
   285  H   1.0    0.03    1.00    1.43    22.07477    59.11360   -14.43662
   286  H   1.0    0.04    1.00    1.43    21.23729    57.98150   -11.41348
   287  H   1.0    0.03    1.00    1.43    23.15757    60.70603   -11.71047
   288  N   5.0   -0.14    3.45    2.05    31.52956    58.08913   -11.60989
   289  C   4.0    0.03    4.41    4.40    33.13726    60.24243   -12.13380
   290  C   4.0    0.14    3.44    3.09    31.89544    61.90435   -14.14206
   291  O   6.0   -0.32    1.28    1.80    30.84507    60.98934   -16.00237
   292  C   4.0   -0.04    4.27    4.14    35.72810    59.43571   -13.15298
   293  C   4.0   -0.03    4.19    3.97    37.51288    61.66732   -13.45167
   294  C   4.0    0.25    3.09    3.02    39.92813    61.04725   -15.03652
   295  O   6.0   -0.28    1.18    1.80    39.92203    59.08138   -16.32641
   296  O   6.0   -0.25    1.16    1.80    41.65167    62.65139   -14.91827
   297  H   1.0    0.11    1.10    1.44    31.09327    56.98176   -13.11289
   298  H   1.0    0.05    1.06    1.44    33.37242    61.32287   -10.39138
   299  H   1.0    0.05    1.03    1.43    36.57126    58.05358   -11.87621
   300  H   1.0    0.07    1.03    1.43    35.49367    58.53557   -14.99722
   301  H   1.0    0.06    1.03    1.43    36.60102    63.21870   -14.46902
   302  H   1.0    0.05    1.02    1.43    38.11086    62.42588   -11.62603
   303  N   5.0   -0.15    3.50    2.07    32.04256    64.37114   -13.69927
   304  C   4.0    0.03    4.51    4.55    31.12051    66.29028   -15.40434
   305  C   4.0    0.15    3.44    3.09    33.21007    66.94944   -17.29266
   306  O   6.0   -0.28    1.23    1.80    35.33229    67.58610   -16.59385
   307  C   4.0   -0.02    4.34    4.27    30.36639    68.68052   -13.94534
   308  C   4.0   -0.05    4.19    3.97    28.67592    68.11125   -11.65898
   309  C   4.0   -0.07    4.13    3.85    29.13266    70.54581   -15.76504
   310  C   4.0   -0.08    4.01    3.65    26.22785    66.71883   -12.25991
   311  H   1.0    0.08    1.07    1.44    33.02763    64.99522   -12.17826
   312  H   1.0    0.05    1.06    1.44    29.49842    65.52266   -16.43423
   313  H   1.0    0.06    1.06    1.44    32.11540    69.53796   -13.22970
   314  H   1.0    0.04    1.03    1.43    29.76472    67.01794   -10.28915
   315  H   1.0    0.04    1.03    1.43    28.22686    69.92328   -10.78357
   316  H   1.0    0.04    1.00    1.43    28.48099    72.21159   -14.75496
   317  H   1.0    0.06    1.00    1.43    30.48439    71.17790   -17.17991
   318  H   1.0    0.05    1.00    1.43    27.53438    69.69755   -16.73644
   319  H   1.0    0.03    1.00    1.43    25.08187    66.59390   -10.56149
   320  H   1.0    0.04    1.00    1.43    25.14886    67.71843   -13.69225
   321  H   1.0    0.04    1.00    1.43    26.62651    64.81250   -12.91154
   322  N   5.0   -0.15    3.45    2.05    32.57409    66.72295   -19.72056
   323  C   4.0    0.04    4.33    4.26    34.32130    67.18347   -21.76038
   324  C   4.0    0.09    3.20    3.04    33.90723    69.69512   -23.12753
   325  O   6.0   -0.25    1.12    1.80    35.66752    70.69501   -24.23780
   326  C   4.0   -0.03    4.36    4.32    34.22783    65.06241   -23.73012
   327  C   4.0   -0.02    4.18    3.95    34.82118    62.42646   -22.68125
   328  C   4.0   -0.06    4.11    3.82    34.73749    60.55550   -24.88065
   329  C   4.0   -0.06    4.11    3.82    37.39480    62.36784   -21.38042
   330  H   1.0    0.11    1.12    1.45    30.76539    66.27987   -20.21541
   331  H   1.0    0.07    1.07    1.44    36.21431    67.29287   -20.92884
   332  H   1.0    0.06    1.03    1.43    32.35406    65.05011   -24.59799
   333  H   1.0    0.06    1.03    1.43    35.60476    65.54192   -25.18712
   334  H   1.0    0.05    1.05    1.44    33.37760    61.91332   -21.28777
   335  H   1.0    0.05    1.00    1.43    35.33128    58.69369   -24.25764
   336  H   1.0    0.06    1.00    1.43    32.83296    60.42761   -25.64130
   337  H   1.0    0.05    1.00    1.43    36.00104    61.18577   -26.36814
   338  H   1.0    0.06    1.00    1.43    37.88916    60.46279   -20.79349
   339  H   1.0    0.06    1.00    1.43    38.85445    63.08428   -22.63243
   340  H   1.0    0.07    1.00    1.43    37.39856    63.50850   -19.66845
   341  N   5.0   -0.18    3.23    1.96    16.10265    77.88914   -13.90177
   342  C   4.0    0.04    4.33    4.25    15.18639    75.33718   -13.62869
   343  C   4.0    0.15    3.41    3.08    13.20889    75.19698   -11.51516
   344  O   6.0   -0.29    1.23    1.80    13.31424    76.49948    -9.60538
   345  C   4.0   -0.04    4.34    4.26    17.38184    73.57315   -12.86361
   346  C   4.0   -0.02    3.54    3.13    19.22026    73.10776   -14.97978
   347  C   4.0   -0.04    3.46    3.10    21.35588    74.60187   -15.29251
   348  C   4.0   -0.04    3.47    3.10    18.84408    71.12243   -16.65751
   349  C   4.0   -0.04    3.43    3.09    23.09465    74.10011   -17.18001
   350  C   4.0   -0.04    3.44    3.09    20.56732    70.59190   -18.53944
   351  C   4.0    0.07    3.44    3.09    22.73118    72.06853   -18.80904
   352  O   6.0   -0.24    2.11    1.84    24.38283    71.47168   -20.67491
   353  H   1.0    0.10    1.03    1.43    16.89554    78.60667   -12.30502
   354  H   1.0    0.06    1.06    1.44    14.35662    74.71849   -15.41629
   355  H   1.0    0.04    1.03    1.43    18.35238    74.44930   -11.26758
   356  H   1.0    0.04    1.03    1.43    16.56915    71.77848   -12.26052
   357  H   1.0    0.05    1.03    1.43    21.68163    76.18106   -14.03853
   358  H   1.0    0.06    1.03    1.43    17.17515    69.96290   -16.48734
   359  H   1.0    0.06    1.03    1.43    24.77093    75.25219   -17.38798
   360  H   1.0    0.06    1.04    1.43    20.28916    69.02140   -19.81110
   361  H   1.0    0.12    1.03    1.43    25.93019    72.47649   -20.51370
   362  N   5.0   -0.14    3.48    2.07    11.42349    73.46832   -11.91710
   363  C   4.0    0.03    4.41    4.40     9.50062    72.86802   -10.05490
   364  C   4.0    0.14    3.41    3.08     9.93786    70.13356    -9.22053
   365  O   6.0   -0.32    1.27    1.80     9.97182    68.41005   -10.77789
   366  C   4.0   -0.04    4.36    4.30     6.87446    73.20037   -11.23018
   367  C   4.0   -0.02    4.17    3.93     4.71863    73.57105    -9.33818
   368  C   4.0   -0.06    4.11    3.82     5.01174    76.02275    -7.85151
   369  C   4.0   -0.07    4.11    3.83     2.23035    73.61093   -10.79713
   370  H   1.0    0.11    1.09    1.44    11.38779    72.49164   -13.56910
   371  H   1.0    0.06    1.07    1.44     9.77901    74.14379    -8.45894
   372  H   1.0    0.05    1.03    1.43     6.95607    74.83616   -12.48241
   373  H   1.0    0.05    1.04    1.43     6.47887    71.54147   -12.38308
   374  H   1.0    0.05    1.05    1.44     4.72432    71.97488    -8.01484
   375  H   1.0    0.05    1.00    1.43     3.29432    76.44600    -6.81025
   376  H   1.0    0.05    1.00    1.43     6.54329    75.90579    -6.49553
   377  H   1.0    0.05    1.00    1.43     5.39109    77.58795    -9.12375
   378  H   1.0    0.05    1.00    1.43     0.64688    73.86502    -9.51669
   379  H   1.0    0.05    1.00    1.43     2.23444    75.16944   -12.13565
   380  H   1.0    0.04    1.00    1.43     1.96585    71.86059   -11.83964
   381  N   5.0   -0.14    3.48    2.07    10.37884    69.80614    -6.76674
   382  C   4.0    0.03    4.51    4.55    10.60789    67.33825    -5.59993
   383  C   4.0    0.15    3.46    3.10     8.07993    66.75711    -4.33654
   384  O   6.0   -0.29    1.24    1.80     6.88980    68.42479    -3.23823
   385  C   4.0   -0.02    4.34    4.27    12.73736    67.30234    -3.61754
   386  C   4.0   -0.05    4.19    3.99    15.27778    67.89780    -4.87210
   387  C   4.0   -0.07    4.14    3.88    12.79451    64.72468    -2.32452
   388  C   4.0   -0.08    4.01    3.64    17.32842    68.56750    -2.96731
   389  H   1.0    0.09    1.06    1.44    10.18938    71.27828    -5.54801
   390  H   1.0    0.06    1.06    1.44    10.98801    65.93986    -7.07023
   391  H   1.0    0.05    1.05    1.44    12.32610    68.78602    -2.23288
   392  H   1.0    0.04    1.03    1.43    15.86355    66.26621    -5.98776
   393  H   1.0    0.05    1.03    1.43    15.02752    69.49108    -6.16022
   394  H   1.0    0.04    1.00    1.43    14.36319    64.60460    -1.00842
   395  H   1.0    0.06    1.00    1.43    11.06141    64.36245    -1.28372
   396  H   1.0    0.05    1.00    1.43    13.01343    63.24773    -3.73390
   397  H   1.0    0.03    1.00    1.43    19.06629    69.04098    -3.95350
   398  H   1.0    0.05    1.00    1.43    16.76554    70.18471    -1.83172
   399  H   1.0    0.04    1.00    1.43    17.71150    66.98891    -1.71261
   400  N   5.0   -0.14    3.51    2.08     7.28721    64.38200    -4.53629
   401  C   4.0    0.04    4.33    4.26     4.95799    63.51313    -3.41187
   402  C   4.0    0.08    3.27    3.05     5.30159    60.78489    -2.59596
   403  O   6.0   -0.31    1.22    1.80     7.05828    59.49303    -3.36859
   404  C   4.0   -0.03    4.32    4.23     2.75216    63.67760    -5.32573
   405  C   4.0   -0.01    3.59    3.16     3.12545    61.82800    -7.44670
   406  C   4.0   -0.04    3.47    3.10     2.02840    59.44067    -7.35772
   407  C   4.0   -0.03    3.47    3.10     4.63661    62.43710    -9.50198
   408  C   4.0   -0.03    3.43    3.09     2.46363    57.68424    -9.23415
   409  C   4.0   -0.04    3.43    3.09     5.08368    60.70056   -11.40293
   410  C   4.0    0.07    3.45    3.10     4.02876    58.30032   -11.25676
   411  O   6.0   -0.25    2.11    1.84     4.49684    56.49167   -13.02210
   412  H   1.0    0.12    1.10    1.44     8.33896    63.07542    -5.47425
   413  H   1.0    0.06    1.05    1.44     4.54639    64.69910    -1.76627
   414  H   1.0    0.04    1.03    1.43     0.98254    63.30834    -4.33632
   415  H   1.0    0.05    1.03    1.43     2.71527    65.60736    -6.04625
   416  H   1.0    0.06    1.03    1.43     0.80542    58.96100    -5.79482
   417  H   1.0    0.06    1.03    1.43     5.49171    64.28685    -9.62651
   418  H   1.0    0.06    1.03    1.43     1.59579    55.83999    -9.22274
   419  H   1.0    0.06    1.03    1.43     6.28040    61.20363   -12.98251
   420  H   1.0    0.12    1.04    1.43     5.56825    57.17300   -14.33507
   421  N   5.0   -0.18    3.24    1.97    25.42812    79.84412   -10.30472
   422  C   4.0    0.03    4.23    4.05    27.50541    78.10249    -9.98507
   423  C   4.0    0.09    3.21    3.04    29.43906    78.46572   -12.09175
   424  O   6.0   -0.26    1.13    1.80    28.88591    79.41796   -14.14011
   425  C   4.0   -0.05    4.34    4.28    26.56585    75.35137    -9.98974
   426  C   4.0   -0.03    4.19    3.98    24.51351    74.83436    -8.00644
   427  C   4.0   -0.08    4.10    3.80    23.53293    72.13247    -8.26553
   428  C   4.0   -0.07    4.11    3.82    25.53105    75.27452    -5.34230
   429  H   1.0    0.10    1.03    1.43    24.65767    79.93396   -12.05449
   430  H   1.0    0.05    1.05    1.44    28.43032    78.53521    -8.19023
   431  H   1.0    0.04    1.03    1.43    25.83328    74.91224   -11.87108
   432  H   1.0    0.04    1.03    1.43    28.20236    74.14529    -9.63508
   433  H   1.0    0.04    1.06    1.44    22.94168    76.13580    -8.36427
   434  H   1.0    0.04    1.00    1.43    21.93029    71.83740    -7.01465
   435  H   1.0    0.04    1.00    1.43    22.93696    71.76160   -10.19769
   436  H   1.0    0.04    1.00    1.43    25.00740    70.79005    -7.77498
   437  H   1.0    0.05    1.00    1.43    24.21993    74.51201    -3.95752
   438  H   1.0    0.05    1.00    1.43    27.35479    74.34800    -5.14220
   439  H   1.0    0.05    1.00    1.43    25.76692    77.28909    -5.02208
   440  N   5.0   -0.19    3.25    1.97    34.53469    65.69315    -4.87178
   441  C   4.0    0.04    4.39    4.36    33.28134    63.31077    -4.45827
   442  C   4.0    0.16    3.41    3.08    30.92227    63.69814    -2.82757
   443  O   6.0   -0.28    1.23    1.80    30.70989    65.50206    -1.39649
   444  C   4.0    0.05    4.23    4.06    35.05132    61.36281    -3.21247
   445  O   6.0   -0.23    2.12    1.84    35.57597    62.14856    -0.70882
   446  C   4.0   -0.07    4.09    3.79    37.44325    61.04620    -4.78282
   447  H   1.0    0.11    1.02    1.43    35.37878    66.55462    -3.38009
   448  H   1.0    0.05    1.06    1.44    32.71348    62.56842    -6.30037
   449  H   1.0    0.05    1.03    1.43    34.00806    59.55927    -3.15285
   450  H   1.0    0.12    1.03    1.43    37.21984    61.50488    -0.25180
   451  H   1.0    0.05    1.00    1.43    38.70701    59.68340    -3.90877
   452  H   1.0    0.04    1.00    1.43    36.95511    60.38434    -6.66384
   453  H   1.0    0.05    1.00    1.43    38.42451    62.84428    -4.98398
   454  N   5.0   -0.14    3.49    2.07    29.13706    61.93292    -3.12722
   455  C   4.0    0.04    4.40    4.38    26.91202    61.76665    -1.53613
   456  C   4.0    0.08    3.25    3.04    26.68765    59.02326    -0.67324
   457  O   6.0   -0.31    1.18    1.80    27.16492    57.28977    -2.14629
   458  C   4.0   -0.02    4.32    4.23    24.51078    62.58916    -2.98019
   459  C   4.0   -0.05    4.18    3.96    24.70526    65.33135    -3.90410
   460  C   4.0   -0.08    4.14    3.87    22.17760    62.18377    -1.34020
   461  C   4.0   -0.07    4.03    3.66    24.57312    67.30668    -1.81665
   462  H   1.0    0.11    1.09    1.44    29.43942    60.48441    -4.34316
   463  H   1.0    0.05    1.06    1.44    27.20377    62.98406     0.10017
   464  H   1.0    0.04    1.06    1.44    24.38143    61.36022    -4.64354
   465  H   1.0    0.05    1.03    1.43    26.48614    65.54375    -4.92471
   466  H   1.0    0.03    1.03    1.43    23.16538    65.65103    -5.24120
   467  H   1.0    0.04    1.00    1.43    20.51961    62.96054    -2.27131
   468  H   1.0    0.05    1.00    1.43    21.85225    60.17862    -1.02376
   469  H   1.0    0.04    1.00    1.43    22.43077    63.08784     0.48605
   470  H   1.0    0.04    1.00    1.43    24.94317    69.16053    -2.61362
   471  H   1.0    0.04    1.00    1.43    22.72297    67.32353    -0.93078
   472  H   1.0    0.06    1.00    1.43    25.98318    66.91718    -0.38420
   473  N   5.0   -0.19    3.21    1.96     9.16544    51.36653    -2.54950
   474  C   4.0    0.04    4.32    4.24     9.45748    54.02794    -3.11080
   475  C   4.0    0.15    3.45    3.09    10.39558    54.38603    -5.80240
   476  O   6.0   -0.31    1.25    1.80    11.53100    52.71057    -6.93454
   477  C   4.0   -0.03    4.28    4.16    11.22949    55.38480    -1.22614
   478  C   4.0   -0.01    3.69    3.23    13.97555    54.84809    -1.58429
   479  C   4.0   -0.00    3.61    3.17    15.39473    53.07811    -0.35321
   480  C   4.0    0.01    3.90    3.46    15.67983    56.20542    -3.18060
   481  N   5.0   -0.12    3.49    2.07    17.86857    53.22655    -1.08909
   482  C   4.0    0.04    3.91    3.48    18.10551    55.13767    -2.79366
   483  C   4.0   -0.04    3.41    3.08    15.42776    58.25598    -4.81381
   484  C   4.0   -0.05    3.40    3.08    20.24693    56.05886    -3.99984
   485  C   4.0   -0.05    3.38    3.07    17.55296    59.14657    -6.01637
   486  C   4.0   -0.05    3.38    3.07    19.93030    58.06469    -5.62834
   487  H   1.0    0.10    1.03    1.43    10.18232    50.11939    -3.58969
   488  H   1.0    0.06    1.06    1.44     7.59654    54.91381    -2.94437
   489  H   1.0    0.06    1.03    1.43    10.90239    57.41089    -1.42313
   490  H   1.0    0.05    1.03    1.43    10.65323    54.80590     0.66842
   491  H   1.0    0.06    1.02    1.43    14.79129    51.71607     1.01775
   492  H   1.0    0.08    1.05    1.44    19.36016    52.25025    -0.41177
   493  H   1.0    0.07    1.03    1.43    13.61897    59.15047    -5.09270
   494  H   1.0    0.06    1.02    1.43    22.08515    55.24434    -3.62988
   495  H   1.0    0.04    1.03    1.43    17.41080    60.74259    -7.27950
   496  H   1.0    0.04    1.03    1.43    21.54705    58.82752    -6.61001
   497  N   5.0   -0.14    3.41    2.03     9.79727    56.59797    -6.84501
   498  C   4.0    0.02    4.30    4.20    10.58786    57.24608    -9.35192
   499  C   4.0    0.14    3.34    3.06    11.00178    60.06711    -9.60973
   500  O   6.0   -0.32    1.28    1.80    10.70074    61.54658    -7.85108
   501  H   1.0    0.12    1.12    1.45     8.96458    57.97211    -5.81282
   502  H   1.0    0.06    1.03    1.43    12.37150    56.27807    -9.75637
   503  H   1.0    0.06    1.02    1.43     9.19772    56.62645   -10.75461
   504  N   5.0   -0.14    3.51    2.08    11.74126    60.73851   -11.91885
   505  C   4.0    0.04    4.51    4.55    12.54275    63.26939   -12.53668
   506  C   4.0    0.14    3.45    3.09    11.87612    63.78119   -15.28441
   507  O   6.0   -0.32    1.28    1.80    11.86317    62.08440   -16.85678
   508  C   4.0   -0.02    4.34    4.28    15.42304    63.54720   -12.07940
   509  C   4.0   -0.05    4.18    3.96    16.20920    66.32387   -11.95487
   510  C   4.0   -0.07    4.15    3.89    16.93434    62.09316   -14.05640
   511  C   4.0   -0.09    4.02    3.66    18.94249    66.63861   -11.09409
   512  H   1.0    0.11    1.10    1.44    11.91926    59.39009   -13.27517
   513  H   1.0    0.07    1.07    1.44    11.52969    64.58256   -11.30457
   514  H   1.0    0.04    1.06    1.44    15.77277    62.70253   -10.22286
   515  H   1.0    0.04    1.03    1.43    15.97522    67.18236   -13.81404
   516  H   1.0    0.05    1.03    1.43    14.96031    67.31402   -10.64286
   517  H   1.0    0.03    1.00    1.43    18.90811    62.02644   -13.51524
   518  H   1.0    0.05    1.00    1.43    16.23759    60.16778   -14.21071
   519  H   1.0    0.05    1.00    1.43    16.78419    62.99807   -15.89575
   520  H   1.0    0.03    1.00    1.43    19.35188    68.61497   -10.72080
   521  H   1.0    0.03    1.00    1.43    19.27814    65.57948    -9.36569
   522  H   1.0    0.03    1.00    1.43    20.24972    65.98813   -12.53473
   523  N   5.0   -0.14    3.49    2.07    11.38875    66.20371   -15.79182
   524  C   4.0    0.04    4.38    4.34    10.75160    67.14862   -18.27810
   525  C   4.0    0.08    3.24    3.04    12.00332    69.72429   -18.67011
   526  O   6.0   -0.31    1.17    1.80    11.95423    71.38082   -17.04373
   527  C   4.0   -0.02    4.33    4.26     7.85049    67.33799   -18.61310
   528  C   4.0   -0.05    4.20    4.00     7.21257    68.43327   -21.21125
   529  C   4.0   -0.07    4.15    3.89     6.66135    68.88117   -16.49716
   530  C   4.0   -0.08    4.02    3.66     4.39317    68.30816   -21.78463
   531  H   1.0    0.10    1.09    1.44    11.23880    67.44255   -14.33673
   532  H   1.0    0.06    1.06    1.44    11.50478    65.81720   -19.66761
   533  H   1.0    0.04    1.05    1.44     7.12040    65.40263   -18.51756
   534  H   1.0    0.05    1.03    1.43     7.85464    70.39221   -21.32732
   535  H   1.0    0.05    1.03    1.43     8.23540    67.37539   -22.66020
   536  H   1.0    0.03    1.00    1.43     4.61857    68.85951   -16.66906
   537  H   1.0    0.05    1.00    1.43     7.16207    68.09244   -14.66745
   538  H   1.0    0.06    1.00    1.43     7.31674    70.82562   -16.60295
   539  H   1.0    0.04    1.00    1.43     4.04963    68.89349   -23.72363
   540  H   1.0    0.04    1.00    1.43     3.71763    66.38361   -21.55095
   541  H   1.0    0.04    1.00    1.43     3.32507    69.55464   -20.55344
   542  N   5.0   -0.17    3.24    1.96    -7.15270    60.44524   -17.80496
   543  C   4.0    0.03    4.24    4.07    -6.16414    62.16167   -15.91434
   544  C   4.0    0.09    3.22    3.04    -7.74174    64.58568   -16.04796
   545  O   6.0   -0.27    1.14    1.80    -7.93741    65.73030   -18.06198
   546  C   4.0   -0.04    4.35    4.30    -3.38628    62.74079   -16.45080
   547  C   4.0   -0.02    4.18    3.96    -2.13235    64.29320   -14.35129
   548  C   4.0   -0.07    4.11    3.82    -2.03161    62.80881   -11.87569
   549  C   4.0   -0.08    4.10    3.81     0.52745    65.05026   -15.16974
   550  H   1.0    0.13    1.06    1.44    -6.75133    60.84371   -19.63993
   551  H   1.0    0.04    1.05    1.44    -6.40587    61.25857   -14.07532
   552  H   1.0    0.04    1.03    1.43    -2.38059    60.95383   -16.68912
   553  H   1.0    0.05    1.03    1.43    -3.29321    63.76942   -18.24038
   554  H   1.0    0.05    1.05    1.44    -3.25072    66.00955   -14.05126
   555  H   1.0    0.04    1.00    1.43    -0.76538    63.73078   -10.55129
   556  H   1.0    0.05    1.00    1.43    -3.88367    62.67002   -11.00019
   557  H   1.0    0.05    1.00    1.43    -1.32041    60.90637   -12.19867
   558  H   1.0    0.04    1.00    1.43     1.40037    66.22395   -13.73052
   559  H   1.0    0.04    1.00    1.43     1.68238    63.37130   -15.42909
   560  H   1.0    0.04    1.00    1.43     0.47099    66.09329   -16.93958
   561  N   5.0   -0.18    3.21    1.96    -4.67198    66.29091   -23.36825
   562  C   4.0    0.03    4.24    4.08    -3.40080    64.43455   -24.93787
   563  C   4.0    0.15    3.39    3.07    -4.70021    61.85449   -24.82179
   564  O   6.0   -0.29    1.26    1.80    -6.16676    61.27001   -23.12252
   565  C   4.0   -0.08    4.13    3.85    -0.64289    64.16325   -24.08953
   566  H   1.0    0.12    1.03    1.43    -5.75003    65.64682   -21.92663
   567  H   1.0    0.05    1.05    1.44    -3.43785    65.14250   -26.88414
   568  H   1.0    0.05    1.01    1.43     0.30822    62.66204   -25.11884
   569  H   1.0    0.04    1.00    1.43     0.33089    65.93531   -24.43223
   570  H   1.0    0.04    1.00    1.43    -0.57625    63.72871   -22.08172
   571  N   5.0   -0.14    3.47    2.06    -4.09978    60.33641   -26.75871
   572  C   4.0    0.04    4.36    4.30    -4.70877    57.67629   -26.88821
   573  C   4.0    0.26    3.14    3.03    -2.24138    55.98206   -26.53047
   574  O   6.0   -0.26    1.17    1.80    -2.60805    53.66839   -26.48516
   575  C   4.0   -0.02    4.30    4.20    -5.92197    57.00664   -29.43260
   576  C   4.0    0.17    3.24    3.04    -8.48089    58.27604   -29.63706
   577  O   6.0   -0.24    1.19    1.80   -10.42899    57.31844   -28.85755
   578  N   5.0   -0.17    3.19    1.95    -8.44121    60.56004   -30.76426
   579  O   6.0   -0.29    1.19    1.80    -0.22045    57.14586   -26.34747
   580  H   1.0    0.08    1.08    1.44    -2.59177    60.83080   -27.82559
   581  H   1.0    0.08    1.05    1.44    -6.01714    57.22732   -25.34886
   582  H   1.0    0.06    1.03    1.43    -4.67170    57.58317   -30.96524
   583  H   1.0    0.08    1.03    1.43    -6.15493    54.95951   -29.47058
   584  H   1.0    0.12    1.03    1.43   -10.03564    61.60068   -30.79325
   585  H   1.0    0.09    1.03    1.43    -6.80416    61.39491   -31.24374
   586  H   1.0    0.09    1.08    1.44    -3.51721    67.30676   -22.64224
   587  H   1.0    0.06    1.04    1.43    13.04333    48.24708   -10.20653
   588  H   1.0    0.10    1.07    1.44    18.10191    40.49949   -11.64157
   589  H   1.0    0.06    1.05    1.44    18.23309    60.82539   -37.15074
   590  H   1.0    0.09    1.10    1.44    27.79286    61.30070   -34.96753
   591  H   1.0    0.06    1.05    1.44    33.39448    45.17867    -8.19779
   592  H   1.0    0.10    1.07    1.44    25.96148    49.15859    -1.49849
   593  H   1.0    0.07    1.04    1.43    32.20267    70.51073   -23.10984
   594  H   1.0    0.10    1.08    1.44    17.28959    77.93901   -15.11883
   595  H   1.0    0.06    1.05    1.44     4.07400    59.99602    -1.39522
   596  H   1.0    0.09    1.09    1.44    24.15930    79.41272    -9.25756
   597  H   1.0    0.06    1.05    1.44    31.23044    77.92202   -11.83409
   598  H   1.0    0.09    1.08    1.44    35.77736    65.48998    -6.01504
   599  H   1.0    0.05    1.04    1.43    26.15093    58.62996     1.09546
   600  H   1.0    0.10    1.08    1.44     9.61712    51.07367    -0.93619
   601  H   1.0    0.06    1.05    1.44    12.89813    70.10308   -20.29088
   602  H   1.0    0.10    1.07    1.44    -6.53642    58.88378   -17.53184
   603  H   1.0    0.06    1.04    1.43    -8.60992    65.23453   -14.49996

  Z AO/shell   Hii/eV     exponent
  1     Wed Apr 25 08:07:45 CEST 2018   EN: 2.200 GM2: 0.406  GM3: 0.0800  RAES: 1.40
     1s    -10.707211    1.230000
  6     Wed Apr 25 08:07:45 CEST 2018   EN: 2.550 GM2: 0.538  GM3: 0.1500  RAES: 3.00
     2s    -13.970922    2.096432
     2p    -10.063292    1.800000
  7     Wed Apr 25 08:07:45 CEST 2018   EN: 3.040 GM2: 0.461  GM3:-0.0640  RAES: 1.90
     2s    -16.686243    2.339881
     2p    -12.523956    2.014332
  8     Wed Apr 25 08:07:45 CEST 2018   EN: 3.440 GM2: 0.452  GM3:-0.0517  RAES: 1.80
     2s    -20.229985    2.439742
     2p    -15.503117    2.137023
 16     Tue Apr 24 11:44:34 CEST 2018   EN: 2.580 GM2: 0.340  GM3:-0.0502  RAES: 3.10
     3s    -20.029654    1.981333
     3p    -11.377694    2.025643
     3d     -0.420282    1.702555
 no old-style atom pair restraining (fixing) potential

molecular fragmentation (1/2 indicates fragments):
111111111111111111111111111111111111111111111111111111111111111111111111
111222222222222222222222222222222222222222222222222222222222222222222222
222222222211111111111111111111111111111111111111111111111111111111111111
111111111111111111111111111111222222222222222222222222222222222222222222
222222222222222222222222222222222222222222222222222222222222222222222222
222222222222222222222222222222222222222222222222222222222222222222222222
222222222222222222222222222222222222222222222222222222222222222222222222
222222222222222222222222222222222222222222222222222222222222222222222222
222222222212211222222222222
# atoms in fragment 1/2:   170   433
 fragment masses (1/2) :     1176.54     2879.59
CMA distance (Bohr)    :   9.289
constraining FC (au)   :  0.0500
           ------------------------------------------------- 
          |        Self-Consistent Charge Iterations        |
           ------------------------------------------------- 

 Ncao       : 1473
 Nao        : 1469
 Nshell     : 889
 Nel        : 1588
 T(el)      :   500.0
 intcut     :    35.0
 scfconv/Eh :  0.100E-06
   qconv/e  :  0.100E-04
 intneglect :  0.100E-08
 broydamp   :      0.400
 iter      E             dE          RMSdq      gap      omega  full diag
   1   -901.2637516 -0.901264E+03  0.441E+00    2.74       0.0  T
   2   -903.2169737 -0.195322E+01  0.209E+00    1.24       1.0  T
   3   -903.3282048 -0.111231E+00  0.117E+00    1.34       1.0  T
   4   -903.4536094 -0.125405E+00  0.262E-01    0.83       1.0  T
   5   -903.4612426 -0.763324E-02  0.139E-01    1.07       1.0  T
   6   -903.4639355 -0.269288E-02  0.698E-02    1.10       1.0  T
   7   -903.4647738 -0.838293E-03  0.338E-02    1.09       1.0  T
   8   -903.4648985 -0.124774E-03  0.197E-02    1.10       1.0  T
   9   -903.4649368 -0.382575E-04  0.107E-02    1.10       1.0  T
  10   -903.4649461 -0.931252E-05  0.636E-03    1.11       1.0  T
  11   -903.4649500 -0.384394E-05  0.331E-03    1.11       1.2  T
  12   -903.4649511 -0.113212E-05  0.174E-03    1.11       2.3  T
  13   -903.4649514 -0.319974E-06  0.805E-04    1.11       5.1  T
  14   -903.4649514 -0.405131E-07  0.368E-04    1.11      11.1  T
  15   -903.4649515 -0.159505E-07  0.182E-04    1.11      22.4  T
  16   -903.4649515 -0.291004E-08  0.940E-05    1.11      43.3  T
  17   -903.4649515 -0.994305E-09  0.450E-05    1.11      90.5  T
speedup  1.98
cpu  time for SCC   22.21 s
wall time for SCC   11.23 s

   *** convergence criteria satisfied after 17 iterations ***

          eigenvalues
 #    :         782        783        784        785        786        787        788        789
 occ. :        2.000      2.000      2.000      2.000      2.000      2.000      2.000      2.000
 eps  :       -10.064     -9.886     -9.845     -9.817     -9.791     -9.754     -9.720     -9.688
 #    :         790        791        792        793        794        795        796        797
 occ. :        2.000      2.000      2.000      2.000      2.000      0.000      0.000      0.000
 eps  :        -9.516     -9.506     -9.505     -9.424     -9.403     -8.296     -8.254     -8.155
 #    :         798        799        800        801        802        803        804        805
 occ. :        0.000      0.000      0.000      0.000      0.000      0.000      0.000      0.000
 eps  :        -8.132     -8.113     -8.113     -7.984     -7.824     -7.711     -7.100     -6.825


   #   Z            q   n(s)   n(p)   n(d)      C6AA      α(0)
   1   7 N     -0.060  1.237  3.823  0.000    22.395     7.029
   2   6 C     -0.029  1.083  2.946  0.000    21.082     6.536
   3   6 C      0.267  1.032  2.700  0.000    22.488     7.765
   4   8 O     -0.456  1.740  4.716  0.000    22.825     6.405
   5   6 C     -0.083  1.056  3.027  0.000    22.052     6.682
   6   6 C     -0.086  1.052  3.034  0.000    22.123     6.693
   7   6 C     -0.044  1.063  2.981  0.000    21.401     6.594
   8   1 H      0.280  0.720  0.000  0.000     0.774     1.379
   9   1 H      0.287  0.713  0.000  0.000     0.755     1.361
  10   1 H      0.129  0.871  0.000  0.000     1.544     1.943
  11   1 H      0.081  0.919  0.000  0.000     1.973     2.197
  12   1 H      0.095  0.905  0.000  0.000     1.831     2.116
  13   1 H      0.090  0.910  0.000  0.000     1.879     2.144
  14   1 H      0.090  0.910  0.000  0.000     1.876     2.142
  15   1 H      0.112  0.888  0.000  0.000     1.678     2.026
  16   1 H      0.116  0.884  0.000  0.000     1.643     2.004
  17   7 N     -0.150  1.233  3.917  0.000    24.256     7.315
  18   6 C     -0.002  1.066  2.936  0.000    20.599     6.458
  19   6 C      0.268  1.037  2.695  0.000    22.473     7.764
  20   8 O     -0.476  1.741  4.735  0.000    23.252     6.465
  21   6 C     -0.041  1.082  2.959  0.000    21.312     6.573
  22  16 S     -0.109  1.924  4.108  0.078   145.634    20.311
  23   1 H      0.226  0.774  0.000  0.000     0.983     1.553
  24   1 H      0.103  0.897  0.000  0.000     1.754     2.071
  25   1 H      0.084  0.916  0.000  0.000     1.943     2.180
  26   1 H      0.085  0.915  0.000  0.000     1.930     2.172
  27   7 N     -0.164  1.243  3.921  0.000    24.547     7.358
  28   6 C      0.009  1.062  2.929  0.000    20.430     6.435
  29   6 C      0.267  1.041  2.692  0.000    22.490     7.766
  30   8 O     -0.487  1.734  4.753  0.000    23.496     6.499
  31   6 C     -0.074  1.055  3.020  0.000    21.888     6.655
  32   6 C     -0.013  1.063  2.950  0.000    20.813     6.497
  33  16 S     -0.204  1.914  4.240  0.050   149.752    20.596
  34   6 C     -0.046  1.046  3.000  0.000    21.469     6.609
  35   1 H      0.236  0.764  0.000  0.000     0.939     1.518
  36   1 H      0.091  0.909  0.000  0.000     1.870     2.138
  37   1 H      0.068  0.932  0.000  0.000     2.112     2.273
  38   1 H      0.080  0.920  0.000  0.000     1.975     2.198
  39   1 H      0.064  0.936  0.000  0.000     2.154     2.295
  40   1 H      0.040  0.960  0.000  0.000     2.452     2.449
  41   1 H      0.037  0.963  0.000  0.000     2.483     2.464
  42   1 H      0.043  0.957  0.000  0.000     2.406     2.426
  43   1 H      0.053  0.947  0.000  0.000     2.279     2.361
  44   7 N     -0.168  1.240  3.928  0.000    24.628     7.370
  45   6 C      0.012  1.059  2.929  0.000    20.378     6.428
  46   6 C      0.266  1.043  2.691  0.000    22.509     7.769
  47   8 O     -0.485  1.735  4.750  0.000    23.453     6.493
  48   6 C     -0.125  1.043  3.082  0.000    22.949     6.830
  49   1 H      0.225  0.775  0.000  0.000     0.988     1.557
  50   1 H      0.090  0.910  0.000  0.000     1.882     2.146
  51   1 H      0.079  0.921  0.000  0.000     1.990     2.206
  52   1 H      0.060  0.940  0.000  0.000     2.196     2.318
  53   1 H      0.058  0.942  0.000  0.000     2.223     2.332
  54   7 N     -0.165  1.240  3.924  0.000    24.559     7.360
  55   6 C      0.020  1.058  2.922  0.000    20.254     6.409
  56   6 C      0.204  1.093  2.702  0.000    23.660     7.966
  57   8 O     -0.359  1.737  4.622  0.000    20.882     6.127
  58   6 C     -0.076  1.059  3.017  0.000    21.942     6.668
  59   6 C     -0.076  1.051  3.025  0.000    21.953     6.671
  60   6 C     -0.095  1.055  3.040  0.000    22.316     6.725
  61   6 C     -0.049  1.059  2.990  0.000    21.548     6.626
  62   7 N     -0.145  1.243  3.902  0.000    24.131     7.296
  63   1 H      0.225  0.775  0.000  0.000     0.986     1.556
  64   1 H      0.102  0.898  0.000  0.000     1.770     2.080
  65   1 H      0.072  0.928  0.000  0.000     2.063     2.246
  66   1 H      0.064  0.936  0.000  0.000     2.154     2.295
  67   1 H      0.056  0.944  0.000  0.000     2.243     2.342
  68   1 H      0.065  0.935  0.000  0.000     2.137     2.286
  69   1 H      0.080  0.920  0.000  0.000     1.975     2.197
  70   1 H      0.072  0.928  0.000  0.000     2.060     2.245
  71   1 H      0.118  0.882  0.000  0.000     1.631     1.997
  72   1 H      0.119  0.881  0.000  0.000     1.619     1.990
  73   1 H      0.297  0.703  0.000  0.000     0.723     1.332
  74   1 H      0.305  0.695  0.000  0.000     0.701     1.314
  75   1 H      0.289  0.711  0.000  0.000     0.747     1.354
  76   7 N     -0.394  1.321  4.073  0.000    30.214     8.164
  77   6 C      0.026  1.063  2.911  0.000    20.157     6.395
  78   6 C      0.270  1.047  2.682  0.000    22.433     7.756
  79   8 O     -0.493  1.750  4.743  0.000    23.637     6.518
  80   6 C     -0.073  1.054  3.019  0.000    21.897     6.661
  81   6 C     -0.037  1.067  2.970  0.000    28.872     8.813
  82   6 C     -0.015  1.068  2.947  0.000    28.341     8.732
  83   6 C     -0.024  1.073  2.951  0.000    28.440     8.735
  84   7 N     -0.102  1.222  3.880  0.000    23.245     7.161
  85   6 C      0.045  1.061  2.894  0.000    26.892     8.500
  86   6 C     -0.047  1.076  2.971  0.000    29.156     8.854
  87   6 C     -0.054  1.073  2.981  0.000    29.350     8.883
  88   6 C     -0.049  1.074  2.975  0.000    29.220     8.864
  89   6 C     -0.042  1.076  2.966  0.000    29.045     8.838
  90   1 H      0.161  0.839  0.000  0.000     1.329     1.806
  91   1 H      0.052  0.948  0.000  0.000     2.299     2.371
  92   1 H      0.058  0.942  0.000  0.000     2.221     2.330
  93   1 H      0.047  0.953  0.000  0.000     2.363     2.404
  94   1 H      0.047  0.953  0.000  0.000     2.359     2.402
  95   1 H      0.184  0.816  0.000  0.000     1.191     1.709
  96   1 H      0.026  0.974  0.000  0.000     2.644     2.543
  97   1 H      0.032  0.968  0.000  0.000     2.562     2.503
  98   1 H      0.017  0.983  0.000  0.000     2.781     2.608
  99   1 H      0.023  0.977  0.000  0.000     2.690     2.565
 100   7 N     -0.184  1.247  3.937  0.000    24.992     7.425
 101   6 C      0.013  1.064  2.923  0.000    20.360     6.426
 102   6 C      0.265  1.046  2.689  0.000    22.537     7.774
 103   8 O     -0.465  1.727  4.738  0.000    23.023     6.433
 104   6 C     -0.072  1.056  3.015  0.000    21.866     6.657
 105   6 C     -0.099  1.056  3.043  0.000    22.388     6.736
 106   6 C      0.288  1.038  2.673  0.000    22.114     7.700
 107   8 O     -0.518  1.762  4.756  0.000    24.197     6.595
 108   7 N     -0.277  1.261  4.016  0.000    27.158     7.740
 109   1 H      0.225  0.775  0.000  0.000     0.987     1.556
 110   1 H      0.074  0.926  0.000  0.000     2.047     2.238
 111   1 H      0.069  0.931  0.000  0.000     2.094     2.263
 112   1 H      0.057  0.943  0.000  0.000     2.240     2.340
 113   1 H      0.061  0.939  0.000  0.000     2.182     2.310
 114   1 H      0.073  0.927  0.000  0.000     2.052     2.240
 115   1 H      0.229  0.771  0.000  0.000     0.971     1.544
 116   1 H      0.227  0.773  0.000  0.000     0.979     1.550
 117   7 N     -0.161  1.238  3.924  0.000    24.494     7.350
 118   6 C      0.006  1.067  2.927  0.000    20.477     6.444
 119   6 C      0.271  1.040  2.688  0.000    22.414     7.753
 120   8 O     -0.490  1.751  4.739  0.000    23.555     6.507
 121   6 C     -0.069  1.055  3.014  0.000    21.797     6.642
 122   6 C     -0.018  1.067  2.951  0.000    20.906     6.511
 123  16 S     -0.206  1.911  4.249  0.046   149.822    20.601
 124   6 C     -0.063  1.052  3.011  0.000    21.779     6.657
 125   1 H      0.210  0.790  0.000  0.000     1.058     1.611
 126   1 H      0.091  0.909  0.000  0.000     1.868     2.137
 127   1 H      0.070  0.930  0.000  0.000     2.091     2.261
 128   1 H      0.054  0.946  0.000  0.000     2.274     2.358
 129   1 H      0.058  0.942  0.000  0.000     2.227     2.334
 130   1 H      0.075  0.925  0.000  0.000     2.036     2.231
 131   1 H      0.063  0.937  0.000  0.000     2.166     2.301
 132   1 H      0.048  0.952  0.000  0.000     2.348     2.396
 133   1 H      0.051  0.949  0.000  0.000     2.309     2.376
 134   7 N     -0.182  1.245  3.937  0.000    24.950     7.419
 135   6 C      0.022  1.059  2.919  0.000    20.209     6.402
 136   6 C      0.267  1.045  2.688  0.000    22.496     7.767
 137   8 O     -0.466  1.727  4.739  0.000    23.038     6.435
 138   6 C     -0.122  1.041  3.081  0.000    22.903     6.824
 139   1 H      0.232  0.768  0.000  0.000     0.958     1.533
 140   1 H      0.065  0.935  0.000  0.000     2.139     2.287
 141   1 H      0.064  0.936  0.000  0.000     2.148     2.292
 142   1 H      0.058  0.942  0.000  0.000     2.220     2.330
 143   1 H      0.066  0.934  0.000  0.000     2.132     2.283
 144   7 N     -0.151  1.232  3.919  0.000    24.262     7.316
 145   6 C      0.004  1.065  2.931  0.000    20.527     6.453
 146   6 C      0.198  1.079  2.723  0.000    23.790     7.988
 147   8 O     -0.359  1.759  4.600  0.000    20.888     6.128
 148   6 C      0.066  1.041  2.893  0.000    19.694     6.358
 149   8 O     -0.449  1.715  4.734  0.000    21.815     6.305
 150   1 H      0.220  0.780  0.000  0.000     1.011     1.575
 151   1 H      0.126  0.874  0.000  0.000     1.567     1.958
 152   1 H      0.050  0.950  0.000  0.000     2.318     2.381
 153   1 H      0.087  0.913  0.000  0.000     1.908     2.160
 154   1 H      0.320  0.680  0.000  0.000     0.664     1.280
 155   7 N     -0.283  1.260  4.023  0.000    27.294     7.759
 156   6 C      0.017  1.067  2.916  0.000    20.272     6.408
 157   6 C      0.272  1.050  2.678  0.000    22.399     7.750
 158   8 O     -0.477  1.757  4.720  0.000    23.273     6.468
 159   6 C     -0.064  1.055  3.009  0.000    21.713     6.631
 160   6 C     -0.066  1.053  3.013  0.000    21.737     6.633
 161   6 C      0.013  1.044  2.942  0.000    20.385     6.435
 162   1 H      0.041  0.959  0.000  0.000     2.439     2.442
 163   1 H      0.037  0.963  0.000  0.000     2.483     2.464
 164   1 H      0.061  0.939  0.000  0.000     2.184     2.311
 165   1 H      0.039  0.961  0.000  0.000     2.459     2.452
 166   1 H      0.047  0.953  0.000  0.000     2.352     2.398
 167   1 H      0.029  0.971  0.000  0.000     2.597     2.520
 168   1 H      0.033  0.967  0.000  0.000     2.547     2.496
 169   7 N     -0.204  1.244  3.959  0.000    25.428     7.489
 170   6 C      0.024  1.055  2.922  0.000    20.165     6.391
 171   6 C      0.270  1.041  2.690  0.000    22.446     7.758
 172   8 O     -0.490  1.740  4.750  0.000    23.565     6.508
 173   6 C     -0.036  1.072  2.963  0.000    21.215     6.558
 174  16 S     -0.093  1.937  4.067  0.090   144.928    20.262
 175   1 H      0.206  0.794  0.000  0.000     1.076     1.625
 176   1 H      0.078  0.922  0.000  0.000     1.999     2.211
 177   1 H      0.087  0.913  0.000  0.000     1.911     2.162
 178   1 H      0.075  0.925  0.000  0.000     2.031     2.228
 179   7 N     -0.151  1.231  3.920  0.000    24.263     7.316
 180   6 C      0.014  1.063  2.923  0.000    20.346     6.423
 181   6 C      0.269  1.042  2.688  0.000    22.450     7.759
 182   8 O     -0.478  1.739  4.740  0.000    23.312     6.473
 183   6 C     -0.020  1.063  2.957  0.000    20.898     6.502
 184   6 C     -0.114  1.038  3.076  0.000    22.732     6.798
 185   6 C     -0.121  1.038  3.082  0.000    22.869     6.819
 186   1 H      0.213  0.787  0.000  0.000     1.042     1.599
 187   1 H      0.066  0.934  0.000  0.000     2.127     2.281
 188   1 H      0.056  0.944  0.000  0.000     2.248     2.345
 189   1 H      0.064  0.936  0.000  0.000     2.156     2.296
 190   1 H      0.034  0.966  0.000  0.000     2.526     2.486
 191   1 H      0.043  0.957  0.000  0.000     2.404     2.425
 192   1 H      0.062  0.938  0.000  0.000     2.170     2.304
 193   1 H      0.050  0.950  0.000  0.000     2.320     2.382
 194   1 H      0.046  0.954  0.000  0.000     2.374     2.409
 195   7 N     -0.179  1.242  3.936  0.000    24.866     7.406
 196   6 C      0.026  1.055  2.919  0.000    20.133     6.389
 197   6 C      0.275  1.042  2.683  0.000    22.355     7.743
 198   8 O     -0.491  1.736  4.755  0.000    23.583     6.511
 199   6 C     -0.092  1.057  3.035  0.000    22.247     6.714
 200   6 C      0.289  1.036  2.674  0.000    22.097     7.697
 201   8 O     -0.463  1.725  4.738  0.000    22.978     6.427
 202   7 N     -0.280  1.263  4.017  0.000    27.231     7.750
 203   1 H      0.220  0.780  0.000  0.000     1.010     1.574
 204   1 H      0.093  0.907  0.000  0.000     1.851     2.127
 205   1 H      0.072  0.928  0.000  0.000     2.067     2.248
 206   1 H      0.047  0.953  0.000  0.000     2.363     2.404
 207   1 H      0.246  0.754  0.000  0.000     0.898     1.485
 208   1 H      0.210  0.790  0.000  0.000     1.054     1.608
 209   7 N     -0.168  1.264  3.904  0.000    24.645     7.373
 210   6 C      0.017  1.063  2.921  0.000    20.292     6.414
 211   6 C      0.278  1.042  2.680  0.000    22.301     7.734
 212   8 O     -0.498  1.756  4.743  0.000    23.751     6.534
 213   6 C     -0.084  1.059  3.025  0.000    22.095     6.691
 214   6 C     -0.086  1.051  3.035  0.000    22.137     6.698
 215   6 C     -0.096  1.055  3.041  0.000    22.329     6.727
 216   6 C     -0.054  1.060  2.994  0.000    21.633     6.639
 217   7 N     -0.149  1.231  3.918  0.000    24.209     7.308
 218   1 H      0.238  0.762  0.000  0.000     0.931     1.512
 219   1 H      0.073  0.927  0.000  0.000     2.055     2.242
 220   1 H      0.066  0.934  0.000  0.000     2.133     2.284
 221   1 H      0.071  0.929  0.000  0.000     2.076     2.253
 222   1 H      0.074  0.926  0.000  0.000     2.038     2.233
 223   1 H      0.069  0.931  0.000  0.000     2.095     2.264
 224   1 H      0.081  0.919  0.000  0.000     1.966     2.193
 225   1 H      0.085  0.915  0.000  0.000     1.931     2.173
 226   1 H      0.121  0.879  0.000  0.000     1.605     1.981
 227   1 H      0.111  0.889  0.000  0.000     1.691     2.034
 228   1 H      0.299  0.701  0.000  0.000     0.715     1.325
 229   1 H      0.298  0.702  0.000  0.000     0.720     1.330
 230   1 H      0.299  0.701  0.000  0.000     0.715     1.325
 231   7 N     -0.188  1.249  3.939  0.000    25.074     7.437
 232   6 C      0.021  1.061  2.918  0.000    20.230     6.404
 233   6 C      0.202  1.086  2.712  0.000    23.706     7.974
 234   8 O     -0.362  1.759  4.603  0.000    20.929     6.134
 235   6 C     -0.018  1.062  2.956  0.000    20.855     6.495
 236   6 C     -0.124  1.041  3.082  0.000    22.927     6.827
 237   6 C     -0.106  1.036  3.069  0.000    22.575     6.775
 238   1 H      0.230  0.770  0.000  0.000     0.967     1.540
 239   1 H      0.084  0.916  0.000  0.000     1.937     2.176
 240   1 H      0.062  0.938  0.000  0.000     2.177     2.308
 241   1 H      0.068  0.932  0.000  0.000     2.102     2.267
 242   1 H      0.053  0.947  0.000  0.000     2.285     2.364
 243   1 H      0.044  0.956  0.000  0.000     2.392     2.419
 244   1 H      0.042  0.958  0.000  0.000     2.427     2.436
 245   1 H      0.036  0.964  0.000  0.000     2.502     2.474
 246   1 H      0.031  0.969  0.000  0.000     2.566     2.505
 247   7 N     -0.380  1.318  4.062  0.000    29.827     8.111
 248   6 C      0.020  1.060  2.920  0.000    20.249     6.409
 249   6 C      0.269  1.047  2.684  0.000    22.459     7.760
 250   8 O     -0.489  1.732  4.757  0.000    23.541     6.505
 251   6 C     -0.079  1.060  3.019  0.000    21.995     6.676
 252   6 C     -0.073  1.050  3.023  0.000    21.896     6.662
 253   6 C     -0.097  1.056  3.041  0.000    22.349     6.730
 254   6 C     -0.043  1.055  2.988  0.000    21.442     6.610
 255   7 N     -0.147  1.241  3.907  0.000    24.178     7.303
 256   1 H      0.155  0.845  0.000  0.000     1.366     1.831
 257   1 H      0.057  0.943  0.000  0.000     2.233     2.337
 258   1 H      0.055  0.945  0.000  0.000     2.255     2.348
 259   1 H      0.045  0.955  0.000  0.000     2.383     2.414
 260   1 H      0.037  0.963  0.000  0.000     2.486     2.466
 261   1 H      0.048  0.952  0.000  0.000     2.340     2.392
 262   1 H      0.084  0.916  0.000  0.000     1.941     2.178
 263   1 H      0.079  0.921  0.000  0.000     1.986     2.204
 264   1 H      0.101  0.899  0.000  0.000     1.776     2.084
 265   1 H      0.104  0.896  0.000  0.000     1.753     2.070
 266   1 H      0.295  0.705  0.000  0.000     0.727     1.336
 267   1 H      0.310  0.690  0.000  0.000     0.687     1.299
 268   1 H      0.299  0.701  0.000  0.000     0.716     1.325
 269   7 N     -0.174  1.245  3.929  0.000    24.774     7.392
 270   6 C      0.017  1.061  2.922  0.000    20.292     6.415
 271   6 C      0.270  1.045  2.685  0.000    22.432     7.756
 272   8 O     -0.491  1.735  4.756  0.000    23.577     6.510
 273   6 C     -0.074  1.063  3.012  0.000    21.908     6.662
 274   6 C     -0.012  1.055  2.957  0.000    20.748     6.479
 275   6 C     -0.122  1.040  3.082  0.000    22.895     6.822
 276   6 C     -0.120  1.043  3.077  0.000    22.855     6.815
 277   1 H      0.221  0.779  0.000  0.000     1.006     1.572
 278   1 H      0.078  0.922  0.000  0.000     1.999     2.211
 279   1 H      0.073  0.927  0.000  0.000     2.048     2.238
 280   1 H      0.042  0.958  0.000  0.000     2.417     2.431
 281   1 H      0.015  0.985  0.000  0.000     2.806     2.620
 282   1 H      0.046  0.954  0.000  0.000     2.377     2.411
 283   1 H      0.034  0.966  0.000  0.000     2.524     2.485
 284   1 H      0.057  0.943  0.000  0.000     2.233     2.337
 285   1 H      0.052  0.948  0.000  0.000     2.294     2.368
 286   1 H      0.056  0.944  0.000  0.000     2.251     2.346
 287   1 H      0.035  0.965  0.000  0.000     2.514     2.480
 288   7 N     -0.180  1.247  3.933  0.000    24.896     7.411
 289   6 C      0.029  1.058  2.913  0.000    20.091     6.382
 290   6 C      0.271  1.044  2.686  0.000    22.427     7.755
 291   8 O     -0.481  1.731  4.751  0.000    23.377     6.482
 292   6 C     -0.047  1.049  2.999  0.000    21.414     6.587
 293   6 C     -0.088  1.064  3.025  0.000    22.189     6.707
 294   6 C      0.373  1.023  2.603  0.000    20.675     7.441
 295   8 O     -0.634  1.764  4.870  0.000    26.971     6.963
 296   8 O     -0.661  1.781  4.880  0.000    27.671     7.053
 297   1 H      0.230  0.770  0.000  0.000     0.964     1.538
 298   1 H      0.055  0.945  0.000  0.000     2.256     2.349
 299   1 H      0.050  0.950  0.000  0.000     2.324     2.384
 300   1 H      0.041  0.959  0.000  0.000     2.434     2.440
 301   1 H      0.008  0.992  0.000  0.000     2.915     2.670
 302   1 H      0.014  0.986  0.000  0.000     2.823     2.628
 303   7 N     -0.157  1.240  3.918  0.000    24.406     7.337
 304   6 C      0.024  1.062  2.913  0.000    20.169     6.394
 305   6 C      0.276  1.042  2.682  0.000    22.333     7.739
 306   8 O     -0.523  1.765  4.758  0.000    24.294     6.608
 307   6 C     -0.020  1.063  2.957  0.000    20.890     6.500
 308   6 C     -0.067  1.051  3.016  0.000    21.786     6.645
 309   6 C     -0.113  1.036  3.077  0.000    22.723     6.797
 310   6 C     -0.116  1.036  3.080  0.000    22.781     6.807
 311   1 H      0.196  0.804  0.000  0.000     1.128     1.664
 312   1 H      0.077  0.923  0.000  0.000     2.010     2.217
 313   1 H      0.035  0.965  0.000  0.000     2.522     2.483
 314   1 H      0.034  0.966  0.000  0.000     2.524     2.485
 315   1 H      0.056  0.944  0.000  0.000     2.252     2.347
 316   1 H      0.054  0.946  0.000  0.000     2.269     2.355
 317   1 H      0.022  0.978  0.000  0.000     2.707     2.573
 318   1 H      0.061  0.939  0.000  0.000     2.186     2.312
 319   1 H      0.060  0.940  0.000  0.000     2.193     2.316
 320   1 H      0.051  0.949  0.000  0.000     2.303     2.373
 321   1 H      0.039  0.961  0.000  0.000     2.469     2.457
 322   7 N     -0.193  1.256  3.938  0.000    25.191     7.454
 323   6 C      0.032  1.054  2.914  0.000    20.047     6.376
 324   6 C      0.201  1.086  2.714  0.000    23.730     7.978
 325   8 O     -0.367  1.757  4.610  0.000    21.028     6.148
 326   6 C     -0.063  1.058  3.005  0.000    21.698     6.630
 327   6 C     -0.000  1.054  2.946  0.000    20.548     6.448
 328   6 C     -0.110  1.041  3.069  0.000    22.648     6.785
 329   6 C     -0.095  1.033  3.062  0.000    22.367     6.743
 330   1 H      0.239  0.761  0.000  0.000     0.927     1.508
 331   1 H      0.082  0.918  0.000  0.000     1.957     2.188
 332   1 H      0.053  0.947  0.000  0.000     2.287     2.365
 333   1 H      0.060  0.940  0.000  0.000     2.202     2.321
 334   1 H      0.025  0.975  0.000  0.000     2.662     2.551
 335   1 H      0.045  0.955  0.000  0.000     2.387     2.416
 336   1 H      0.045  0.955  0.000  0.000     2.385     2.415
 337   1 H      0.050  0.950  0.000  0.000     2.325     2.384
 338   1 H      0.039  0.961  0.000  0.000     2.465     2.455
 339   1 H      0.036  0.964  0.000  0.000     2.499     2.472
 340   1 H      0.011  0.989  0.000  0.000     2.870     2.649
 341   7 N     -0.387  1.322  4.065  0.000    30.012     8.136
 342   6 C      0.028  1.062  2.909  0.000    20.113     6.387
 343   6 C      0.274  1.044  2.682  0.000    22.374     7.746
 344   8 O     -0.505  1.753  4.753  0.000    23.901     6.555
 345   6 C     -0.070  1.056  3.015  0.000    21.831     6.650
 346   6 C      0.002  1.078  2.920  0.000    27.980     8.676
 347   6 C     -0.039  1.079  2.960  0.000    28.973     8.827
 348   6 C     -0.038  1.082  2.957  0.000    28.949     8.824
 349   6 C     -0.074  1.077  2.996  0.000    29.839     8.958
 350   6 C     -0.059  1.073  2.985  0.000    29.457     8.900
 351   6 C      0.142  1.044  2.814  0.000    24.907     8.179
 352   8 O     -0.419  1.711  4.708  0.000    21.223     6.219
 353   1 H      0.155  0.845  0.000  0.000     1.369     1.833
 354   1 H      0.059  0.941  0.000  0.000     2.215     2.327
 355   1 H      0.043  0.957  0.000  0.000     2.413     2.429
 356   1 H      0.045  0.955  0.000  0.000     2.384     2.414
 357   1 H      0.030  0.970  0.000  0.000     2.588     2.515
 358   1 H      0.045  0.955  0.000  0.000     2.386     2.416
 359   1 H      0.026  0.974  0.000  0.000     2.645     2.543
 360   1 H      0.055  0.945  0.000  0.000     2.257     2.349
 361   1 H      0.323  0.677  0.000  0.000     0.656     1.273
 362   7 N     -0.188  1.251  3.937  0.000    25.073     7.437
 363   6 C      0.021  1.061  2.918  0.000    20.219     6.403
 364   6 C      0.267  1.046  2.687  0.000    22.489     7.766
 365   8 O     -0.480  1.729  4.752  0.000    23.356     6.480
 366   6 C     -0.078  1.059  3.019  0.000    21.985     6.674
 367   6 C     -0.007  1.055  2.953  0.000    20.672     6.467
 368   6 C     -0.113  1.039  3.075  0.000    22.719     6.796
 369   6 C     -0.117  1.042  3.075  0.000    22.792     6.806
 370   1 H      0.224  0.776  0.000  0.000     0.989     1.558
 371   1 H      0.061  0.939  0.000  0.000     2.189     2.314
 372   1 H      0.055  0.945  0.000  0.000     2.261     2.352
 373   1 H      0.065  0.935  0.000  0.000     2.138     2.287
 374   1 H      0.025  0.975  0.000  0.000     2.660     2.550
 375   1 H      0.043  0.957  0.000  0.000     2.407     2.426
 376   1 H      0.028  0.972  0.000  0.000     2.617     2.530
 377   1 H      0.041  0.959  0.000  0.000     2.433     2.439
 378   1 H      0.043  0.957  0.000  0.000     2.408     2.427
 379   1 H      0.045  0.955  0.000  0.000     2.377     2.411
 380   1 H      0.044  0.956  0.000  0.000     2.403     2.424
 381   7 N     -0.161  1.247  3.914  0.000    24.479     7.348
 382   6 C      0.013  1.066  2.921  0.000    20.363     6.425
 383   6 C      0.273  1.042  2.686  0.000    22.394     7.750
 384   8 O     -0.511  1.755  4.755  0.000    24.022     6.571
 385   6 C     -0.019  1.065  2.954  0.000    20.874     6.498
 386   6 C     -0.061  1.050  3.011  0.000    21.670     6.627
 387   6 C     -0.119  1.038  3.081  0.000    22.830     6.813
 388   6 C     -0.109  1.036  3.072  0.000    22.641     6.786
 389   1 H      0.197  0.803  0.000  0.000     1.119     1.657
 390   1 H      0.091  0.909  0.000  0.000     1.873     2.140
 391   1 H      0.036  0.964  0.000  0.000     2.498     2.472
 392   1 H      0.052  0.948  0.000  0.000     2.291     2.367
 393   1 H      0.028  0.972  0.000  0.000     2.608     2.526
 394   1 H      0.059  0.941  0.000  0.000     2.208     2.324
 395   1 H      0.029  0.971  0.000  0.000     2.601     2.522
 396   1 H      0.061  0.939  0.000  0.000     2.191     2.315
 397   1 H      0.046  0.954  0.000  0.000     2.367     2.406
 398   1 H      0.032  0.968  0.000  0.000     2.556     2.500
 399   1 H      0.046  0.954  0.000  0.000     2.375     2.410
 400   7 N     -0.169  1.239  3.930  0.000    24.648     7.374
 401   6 C      0.028  1.057  2.915  0.000    20.102     6.384
 402   6 C      0.196  1.086  2.717  0.000    23.810     7.991
 403   8 O     -0.350  1.739  4.610  0.000    20.701     6.100
 404   6 C     -0.072  1.056  3.016  0.000    21.867     6.656
 405   6 C     -0.004  1.075  2.929  0.000    28.119     8.698
 406   6 C     -0.044  1.084  2.960  0.000    29.095     8.846
 407   6 C     -0.033  1.080  2.953  0.000    28.825     8.805
 408   6 C     -0.062  1.075  2.986  0.000    29.538     8.912
 409   6 C     -0.072  1.076  2.996  0.000    29.799     8.952
 410   6 C      0.140  1.045  2.815  0.000    24.940     8.185
 411   8 O     -0.403  1.700  4.703  0.000    20.907     6.173
 412   1 H      0.237  0.763  0.000  0.000     0.936     1.516
 413   1 H      0.092  0.908  0.000  0.000     1.859     2.132
 414   1 H      0.071  0.929  0.000  0.000     2.079     2.255
 415   1 H      0.065  0.935  0.000  0.000     2.138     2.286
 416   1 H      0.050  0.950  0.000  0.000     2.325     2.384
 417   1 H      0.033  0.967  0.000  0.000     2.550     2.497
 418   1 H      0.073  0.927  0.000  0.000     2.056     2.242
 419   1 H      0.033  0.967  0.000  0.000     2.542     2.493
 420   1 H      0.321  0.679  0.000  0.000     0.662     1.278
 421   7 N     -0.384  1.318  4.067  0.000    29.934     8.126
 422   6 C      0.039  1.055  2.906  0.000    19.944     6.362
 423   6 C      0.196  1.086  2.718  0.000    23.820     7.993
 424   8 O     -0.386  1.761  4.625  0.000    21.401     6.202
 425   6 C     -0.065  1.060  3.005  0.000    21.744     6.638
 426   6 C     -0.007  1.056  2.950  0.000    20.663     6.466
 427   6 C     -0.115  1.041  3.074  0.000    22.763     6.803
 428   6 C     -0.119  1.041  3.078  0.000    22.826     6.812
 429   1 H      0.157  0.843  0.000  0.000     1.356     1.824
 430   1 H      0.067  0.933  0.000  0.000     2.121     2.278
 431   1 H      0.040  0.960  0.000  0.000     2.447     2.446
 432   1 H      0.039  0.961  0.000  0.000     2.462     2.454
 433   1 H      0.027  0.973  0.000  0.000     2.632     2.537
 434   1 H      0.047  0.953  0.000  0.000     2.354     2.399
 435   1 H      0.043  0.957  0.000  0.000     2.403     2.424
 436   1 H      0.050  0.950  0.000  0.000     2.324     2.384
 437   1 H      0.050  0.950  0.000  0.000     2.315     2.379
 438   1 H      0.043  0.957  0.000  0.000     2.405     2.425
 439   1 H      0.036  0.964  0.000  0.000     2.507     2.476
 440   7 N     -0.385  1.311  4.074  0.000    29.950     8.128
 441   6 C      0.027  1.060  2.914  0.000    20.137     6.391
 442   6 C      0.278  1.042  2.680  0.000    22.299     7.733
 443   8 O     -0.483  1.749  4.733  0.000    23.402     6.486
 444   6 C      0.111  1.049  2.840  0.000    18.860     6.201
 445   8 O     -0.498  1.740  4.758  0.000    22.851     6.453
 446   6 C     -0.128  1.042  3.086  0.000    23.021     6.842
 447   1 H      0.163  0.837  0.000  0.000     1.315     1.797
 448   1 H      0.045  0.955  0.000  0.000     2.383     2.414
 449   1 H      0.027  0.973  0.000  0.000     2.627     2.535
 450   1 H      0.344  0.656  0.000  0.000     0.603     1.219
 451   1 H      0.067  0.933  0.000  0.000     2.122     2.278
 452   1 H      0.037  0.963  0.000  0.000     2.483     2.464
 453   1 H      0.041  0.959  0.000  0.000     2.435     2.440
 454   7 N     -0.181  1.242  3.939  0.000    24.928     7.415
 455   6 C      0.024  1.061  2.915  0.000    20.177     6.397
 456   6 C      0.196  1.092  2.712  0.000    23.817     7.993
 457   8 O     -0.355  1.739  4.616  0.000    20.800     6.115
 458   6 C     -0.015  1.068  2.947  0.000    20.812     6.489
 459   6 C     -0.057  1.048  3.009  0.000    21.605     6.618
 460   6 C     -0.121  1.039  3.082  0.000    22.882     6.821
 461   6 C     -0.112  1.034  3.078  0.000    22.711     6.796
 462   1 H      0.219  0.781  0.000  0.000     1.015     1.578
 463   1 H      0.082  0.918  0.000  0.000     1.960     2.189
 464   1 H      0.051  0.949  0.000  0.000     2.302     2.373
 465   1 H      0.032  0.968  0.000  0.000     2.564     2.504
 466   1 H      0.049  0.951  0.000  0.000     2.328     2.386
 467   1 H      0.061  0.939  0.000  0.000     2.184     2.311
 468   1 H      0.044  0.956  0.000  0.000     2.393     2.419
 469   1 H      0.053  0.947  0.000  0.000     2.288     2.365
 470   1 H      0.037  0.963  0.000  0.000     2.495     2.470
 471   1 H      0.048  0.952  0.000  0.000     2.346     2.395
 472   1 H      0.041  0.959  0.000  0.000     2.430     2.438
 473   7 N     -0.390  1.314  4.076  0.000    30.090     8.147
 474   6 C      0.027  1.059  2.913  0.000    20.127     6.390
 475   6 C      0.273  1.043  2.685  0.000    22.394     7.750
 476   8 O     -0.493  1.739  4.754  0.000    23.636     6.518
 477   6 C     -0.070  1.053  3.017  0.000    21.841     6.653
 478   6 C     -0.033  1.067  2.966  0.000    28.769     8.797
 479   6 C     -0.008  1.065  2.943  0.000    28.178     8.706
 480   6 C     -0.020  1.075  2.945  0.000    28.337     8.719
 481   7 N     -0.117  1.227  3.890  0.000    23.541     7.206
 482   6 C      0.044  1.060  2.895  0.000    26.888     8.498
 483   6 C     -0.044  1.078  2.965  0.000    29.080     8.843
 484   6 C     -0.058  1.070  2.988  0.000    29.431     8.896
 485   6 C     -0.046  1.074  2.973  0.000    29.155     8.855
 486   6 C     -0.043  1.076  2.967  0.000    29.071     8.842
 487   1 H      0.166  0.834  0.000  0.000     1.295     1.782
 488   1 H      0.048  0.952  0.000  0.000     2.343     2.394
 489   1 H      0.043  0.957  0.000  0.000     2.405     2.425
 490   1 H      0.039  0.961  0.000  0.000     2.461     2.453
 491   1 H      0.034  0.966  0.000  0.000     2.534     2.489
 492   1 H      0.193  0.807  0.000  0.000     1.142     1.674
 493   1 H      0.025  0.975  0.000  0.000     2.655     2.548
 494   1 H      0.028  0.972  0.000  0.000     2.614     2.528
 495   1 H      0.019  0.981  0.000  0.000     2.750     2.593
 496   1 H      0.032  0.968  0.000  0.000     2.553     2.499
 497   7 N     -0.178  1.237  3.941  0.000    24.847     7.403
 498   6 C     -0.025  1.046  2.979  0.000    21.076     6.546
 499   6 C      0.273  1.038  2.689  0.000    22.385     7.748
 500   8 O     -0.492  1.737  4.755  0.000    23.609     6.515
 501   1 H      0.221  0.779  0.000  0.000     1.007     1.572
 502   1 H      0.089  0.911  0.000  0.000     1.887     2.148
 503   1 H      0.086  0.914  0.000  0.000     1.919     2.167
 504   7 N     -0.174  1.241  3.933  0.000    24.773     7.392
 505   6 C      0.009  1.064  2.927  0.000    20.426     6.435
 506   6 C      0.269  1.041  2.690  0.000    22.457     7.760
 507   8 O     -0.475  1.730  4.744  0.000    23.233     6.462
 508   6 C     -0.022  1.068  2.953  0.000    20.925     6.506
 509   6 C     -0.060  1.048  3.012  0.000    21.660     6.626
 510   6 C     -0.121  1.037  3.083  0.000    22.866     6.818
 511   6 C     -0.113  1.037  3.076  0.000    22.715     6.796
 512   1 H      0.229  0.771  0.000  0.000     0.971     1.543
 513   1 H      0.081  0.919  0.000  0.000     1.974     2.197
 514   1 H      0.048  0.952  0.000  0.000     2.341     2.393
 515   1 H      0.029  0.971  0.000  0.000     2.597     2.520
 516   1 H      0.029  0.971  0.000  0.000     2.608     2.525
 517   1 H      0.060  0.940  0.000  0.000     2.196     2.317
 518   1 H      0.049  0.951  0.000  0.000     2.330     2.387
 519   1 H      0.040  0.960  0.000  0.000     2.453     2.449
 520   1 H      0.038  0.962  0.000  0.000     2.476     2.461
 521   1 H      0.044  0.956  0.000  0.000     2.393     2.419
 522   1 H      0.049  0.951  0.000  0.000     2.331     2.388
 523   7 N     -0.166  1.240  3.926  0.000    24.592     7.365
 524   6 C      0.016  1.062  2.921  0.000    20.307     6.417
 525   6 C      0.202  1.090  2.708  0.000    23.701     7.973
 526   8 O     -0.365  1.750  4.615  0.000    20.992     6.143
 527   6 C     -0.017  1.068  2.949  0.000    20.845     6.494
 528   6 C     -0.066  1.051  3.016  0.000    21.770     6.643
 529   6 C     -0.119  1.035  3.083  0.000    22.830     6.813
 530   6 C     -0.115  1.038  3.077  0.000    22.754     6.802
 531   1 H      0.217  0.783  0.000  0.000     1.021     1.583
 532   1 H      0.101  0.899  0.000  0.000     1.778     2.085
 533   1 H      0.057  0.943  0.000  0.000     2.237     2.339
 534   1 H      0.036  0.964  0.000  0.000     2.500     2.473
 535   1 H      0.053  0.947  0.000  0.000     2.288     2.365
 536   1 H      0.054  0.946  0.000  0.000     2.275     2.359
 537   1 H      0.050  0.950  0.000  0.000     2.321     2.383
 538   1 H      0.046  0.954  0.000  0.000     2.377     2.411
 539   1 H      0.047  0.953  0.000  0.000     2.362     2.403
 540   1 H      0.048  0.952  0.000  0.000     2.345     2.395
 541   1 H      0.039  0.961  0.000  0.000     2.465     2.455
 542   7 N     -0.403  1.324  4.079  0.000    30.467     8.198
 543   6 C      0.043  1.055  2.902  0.000    19.867     6.349
 544   6 C      0.204  1.090  2.707  0.000    23.671     7.968
 545   8 O     -0.373  1.762  4.611  0.000    21.143     6.165
 546   6 C     -0.059  1.059  3.000  0.000    21.630     6.620
 547   6 C     -0.013  1.057  2.956  0.000    20.775     6.483
 548   6 C     -0.119  1.041  3.077  0.000    22.829     6.813
 549   6 C     -0.109  1.040  3.069  0.000    22.638     6.784
 550   1 H      0.170  0.830  0.000  0.000     1.270     1.765
 551   1 H      0.053  0.947  0.000  0.000     2.285     2.364
 552   1 H      0.040  0.960  0.000  0.000     2.449     2.447
 553   1 H      0.032  0.968  0.000  0.000     2.557     2.501
 554   1 H      0.019  0.981  0.000  0.000     2.751     2.594
 555   1 H      0.049  0.951  0.000  0.000     2.336     2.390
 556   1 H      0.036  0.964  0.000  0.000     2.499     2.472
 557   1 H      0.046  0.954  0.000  0.000     2.366     2.405
 558   1 H      0.044  0.956  0.000  0.000     2.391     2.418
 559   1 H      0.044  0.956  0.000  0.000     2.392     2.418
 560   1 H      0.036  0.964  0.000  0.000     2.506     2.476
 561   7 N     -0.395  1.316  4.079  0.000    30.232     8.166
 562   6 C      0.032  1.058  2.909  0.000    20.049     6.377
 563   6 C      0.275  1.046  2.679  0.000    22.348     7.741
 564   8 O     -0.507  1.752  4.755  0.000    23.943     6.560
 565   6 C     -0.118  1.045  3.074  0.000    22.824     6.812
 566   1 H      0.154  0.846  0.000  0.000     1.374     1.836
 567   1 H      0.048  0.952  0.000  0.000     2.339     2.392
 568   1 H      0.052  0.948  0.000  0.000     2.296     2.370
 569   1 H      0.075  0.925  0.000  0.000     2.036     2.231
 570   1 H      0.036  0.964  0.000  0.000     2.497     2.471
 571   7 N     -0.195  1.264  3.931  0.000    25.232     7.460
 572   6 C      0.021  1.072  2.907  0.000    20.239     6.408
 573   6 C      0.367  1.023  2.609  0.000    20.771     7.458
 574   8 O     -0.629  1.774  4.855  0.000    26.842     6.946
 575   6 C     -0.093  1.060  3.033  0.000    22.272     6.718
 576   6 C      0.294  1.038  2.668  0.000    22.009     7.682
 577   8 O     -0.512  1.756  4.756  0.000    24.047     6.575
 578   7 N     -0.294  1.270  4.024  0.000    27.570     7.798
 579   8 O     -0.595  1.752  4.842  0.000    25.995     6.836
 580   1 H      0.206  0.794  0.000  0.000     1.077     1.626
 581   1 H      0.026  0.974  0.000  0.000     2.641     2.542
 582   1 H      0.057  0.943  0.000  0.000     2.237     2.339
 583   1 H      0.062  0.938  0.000  0.000     2.177     2.307
 584   1 H      0.230  0.770  0.000  0.000     0.966     1.540
 585   1 H      0.228  0.772  0.000  0.000     0.974     1.546
 586   1 H      0.188  0.812  0.000  0.000     1.170     1.694
 587   1 H      0.095  0.905  0.000  0.000     1.835     2.118
 588   1 H      0.183  0.817  0.000  0.000     1.195     1.712
 589   1 H      0.092  0.908  0.000  0.000     1.860     2.133
 590   1 H      0.173  0.827  0.000  0.000     1.255     1.755
 591   1 H      0.087  0.913  0.000  0.000     1.909     2.161
 592   1 H      0.183  0.817  0.000  0.000     1.199     1.715
 593   1 H      0.081  0.919  0.000  0.000     1.970     2.195
 594   1 H      0.182  0.818  0.000  0.000     1.204     1.718
 595   1 H      0.091  0.909  0.000  0.000     1.873     2.140
 596   1 H      0.185  0.815  0.000  0.000     1.187     1.706
 597   1 H      0.059  0.941  0.000  0.000     2.210     2.324
 598   1 H      0.166  0.834  0.000  0.000     1.294     1.782
 599   1 H      0.089  0.911  0.000  0.000     1.891     2.150
 600   1 H      0.175  0.825  0.000  0.000     1.241     1.745
 601   1 H      0.087  0.913  0.000  0.000     1.910     2.161
 602   1 H      0.179  0.821  0.000  0.000     1.218     1.728
 603   1 H      0.066  0.934  0.000  0.000     2.124     2.279

 Mol. C6AA /au·bohr⁶  :    3357161.545336
 Mol. C8AA /au·bohr⁸  :   76418092.857717
 Mol. α(0) /au        :       2758.658596

 
molecular dipole:
                 x           y           z       tot (Debye)
 q only:       34.743      89.960     -21.076
   full:       37.610      91.502     -20.291     256.694
molecular quadrupole (traceless):
                xx          xy          yy          xz          yz          zz
 q only:    -2013.199    1768.990    3354.205    -252.155   -1630.882   -1341.006
  q+dip:    -1988.398    2073.834    3455.313    -288.878   -1613.908   -1466.914
   full:    -1976.576    2076.884    3447.036    -282.735   -1618.137   -1470.460
speedup  1.98
cpu  time for grad   26.85 s
wall time for grad   13.55 s

SCC energy    :    -903.4888518
rep           :      11.2223371
ES            :       2.5005978
AES           :      -0.0722216
AXC           :       0.3359305
disp          :      -0.8150862
XB            :       0.0000000
fix           :       0.0000000
Gborn         :       0.0000000
Gsasa         :       0.0000000
Ghb           :       0.0000000
Gshift        :       0.0000000
Gsolv         :      -0.7238640     -454.23
Etot ala COSMO:    -903.4888518
grad norm     :       0.6803988
total E       :    -892.1727307
atomizationE  :     166.6593321   104580.31
(atE without considering molecular charge,
 total energy contains solvation terms)
H-L gap (eV)  :          1.1074

------------------------------------------------------------------------
 * finished run on 2019/05/10 at 16:39:28.614     
------------------------------------------------------------------------
 total:
 * wall-time:     0 d,  0 h,  0 min, 14.544 sec
 *  cpu-time:     0 d,  0 h,  0 min, 28.580 sec
 * ratio c/w:     1.965 speedup
 SCF:
 * wall-time:     0 d,  0 h,  0 min, 14.120 sec
 *  cpu-time:     0 d,  0 h,  0 min, 27.931 sec
 * ratio c/w:     1.978 speedup

