      -----------------------------------------------------------      
     |                   =====================                   |     
     |                           x T B                           |     
     |                   =====================                   |     
     |                         S. Grimme                         |     
     |          Mulliken Center for Theoretical Chemistry        |     
     |                    University of Bonn                     |     
     |                 Version 6.0.1 (SAW181210)                 |     
      -----------------------------------------------------------      

   This program is distributed in the hope that it will be useful,
   but WITHOUT ANY WARRANTY; without even the implied warranty of
   MERCHANTABILITY or FITNESS FOR A PARTICULAR PURPOSE.
   
   FOR NON-COMMERCIAL, ACADEMIA USE ONLY.
   
   Cite this work as:
   S. Grimme, C. Bannwarth, P. Shushkov, J. Comput. Theory Chem., 2017,
   13, 1989-2009.
   C. Bannwarth, S. Ehlert and S. Grimme., ChemRxiv, 2018, preprint.
   http://doi.org/10.26434/chemrxiv.7246238.v1
   
   for sTDA-xTB:
   S. Grimme and C. Bannwarth, J. Chem. Phys., 2016, 145, 054103.
   
   in the mass-spec context:
   V. Asgeirsson, C. Bauer and S. Grimme, Chem. Sci., 2017, 8, 4879.
   
   if GBSA is used:
   P. Shushkov, F. März and S. Grimme, unpublished.
   
   for ANC optimizer:
   S. Grimme, unpublished.
   Rational Function algorithm used in ANCopt:
   F. Eckert, P. Pulay, H.-J. Werner, J. Comput. Chem., 1997, 18, 1473.
   
   with help from (in alphabetical order)
   C. Bannwarth, F. Bohle, G. Brandenburg, E. Caldeweyher, M. Checinski,
   S. Dohm, S. Ehlert, S. Ehrlich, F. März, H. Neugebauer, J. Pisarek,
   P. Pracht, P. Shushkov, and S. Spicher.
   
 * started run on 2019/05/11 at 04:46:58.765     
========================================================================
 # omp threads = 2
========================================================================
number of atoms            : 716
number of electrons        : 1892
charge                     : -2
spin                       : .0
first test random number   : .2153

########################################################################
# WARNING! Please study the warnings concerning your input carefully
#  - Process number higher than OMP_NUM_THREADS, I hope you know what you are doing.
########################################################################

           ------------------------------------------------- 
          |                 G F N 2 - x T B                 |
          | Geometry, Frequencies, Noncovalent interactions |
          |            JCTC 2018 parametrisation            |
           ------------------------------------------------- 
 
      method parameters     
 k(s)        :  1.8500
 k(p)        :  2.2300
 k(d)        :  2.2300
 k(f)        :  2.0000
 kEN (H0ij)  : -2.0000
 D4 a1       :  0.5200
 D4 a2       :  5.0000
 D4 s6       :  1.0000
 D4 s8       :  2.7000
 D4 s9       :  5.0000
 alphaj      :  2.0000

 Solvent             : h2o
 Using internal parameter file: .param_gbsa2_h2o
 Gsolv ref. state (COSMO-RS): gsolv [1 M gas/solution]
 temperature (mdtemp)       :    298.150000000000     
 dielectric constant        :    80.2000000000000     
 rho                        :    1.00000000000000     
 mass                       :    18.0000000000000     
 surface tension            :    15.5689454083859     
 probe radius               :   0.975313790000000     
 vdW radii scaling          :    1.00000000000000     
 Gshift (Eh)                :   1.857443126794793E-003
 c1                         :    1.55243817000000     
 soset                      :   0.130326360000000     
 HB correction              :  T

            Z     q(EN)     CN     RAES       Cart. coordinates
     1  N   5.0   -0.22    3.20    1.96     4.63684   180.14808    -2.47499
     2  C   4.0    0.02    4.22    4.04     3.09441   177.95164    -1.80987
     3  C   4.0    0.14    3.37    3.07     4.63395   176.05343    -0.20314
     4  O   6.0   -0.33    1.27    1.80     4.21944   175.69361     2.04836
     5  C   4.0   -0.09    4.10    3.80     2.04853   176.75254    -4.23625
     6  H   1.0    0.07    1.02    1.43     5.60000   180.05462    -4.12403
     7  H   1.0    0.04    1.05    1.44     1.56119   178.63427    -0.59780
     8  H   1.0    0.03    1.00    1.43     1.11438   174.97803    -3.79128
     9  H   1.0    0.03    1.00    1.43     0.66776   178.01674    -5.08092
    10  H   1.0    0.03    1.00    1.43     3.52930   176.40000    -5.61635
    11  N   5.0   -0.15    3.50    2.08     6.47423   174.91841    -1.48728
    12  C   4.0    0.03    4.35    4.30     8.49421   173.32888    -0.50156
    13  C   4.0    0.16    3.45    3.09     9.26597   174.18456     2.18745
    14  O   6.0   -0.31    1.32    1.80     9.18346   172.69095     3.95966
    15  C   4.0   -0.06    4.31    4.23    10.67911   173.46043    -2.44057
    16  C   4.0   -0.03    4.14    3.88    10.53214   171.51543    -4.63265
    17  C   4.0   -0.08    4.09    3.79     7.88875   171.19004    -5.77507
    18  C   4.0   -0.09    4.09    3.78    12.43719   172.28285    -6.69144
    19  H   1.0    0.06    1.09    1.44     6.70787   175.39717    -3.32341
    20  H   1.0    0.05    1.05    1.44     7.83029   171.37582    -0.29229
    21  H   1.0    0.03    1.03    1.43    10.72520   175.35499    -3.25620
    22  H   1.0    0.04    1.03    1.43    12.46161   173.14189    -1.45710
    23  H   1.0    0.03    1.05    1.44    11.08515   169.67323    -3.87111
    24  H   1.0    0.03    1.00    1.43     7.95030   169.68537    -7.17254
    25  H   1.0    0.04    1.00    1.43     6.50680   170.66514    -4.35347
    26  H   1.0    0.03    1.00    1.43     7.28105   172.91205    -6.72168
    27  H   1.0    0.03    1.00    1.43    12.46842   170.88358    -8.19711
    28  H   1.0    0.03    1.00    1.43    11.91511   174.08679    -7.51801
    29  H   1.0    0.03    1.00    1.43    14.33005   172.42701    -5.90941
    30  N   5.0   -0.14    3.46    2.05    10.00977   176.60070     2.37821
    31  C   4.0    0.03    4.33    4.26    10.09576   178.12245     4.69087
    32  C   4.0    0.17    3.45    3.09     9.17887   176.48145     6.95639
    33  O   6.0   -0.30    1.20    1.80    10.54932   175.80892     8.69114
    34  C   4.0   -0.05    4.26    4.12     8.46808   180.52318     4.22272
    35  C   4.0   -0.06    4.15    3.91     9.32598   182.92029     5.57951
    36  C   4.0   -0.06    4.17    3.93    11.45319   184.20633     4.08834
    37  C   4.0   -0.05    4.11    3.83    12.13266   186.75750     5.25234
    38  N   5.0   -0.13    4.00    2.85    14.18352   188.08248     3.82593
    39  H   1.0    0.07    1.07    1.44    10.11925   177.62165     0.76205
    40  H   1.0    0.04    1.05    1.44    12.06750   178.62852     5.06470
    41  H   1.0    0.04    1.04    1.43     8.51732   180.90812     2.19416
    42  H   1.0    0.04    1.03    1.43     6.50632   180.13218     4.68424
    43  H   1.0    0.03    1.03    1.43     7.70784   184.18803     5.72156
    44  H   1.0    0.04    1.02    1.43     9.95032   182.45727     7.48801
    45  H   1.0    0.03    1.03    1.43    13.09927   182.96971     4.09124
    46  H   1.0    0.03    1.03    1.43    10.83274   184.44147     2.13752
    47  H   1.0    0.03    1.02    1.43    10.46681   187.96983     5.30660
    48  H   1.0    0.03    1.02    1.43    12.77962   186.46288     7.18771
    49  H   1.0    0.04    1.02    1.43    14.67853   189.73183     4.74178
    50  H   1.0    0.04    1.02    1.43    15.75551   186.93389     3.71629
    51  H   1.0    0.04    1.02    1.43    13.58804   188.50652     2.01982
    52  N   5.0   -0.14    3.60    2.16     6.70096   175.99646     6.82937
    53  C   4.0    0.04    4.46    4.48     5.25114   174.81963     8.78539
    54  C   4.0    0.14    3.60    3.17     4.51237   172.07207     8.34391
    55  O   6.0   -0.31    1.40    1.80     4.02255   170.80958    10.23671
    56  C   4.0   -0.02    4.31    4.22     2.80368   176.37416     9.27095
    57  C   4.0   -0.04    4.22    4.03     0.49387   175.17059     7.94459
    58  C   4.0   -0.08    4.13    3.85     3.17815   179.16121     8.45007
    59  C   4.0   -0.07    4.02    3.65    -1.00678   173.31799     9.56647
    60  H   1.0    0.11    1.11    1.45     5.76887   176.28985     5.18242
    61  H   1.0    0.06    1.06    1.44     6.41901   174.83405    10.49523
    62  H   1.0    0.05    1.07    1.44     2.45072   176.31798    11.29973
    63  H   1.0    0.03    1.03    1.43    -0.79331   176.69443     7.40170
    64  H   1.0    0.05    1.04    1.43     1.08114   174.26694     6.18967
    65  H   1.0    0.03    1.00    1.43     1.64214   180.28255     9.23071
    66  H   1.0    0.04    1.00    1.43     4.95291   179.90096     9.16116
    67  H   1.0    0.04    1.00    1.43     3.08396   179.33245     6.40705
    68  H   1.0    0.03    1.00    1.43    -2.54680   172.51996     8.45842
    69  H   1.0    0.07    1.02    1.43     0.14742   171.77987    10.26315
    70  H   1.0    0.05    1.00    1.43    -1.82756   174.26609    11.19772
    71  N   5.0   -0.15    3.45    2.05     4.33360   171.09794     5.98981
    72  C   4.0    0.03    4.40    4.38     4.02866   168.35884     5.84203
    73  C   4.0    0.16    3.46    3.10     6.14645   167.12119     7.41206
    74  O   6.0   -0.30    1.22    1.80     5.79367   165.04979     8.37496
    75  C   4.0   -0.05    4.23    4.06     3.70204   167.03835     3.24171
    76  C   4.0   -0.02    4.16    3.92     2.18137   164.50416     3.43324
    77  C   4.0   -0.09    4.12    3.85    -0.65013   164.86050     3.12290
    78  C   4.0   -0.08    4.13    3.86     2.92551   162.60221     1.41806
    79  H   1.0    0.11    1.07    1.44     4.95597   172.09260     4.48252
    80  H   1.0    0.05    1.08    1.44     2.30882   167.94429     6.92030
    81  H   1.0    0.04    1.02    1.43     2.71993   168.32974     1.97391
    82  H   1.0    0.05    1.04    1.43     5.56478   166.62463     2.45500
    83  H   1.0    0.05    1.06    1.44     2.60226   163.67174     5.27567
    84  H   1.0    0.03    1.00    1.43    -1.65380   163.11049     3.51060
    85  H   1.0    0.03    1.00    1.43    -1.36481   166.31488     4.38357
    86  H   1.0    0.03    1.01    1.43    -1.05421   165.42571     1.18968
    87  H   1.0    0.03    1.00    1.43     1.73745   160.92852     1.55262
    88  H   1.0    0.03    1.00    1.43     2.73382   163.40594    -0.46236
    89  H   1.0    0.04    1.01    1.43     4.87174   162.00292     1.65938
    90  N   5.0   -0.14    3.49    2.07     8.28140   168.51840     7.78349
    91  C   4.0    0.04    4.40    4.38    10.33660   167.63913     9.37769
    92  C   4.0    0.16    3.46    3.10     9.95264   168.00802    12.22799
    93  O   6.0   -0.32    1.36    1.80    11.28093   166.83624    13.74705
    94  C   4.0   -0.03    4.30    4.20    12.86928   168.86523     8.70068
    95  C   4.0    0.16    3.26    3.05    14.99275   167.32228     9.93085
    96  O   6.0   -0.28    1.20    1.80    15.28766   165.07298     9.50188
    97  N   5.0   -0.18    3.17    1.95    16.47501   168.59984    11.55329
    98  H   1.0    0.11    1.09    1.44     8.61430   170.04681     6.68067
    99  H   1.0    0.07    1.06    1.44    10.52829   165.58216     9.12395
   100  H   1.0    0.05    1.03    1.43    13.12581   168.75174     6.65840
   101  H   1.0    0.06    1.02    1.43    12.89564   170.84059     9.28623
   102  H   1.0    0.10    1.03    1.43    18.01697   167.70060    12.22415
   103  H   1.0    0.08    1.03    1.43    16.40466   170.49984    11.67230
   104  N   5.0   -0.14    3.44    2.04     8.28632   169.72532    13.02796
   105  C   4.0    0.04    4.59    4.65     8.04347   170.02903    15.72031
   106  C   4.0    0.17    3.55    3.14     5.71621   168.72221    16.82657
   107  O   6.0   -0.31    1.37    1.80     3.58178   169.38662    16.26339
   108  C   4.0   -0.03    4.34    4.28     7.88685   172.79537    16.55101
   109  C   4.0    0.15    3.40    3.08     7.67996   172.45281    19.38474
   110  O   6.0   -0.32    1.30    1.80     5.64731   172.36327    20.47648
   111  N   5.0   -0.20    3.21    1.96     9.85982   171.88146    20.53996
   112  H   1.0    0.12    1.12    1.45     6.80928   170.30460    11.92638
   113  H   1.0    0.05    1.10    1.44     9.75370   169.18585    16.53010
   114  H   1.0    0.04    1.02    1.43     9.57596   173.82396    15.98489
   115  H   1.0    0.07    1.05    1.44     6.20583   173.70260    15.78207
   116  H   1.0    0.08    1.03    1.43     9.89333   171.71568    22.44090
   117  H   1.0    0.08    1.03    1.43    11.53067   172.19241    19.67572
   118  N   5.0   -0.14    3.46    2.05     6.23658   167.04239    18.67205
   119  C   4.0    0.03    4.51    4.55     4.19813   165.63346    19.86582
   120  C   4.0    0.16    3.60    3.17     2.03731   167.25499    20.81647
   121  O   6.0   -0.32    1.42    1.80    -0.07726   166.82739    19.99290
   122  C   4.0   -0.03    4.39    4.36     4.97180   164.05666    22.18476
   123  C   4.0   -0.05    4.21    4.01     7.37594   165.13802    23.38963
   124  C   4.0   -0.08    4.08    3.77     5.06841   161.26033    21.50370
   125  C   4.0   -0.08    4.02    3.65     7.30732   164.84853    26.25734
   126  H   1.0    0.07    1.07    1.44     7.97032   166.25145    18.78350
   127  H   1.0    0.05    1.06    1.44     3.33461   164.39373    18.43847
   128  H   1.0    0.04    1.09    1.44     3.45265   164.24085    23.57648
   129  H   1.0    0.04    1.03    1.43     9.02386   164.14422    22.65695
   130  H   1.0    0.05    1.04    1.43     7.54129   167.14166    22.93984
   131  H   1.0    0.04    1.00    1.43     5.76372   160.13221    23.07553
   132  H   1.0    0.04    1.00    1.43     3.20500   160.55421    20.99105
   133  H   1.0    0.04    1.00    1.43     6.30833   160.90380    19.90364
   134  H   1.0    0.04    1.00    1.43     9.03557   165.58870    27.08493
   135  H   1.0    0.04    1.00    1.43     5.69798   165.84293    27.05237
   136  H   1.0    0.04    1.00    1.43     7.18679   162.86411    26.77186
   137  N   5.0   -0.15    3.51    2.08     2.33960   168.72592    22.85092
   138  C   4.0    0.04    4.46    4.48     0.01299   169.75878    23.86273
   139  C   4.0    0.16    3.53    3.13    -1.36641   171.26639    21.79452
   140  O   6.0   -0.31    1.27    1.80    -3.67302   171.34094    21.70462
   141  C   4.0   -0.06    4.26    4.12     0.37509   171.37506    26.21428
   142  C   4.0   -0.06    4.11    3.82     0.90567   169.96865    28.71712
   143  C   4.0   -0.02    4.19    3.99     1.19660   172.02978    30.76954
   144  N   5.0   -0.15    3.34    2.00     2.05677   171.18474    33.27371
   145  C   4.0    0.08    3.32    3.06     2.88116   172.74259    35.10207
   146  N   5.0   -0.20    3.22    1.96     2.95928   175.27394    34.83661
   147  N   5.0   -0.20    3.23    1.96     3.64160   171.68871    37.27623
   148  H   1.0    0.09    1.06    1.44     4.02123   169.51657    23.29052
   149  H   1.0    0.05    1.06    1.44    -1.22842   168.15999    24.30344
   150  H   1.0    0.04    1.03    1.43     1.90892   172.70350    25.84508
   151  H   1.0    0.04    1.04    1.43    -1.35593   172.47314    26.45056
   152  H   1.0    0.04    1.02    1.43    -0.65026   168.70734    29.18654
   153  H   1.0    0.04    1.02    1.43     2.64536   168.87869    28.55936
   154  H   1.0    0.04    1.03    1.43     2.58054   173.39409    30.06952
   155  H   1.0    0.04    1.02    1.43    -0.62779   172.98268    30.97845
   156  H   1.0    0.07    1.06    1.44     1.97448   169.31158    33.63461
   157  H   1.0    0.07    1.03    1.43     2.27445   176.12157    33.27811
   158  H   1.0    0.07    1.03    1.43     3.63592   176.36964    36.23628
   159  H   1.0    0.07    1.03    1.43     3.75915   169.79861    37.46320
   160  H   1.0    0.07    1.03    1.43     4.37869   172.75991    38.66504
   161  N   5.0   -0.14    3.54    2.11     0.13650   172.53173    20.18897
   162  C   4.0    0.03    4.43    4.43    -0.97292   174.10758    18.21470
   163  C   4.0    0.17    3.51    3.12    -2.70765   172.36837    16.66651
   164  O   6.0   -0.31    1.31    1.80    -4.84190   172.90857    15.95341
   165  C   4.0    0.05    4.15    3.91     0.93771   175.67413    16.60021
   166  O   6.0   -0.26    2.14    1.84     2.53982   174.28754    14.98805
   167  C   4.0   -0.07    4.05    3.71     2.53265   177.47582    18.23275
   168  H   1.0    0.11    1.10    1.44     2.04930   172.47623    20.33253
   169  H   1.0    0.05    1.05    1.44    -2.21443   175.50786    19.12466
   170  H   1.0    0.04    1.04    1.43    -0.28335   176.83045    15.36529
   171  H   1.0    0.16    1.07    1.44     2.49311   172.48551    15.30647
   172  H   1.0    0.04    1.00    1.43     3.71938   178.60381    16.99573
   173  H   1.0    0.03    1.00    1.43     1.31062   178.71357    19.31766
   174  H   1.0    0.06    1.00    1.43     3.72864   176.40724    19.50963
   175  N   5.0   -0.13    3.60    2.16    -1.66487   170.13069    16.23319
   176  C   4.0    0.04    4.44    4.44    -3.11917   168.24331    14.91005
   177  C   4.0    0.16    3.43    3.09    -5.44076   167.65463    16.59145
   178  O   6.0   -0.33    1.56    1.80    -7.42400   168.55659    15.80525
   179  C   4.0   -0.05    4.24    4.08    -1.33994   166.17475    13.87301
   180  C   4.0   -0.03    4.12    3.83    -2.28901   164.61745    11.54016
   181  C   4.0   -0.08    4.10    3.80    -4.53962   165.81617    10.13028
   182  C   4.0   -0.07    4.09    3.79    -0.11617   164.15982     9.67097
   183  H   1.0    0.12    1.12    1.45     0.09855   169.66148    16.78636
   184  H   1.0    0.05    1.08    1.44    -3.97754   169.20442    13.28584
   185  H   1.0    0.06    1.04    1.43     0.37755   167.16279    13.29228
   186  H   1.0    0.05    1.02    1.43    -0.82505   164.87301    15.38457
   187  H   1.0    0.03    1.05    1.44    -2.93030   162.77296    12.23174
   188  H   1.0    0.03    1.00    1.43    -5.09060   164.59236     8.57728
   189  H   1.0    0.04    1.00    1.43    -6.15373   166.04123    11.37695
   190  H   1.0    0.04    1.00    1.43    -4.01529   167.64750     9.36252
   191  H   1.0    0.03    1.00    1.43    -0.74755   162.97487     8.12154
   192  H   1.0    0.05    1.01    1.43     0.50747   165.96494     8.94172
   193  H   1.0    0.06    1.00    1.43     1.48518   163.24045    10.57040
   194  N   5.0   -0.14    3.42    2.03    -5.12414   166.42524    18.78028
   195  C   4.0    0.03    4.36    4.31    -6.97316   165.48288    20.60191
   196  C   4.0    0.15    3.42    3.08    -9.31551   167.14795    20.85205
   197  O   6.0   -0.30    1.21    1.80   -11.23619   166.11504    21.61449
   198  C   4.0   -0.04    4.32    4.24    -5.99099   165.31927    23.32717
   199  C   4.0   -0.05    4.12    3.85    -3.98902   163.31997    23.89934
   200  C   4.0   -0.01    4.17    3.95    -3.48876   163.44165    26.76042
   201  N   5.0   -0.15    3.34    2.00    -1.68748   161.60109    27.74701
   202  C   4.0    0.09    3.32    3.06    -1.98426   159.68295    29.39668
   203  N   5.0   -0.19    3.19    1.95    -4.15456   159.01716    30.59667
   204  N   5.0   -0.18    3.25    1.97     0.15069   158.63015    30.26100
   205  H   1.0    0.11    1.12    1.45    -3.31280   165.99837    19.23531
   206  H   1.0    0.04    1.05    1.44    -7.60604   163.59648    20.01428
   207  H   1.0    0.05    1.03    1.43    -5.29467   167.19493    23.83650
   208  H   1.0    0.05    1.04    1.44    -7.65081   164.91586    24.48554
   209  H   1.0    0.04    1.02    1.43    -4.68521   161.44809    23.38192
   210  H   1.0    0.05    1.02    1.43    -2.26308   163.67882    22.83555
   211  H   1.0    0.04    1.02    1.43    -2.76158   165.31653    27.24638
   212  H   1.0    0.04    1.03    1.43    -5.27284   163.15871    27.75125
   213  H   1.0    0.07    1.08    1.44     0.03249   161.68157    26.92345
   214  H   1.0    0.08    1.03    1.43    -5.77391   159.29254    29.62758
   215  H   1.0    0.09    1.04    1.43    -4.04792   157.35184    31.52000
   216  H   1.0    0.09    1.03    1.43     1.78570   158.95241    29.33812
   217  H   1.0    0.11    1.03    1.43     0.12818   156.87289    31.03417
   218  N   5.0   -0.12    3.49    2.07    -8.96298   169.62036    20.33640
   219  C   4.0    0.03    4.27    4.13   -10.72329   171.77073    20.26576
   220  C   4.0    0.16    3.53    3.13   -11.89234   172.21219    17.63942
   221  O   6.0   -0.28    1.28    1.80   -14.17259   172.37262    17.22917
   222  C   4.0   -0.07    4.13    3.87    -9.32420   174.19798    20.96911
   223  H   1.0    0.11    1.12    1.45    -7.14475   170.16198    20.07954
   224  H   1.0    0.06    1.05    1.44   -12.26179   171.39753    21.59587
   225  H   1.0    0.05    1.00    1.43   -10.61510   175.79354    20.87152
   226  H   1.0    0.05    1.00    1.43    -8.55625   174.07624    22.87128
   227  H   1.0    0.06    1.00    1.43    -7.77994   174.51605    19.65212
   228  N   5.0   -0.13    3.64    2.20   -10.21898   172.35605    15.79719
   229  C   4.0    0.05    4.62    4.68   -11.19945   172.00778    13.29851
   230  C   4.0    0.16    3.58    3.15   -12.80275   169.67603    13.28221
   231  O   6.0   -0.28    1.27    1.80   -14.82622   169.63016    12.18328
   232  C   4.0   -0.04    4.24    4.09    -9.09668   172.05695    11.33278
   233  C   4.0   -0.04    4.21    4.02    -9.35133   174.47947     9.75607
   234  C   4.0    0.15    3.25    3.04   -10.15763   176.81998    11.24750
   235  O   6.0   -0.29    1.26    1.80   -12.21598   177.03316    12.29999
   236  N   5.0   -0.19    3.18    1.95    -8.50970   178.75393    11.26640
   237  H   1.0    0.12    1.12    1.45    -8.32940   172.25012    16.07554
   238  H   1.0    0.09    1.13    1.45   -12.57000   173.51125    12.91491
   239  H   1.0    0.06    1.04    1.43    -7.29052   172.05566    12.31715
   240  H   1.0    0.04    1.03    1.43    -9.19525   170.42090    10.08700
   241  H   1.0    0.03    1.03    1.43    -7.58968   174.88577     8.76770
   242  H   1.0    0.05    1.03    1.43   -10.84742   174.19185     8.35994
   243  H   1.0    0.07    1.02    1.43    -6.84935   178.71038    10.34221
   244  H   1.0    0.09    1.03    1.43    -9.04818   180.36810    12.11984
   245  N   5.0   -0.14    3.58    2.14   -11.95978   167.69405    14.55262
   246  C   4.0    0.04    4.27    4.14   -13.16332   165.26452    14.32917
   247  C   4.0    0.10    3.27    3.05   -15.86562   165.35920    15.28100
   248  O   6.0   -0.28    1.12    1.80   -17.55731   164.12466    14.28776
   249  C   4.0   -0.07    4.13    3.86   -11.73099   163.35681    15.94369
   250  H   1.0    0.12    1.22    1.47   -10.19662   167.76820    15.31813
   251  H   1.0    0.05    1.05    1.44   -13.20811   164.67082    12.33722
   252  H   1.0    0.05    1.00    1.43   -12.50989   161.47991    15.64993
   253  H   1.0    0.04    1.00    1.43    -9.74724   163.30899    15.40552
   254  H   1.0    0.07    1.01    1.43   -11.89285   163.84004    17.92897
   255  N   5.0   -0.22    3.20    1.96   -13.29179   152.71050    -4.67077
   256  C   4.0    0.03    4.29    4.18   -11.21166   154.22032    -5.57075
   257  C   4.0    0.15    3.55    3.14    -8.57112   153.46442    -4.55725
   258  O   6.0   -0.31    1.31    1.80    -6.62584   153.73812    -5.81309
   259  C   4.0   -0.05    4.26    4.12   -11.63942   157.02898    -4.98345
   260  C   4.0   -0.04    4.04    3.69   -10.78156   157.84788    -2.32430
   261  S   6.0   -0.05    2.50    3.10    -7.33241   158.35893    -1.65059
   262  C   4.0   -0.07    3.91    3.47    -6.60688   161.05799    -3.72962
   263  H   1.0    0.07    1.03    1.43   -14.41910   153.55392    -3.36434
   264  H   1.0    0.04    1.06    1.44   -11.09094   153.94014    -7.61701
   265  H   1.0    0.06    1.03    1.43   -10.61180   158.12015    -6.40355
   266  H   1.0    0.04    1.03    1.43   -13.64606   157.42115    -5.17576
   267  H   1.0    0.03    1.07    1.44   -11.66407   159.65011    -1.90439
   268  H   1.0    0.04    1.07    1.44   -11.32131   156.46108    -0.92186
   269  H   1.0    0.03    1.05    1.44    -4.64421   161.50505    -3.37066
   270  H   1.0    0.07    1.07    1.44    -6.92361   160.43207    -5.64702
   271  H   1.0    0.04    1.04    1.43    -7.86890   162.58660    -3.22164
   272  N   5.0   -0.15    3.54    2.11    -8.48210   152.50194    -2.25197
   273  C   4.0    0.03    4.36    4.31    -6.19759   151.29897    -1.43971
   274  C   4.0    0.08    3.38    3.07    -5.28081   149.30363    -3.27587
   275  O   6.0   -0.33    1.32    1.80    -3.07771   149.30697    -4.01492
   276  C   4.0   -0.06    4.39    4.36    -6.74973   149.90555     1.02493
   277  C   4.0   -0.03    4.17    3.94    -5.53990   147.29005     1.48333
   278  C   4.0   -0.08    4.06    3.72    -2.58755   147.17944     1.23878
   279  C   4.0   -0.08    4.10    3.81    -6.42433   146.50903     4.14791
   280  H   1.0    0.07    1.07    1.44   -10.04082   152.31761    -1.16887
   281  H   1.0    0.05    1.05    1.44    -4.68078   152.70076    -1.24717
   282  H   1.0    0.03    1.03    1.43    -6.20510   151.11331     2.60275
   283  H   1.0    0.03    1.05    1.44    -8.77689   149.59117     1.13113
   284  H   1.0    0.04    1.05    1.44    -6.32292   145.89640     0.17894
   285  H   1.0    0.04    1.00    1.43    -1.97086   145.23319     1.49556
   286  H   1.0    0.06    1.03    1.43    -1.92876   147.82196    -0.58019
   287  H   1.0    0.03    1.00    1.43    -1.71962   148.31335     2.70801
   288  H   1.0    0.04    1.00    1.43    -5.74224   144.61843     4.59061
   289  H   1.0    0.04    1.00    1.43    -5.69612   147.78784     5.57914
   290  H   1.0    0.03    1.00    1.43    -8.47306   146.45424     4.23901
   291  N   5.0   -0.19    3.28    1.98    -1.90790   152.08177    -7.99614
   292  C   4.0    0.03    4.45    4.46     0.61339   152.61038    -7.13270
   293  C   4.0    0.15    3.60    3.17     2.29789   150.29004    -7.10580
   294  O   6.0   -0.32    1.38    1.80     4.28875   150.21802    -8.27224
   295  C   4.0   -0.04    4.50    4.54     0.43463   153.67592    -4.52497
   296  C   4.0   -0.03    4.25    4.11     3.05384   154.18119    -3.52363
   297  C   4.0   -0.08    4.17    3.93     4.76432   155.29633    -5.56746
   298  C   4.0   -0.08    4.10    3.80     2.70445   155.93785    -1.21803
   299  H   1.0    0.12    1.06    1.44    -3.42604   152.67847    -6.98510
   300  H   1.0    0.04    1.07    1.44     1.46306   153.94053    -8.47791
   301  H   1.0    0.04    1.03    1.43    -0.65199   155.43502    -4.60789
   302  H   1.0    0.06    1.05    1.44    -0.56028   152.37033    -3.29651
   303  H   1.0    0.04    1.06    1.44     3.88721   152.39691    -2.89205
   304  H   1.0    0.04    1.00    1.43     6.47582   156.01495    -4.68370
   305  H   1.0    0.05    1.03    1.43     5.30901   153.91949    -6.96507
   306  H   1.0    0.04    1.00    1.43     3.83299   156.88188    -6.48907
   307  H   1.0    0.04    1.00    1.43     4.51490   156.40504    -0.37774
   308  H   1.0    0.03    1.00    1.43     1.76572   157.67045    -1.79254
   309  H   1.0    0.03    1.00    1.43     1.55515   154.99205     0.20305
   310  N   5.0   -0.16    3.56    2.12     1.67203   148.58849    -5.36414
   311  C   4.0    0.04    4.38    4.35     3.11634   146.31363    -5.28258
   312  C   4.0    0.11    3.40    3.08     3.86380   145.61282    -7.96176
   313  O   6.0   -0.28    1.18    1.80     6.10070   145.48412    -8.56799
   314  C   4.0   -0.05    4.18    3.95     1.77036   144.27765    -3.73781
   315  C   4.0   -0.04    4.08    3.77     3.03061   141.64325    -3.77864
   316  C   4.0    0.25    3.05    3.02     5.82449   141.20871    -4.94971
   317  O   6.0   -0.28    1.15    1.80     6.03017   140.47736    -7.20205
   318  O   6.0   -0.32    1.36    1.80     7.60034   141.47146    -3.42609
   319  H   1.0    0.11    1.16    1.46    -0.12916   148.50875    -4.75206
   320  H   1.0    0.05    1.06    1.44     4.93439   146.70127    -4.32664
   321  H   1.0    0.04    1.02    1.43     1.66873   144.95211    -1.78596
   322  H   1.0    0.04    1.03    1.43    -0.15715   144.09048    -4.46005
   323  H   1.0    0.05    1.02    1.43     3.17330   140.91972    -1.84916
   324  H   1.0    0.05    1.02    1.43     1.82362   140.35453    -4.85407
   325  N   5.0   -0.19    3.30    1.98     9.48695   149.64723   -10.48802
   326  C   4.0    0.04    4.39    4.36    11.53493   148.65849    -9.00604
   327  C   4.0    0.09    3.29    3.05    12.31311   146.24826   -10.26970
   328  O   6.0   -0.29    1.13    1.80    14.20913   146.30690   -11.61613
   329  C   4.0   -0.02    4.32    4.23    10.65369   148.22253    -6.31826
   330  C   4.0   -0.06    4.13    3.86    12.80078   147.11814    -4.77063
   331  C   4.0   -0.07    4.13    3.87     9.51627   150.62673    -5.24046
   332  H   1.0    0.12    1.07    1.44     7.77400   149.24146    -9.72402
   333  H   1.0    0.05    1.05    1.44    13.15422   149.95690    -9.09641
   334  H   1.0    0.07    1.08    1.44     9.15429   146.80447    -6.36704
   335  H   1.0    0.06    1.00    1.43    12.28802   146.88864    -2.80185
   336  H   1.0    0.06    1.01    1.43    13.33705   145.29185    -5.51610
   337  H   1.0    0.05    1.00    1.43    14.46097   148.33692    -4.82999
   338  H   1.0    0.04    1.00    1.43     9.09849   150.38180    -3.24589
   339  H   1.0    0.04    1.00    1.43    10.86503   152.17861    -5.39180
   340  H   1.0    0.06    1.02    1.43     7.81230   151.12335    -6.24113
   341  N   5.0   -0.23    3.15    1.95   -10.20047   172.53059    -2.04936
   342  C   4.0    0.02    4.22    4.05   -10.37409   170.02971    -3.15461
   343  C   4.0    0.06    3.28    3.05   -11.80303   169.75068    -5.60665
   344  O   6.0   -0.32    1.19    1.80   -11.57013   167.76326    -6.78274
   345  C   4.0   -0.04    4.40    4.37   -11.81502   168.08781    -1.49861
   346  C   4.0   -0.03    4.15    3.89   -10.70130   167.24807     1.05663
   347  C   4.0   -0.08    4.11    3.83   -11.98432   164.79945     1.90406
   348  C   4.0   -0.08    4.11    3.83    -7.86612   166.79346     0.93592
   349  H   1.0    0.08    1.03    1.43   -10.63673   172.63836    -0.19755
   350  H   1.0    0.03    1.07    1.44    -8.46864   169.30841    -3.47714
   351  H   1.0    0.04    1.03    1.43   -13.70492   168.83010    -1.13620
   352  H   1.0    0.05    1.05    1.44   -11.99526   166.39517    -2.66464
   353  H   1.0    0.04    1.05    1.44   -11.09281   168.70783     2.46848
   354  H   1.0    0.04    1.00    1.43   -11.37187   164.31901     3.80312
   355  H   1.0    0.04    1.00    1.43   -14.02516   165.01585     1.92599
   356  H   1.0    0.04    1.00    1.43   -11.47733   163.25384     0.64894
   357  H   1.0    0.03    1.00    1.43    -7.21913   165.95454     2.69597
   358  H   1.0    0.03    1.00    1.43    -7.39292   165.50646    -0.59139
   359  H   1.0    0.03    1.00    1.43    -6.83371   168.55312     0.68101
   360  N   5.0   -0.22    3.21    1.96    -7.68006   168.14216   -10.61897
   361  C   4.0    0.03    4.19    3.98    -6.51508   165.82332    -9.86017
   362  C   4.0    0.08    3.20    3.04    -8.27237   163.52325   -10.27872
   363  O   6.0   -0.31    1.17    1.80    -8.00863   161.55533    -9.10413
   364  C   4.0   -0.04    4.36    4.32    -5.87985   165.89883    -7.01287
   365  C   4.0   -0.03    4.13    3.86    -3.57476   167.42717    -6.08316
   366  C   4.0   -0.09    4.10    3.81    -4.16086   169.93485    -4.77212
   367  C   4.0   -0.09    4.12    3.85    -2.11051   165.80859    -4.15007
   368  H   1.0    0.10    1.06    1.44    -8.76178   168.92235    -9.25095
   369  H   1.0    0.03    1.05    1.44    -4.82024   165.47507   -11.00584
   370  H   1.0    0.06    1.04    1.43    -7.59707   166.44339    -6.02577
   371  H   1.0    0.05    1.09    1.44    -5.50246   163.93788    -6.55654
   372  H   1.0    0.03    1.05    1.44    -2.34968   167.78712    -7.70508
   373  H   1.0    0.03    1.00    1.43    -2.41948   171.01236    -4.60370
   374  H   1.0    0.03    1.00    1.43    -5.51084   171.05913    -5.79715
   375  H   1.0    0.03    1.01    1.43    -4.82656   169.57162    -2.86385
   376  H   1.0    0.03    1.00    1.43    -0.45099   166.83336    -3.50251
   377  H   1.0    0.03    1.00    1.43    -3.29589   165.37637    -2.53278
   378  H   1.0    0.03    1.00    1.43    -1.46732   164.05064    -4.99894
   379  N   5.0   -0.21    3.20    1.96    19.86439   165.96828   -11.90419
   380  C   4.0    0.03    4.15    3.90    21.19287   165.55583    -9.55996
   381  C   4.0    0.07    3.15    3.03    22.32560   162.90300    -9.26761
   382  O   6.0   -0.30    1.13    1.80    21.79323   160.97736   -10.38707
   383  C   4.0    0.02    4.11    3.81    19.66035   166.84021    -7.40911
   384  O   6.0   -0.27    2.05    1.83    20.95138   166.82689    -5.11614
   385  H   1.0    0.07    1.03    1.43    17.96313   166.06357   -11.87526
   386  H   1.0    0.04    1.07    1.44    22.91461   166.71832    -9.72820
   387  H   1.0    0.04    1.02    1.43    19.42123   168.83421    -7.92387
   388  H   1.0    0.03    1.02    1.43    17.79528   165.98577    -7.25110
   389  H   1.0    0.13    1.06    1.44    20.89317   165.17190    -4.31751
   390  N   5.0   -0.21    3.29    1.98    23.75605   158.44346     0.46963
   391  C   4.0    0.03    4.45    4.46    21.97304   160.11205     1.56535
   392  C   4.0    0.15    3.62    3.18    19.37043   159.15252     1.14567
   393  O   6.0   -0.30    1.41    1.80    17.71092   158.91173     2.76068
   394  C   4.0    0.06    4.34    4.27    21.98826   162.70883     0.25130
   395  O   6.0   -0.28    2.23    1.87    21.92020   162.53222    -2.38986
   396  C   4.0   -0.07    4.07    3.75    24.21264   164.33258     1.07811
   397  H   1.0    0.08    1.04    1.43    24.37915   158.89517    -1.27775
   398  H   1.0    0.08    1.10    1.44    22.32046   160.33113     3.58587
   399  H   1.0    0.05    1.05    1.44    20.23274   163.64477     0.84328
   400  H   1.0    0.11    1.03    1.43    23.59059   162.08309    -3.01734
   401  H   1.0    0.04    1.00    1.43    23.88966   166.29438     0.56787
   402  H   1.0    0.05    1.00    1.43    24.47931   164.20728     3.11280
   403  H   1.0    0.04    1.00    1.43    25.94165   163.68124     0.18954
   404  N   5.0   -0.14    3.73    2.31    18.86840   158.76492    -1.26318
   405  C   4.0    0.03    4.62    4.68    16.36589   158.05087    -1.95111
   406  C   4.0    0.16    3.67    3.22    15.55386   155.88552    -0.31500
   407  O   6.0   -0.32    1.38    1.80    13.62432   155.92571     0.98125
   408  C   4.0   -0.05    4.41    4.40    16.36770   157.50493    -4.72886
   409  C   4.0   -0.02    4.24    4.07    17.14948   159.90153    -6.16016
   410  C   4.0   -0.07    4.10    3.81    16.67668   159.58318    -8.99542
   411  C   4.0   -0.08    4.17    3.94    15.73288   162.17735    -5.08080
   412  H   1.0    0.08    1.10    1.44    20.22181   158.99614    -2.59382
   413  H   1.0    0.05    1.08    1.44    15.05967   159.58567    -1.47689
   414  H   1.0    0.04    1.03    1.43    17.63071   155.92451    -5.11316
   415  H   1.0    0.04    1.03    1.43    14.45399   156.96868    -5.29609
   416  H   1.0    0.05    1.06    1.44    19.16504   160.22593    -5.88602
   417  H   1.0    0.05    1.00    1.43    17.17005   161.28403   -10.01618
   418  H   1.0    0.05    1.00    1.43    17.84385   158.04948    -9.70140
   419  H   1.0    0.03    1.00    1.43    14.69732   159.14096    -9.33501
   420  H   1.0    0.03    1.01    1.43    15.48299   163.59147    -6.54369
   421  H   1.0    0.03    1.00    1.43    13.82280   161.66121    -4.50219
   422  H   1.0    0.05    1.00    1.43    16.71862   163.01868    -3.49287
   423  N   5.0   -0.15    3.57    2.13    17.02264   153.89411    -0.49278
   424  C   4.0    0.04    4.57    4.63    16.76475   151.80400     1.18199
   425  C   4.0    0.16    3.59    3.16    15.63555   152.32411     3.74266
   426  O   6.0   -0.32    1.30    1.80    14.47560   150.79504     5.06933
   427  C   4.0   -0.04    4.39    4.37    19.43994   150.89773     1.83331
   428  C   4.0   -0.03    4.19    3.98    19.35644   148.18516     2.74433
   429  C   4.0    0.24    3.17    3.03    17.97466   146.62217     0.64517
   430  O   6.0   -0.29    1.16    1.80    19.31370   145.14005    -0.61438
   431  O   6.0   -0.31    1.25    1.80    15.65209   146.92176     0.35190
   432  H   1.0    0.07    1.09    1.44    18.77148   154.15302    -1.26448
   433  H   1.0    0.08    1.12    1.45    15.67486   150.29880     0.27442
   434  H   1.0    0.04    1.03    1.43    20.58689   150.96857     0.11453
   435  H   1.0    0.04    1.03    1.43    20.33068   152.15026     3.21417
   436  H   1.0    0.05    1.02    1.43    21.26090   147.45157     3.03875
   437  H   1.0    0.06    1.02    1.43    18.29124   148.05544     4.51126
   438  N   5.0   -0.14    3.88    2.57    16.28886   154.53848     4.66065
   439  C   4.0    0.04    4.51    4.56    16.56170   154.93287     7.29631
   440  C   4.0    0.16    3.46    3.10    14.72887   156.89856     8.08844
   441  O   6.0   -0.31    1.26    1.80    14.40511   157.43076    10.29232
   442  C   4.0   -0.03    4.27    4.15    19.39407   155.38539     7.79520
   443  C   4.0   -0.02    4.15    3.90    20.12430   157.16706     9.93646
   444  C   4.0    0.25    3.10    3.02    21.85831   159.34882     8.88706
   445  O   6.0   -0.29    1.15    1.80    23.75096   159.98463    10.16460
   446  O   6.0   -0.29    1.25    1.80    21.13351   160.32202     6.85957
   447  H   1.0    0.11    1.19    1.46    17.31784   155.77107     3.62305
   448  H   1.0    0.05    1.09    1.44    15.97016   153.21385     8.28329
   449  H   1.0    0.04    1.02    1.43    20.32665   153.55304     8.04367
   450  H   1.0    0.06    1.06    1.44    20.16851   156.21936     6.07008
   451  H   1.0    0.08    1.04    1.44    18.46283   158.07777    10.73374
   452  H   1.0    0.06    1.02    1.43    21.13492   156.19717    11.44960
   453  N   5.0   -0.13    3.58    2.14    13.26083   157.65180     6.17557
   454  C   4.0    0.04    4.38    4.34    10.91545   158.97457     6.52542
   455  C   4.0    0.14    3.40    3.08     8.43074   157.44937     6.17429
   456  O   6.0   -0.32    1.25    1.80     6.53986   157.94110     7.39342
   457  C   4.0   -0.03    4.33    4.25    10.82841   161.31095     4.81983
   458  C   4.0   -0.04    4.00    3.63    10.00124   160.97057     2.05915
   459  S   6.0   -0.06    2.40    3.10     9.87522   164.16406     0.50678
   460  C   4.0   -0.07    3.85    3.40    13.27144   165.09851     0.49975
   461  H   1.0    0.12    1.15    1.45    13.81648   157.23546     4.38839
   462  H   1.0    0.06    1.07    1.44    10.91582   159.62540     8.48925
   463  H   1.0    0.06    1.04    1.43     9.49926   162.62683     5.69901
   464  H   1.0    0.06    1.04    1.43    12.71538   162.14927     4.89345
   465  H   1.0    0.06    1.05    1.44    11.31133   159.79569     0.99178
   466  H   1.0    0.04    1.06    1.44     8.10433   160.19519     1.92289
   467  H   1.0    0.04    1.04    1.43    13.53669   166.32921    -1.10862
   468  H   1.0    0.05    1.03    1.43    13.70425   166.04738     2.26219
   469  H   1.0    0.05    1.03    1.43    14.39015   163.39109     0.34598
   470  N   5.0   -0.15    3.46    2.05     8.55386   155.65444     4.36624
   471  C   4.0    0.03    4.43    4.43     7.26407   153.26085     4.58867
   472  C   4.0    0.15    3.61    3.17     7.71371   151.90151     7.11073
   473  O   6.0   -0.32    1.53    1.80     5.85367   151.39152     8.37686
   474  C   4.0   -0.05    4.39    4.37     8.14526   151.61457     2.43214
   475  C   4.0   -0.02    4.22    4.05     7.32529   148.89494     2.85076
   476  C   4.0   -0.07    4.07    3.75     4.42231   148.64457     2.57969
   477  C   4.0   -0.07    4.05    3.71     8.89355   147.02036     1.22548
   478  H   1.0    0.09    1.11    1.44    10.27262   155.49636     3.53482
   479  H   1.0    0.05    1.06    1.44     5.22130   153.60882     4.50210
   480  H   1.0    0.04    1.03    1.43     7.41251   152.32785     0.64097
   481  H   1.0    0.06    1.03    1.43    10.20985   151.66750     2.34728
   482  H   1.0    0.06    1.08    1.44     7.76855   148.37469     4.81455
   483  H   1.0    0.06    1.00    1.43     3.86657   146.70876     2.99095
   484  H   1.0    0.04    1.00    1.43     3.49251   149.87648     3.92494
   485  H   1.0    0.04    1.00    1.43     3.83063   149.12979     0.67228
   486  H   1.0    0.06    1.00    1.43     8.40880   145.10935     1.81305
   487  H   1.0    0.04    1.00    1.43     8.44326   147.19541    -0.76704
   488  H   1.0    0.06    1.00    1.43    10.90404   147.32193     1.52386
   489  N   5.0   -0.14    3.46    2.06    10.03860   151.46102     8.04069
   490  C   4.0    0.03    4.44    4.45    10.24179   150.49711    10.60818
   491  C   4.0    0.17    3.57    3.15     8.02734   151.50457    12.21572
   492  O   6.0   -0.31    1.21    1.80     6.94680   150.35695    13.84451
   493  C   4.0   -0.04    4.26    4.13    12.66105   151.36767    11.94949
   494  C   4.0   -0.03    4.12    3.84    14.95542   149.68648    11.42116
   495  C   4.0    0.24    3.05    3.02    16.58660   149.10350    13.90270
   496  O   6.0   -0.28    1.19    1.80    15.19109   148.67276    15.79904
   497  O   6.0   -0.28    1.13    1.80    18.93165   149.01535    13.89478
   498  H   1.0    0.11    1.09    1.44    11.62083   151.40971     6.94959
   499  H   1.0    0.05    1.04    1.43    10.12635   148.41621    10.62439
   500  H   1.0    0.06    1.03    1.43    13.07518   153.33411    11.49203
   501  H   1.0    0.07    1.05    1.44    12.28721   151.23701    13.98016
   502  H   1.0    0.05    1.03    1.43    14.31208   147.84311    10.74590
   503  H   1.0    0.05    1.02    1.43    16.24459   150.42519    10.00178
   504  N   5.0   -0.12    3.61    2.17     7.64763   153.99623    11.77179
   505  C   4.0    0.03    4.30    4.21     6.40451   155.72997    13.51165
   506  C   4.0    0.16    3.46    3.10     3.47319   155.46339    13.26304
   507  O   6.0   -0.32    1.33    1.80     1.96216   154.92538    14.94173
   508  C   4.0   -0.05    4.17    3.93     7.43745   158.50442    13.11593
   509  C   4.0   -0.04    4.13    3.86    10.16993   159.03170    14.08610
   510  C   4.0   -0.04    4.14    3.87    10.36561   161.30879    15.88062
   511  C   4.0   -0.02    4.14    3.87    13.15325   161.98560    16.25354
   512  N   5.0   -0.12    4.01    2.88    13.50237   164.35068    17.77217
   513  H   1.0    0.09    1.11    1.44     8.89902   154.82938    10.60005
   514  H   1.0    0.05    1.05    1.44     6.87406   155.11509    15.44149
   515  H   1.0    0.07    1.04    1.43     7.24118   159.00974    11.13764
   516  H   1.0    0.04    1.03    1.43     6.13680   159.68914    14.19292
   517  H   1.0    0.05    1.02    1.43    10.90562   157.34468    15.02842
   518  H   1.0    0.07    1.04    1.43    11.41727   159.35519    12.48417
   519  H   1.0    0.06    1.03    1.43     9.36620   162.89821    15.03407
   520  H   1.0    0.04    1.02    1.43     9.52594   160.78125    17.68831
   521  H   1.0    0.05    1.02    1.43    14.13198   160.41995    17.17006
   522  H   1.0    0.07    1.02    1.43    14.01706   162.27352    14.40338
   523  H   1.0    0.06    1.02    1.43    15.40161   164.63974    18.07600
   524  H   1.0    0.09    1.07    1.44    12.75503   165.78905    16.63435
   525  H   1.0    0.05    1.02    1.43    12.62320   164.17036    19.49697
   526  N   5.0   -0.15    3.55    2.11     2.64899   156.04223    10.97319
   527  C   4.0    0.04    4.57    4.63     0.00970   155.57670    10.59216
   528  C   4.0    0.16    3.93    3.50    -0.56054   152.81805    10.87935
   529  O   6.0   -0.33    1.56    1.80    -2.68798   152.10900    11.45257
   530  C   4.0   -0.05    4.45    4.46    -0.94191   156.52030     8.07957
   531  C   4.0   -0.02    4.32    4.23    -2.60281   154.60295     6.80829
   532  C   4.0   -0.09    4.11    3.82    -4.09318   156.02114     4.76542
   533  C   4.0   -0.07    4.23    4.05    -0.91558   152.44834     5.86005
   534  H   1.0    0.11    1.08    1.44     3.82758   156.46607     9.53175
   535  H   1.0    0.05    1.08    1.44    -1.00087   156.55434    12.11034
   536  H   1.0    0.03    1.03    1.43    -1.97459   158.27943     8.36924
   537  H   1.0    0.04    1.04    1.43     0.66882   156.94131     6.85709
   538  H   1.0    0.05    1.09    1.44    -3.99384   153.89074     8.13686
   539  H   1.0    0.03    1.00    1.43    -5.40187   154.77483     3.80296
   540  H   1.0    0.03    1.00    1.43    -5.18661   157.51854     5.64050
   541  H   1.0    0.03    1.00    1.43    -2.84732   156.85105     3.35343
   542  H   1.0    0.04    1.01    1.43    -1.61527   150.60882     6.42823
   543  H   1.0    0.03    1.00    1.43    -0.92154   152.46866     3.79532
   544  H   1.0    0.05    1.03    1.43     1.04142   152.64281     6.43250
   545  N   5.0   -0.14    3.75    2.34     1.19972   151.11623    10.46536
   546  C   4.0    0.04    4.60    4.66     0.12602   148.67583    10.58314
   547  C   4.0    0.17    3.73    3.27    -0.77972   148.50541    13.28446
   548  O   6.0   -0.29    1.36    1.80    -2.86516   147.63905    13.79571
   549  C   4.0   -0.04    4.26    4.13     1.73949   146.80400     9.15045
   550  C   4.0   -0.02    4.09    3.79     4.26209   145.84287    10.19744
   551  C   4.0    0.24    3.06    3.02     5.44992   143.82388     8.26884
   552  O   6.0   -0.31    1.20    1.80     4.05733   143.37515     6.40483
   553  O   6.0   -0.31    1.14    1.80     7.62244   142.93135     8.69092
   554  H   1.0    0.12    1.13    1.45     2.99179   151.38944     9.89445
   555  H   1.0    0.05    1.10    1.44    -1.68246   148.68762     9.52999
   556  H   1.0    0.05    1.04    1.43     0.58992   145.12226     8.79023
   557  H   1.0    0.05    1.04    1.43     2.13093   147.64758     7.31312
   558  H   1.0    0.07    1.02    1.43     5.63760   147.35039    10.44688
   559  H   1.0    0.05    1.01    1.43     4.02441   144.89900    12.02642
   560  N   5.0   -0.13    3.59    2.15     0.57802   149.64116    15.10729
   561  C   4.0    0.04    4.66    4.73    -0.53651   149.06471    17.55038
   562  C   4.0    0.16    3.76    3.29    -2.98016   150.46776    17.94276
   563  O   6.0   -0.31    1.41    1.80    -4.77748   149.60917    19.16065
   564  C   4.0   -0.02    4.28    4.15     1.08809   149.63594    19.88041
   565  C   4.0   -0.06    4.13    3.86     3.28097   151.39740    19.24116
   566  C   4.0   -0.06    4.19    3.98    -0.53562   150.54287    22.12350
   567  H   1.0    0.10    1.07    1.44     2.47430   149.84260    14.95568
   568  H   1.0    0.06    1.07    1.44    -1.03212   147.04170    17.57827
   569  H   1.0    0.05    1.06    1.44     1.92112   147.83873    20.48593
   570  H   1.0    0.05    1.00    1.43     4.24263   151.90044    20.98516
   571  H   1.0    0.06    1.00    1.43     4.64011   150.44286    18.03106
   572  H   1.0    0.07    1.02    1.43     2.61457   153.10319    18.32143
   573  H   1.0    0.05    1.00    1.43     0.66180   150.64974    23.79449
   574  H   1.0    0.05    1.01    1.43    -1.33565   152.40771    21.81577
   575  H   1.0    0.06    1.01    1.43    -2.04246   149.21454    22.54188
   576  N   5.0   -0.14    3.66    2.22    -2.88460   152.81633    17.13151
   577  C   4.0    0.04    4.63    4.69    -5.00157   154.45873    17.53009
   578  C   4.0    0.17    3.75    3.29    -7.37134   153.06709    16.93383
   579  O   6.0   -0.29    1.27    1.80    -9.38387   153.44458    17.97876
   580  C   4.0   -0.02    4.34    4.28    -4.75137   156.71320    15.77858
   581  C   4.0   -0.07    4.20    4.01    -6.97163   156.92871    13.96662
   582  C   4.0   -0.08    4.11    3.83    -4.30845   159.04597    17.40670
   583  H   1.0    0.11    1.11    1.44    -1.30403   153.43846    16.24292
   584  H   1.0    0.05    1.07    1.44    -5.09419   155.08174    19.49630
   585  H   1.0    0.05    1.08    1.44    -3.05932   156.38641    14.64696
   586  H   1.0    0.03    1.00    1.43    -6.82045   158.69430    12.92149
   587  H   1.0    0.05    1.02    1.43    -6.96305   155.38143    12.62919
   588  H   1.0    0.05    1.01    1.43    -8.75316   156.94202    14.98987
   589  H   1.0    0.04    1.00    1.43    -4.08799   160.71782    16.23397
   590  H   1.0    0.04    1.00    1.43    -5.90868   159.30017    18.66336
   591  H   1.0    0.04    1.00    1.43    -2.63520   158.78293    18.56513
   592  N   5.0   -0.14    3.73    2.32    -7.15094   151.57080    14.92802
   593  C   4.0    0.05    4.64    4.71    -9.33160   150.25319    14.19276
   594  C   4.0    0.16    3.62    3.18   -10.17347   148.27107    16.04195
   595  O   6.0   -0.29    1.34    1.80   -12.43431   147.76097    16.31238
   596  C   4.0   -0.02    4.31    4.22    -9.04900   149.14448    11.58443
   597  C   4.0   -0.07    4.15    3.91   -11.68897   148.29822    10.73504
   598  C   4.0   -0.08    4.15    3.90    -7.93634   151.06216     9.74898
   599  H   1.0    0.12    1.12    1.45    -5.46489   151.06096    14.20409
   600  H   1.0    0.06    1.08    1.44   -10.90232   151.63563    14.15387
   601  H   1.0    0.06    1.05    1.44    -7.80447   147.49217    11.69936
   602  H   1.0    0.04    1.00    1.43   -11.58862   147.25236     8.96867
   603  H   1.0    0.06    1.02    1.43   -12.55206   147.05752    12.11747
   604  H   1.0    0.04    1.00    1.43   -12.90468   149.93533    10.46423
   605  H   1.0    0.03    1.00    1.43    -8.07504   150.31731     7.84082
   606  H   1.0    0.04    1.00    1.43    -9.00014   152.81801     9.83963
   607  H   1.0    0.07    1.04    1.43    -5.97825   151.38052    10.19408
   608  N   5.0   -0.11    3.69    2.26    -8.53056   147.19265    17.53286
   609  C   4.0    0.07    4.76    4.80    -9.66248   145.72281    19.45856
   610  C   4.0    0.10    3.34    3.06   -11.04325   147.28507    21.31030
   611  O   6.0   -0.28    1.13    1.80   -12.89529   146.48992    22.46605
   612  C   4.0   -0.04    4.42    4.41    -7.64625   144.27654    20.86621
   613  C   4.0    0.16    3.45    3.10    -7.52483   142.22080    18.90576
   614  O   6.0   -0.29    1.32    1.80    -7.22703   142.84577    16.67665
   615  N   5.0   -0.19    3.17    1.95    -8.15903   139.92865    19.85386
   616  H   1.0    0.12    1.11    1.44    -6.64618   147.23824    17.25873
   617  H   1.0    0.07    1.10    1.44   -11.02496   144.38196    18.63969
   618  H   1.0    0.06    1.03    1.43    -5.93638   145.40463    21.01324
   619  H   1.0    0.05    1.03    1.43    -8.24759   143.58149    22.70844
   620  H   1.0    0.09    1.02    1.43    -8.40641   138.41930    18.71706
   621  H   1.0    0.08    1.03    1.43    -8.56466   139.72811    21.70550
   622  N   5.0   -0.22    3.20    1.96    14.54468   152.31918    33.19025
   623  C   4.0    0.03    4.20    4.01    14.27155   152.75683    30.48480
   624  C   4.0    0.08    3.21    3.04    13.97318   150.21056    29.19886
   625  O   6.0   -0.28    1.12    1.80    12.39437   149.84723    27.55215
   626  C   4.0   -0.04    4.27    4.14    16.51380   154.29754    29.45252
   627  C   4.0   -0.03    4.15    3.90    15.82078   156.34874    27.55282
   628  C   4.0    0.25    3.10    3.02    17.41606   156.00564    25.08766
   629  O   6.0   -0.28    1.21    1.80    18.78745   154.09913    24.94918
   630  O   6.0   -0.28    1.16    1.80    17.10998   157.62293    23.40174
   631  H   1.0    0.07    1.03    1.43    15.62830   153.61316    34.11446
   632  H   1.0    0.05    1.05    1.44    12.49827   153.79768    30.17682
   633  H   1.0    0.04    1.04    1.43    17.43454   155.20256    31.04000
   634  H   1.0    0.07    1.06    1.44    17.87260   153.02713    28.53726
   635  H   1.0    0.05    1.02    1.43    13.83189   156.22594    27.01643
   636  H   1.0    0.04    1.02    1.43    16.11961   158.24386    28.31557
   637  N   5.0   -0.21    3.27    1.97     7.95452   145.66078    30.82567
   638  C   4.0    0.03    4.29    4.19     5.63422   146.06314    29.46156
   639  C   4.0    0.08    3.22    3.04     5.53514   144.50692    27.07091
   640  O   6.0   -0.29    1.12    1.80     3.51957   143.67395    26.30941
   641  C   4.0   -0.03    4.36    4.31     5.48553   148.83525    28.88562
   642  C   4.0   -0.03    4.25    4.11     5.13266   150.17546    31.39835
   643  C   4.0    0.24    3.14    3.03     3.71509   152.67415    30.79482
   644  O   6.0   -0.30    1.17    1.80     4.91631   154.22468    29.47338
   645  O   6.0   -0.31    1.16    1.80     1.49592   152.87951    31.58483
   646  H   1.0    0.08    1.04    1.43     8.83735   147.20114    31.53321
   647  H   1.0    0.05    1.05    1.44     3.98644   145.49080    30.60291
   648  H   1.0    0.07    1.03    1.43     7.16800   149.51840    27.91480
   649  H   1.0    0.06    1.04    1.43     3.84582   149.21411    27.68307
   650  H   1.0    0.05    1.03    1.43     3.92819   149.09483    32.68750
   651  H   1.0    0.04    1.02    1.43     6.92263   150.62316    32.30243
   652  N   5.0   -0.21    3.22    1.96    16.51877   139.63898    15.83264
   653  C   4.0    0.03    4.38    4.35    14.35416   138.38635    14.79909
   654  C   4.0    0.14    3.44    3.09    15.01445   136.44761    12.69029
   655  O   6.0   -0.30    1.38    1.80    14.27525   134.27491    13.10770
   656  C   4.0   -0.02    4.34    4.27    12.36757   140.38168    14.04911
   657  C   4.0   -0.04    4.26    4.12    10.31923   139.01928    12.55396
   658  C   4.0   -0.06    4.10    3.81    13.34793   142.61913    12.51547
   659  C   4.0   -0.07    4.06    3.73     9.10312   136.95312    14.13986
   660  H   1.0    0.09    1.03    1.43    16.29048   141.40862    16.52318
   661  H   1.0    0.05    1.07    1.44    13.51482   137.19425    16.27116
   662  H   1.0    0.04    1.06    1.44    11.53652   141.11873    15.79061
   663  H   1.0    0.06    1.03    1.43     8.87980   140.37410    11.96749
   664  H   1.0    0.05    1.03    1.43    11.11516   138.25474    10.81446
   665  H   1.0    0.06    1.00    1.43    11.75260   143.51264    11.56817
   666  H   1.0    0.06    1.00    1.43    14.23991   144.05147    13.69352
   667  H   1.0    0.05    1.00    1.43    14.68457   142.05223    11.06160
   668  H   1.0    0.05    1.00    1.43     7.37923   136.29198    13.25032
   669  H   1.0    0.06    1.01    1.43    10.36477   135.37510    14.45309
   670  H   1.0    0.04    1.00    1.43     8.55985   137.76095    15.94844
   671  N   5.0   -0.15    3.38    2.01    16.09491   136.81029    10.41173
   672  C   4.0    0.04    4.38    4.34    16.04739   134.68439     8.63445
   673  C   4.0    0.10    3.33    3.06    16.92862   132.21466     9.84088
   674  O   6.0   -0.29    1.11    1.80    15.90451   130.17663     9.51705
   675  C   4.0   -0.06    4.30    4.19    17.86609   135.14755     6.44917
   676  C   4.0   -0.05    4.18    3.95    16.69515   136.86762     4.47395
   677  C   4.0   -0.01    4.18    3.96    14.46367   135.58014     3.11023
   678  N   5.0   -0.14    3.35    2.00    12.40400   137.41319     2.61296
   679  C   4.0    0.10    3.33    3.06    11.52259   137.97594     0.27004
   680  N   5.0   -0.18    3.23    1.96    11.42738   136.15005    -1.50830
   681  N   5.0   -0.17    3.27    1.97    10.94620   140.32420    -0.31313
   682  H   1.0    0.07    1.05    1.44    16.58231   138.53447     9.76699
   683  H   1.0    0.05    1.05    1.44    14.10293   134.40581     7.97709
   684  H   1.0    0.04    1.03    1.43    19.60470   135.98095     7.16007
   685  H   1.0    0.04    1.04    1.43    18.32490   133.33448     5.57803
   686  H   1.0    0.04    1.03    1.43    15.98594   138.56699     5.40766
   687  H   1.0    0.04    1.03    1.43    18.10545   137.48889     3.12623
   688  H   1.0    0.04    1.03    1.43    15.05514   134.78320     1.31200
   689  H   1.0    0.04    1.03    1.43    13.67554   134.06375     4.26561
   690  H   1.0    0.08    1.08    1.44    12.41693   138.92979     3.78354
   691  H   1.0    0.08    1.03    1.43    11.28133   134.33540    -0.93279
   692  H   1.0    0.09    1.03    1.43    10.46360   136.54083    -3.11020
   693  H   1.0    0.09    1.03    1.43    11.26113   141.78000     0.86731
   694  H   1.0    0.14    1.18    1.46     9.95731   140.73578    -1.93495
   695  H   1.0    0.08    1.07    1.44     3.64335   181.52292    -2.59896
   696  H   1.0    0.07    1.05    1.44   -16.30924   166.45054    16.75858
   697  H   1.0    0.09    1.07    1.44   -14.29868   152.29508    -5.97698
   698  H   1.0    0.05    1.05    1.44    -6.46981   147.97181    -3.89521
   699  H   1.0    0.09    1.08    1.44    -2.14200   152.78254    -9.52802
   700  H   1.0    0.06    1.05    1.44     2.53018   145.25118    -9.25084
   701  H   1.0    0.09    1.07    1.44     9.62847   151.33871   -10.59494
   702  H   1.0    0.07    1.04    1.44    11.30345   144.67319   -10.00366
   703  H   1.0    0.08    1.07    1.44    -8.60868   173.10966    -2.20238
   704  H   1.0    0.05    1.04    1.43   -12.89814   171.15996    -6.22771
   705  H   1.0    0.08    1.08    1.44    -6.47840   169.27292   -11.03121
   706  H   1.0    0.05    1.05    1.44    -9.67410   163.62267   -11.54218
   707  H   1.0    0.08    1.08    1.44    20.35825   167.44695   -12.58404
   708  H   1.0    0.05    1.06    1.44    23.70189   162.59666    -8.00943
   709  H   1.0    0.09    1.08    1.44    25.14166   158.36770     1.45295
   710  H   1.0    0.07    1.05    1.44   -10.47981   149.05453    21.66047
   711  H   1.0    0.09    1.07    1.44    13.01246   152.34941    33.92777
   712  H   1.0    0.06    1.05    1.44    15.08772   148.76647    29.69229
   713  H   1.0    0.09    1.07    1.44     7.65840   144.65618    32.16569
   714  H   1.0    0.06    1.05    1.44     7.12143   144.15525    26.10598
   715  H   1.0    0.09    1.08    1.44    17.13026   138.73341    17.13593
   716  H   1.0    0.06    1.05    1.44    18.43688   132.20466    10.97936

  Z AO/shell   Hii/eV     exponent
  1     Wed Apr 25 08:07:45 CEST 2018   EN: 2.200 GM2: 0.406  GM3: 0.0800  RAES: 1.40
     1s    -10.707211    1.230000
  6     Wed Apr 25 08:07:45 CEST 2018   EN: 2.550 GM2: 0.538  GM3: 0.1500  RAES: 3.00
     2s    -13.970922    2.096432
     2p    -10.063292    1.800000
  7     Wed Apr 25 08:07:45 CEST 2018   EN: 3.040 GM2: 0.461  GM3:-0.0640  RAES: 1.90
     2s    -16.686243    2.339881
     2p    -12.523956    2.014332
  8     Wed Apr 25 08:07:45 CEST 2018   EN: 3.440 GM2: 0.452  GM3:-0.0517  RAES: 1.80
     2s    -20.229985    2.439742
     2p    -15.503117    2.137023
 16     Tue Apr 24 11:44:34 CEST 2018   EN: 2.580 GM2: 0.340  GM3:-0.0502  RAES: 3.10
     3s    -20.029654    1.981333
     3p    -11.377694    2.025643
     3d     -0.420282    1.702555
 no old-style atom pair restraining (fixing) potential

molecular fragmentation (1/2 indicates fragments):
111111111111111111111111111111111111111111111111111111111111111111111111
111111111111111111111111111111111111111111111111111111111111111111111111
111111111111111111111111111111111111111111111111111111111111111111111111
111111111111111111111111111111111111112222222222222222222222222222222222
222222222222222222222222222222222222222222222222222222222222222222222222
222222222222222222222222222222222222222222222222222222222222222222222222
222222222222222222222222222222222222222222222222222222222222222222222222
222222222222222222222222222222222222222222222222222222222222222222222222
222222222222222222222222222222222222222222222222222222222222222222222222
22222222222222222222222222222222222222222222221122222222222222222222
# atoms in fragment 1/2:   256   460
 fragment masses (1/2) :     1682.06     3069.76
CMA distance (Bohr)    :  20.154
constraining FC (au)   :  0.0500
           ------------------------------------------------- 
          |        Self-Consistent Charge Iterations        |
           ------------------------------------------------- 

 Ncao       : 1718
 Nao        : 1716
 Nshell     : 1048
 Nel        : 1892
 T(el)      :   500.0
 intcut     :    35.0
 scfconv/Eh :  0.100E-06
   qconv/e  :  0.100E-04
 intneglect :  0.100E-08
 broydamp   :      0.400
 iter      E             dE          RMSdq      gap      omega  full diag
   1  -1079.7363373 -0.107974E+04  0.448E+00    2.80       0.0  T
   2  -1082.3791528 -0.264282E+01  0.209E+00    1.53       1.0  T
   3  -1082.5637194 -0.184567E+00  0.121E+00    1.81       1.0  T
   4  -1082.7444244 -0.180705E+00  0.264E-01    1.33       1.0  T
   5  -1082.7541802 -0.975588E-02  0.137E-01    1.54       1.0  T
   6  -1082.7560157 -0.183543E-02  0.599E-02    1.45       1.0  T
   7  -1082.7565489 -0.533202E-03  0.289E-02    1.47       1.0  T
   8  -1082.7566407 -0.917973E-04  0.132E-02    1.44       1.0  T
   9  -1082.7566681 -0.274212E-04  0.617E-03    1.45       1.0  T
  10  -1082.7566725 -0.443247E-05  0.259E-03    1.44       1.4  T
  11  -1082.7566737 -0.118757E-05  0.123E-03    1.44       3.0  T
  12  -1082.7566739 -0.159820E-06  0.514E-04    1.44       7.3  T
  13  -1082.7566739 -0.213017E-07  0.251E-04    1.44      14.9  T
  14  -1082.7566739 -0.668615E-08  0.997E-05    1.44      37.5  T
  15  -1082.7566739 -0.108184E-08  0.503E-05    1.44      74.3  T
speedup  1.96
cpu  time for SCC   35.39 s
wall time for SCC   18.06 s

   *** convergence criteria satisfied after 15 iterations ***

          eigenvalues
 #    :         934        935        936        937        938        939        940        941
 occ. :        2.000      2.000      2.000      2.000      2.000      2.000      2.000      2.000
 eps  :       -10.119    -10.057    -10.029     -9.981     -9.980     -9.947     -9.931     -9.897
 #    :         942        943        944        945        946        947        948        949
 occ. :        2.000      2.000      2.000      2.000      2.000      0.000      0.000      0.000
 eps  :        -9.822     -9.779     -9.731     -9.448     -9.325     -7.884     -7.859     -7.792
 #    :         950        951        952        953        954        955        956        957
 occ. :        0.000      0.000      0.000      0.000      0.000      0.000      0.000      0.000
 eps  :        -7.697     -7.632     -7.580     -7.558     -7.542     -7.516     -7.510     -7.479


   #   Z            q   n(s)   n(p)   n(d)      C6AA      α(0)
   1   7 N     -0.388  1.313  4.075  0.000    30.040     8.140
   2   6 C      0.020  1.065  2.915  0.000    20.252     6.410
   3   6 C      0.265  1.051  2.684  0.000    22.532     7.772
   4   8 O     -0.493  1.741  4.752  0.000    23.638     6.518
   5   6 C     -0.128  1.045  3.083  0.000    23.020     6.842
   6   1 H      0.162  0.838  0.000  0.000     1.320     1.800
   7   1 H      0.063  0.937  0.000  0.000     2.163     2.300
   8   1 H      0.038  0.962  0.000  0.000     2.479     2.462
   9   1 H      0.060  0.940  0.000  0.000     2.197     2.318
  10   1 H      0.048  0.952  0.000  0.000     2.341     2.392
  11   7 N     -0.170  1.249  3.921  0.000    24.672     7.377
  12   6 C      0.007  1.071  2.922  0.000    20.471     6.445
  13   6 C      0.273  1.044  2.683  0.000    22.377     7.746
  14   8 O     -0.499  1.753  4.745  0.000    23.759     6.535
  15   6 C     -0.090  1.068  3.021  0.000    22.208     6.709
  16   6 C     -0.017  1.061  2.956  0.000    20.849     6.495
  17   6 C     -0.123  1.042  3.081  0.000    22.911     6.826
  18   6 C     -0.121  1.043  3.078  0.000    22.884     6.821
  19   1 H      0.220  0.780  0.000  0.000     1.012     1.576
  20   1 H      0.069  0.931  0.000  0.000     2.093     2.262
  21   1 H      0.075  0.925  0.000  0.000     2.027     2.226
  22   1 H      0.059  0.941  0.000  0.000     2.211     2.325
  23   1 H      0.030  0.970  0.000  0.000     2.581     2.512
  24   1 H      0.042  0.958  0.000  0.000     2.424     2.435
  25   1 H      0.044  0.956  0.000  0.000     2.391     2.418
  26   1 H      0.048  0.952  0.000  0.000     2.341     2.393
  27   1 H      0.039  0.961  0.000  0.000     2.465     2.455
  28   1 H      0.055  0.945  0.000  0.000     2.257     2.349
  29   1 H      0.043  0.957  0.000  0.000     2.416     2.430
  30   7 N     -0.180  1.255  3.925  0.000    24.897     7.411
  31   6 C     -0.001  1.081  2.920  0.000    20.615     6.468
  32   6 C      0.284  1.040  2.676  0.000    22.194     7.714
  33   8 O     -0.491  1.750  4.741  0.000    23.585     6.511
  34   6 C     -0.095  1.063  3.031  0.000    22.303     6.723
  35   6 C     -0.079  1.052  3.027  0.000    22.009     6.679
  36   6 C     -0.098  1.057  3.042  0.000    22.374     6.734
  37   6 C     -0.053  1.060  2.993  0.000    21.617     6.637
  38   7 N     -0.149  1.231  3.918  0.000    24.208     7.308
  39   1 H      0.224  0.776  0.000  0.000     0.992     1.560
  40   1 H      0.092  0.908  0.000  0.000     1.863     2.135
  41   1 H      0.078  0.922  0.000  0.000     2.002     2.213
  42   1 H      0.066  0.934  0.000  0.000     2.126     2.280
  43   1 H      0.077  0.923  0.000  0.000     2.014     2.220
  44   1 H      0.059  0.941  0.000  0.000     2.209     2.324
  45   1 H      0.073  0.927  0.000  0.000     2.050     2.239
  46   1 H      0.084  0.916  0.000  0.000     1.941     2.178
  47   1 H      0.122  0.878  0.000  0.000     1.598     1.977
  48   1 H      0.117  0.883  0.000  0.000     1.639     2.002
  49   1 H      0.302  0.698  0.000  0.000     0.708     1.318
  50   1 H      0.295  0.705  0.000  0.000     0.727     1.336
  51   1 H      0.299  0.701  0.000  0.000     0.716     1.326
  52   7 N     -0.177  1.237  3.940  0.000    24.841     7.402
  53   6 C      0.014  1.062  2.924  0.000    20.345     6.423
  54   6 C      0.272  1.053  2.675  0.000    22.403     7.751
  55   8 O     -0.485  1.746  4.739  0.000    23.451     6.493
  56   6 C     -0.037  1.075  2.962  0.000    21.202     6.549
  57   6 C     -0.074  1.054  3.020  0.000    21.913     6.665
  58   6 C     -0.132  1.048  3.084  0.000    23.095     6.854
  59   6 C     -0.111  1.036  3.075  0.000    22.695     6.794
  60   1 H      0.224  0.776  0.000  0.000     0.992     1.560
  61   1 H      0.085  0.915  0.000  0.000     1.924     2.169
  62   1 H      0.082  0.918  0.000  0.000     1.957     2.188
  63   1 H      0.053  0.947  0.000  0.000     2.281     2.362
  64   1 H      0.036  0.964  0.000  0.000     2.508     2.477
  65   1 H      0.065  0.935  0.000  0.000     2.145     2.290
  66   1 H      0.062  0.938  0.000  0.000     2.171     2.304
  67   1 H      0.054  0.946  0.000  0.000     2.266     2.354
  68   1 H      0.026  0.974  0.000  0.000     2.642     2.542
  69   1 H      0.042  0.958  0.000  0.000     2.424     2.435
  70   1 H      0.035  0.965  0.000  0.000     2.520     2.483
  71   7 N     -0.178  1.252  3.925  0.000    24.850     7.404
  72   6 C      0.018  1.067  2.916  0.000    20.281     6.412
  73   6 C      0.277  1.050  2.672  0.000    22.305     7.734
  74   8 O     -0.487  1.760  4.727  0.000    23.496     6.499
  75   6 C     -0.080  1.064  3.016  0.000    22.032     6.684
  76   6 C     -0.016  1.058  2.958  0.000    20.825     6.491
  77   6 C     -0.123  1.043  3.079  0.000    22.890     6.819
  78   6 C     -0.111  1.041  3.070  0.000    22.659     6.785
  79   1 H      0.214  0.786  0.000  0.000     1.037     1.595
  80   1 H      0.090  0.910  0.000  0.000     1.879     2.144
  81   1 H      0.076  0.924  0.000  0.000     2.025     2.225
  82   1 H      0.049  0.951  0.000  0.000     2.333     2.389
  83   1 H      0.040  0.960  0.000  0.000     2.446     2.446
  84   1 H      0.040  0.960  0.000  0.000     2.451     2.448
  85   1 H      0.052  0.948  0.000  0.000     2.290     2.367
  86   1 H      0.056  0.944  0.000  0.000     2.245     2.343
  87   1 H      0.036  0.964  0.000  0.000     2.500     2.473
  88   1 H      0.051  0.949  0.000  0.000     2.301     2.372
  89   1 H      0.011  0.989  0.000  0.000     2.866     2.648
  90   7 N     -0.208  1.250  3.958  0.000    25.530     7.504
  91   6 C      0.037  1.052  2.911  0.000    19.952     6.361
  92   6 C      0.263  1.052  2.686  0.000    22.574     7.782
  93   8 O     -0.494  1.725  4.770  0.000    23.661     6.522
  94   6 C     -0.103  1.064  3.039  0.000    22.459     6.746
  95   6 C      0.295  1.035  2.670  0.000    21.987     7.678
  96   8 O     -0.520  1.779  4.741  0.000    24.230     6.600
  97   7 N     -0.289  1.273  4.016  0.000    27.449     7.781
  98   1 H      0.228  0.772  0.000  0.000     0.974     1.546
  99   1 H      0.058  0.942  0.000  0.000     2.223     2.332
 100   1 H      0.078  0.922  0.000  0.000     2.004     2.214
 101   1 H      0.096  0.904  0.000  0.000     1.819     2.109
 102   1 H      0.223  0.777  0.000  0.000     0.996     1.563
 103   1 H      0.256  0.744  0.000  0.000     0.862     1.454
 104   7 N     -0.164  1.255  3.910  0.000    24.557     7.360
 105   6 C      0.009  1.060  2.930  0.000    20.388     6.422
 106   6 C      0.270  1.046  2.685  0.000    22.448     7.759
 107   8 O     -0.440  1.728  4.712  0.000    22.498     6.359
 108   6 C     -0.128  1.066  3.063  0.000    22.949     6.818
 109   6 C      0.281  1.041  2.678  0.000    22.239     7.724
 110   8 O     -0.473  1.727  4.747  0.000    23.205     6.459
 111   7 N     -0.286  1.274  4.012  0.000    27.373     7.770
 112   1 H      0.238  0.762  0.000  0.000     0.933     1.513
 113   1 H      0.079  0.921  0.000  0.000     1.988     2.205
 114   1 H      0.095  0.905  0.000  0.000     1.835     2.119
 115   1 H      0.126  0.874  0.000  0.000     1.568     1.958
 116   1 H      0.247  0.753  0.000  0.000     0.894     1.481
 117   1 H      0.235  0.765  0.000  0.000     0.946     1.523
 118   7 N     -0.180  1.254  3.926  0.000    24.897     7.411
 119   6 C      0.004  1.064  2.931  0.000    20.512     6.448
 120   6 C      0.268  1.043  2.690  0.000    22.487     7.768
 121   8 O     -0.479  1.737  4.743  0.000    23.333     6.476
 122   6 C     -0.043  1.073  2.970  0.000    21.307     6.564
 123   6 C     -0.083  1.054  3.029  0.000    22.083     6.690
 124   6 C     -0.118  1.038  3.080  0.000    22.826     6.813
 125   6 C     -0.127  1.040  3.087  0.000    22.996     6.838
 126   1 H      0.210  0.790  0.000  0.000     1.056     1.610
 127   1 H      0.069  0.931  0.000  0.000     2.098     2.265
 128   1 H      0.078  0.922  0.000  0.000     1.999     2.211
 129   1 H      0.039  0.961  0.000  0.000     2.460     2.453
 130   1 H      0.073  0.927  0.000  0.000     2.056     2.242
 131   1 H      0.047  0.953  0.000  0.000     2.360     2.403
 132   1 H      0.043  0.957  0.000  0.000     2.414     2.430
 133   1 H      0.027  0.973  0.000  0.000     2.635     2.538
 134   1 H      0.060  0.940  0.000  0.000     2.203     2.321
 135   1 H      0.072  0.928  0.000  0.000     2.059     2.244
 136   1 H      0.030  0.970  0.000  0.000     2.585     2.514
 137   7 N     -0.171  1.247  3.924  0.000    24.706     7.382
 138   6 C      0.002  1.066  2.932  0.000    20.535     6.449
 139   6 C      0.274  1.044  2.682  0.000    22.365     7.744
 140   8 O     -0.487  1.747  4.740  0.000    23.501     6.500
 141   6 C     -0.092  1.057  3.035  0.000    22.240     6.713
 142   6 C     -0.090  1.059  3.031  0.000    22.215     6.711
 143   6 C     -0.036  1.059  2.977  0.000    21.299     6.586
 144   7 N     -0.139  1.212  3.928  0.000    24.019     7.279
 145   6 C      0.228  1.026  2.747  0.000    23.214     7.888
 146   7 N     -0.247  1.227  4.020  0.000    26.431     7.635
 147   7 N     -0.259  1.236  4.023  0.000    26.712     7.676
 148   1 H      0.237  0.763  0.000  0.000     0.934     1.514
 149   1 H      0.094  0.906  0.000  0.000     1.837     2.120
 150   1 H      0.084  0.916  0.000  0.000     1.941     2.178
 151   1 H      0.081  0.919  0.000  0.000     1.970     2.195
 152   1 H      0.076  0.924  0.000  0.000     2.024     2.225
 153   1 H      0.079  0.921  0.000  0.000     1.988     2.205
 154   1 H      0.093  0.907  0.000  0.000     1.846     2.125
 155   1 H      0.089  0.911  0.000  0.000     1.884     2.147
 156   1 H      0.235  0.765  0.000  0.000     0.945     1.523
 157   1 H      0.250  0.750  0.000  0.000     0.882     1.471
 158   1 H      0.251  0.749  0.000  0.000     0.879     1.468
 159   1 H      0.245  0.755  0.000  0.000     0.903     1.489
 160   1 H      0.248  0.752  0.000  0.000     0.890     1.477
 161   7 N     -0.197  1.248  3.948  0.000    25.267     7.466
 162   6 C     -0.004  1.075  2.929  0.000    20.649     6.470
 163   6 C      0.278  1.037  2.685  0.000    22.295     7.733
 164   8 O     -0.494  1.741  4.752  0.000    23.643     6.519
 165   6 C      0.111  1.049  2.840  0.000    18.877     6.206
 166   8 O     -0.471  1.703  4.768  0.000    22.277     6.371
 167   6 C     -0.145  1.048  3.098  0.000    23.368     6.894
 168   1 H      0.235  0.765  0.000  0.000     0.942     1.521
 169   1 H      0.077  0.923  0.000  0.000     2.008     2.216
 170   1 H      0.042  0.958  0.000  0.000     2.419     2.432
 171   1 H      0.326  0.674  0.000  0.000     0.648     1.265
 172   1 H      0.077  0.923  0.000  0.000     2.006     2.215
 173   1 H      0.061  0.939  0.000  0.000     2.182     2.310
 174   1 H      0.072  0.928  0.000  0.000     2.068     2.249
 175   7 N     -0.178  1.247  3.931  0.000    24.855     7.404
 176   6 C      0.015  1.068  2.917  0.000    20.315     6.417
 177   6 C      0.265  1.049  2.686  0.000    22.526     7.771
 178   8 O     -0.474  1.737  4.737  0.000    23.203     6.458
 179   6 C     -0.086  1.065  3.021  0.000    22.149     6.701
 180   6 C     -0.018  1.065  2.953  0.000    20.864     6.498
 181   6 C     -0.121  1.042  3.078  0.000    22.871     6.820
 182   6 C     -0.117  1.044  3.073  0.000    22.794     6.808
 183   1 H      0.233  0.767  0.000  0.000     0.953     1.529
 184   1 H      0.089  0.911  0.000  0.000     1.889     2.149
 185   1 H      0.073  0.927  0.000  0.000     2.050     2.239
 186   1 H      0.048  0.952  0.000  0.000     2.348     2.396
 187   1 H      0.023  0.977  0.000  0.000     2.694     2.567
 188   1 H      0.047  0.953  0.000  0.000     2.353     2.399
 189   1 H      0.038  0.962  0.000  0.000     2.472     2.459
 190   1 H      0.051  0.949  0.000  0.000     2.310     2.377
 191   1 H      0.045  0.955  0.000  0.000     2.387     2.416
 192   1 H      0.053  0.947  0.000  0.000     2.288     2.366
 193   1 H      0.030  0.970  0.000  0.000     2.581     2.512
 194   7 N     -0.185  1.245  3.940  0.000    25.008     7.427
 195   6 C      0.010  1.067  2.923  0.000    20.422     6.436
 196   6 C      0.278  1.038  2.684  0.000    22.290     7.732
 197   8 O     -0.505  1.754  4.750  0.000    23.890     6.553
 198   6 C     -0.086  1.058  3.028  0.000    22.122     6.693
 199   6 C     -0.088  1.055  3.033  0.000    22.174     6.705
 200   6 C     -0.034  1.060  2.974  0.000    21.267     6.580
 201   7 N     -0.125  1.206  3.918  0.000    23.708     7.232
 202   6 C      0.227  1.034  2.739  0.000    23.217     7.889
 203   7 N     -0.250  1.271  3.979  0.000    26.504     7.646
 204   7 N     -0.237  1.255  3.982  0.000    26.198     7.602
 205   1 H      0.248  0.752  0.000  0.000     0.891     1.479
 206   1 H      0.072  0.928  0.000  0.000     2.063     2.246
 207   1 H      0.086  0.914  0.000  0.000     1.923     2.169
 208   1 H      0.079  0.921  0.000  0.000     1.992     2.207
 209   1 H      0.060  0.940  0.000  0.000     2.203     2.321
 210   1 H      0.069  0.931  0.000  0.000     2.094     2.263
 211   1 H      0.108  0.892  0.000  0.000     1.713     2.047
 212   1 H      0.099  0.901  0.000  0.000     1.796     2.096
 213   1 H      0.224  0.776  0.000  0.000     0.992     1.560
 214   1 H      0.252  0.748  0.000  0.000     0.875     1.465
 215   1 H      0.240  0.760  0.000  0.000     0.924     1.506
 216   1 H      0.226  0.774  0.000  0.000     0.981     1.552
 217   1 H      0.225  0.775  0.000  0.000     0.986     1.556
 218   7 N     -0.179  1.247  3.932  0.000    24.873     7.407
 219   6 C      0.017  1.064  2.919  0.000    20.306     6.418
 220   6 C      0.276  1.038  2.686  0.000    22.329     7.740
 221   8 O     -0.532  1.767  4.765  0.000    24.499     6.636
 222   6 C     -0.136  1.045  3.091  0.000    23.167     6.862
 223   1 H      0.229  0.771  0.000  0.000     0.970     1.543
 224   1 H      0.064  0.936  0.000  0.000     2.158     2.297
 225   1 H      0.063  0.937  0.000  0.000     2.159     2.298
 226   1 H      0.086  0.914  0.000  0.000     1.915     2.164
 227   1 H      0.072  0.928  0.000  0.000     2.065     2.247
 228   7 N     -0.179  1.254  3.925  0.000    24.874     7.407
 229   6 C      0.018  1.052  2.930  0.000    20.246     6.402
 230   6 C      0.291  1.037  2.672  0.000    22.072     7.694
 231   8 O     -0.534  1.754  4.780  0.000    24.547     6.643
 232   6 C     -0.072  1.055  3.017  0.000    21.868     6.657
 233   6 C     -0.104  1.061  3.043  0.000    22.478     6.749
 234   6 C      0.289  1.042  2.669  0.000    22.098     7.697
 235   8 O     -0.512  1.768  4.744  0.000    24.042     6.574
 236   7 N     -0.286  1.267  4.018  0.000    27.374     7.770
 237   1 H      0.251  0.749  0.000  0.000     0.880     1.470
 238   1 H      0.105  0.895  0.000  0.000     1.737     2.061
 239   1 H      0.089  0.911  0.000  0.000     1.885     2.147
 240   1 H      0.052  0.948  0.000  0.000     2.291     2.367
 241   1 H      0.078  0.922  0.000  0.000     2.002     2.212
 242   1 H      0.069  0.931  0.000  0.000     2.094     2.263
 243   1 H      0.236  0.764  0.000  0.000     0.940     1.519
 244   1 H      0.236  0.764  0.000  0.000     0.938     1.517
 245   7 N     -0.227  1.267  3.960  0.000    25.962     7.568
 246   6 C      0.045  1.050  2.905  0.000    19.827     6.340
 247   6 C      0.217  1.082  2.701  0.000    23.423     7.926
 248   8 O     -0.386  1.755  4.631  0.000    21.409     6.204
 249   6 C     -0.126  1.041  3.085  0.000    22.960     6.830
 250   1 H      0.253  0.747  0.000  0.000     0.872     1.462
 251   1 H      0.068  0.932  0.000  0.000     2.111     2.272
 252   1 H      0.065  0.935  0.000  0.000     2.144     2.290
 253   1 H      0.072  0.928  0.000  0.000     2.061     2.245
 254   1 H      0.072  0.928  0.000  0.000     2.068     2.249
 255   7 N     -0.398  1.318  4.080  0.000    30.308     8.176
 256   6 C      0.030  1.056  2.914  0.000    20.091     6.385
 257   6 C      0.274  1.049  2.678  0.000    22.376     7.747
 258   8 O     -0.499  1.753  4.745  0.000    23.753     6.534
 259   6 C     -0.070  1.058  3.012  0.000    21.828     6.651
 260   6 C     -0.026  1.074  2.952  0.000    21.050     6.535
 261  16 S     -0.247  1.933  4.261  0.053   151.647    20.726
 262   6 C     -0.064  1.062  3.002  0.000    21.808     6.662
 263   1 H      0.169  0.831  0.000  0.000     1.282     1.773
 264   1 H      0.043  0.957  0.000  0.000     2.405     2.425
 265   1 H      0.056  0.944  0.000  0.000     2.251     2.346
 266   1 H      0.061  0.939  0.000  0.000     2.193     2.316
 267   1 H      0.059  0.941  0.000  0.000     2.214     2.327
 268   1 H      0.058  0.942  0.000  0.000     2.221     2.331
 269   1 H      0.068  0.932  0.000  0.000     2.111     2.272
 270   1 H      0.075  0.925  0.000  0.000     2.035     2.231
 271   1 H      0.062  0.938  0.000  0.000     2.171     2.304
 272   7 N     -0.154  1.237  3.917  0.000    24.334     7.326
 273   6 C      0.033  1.050  2.917  0.000    20.018     6.369
 274   6 C      0.209  1.084  2.707  0.000    23.566     7.951
 275   8 O     -0.359  1.747  4.612  0.000    20.873     6.125
[...]
 430   8 O     -0.619  1.763  4.855  0.000    26.584     6.913
 431   8 O     -0.619  1.773  4.847  0.000    26.598     6.915
 432   1 H      0.212  0.788  0.000  0.000     1.048     1.604
 433   1 H      0.100  0.900  0.000  0.000     1.785     2.089
 434   1 H      0.053  0.947  0.000  0.000     2.284     2.364
 435   1 H      0.014  0.986  0.000  0.000     2.833     2.632
 436   1 H      0.031  0.969  0.000  0.000     2.567     2.506
 437   1 H     -0.007  1.007  0.000  0.000     3.176     2.787
 438   7 N     -0.197  1.253  3.944  0.000    25.272     7.466
 439   6 C      0.045  1.045  2.909  0.000    19.798     6.332
 440   6 C      0.287  1.031  2.682  0.000    22.134     7.705
 441   8 O     -0.495  1.734  4.762  0.000    23.679     6.524
 442   6 C     -0.039  1.050  2.989  0.000    21.270     6.565
 443   6 C     -0.093  1.060  3.032  0.000    22.277     6.721
 444   6 C      0.365  1.030  2.605  0.000    20.802     7.464
 445   8 O     -0.632  1.769  4.863  0.000    26.913     6.955
 446   8 O     -0.605  1.759  4.847  0.000    26.248     6.869
 447   1 H      0.229  0.771  0.000  0.000     0.970     1.543
 448   1 H      0.042  0.958  0.000  0.000     2.428     2.437
 449   1 H     -0.004  1.004  0.000  0.000     3.120     2.762
 450   1 H      0.046  0.954  0.000  0.000     2.372     2.408
 451   1 H      0.039  0.961  0.000  0.000     2.466     2.456
 452   1 H      0.000  1.000  0.000  0.000     3.050     2.731
 453   7 N     -0.210  1.252  3.958  0.000    25.581     7.512
 454   6 C      0.025  1.056  2.919  0.000    20.169     6.396
 455   6 C      0.265  1.052  2.683  0.000    22.532     7.773
 456   8 O     -0.426  1.721  4.705  0.000    22.206     6.318
 457   6 C     -0.057  1.049  3.008  0.000    21.566     6.607
 458   6 C     -0.020  1.075  2.946  0.000    20.955     6.520
 459  16 S     -0.164  1.907  4.217  0.040   147.991    20.475
 460   6 C     -0.069  1.061  3.007  0.000    21.895     6.676
 461   1 H      0.232  0.768  0.000  0.000     0.955     1.531
 462   1 H      0.077  0.923  0.000  0.000     2.014     2.219
 463   1 H      0.073  0.927  0.000  0.000     2.053     2.241
 464   1 H      0.058  0.942  0.000  0.000     2.224     2.332
 465   1 H      0.034  0.966  0.000  0.000     2.536     2.490
 466   1 H      0.044  0.956  0.000  0.000     2.398     2.422
 467   1 H      0.102  0.898  0.000  0.000     1.764     2.077
 468   1 H      0.056  0.944  0.000  0.000     2.241     2.341
 469   1 H      0.033  0.967  0.000  0.000     2.541     2.493
 470   7 N     -0.198  1.270  3.928  0.000    25.290     7.469
 471   6 C      0.038  1.058  2.904  0.000    19.942     6.359
 472   6 C      0.289  1.047  2.664  0.000    22.098     7.698
 473   8 O     -0.471  1.728  4.743  0.000    23.150     6.451
 474   6 C     -0.065  1.053  3.012  0.000    21.724     6.633
 475   6 C      0.008  1.054  2.937  0.000    20.407     6.426
 476   6 C     -0.108  1.040  3.068  0.000    22.633     6.785
 477   6 C     -0.095  1.038  3.057  0.000    22.383     6.748
 478   1 H      0.200  0.800  0.000  0.000     1.104     1.646
 479   1 H      0.093  0.907  0.000  0.000     1.850     2.127
 480   1 H      0.077  0.923  0.000  0.000     2.015     2.220
 481   1 H      0.029  0.971  0.000  0.000     2.598     2.521
 482   1 H     -0.013  1.013  0.000  0.000     3.288     2.836
 483   1 H      0.044  0.956  0.000  0.000     2.402     2.424
 484   1 H      0.044  0.956  0.000  0.000     2.400     2.423
 485   1 H      0.058  0.942  0.000  0.000     2.227     2.334
 486   1 H      0.024  0.976  0.000  0.000     2.670     2.555
 487   1 H      0.049  0.951  0.000  0.000     2.332     2.388
 488   1 H      0.028  0.972  0.000  0.000     2.611     2.527
 489   7 N     -0.220  1.265  3.955  0.000    25.796     7.543
 490   6 C      0.061  1.054  2.885  0.000    19.560     6.296
 491   6 C      0.308  1.036  2.655  0.000    21.767     7.640
 492   8 O     -0.485  1.732  4.753  0.000    23.461     6.494
 493   6 C     -0.040  1.047  2.994  0.000    21.292     6.569
 494   6 C     -0.079  1.066  3.013  0.000    22.023     6.684
 495   6 C      0.366  1.033  2.600  0.000    20.789     7.461
 496   8 O     -0.650  1.779  4.871  0.000    27.389     7.017
 497   8 O     -0.617  1.767  4.850  0.000    26.546     6.908
 498   1 H      0.210  0.790  0.000  0.000     1.057     1.611
 499   1 H      0.011  0.989  0.000  0.000     2.873     2.651
 500   1 H      0.034  0.966  0.000  0.000     2.528     2.486
 501   1 H      0.041  0.959  0.000  0.000     2.432     2.439
 502   1 H      0.007  0.993  0.000  0.000     2.945     2.684
 503   1 H      0.003  0.997  0.000  0.000     3.003     2.710
 504   7 N     -0.205  1.256  3.949  0.000    25.458     7.494
 505   6 C      0.018  1.075  2.907  0.000    20.294     6.418
 506   6 C      0.269  1.046  2.686  0.000    22.469     7.764
 507   8 O     -0.474  1.731  4.744  0.000    23.217     6.460
 508   6 C     -0.090  1.069  3.021  0.000    22.233     6.715
 509   6 C     -0.066  1.050  3.016  0.000    21.759     6.642
 510   6 C     -0.086  1.057  3.029  0.000    22.138     6.699
 511   6 C     -0.039  1.056  2.983  0.000    21.364     6.598
 512   7 N     -0.151  1.235  3.916  0.000    24.248     7.314
 513   1 H      0.170  0.830  0.000  0.000     1.271     1.766
 514   1 H      0.053  0.947  0.000  0.000     2.283     2.363
 515   1 H      0.077  0.923  0.000  0.000     2.013     2.219
 516   1 H      0.090  0.910  0.000  0.000     1.877     2.143
 517   1 H      0.015  0.985  0.000  0.000     2.817     2.625
 518   1 H      0.047  0.953  0.000  0.000     2.359     2.402
 519   1 H      0.097  0.903  0.000  0.000     1.815     2.107
 520   1 H      0.079  0.921  0.000  0.000     1.992     2.207
 521   1 H      0.083  0.917  0.000  0.000     1.953     2.185
 522   1 H      0.098  0.902  0.000  0.000     1.805     2.101
 523   1 H      0.301  0.699  0.000  0.000     0.711     1.321
 524   1 H      0.318  0.682  0.000  0.000     0.662     1.275
 525   1 H      0.292  0.708  0.000  0.000     0.737     1.345
 526   7 N     -0.171  1.248  3.923  0.000    24.694     7.380
 527   6 C      0.021  1.052  2.926  0.000    20.191     6.392
 528   6 C      0.295  1.033  2.672  0.000    22.004     7.689
 529   8 O     -0.491  1.732  4.759  0.000    23.580     6.511
 530   6 C     -0.081  1.057  3.024  0.000    22.019     6.677
 531   6 C     -0.025  1.054  2.972  0.000    20.986     6.515
 532   6 C     -0.127  1.047  3.080  0.000    22.986     6.835
 533   6 C     -0.107  1.039  3.069  0.000    22.603     6.778
 534   1 H      0.219  0.781  0.000  0.000     1.015     1.578
 535   1 H      0.098  0.902  0.000  0.000     1.807     2.102
 536   1 H      0.086  0.914  0.000  0.000     1.917     2.165
 537   1 H      0.060  0.940  0.000  0.000     2.198     2.318
 538   1 H      0.062  0.938  0.000  0.000     2.175     2.307
 539   1 H      0.052  0.948  0.000  0.000     2.289     2.366
 540   1 H      0.069  0.931  0.000  0.000     2.095     2.263
 541   1 H      0.049  0.951  0.000  0.000     2.338     2.391
 542   1 H      0.019  0.981  0.000  0.000     2.750     2.593
 543   1 H      0.047  0.953  0.000  0.000     2.358     2.401
 544   1 H      0.011  0.989  0.000  0.000     2.881     2.654
 545   7 N     -0.193  1.245  3.948  0.000    25.192     7.454
 546   6 C      0.043  1.051  2.906  0.000    19.800     6.325
 547   6 C      0.295  1.044  2.661  0.000    21.999     7.686
 548   8 O     -0.489  1.738  4.751  0.000    23.542     6.505
 549   6 C     -0.050  1.048  3.002  0.000    21.468     6.596
 550   6 C     -0.079  1.062  3.017  0.000    22.019     6.684
 551   6 C      0.360  1.037  2.603  0.000    20.891     7.479
 552   8 O     -0.616  1.765  4.851  0.000    26.515     6.904
 553   8 O     -0.654  1.783  4.871  0.000    27.484     7.029
 554   1 H      0.213  0.787  0.000  0.000     1.040     1.598
 555   1 H      0.077  0.923  0.000  0.000     2.010     2.217
 556   1 H      0.041  0.959  0.000  0.000     2.435     2.440
 557   1 H      0.054  0.946  0.000  0.000     2.275     2.359
 558   1 H     -0.001  1.001  0.000  0.000     3.080     2.744
 559   1 H     -0.014  1.014  0.000  0.000     3.322     2.850
 560   7 N     -0.200  1.269  3.930  0.000    25.337     7.476
 561   6 C      0.041  1.051  2.908  0.000    19.841     6.334
 562   6 C      0.291  1.032  2.677  0.000    22.062     7.693
 563   8 O     -0.506  1.743  4.763  0.000    23.907     6.555
 564   6 C     -0.015  1.061  2.955  0.000    20.807     6.487
 565   6 C     -0.123  1.038  3.085  0.000    22.922     6.827
 566   6 C     -0.113  1.042  3.072  0.000    22.731     6.799
 567   1 H      0.187  0.813  0.000  0.000     1.173     1.697
 568   1 H      0.029  0.971  0.000  0.000     2.599     2.521
 569   1 H      0.019  0.981  0.000  0.000     2.747     2.592
 570   1 H      0.049  0.951  0.000  0.000     2.329     2.387
 571   1 H      0.018  0.982  0.000  0.000     2.767     2.601
 572   1 H      0.083  0.917  0.000  0.000     1.945     2.181
 573   1 H      0.044  0.956  0.000  0.000     2.402     2.424
 574   1 H      0.060  0.940  0.000  0.000     2.200     2.320
 575   1 H      0.055  0.945  0.000  0.000     2.262     2.352
 576   7 N     -0.181  1.247  3.934  0.000    24.917     7.414
 577   6 C      0.020  1.055  2.925  0.000    20.223     6.398
 578   6 C      0.301  1.027  2.672  0.000    21.903     7.667
 579   8 O     -0.501  1.737  4.763  0.000    23.800     6.541
 580   6 C     -0.026  1.061  2.965  0.000    20.995     6.516
 581   6 C     -0.132  1.041  3.091  0.000    23.092     6.852
 582   6 C     -0.129  1.045  3.084  0.000    23.028     6.841
 583   1 H      0.220  0.780  0.000  0.000     1.009     1.574
 584   1 H      0.074  0.926  0.000  0.000     2.040     2.234
 585   1 H      0.046  0.954  0.000  0.000     2.365     2.405
 586   1 H      0.068  0.932  0.000  0.000     2.110     2.272
 587   1 H      0.051  0.949  0.000  0.000     2.308     2.376
 588   1 H      0.049  0.951  0.000  0.000     2.332     2.388
 589   1 H      0.067  0.933  0.000  0.000     2.120     2.277
 590   1 H      0.061  0.939  0.000  0.000     2.188     2.313
 591   1 H      0.055  0.945  0.000  0.000     2.263     2.352
 592   7 N     -0.179  1.234  3.945  0.000    24.870     7.407
 593   6 C      0.033  1.046  2.922  0.000    19.997     6.361
 594   6 C      0.278  1.039  2.683  0.000    22.306     7.739
 595   8 O     -0.525  1.745  4.780  0.000    24.346     6.616
 596   6 C     -0.013  1.055  2.958  0.000    20.759     6.479
 597   6 C     -0.123  1.044  3.079  0.000    22.899     6.822
 598   6 C     -0.136  1.044  3.092  0.000    23.164     6.862
 599   1 H      0.207  0.793  0.000  0.000     1.071     1.621
 600   1 H      0.077  0.923  0.000  0.000     2.013     2.219
 601   1 H      0.019  0.981  0.000  0.000     2.755     2.596
 602   1 H      0.048  0.952  0.000  0.000     2.350     2.398
 603   1 H      0.042  0.958  0.000  0.000     2.420     2.433
 604   1 H      0.058  0.942  0.000  0.000     2.226     2.333
 605   1 H      0.054  0.946  0.000  0.000     2.268     2.355
 606   1 H      0.057  0.943  0.000  0.000     2.239     2.340
 607   1 H      0.069  0.931  0.000  0.000     2.098     2.265
 608   7 N     -0.150  1.229  3.920  0.000    24.238     7.312
 609   6 C      0.067  1.037  2.896  0.000    19.382     6.254
 610   6 C      0.210  1.079  2.711  0.000    23.547     7.948
 611   8 O     -0.367  1.742  4.625  0.000    21.033     6.149
 612   6 C     -0.106  1.062  3.045  0.000    22.499     6.748
 613   6 C      0.292  1.035  2.673  0.000    22.070     7.703
 614   8 O     -0.507  1.769  4.739  0.000    23.945     6.561
 615   7 N     -0.294  1.269  4.025  0.000    27.579     7.799
 616   1 H      0.219  0.781  0.000  0.000     1.013     1.576
 617   1 H      0.087  0.913  0.000  0.000     1.911     2.162
 618   1 H      0.085  0.915  0.000  0.000     1.929     2.172
 619   1 H      0.083  0.917  0.000  0.000     1.949     2.183
 620   1 H      0.238  0.762  0.000  0.000     0.933     1.513
 621   1 H      0.246  0.754  0.000  0.000     0.897     1.484
 622   7 N     -0.397  1.328  4.069  0.000    30.299     8.175
 623   6 C      0.046  1.057  2.897  0.000    19.823     6.343
 624   6 C      0.206  1.089  2.705  0.000    23.626     7.961
 625   8 O     -0.406  1.768  4.638  0.000    21.797     6.260
 626   6 C     -0.060  1.055  3.006  0.000    21.660     6.626
 627   6 C     -0.099  1.071  3.028  0.000    22.396     6.739
 628   6 C      0.369  1.026  2.604  0.000    20.737     7.452
 629   8 O     -0.662  1.787  4.875  0.000    27.692     7.055
 630   8 O     -0.650  1.763  4.886  0.000    27.370     7.014
 631   1 H      0.184  0.816  0.000  0.000     1.192     1.710
 632   1 H      0.034  0.966  0.000  0.000     2.536     2.490
 633   1 H      0.064  0.936  0.000  0.000     2.152     2.294
 634   1 H      0.042  0.958  0.000  0.000     2.417     2.431
 635   1 H      0.023  0.977  0.000  0.000     2.692     2.566
 636   1 H      0.050  0.950  0.000  0.000     2.315     2.379
 637   7 N     -0.393  1.313  4.080  0.000    30.181     8.159
 638   6 C      0.048  1.052  2.900  0.000    19.775     6.332
 639   6 C      0.200  1.088  2.712  0.000    23.740     7.980
 640   8 O     -0.388  1.752  4.637  0.000    21.452     6.210
 641   6 C     -0.028  1.043  2.985  0.000    21.053     6.529
 642   6 C     -0.085  1.062  3.023  0.000    22.107     6.693
 643   6 C      0.365  1.027  2.609  0.000    20.817     7.467
 644   8 O     -0.638  1.772  4.866  0.000    27.061     6.974
 645   8 O     -0.620  1.758  4.862  0.000    26.621     6.918
 646   1 H      0.157  0.843  0.000  0.000     1.354     1.823
 647   1 H      0.049  0.951  0.000  0.000     2.338     2.391
 648   1 H      0.036  0.964  0.000  0.000     2.503     2.474
 649   1 H      0.012  0.988  0.000  0.000     2.851     2.640
 650   1 H      0.029  0.971  0.000  0.000     2.606     2.525
 651   1 H      0.017  0.983  0.000  0.000     2.774     2.604
 652   7 N     -0.390  1.304  4.087  0.000    30.107     8.149
 653   6 C      0.041  1.063  2.896  0.000    19.904     6.355
 654   6 C      0.266  1.064  2.670  0.000    22.516     7.770
 655   8 O     -0.471  1.745  4.727  0.000    23.154     6.452
 656   6 C     -0.007  1.062  2.945  0.000    20.672     6.466
 657   6 C     -0.052  1.046  3.005  0.000    21.494     6.599
 658   6 C     -0.082  1.031  3.051  0.000    22.117     6.706
 659   6 C     -0.114  1.038  3.076  0.000    22.739     6.800
 660   1 H      0.144  0.856  0.000  0.000     1.445     1.883
 661   1 H      0.047  0.953  0.000  0.000     2.359     2.402
 662   1 H      0.022  0.978  0.000  0.000     2.701     2.570
 663   1 H      0.026  0.974  0.000  0.000     2.649     2.545
 664   1 H      0.022  0.978  0.000  0.000     2.704     2.572
 665   1 H      0.018  0.982  0.000  0.000     2.762     2.599
 666   1 H      0.014  0.986  0.000  0.000     2.820     2.626
 667   1 H      0.026  0.974  0.000  0.000     2.641     2.541
 668   1 H      0.042  0.958  0.000  0.000     2.416     2.431
 669   1 H      0.065  0.935  0.000  0.000     2.138     2.286
 670   1 H      0.033  0.967  0.000  0.000     2.540     2.492
 671   7 N     -0.163  1.244  3.919  0.000    24.520     7.354
 672   6 C      0.028  1.061  2.911  0.000    20.103     6.384
 673   6 C      0.218  1.076  2.706  0.000    23.406     7.924
 674   8 O     -0.369  1.743  4.625  0.000    21.065     6.153
 675   6 C     -0.081  1.054  3.026  0.000    22.027     6.680
 676   6 C     -0.073  1.051  3.022  0.000    21.891     6.661
 677   6 C     -0.028  1.063  2.965  0.000    21.172     6.567
 678   7 N     -0.173  1.252  3.922  0.000    24.755     7.389
 679   6 C      0.241  1.026  2.734  0.000    22.970     7.847
 680   7 N     -0.256  1.262  3.995  0.000    26.659     7.668
 681   7 N     -0.254  1.258  3.996  0.000    26.594     7.659
 682   1 H      0.186  0.814  0.000  0.000     1.182     1.703
 683   1 H      0.084  0.916  0.000  0.000     1.942     2.179
 684   1 H      0.080  0.920  0.000  0.000     1.975     2.198
 685   1 H      0.093  0.907  0.000  0.000     1.853     2.129
 686   1 H      0.032  0.968  0.000  0.000     2.563     2.503
 687   1 H      0.077  0.923  0.000  0.000     2.009     2.217
 688   1 H      0.107  0.893  0.000  0.000     1.725     2.054
 689   1 H      0.096  0.904  0.000  0.000     1.820     2.110
 690   1 H      0.182  0.818  0.000  0.000     1.204     1.719
 691   1 H      0.267  0.733  0.000  0.000     0.820     1.419
 692   1 H      0.238  0.762  0.000  0.000     0.930     1.511
 693   1 H      0.192  0.808  0.000  0.000     1.148     1.679
 694   1 H      0.281  0.719  0.000  0.000     0.771     1.375
 695   1 H      0.191  0.809  0.000  0.000     1.152     1.681
 696   1 H      0.061  0.939  0.000  0.000     2.181     2.309
 697   1 H      0.189  0.811  0.000  0.000     1.165     1.691
 698   1 H      0.082  0.918  0.000  0.000     1.960     2.189
 699   1 H      0.176  0.824  0.000  0.000     1.238     1.743
 700   1 H      0.062  0.938  0.000  0.000     2.177     2.307
 701   1 H      0.198  0.802  0.000  0.000     1.118     1.656
 702   1 H      0.055  0.945  0.000  0.000     2.259     2.350
 703   1 H      0.187  0.813  0.000  0.000     1.175     1.698
 704   1 H      0.072  0.928  0.000  0.000     2.062     2.245
 705   1 H      0.190  0.810  0.000  0.000     1.157     1.685
 706   1 H      0.072  0.928  0.000  0.000     2.058     2.243
 707   1 H      0.193  0.807  0.000  0.000     1.144     1.675
 708   1 H      0.059  0.941  0.000  0.000     2.208     2.323
 709   1 H      0.182  0.818  0.000  0.000     1.204     1.719
 710   1 H      0.073  0.927  0.000  0.000     2.055     2.241
 711   1 H      0.186  0.814  0.000  0.000     1.183     1.703
 712   1 H      0.070  0.930  0.000  0.000     2.080     2.255
 713   1 H      0.195  0.805  0.000  0.000     1.131     1.666
 714   1 H      0.056  0.944  0.000  0.000     2.249     2.345
 715   1 H      0.195  0.805  0.000  0.000     1.131     1.666
 716   1 H      0.074  0.926  0.000  0.000     2.043     2.235

 Mol. C6AA /au·bohr⁶  :    4526057.084265
 Mol. C8AA /au·bohr⁸  :   99923488.600972
 Mol. α(0) /au        :       3167.166623

 
molecular dipole:
                 x           y           z       tot (Debye)
 q only:      -23.499    -203.304      -3.192
   full:      -17.882    -205.716      -3.958     524.957
molecular quadrupole (traceless):
                xx          xy          yy          xz          yz          zz
 q only:     5451.545   -3759.735  -13116.059    -358.205    1067.726    7664.514
  q+dip:     5933.856   -2408.097  -13941.785    -208.504     777.080    8007.929
   full:     5927.862   -2406.567  -13937.801    -205.218     775.327    8009.939
speedup  1.96
cpu  time for grad   42.27 s
wall time for grad   21.52 s

SCC energy    :   -1082.7870421
rep           :      12.8534934
ES            :       4.2165205
AES           :      -0.2372645
AXC           :       0.3621797
disp          :      -0.9576876
XB            :       0.0000000
fix           :       0.0000000
Gborn         :       0.0000000
Gsasa         :       0.0000000
Ghb           :       0.0000000
Gshift        :       0.0000000
Gsolv         :      -1.5156166     -951.06
Etot ala COSMO:   -1082.7870421
grad norm     :       0.7639712
total E       :   -1069.8340803
atomizationE  :     195.6587271   122777.70
(atE without considering molecular charge,
 total energy contains solvation terms)
H-L gap (eV)  :          1.4414

------------------------------------------------------------------------
 * finished run on 2019/05/11 at 04:47:23.904     
------------------------------------------------------------------------
 total:
 * wall-time:     0 d,  0 h,  0 min, 25.138 sec
 *  cpu-time:     0 d,  0 h,  0 min, 46.880 sec
 * ratio c/w:     1.865 speedup
 SCF:
 * wall-time:     0 d,  0 h,  0 min, 23.204 sec
 *  cpu-time:     0 d,  0 h,  0 min, 44.818 sec
 * ratio c/w:     1.931 speedup

