      -----------------------------------------------------------      
     |                   =====================                   |     
     |                           x T B                           |     
     |                   =====================                   |     
     |                         S. Grimme                         |     
     |          Mulliken Center for Theoretical Chemistry        |     
     |                    University of Bonn                     |     
     |                 Version 6.0.1 (SAW181210)                 |     
      -----------------------------------------------------------      

   This program is distributed in the hope that it will be useful,
   but WITHOUT ANY WARRANTY; without even the implied warranty of
   MERCHANTABILITY or FITNESS FOR A PARTICULAR PURPOSE.
   
   FOR NON-COMMERCIAL, ACADEMIA USE ONLY.
   
   Cite this work as:
   S. Grimme, C. Bannwarth, P. Shushkov, J. Comput. Theory Chem., 2017,
   13, 1989-2009.
   C. Bannwarth, S. Ehlert and S. Grimme., ChemRxiv, 2018, preprint.
   http://doi.org/10.26434/chemrxiv.7246238.v1
   
   for sTDA-xTB:
   S. Grimme and C. Bannwarth, J. Chem. Phys., 2016, 145, 054103.
   
   in the mass-spec context:
   V. Asgeirsson, C. Bauer and S. Grimme, Chem. Sci., 2017, 8, 4879.
   
   if GBSA is used:
   P. Shushkov, F. März and S. Grimme, unpublished.
   
   for ANC optimizer:
   S. Grimme, unpublished.
   Rational Function algorithm used in ANCopt:
   F. Eckert, P. Pulay, H.-J. Werner, J. Comput. Chem., 1997, 18, 1473.
   
   with help from (in alphabetical order)
   C. Bannwarth, F. Bohle, G. Brandenburg, E. Caldeweyher, M. Checinski,
   S. Dohm, S. Ehlert, S. Ehrlich, F. März, H. Neugebauer, J. Pisarek,
   P. Pracht, P. Shushkov, and S. Spicher.
   
 * started run on 2019/05/10 at 01:43:20.698     
========================================================================
 # omp threads = 2
========================================================================
number of atoms            : 599
number of electrons        : 1598
charge                     : -8
spin                       : .0
first test random number   : .7890

########################################################################
# WARNING! Please study the warnings concerning your input carefully
#  - Process number higher than OMP_NUM_THREADS, I hope you know what you are doing.
########################################################################

           ------------------------------------------------- 
          |                 G F N 2 - x T B                 |
          | Geometry, Frequencies, Noncovalent interactions |
          |            JCTC 2018 parametrisation            |
           ------------------------------------------------- 
 
      method parameters     
 k(s)        :  1.8500
 k(p)        :  2.2300
 k(d)        :  2.2300
 k(f)        :  2.0000
 kEN (H0ij)  : -2.0000
 D4 a1       :  0.5200
 D4 a2       :  5.0000
 D4 s6       :  1.0000
 D4 s8       :  2.7000
 D4 s9       :  5.0000
 alphaj      :  2.0000

 Solvent             : h2o
 Using internal parameter file: .param_gbsa2_h2o
 Gsolv ref. state (COSMO-RS): gsolv [1 M gas/solution]
 temperature (mdtemp)       :    298.150000000000     
 dielectric constant        :    80.2000000000000     
 rho                        :    1.00000000000000     
 mass                       :    18.0000000000000     
 surface tension            :    15.5689454083859     
 probe radius               :   0.975313790000000     
 vdW radii scaling          :    1.00000000000000     
 Gshift (Eh)                :   1.857443126794793E-003
 c1                         :    1.55243817000000     
 soset                      :   0.130326360000000     
 HB correction              :  T

            Z     q(EN)     CN     RAES       Cart. coordinates
     1  N   5.0   -0.23    3.26    1.97    15.77685    70.06452   149.94297
     2  C   4.0    0.02    4.34    4.28    18.09810    69.76420   151.33323
     3  C   4.0    0.05    3.29    3.05    20.31573    69.21060   149.61228
     4  O   6.0   -0.34    1.19    1.80    20.12435    67.72627   147.84530
     5  C   4.0   -0.02    4.32    4.23    17.88038    67.49590   153.11229
     6  C   4.0   -0.09    4.14    3.88    20.42357    66.91774   154.35350
     7  C   4.0   -0.09    4.14    3.88    15.88497    68.07771   155.09660
     8  H   1.0    0.12    1.08    1.44    15.10651    68.51032   149.03318
     9  H   1.0    0.01    1.05    1.44    18.44523    71.50119   152.39653
    10  H   1.0    0.05    1.05    1.44    17.27882    65.87705   151.97080
    11  H   1.0    0.03    1.00    1.43    20.17655    65.47932   155.79732
    12  H   1.0    0.04    1.01    1.43    21.79336    66.24590   152.97985
    13  H   1.0    0.03    1.00    1.43    21.18165    68.62254   155.22145
    14  H   1.0    0.03    1.00    1.43    15.51572    66.41549   156.24350
    15  H   1.0    0.03    1.00    1.43    16.55598    69.57622   156.33248
    16  H   1.0    0.03    1.01    1.43    14.14912    68.71118   154.20627
    17  N   5.0   -0.22    3.22    1.96    26.87270    65.73786   150.85430
    18  C   4.0    0.03    4.31    4.21    28.44669    64.15291   152.45379
    19  C   4.0    0.05    3.26    3.05    31.08084    63.97292   151.22530
    20  O   6.0   -0.36    1.13    1.80    31.27507    63.17244   149.05572
    21  C   4.0   -0.02    4.28    4.16    27.36130    61.45761   152.61341
    22  C   4.0   -0.09    4.15    3.89    29.24200    59.80168   154.01598
    23  C   4.0   -0.09    4.10    3.80    24.74883    61.37979   153.81578
    24  H   1.0    0.08    1.02    1.43    26.63952    65.13068   149.04150
    25  H   1.0    0.04    1.05    1.44    28.60028    65.03984   154.31234
    26  H   1.0    0.04    1.06    1.44    27.20667    60.76639   150.66428
    27  H   1.0    0.02    1.00    1.43    28.50175    57.90493   154.26054
    28  H   1.0    0.03    1.01    1.43    31.02527    59.70726   153.00150
    29  H   1.0    0.03    1.00    1.43    29.62204    60.57973   155.88655
    30  H   1.0    0.03    1.00    1.43    24.07337    59.44354   153.86953
    31  H   1.0    0.03    1.00    1.43    24.80585    62.10531   155.73841
    32  H   1.0    0.04    1.00    1.43    23.43272    62.51548   152.72453
    33  N   5.0   -0.23    3.25    1.97    17.93698    64.22457   144.43385
    34  C   4.0    0.02    4.22    4.04    15.77207    62.67415   145.05245
    35  C   4.0    0.05    3.23    3.04    13.51162    64.38217   145.66498
    36  O   6.0   -0.34    1.21    1.80    13.77522    66.26520   146.99872
    37  C   4.0   -0.04    4.34    4.27    16.20632    61.12133   147.48897
    38  C   4.0   -0.03    3.55    3.14    18.40946    59.34265   147.34732
    39  C   4.0   -0.06    3.50    3.12    20.86194    60.26635   147.13142
    40  C   4.0   -0.06    3.46    3.10    18.04115    56.75153   147.52615
    41  C   4.0   -0.07    3.38    3.07    22.89813    58.62628   147.05900
    42  C   4.0   -0.06    3.38    3.07    20.08527    55.12067   147.49623
    43  C   4.0   -0.07    3.37    3.07    22.51907    56.04565   147.26236
    44  H   1.0    0.12    1.07    1.44    18.35181    65.61520   145.69346
    45  H   1.0    0.01    1.04    1.44    15.37128    61.44358   143.44527
    46  H   1.0    0.05    1.03    1.43    16.50920    62.47476   149.02223
    47  H   1.0    0.03    1.03    1.43    14.46264    60.08906   147.88502
    48  H   1.0    0.05    1.04    1.43    21.20363    62.27742   147.10557
    49  H   1.0    0.03    1.03    1.43    16.14891    56.01329   147.72438
    50  H   1.0    0.03    1.03    1.43    24.78737    59.38233   146.88738
    51  H   1.0    0.03    1.03    1.43    19.76996    53.11700   147.66395
    52  H   1.0    0.02    1.03    1.43    24.12735    54.79541   147.25293
    53  N   5.0   -0.22    3.24    1.97     7.03335    64.70451   149.76613
    54  C   4.0    0.02    4.37    4.33     6.23901    63.38651   152.02233
    55  C   4.0    0.14    3.49    3.11     3.62705    64.32015   152.88094
    56  O   6.0   -0.32    1.25    1.80     3.13816    66.58692   153.03182
    57  C   4.0   -0.02    4.24    4.07     8.16887    63.69668   154.24009
    58  C   4.0   -0.09    4.12    3.85     9.18354    61.11670   155.04063
    59  C   4.0   -0.08    4.16    3.91    10.45612    65.32411   153.59203
    60  H   1.0    0.08    1.02    1.43     7.45741    66.57919   149.92444
    61  H   1.0    0.03    1.07    1.44     6.16990    61.39227   151.48969
    62  H   1.0    0.05    1.06    1.44     7.18233    64.56557   155.84194
    63  H   1.0    0.04    1.00    1.43    10.50199    61.31122   156.60459
    64  H   1.0    0.03    1.00    1.43     7.67741    59.86228   155.62159
    65  H   1.0    0.03    1.00    1.43    10.21149    60.25878   153.48219
    66  H   1.0    0.03    1.01    1.43    11.72923    65.27845   155.19513
    67  H   1.0    0.04    1.00    1.43    11.46007    64.57921   151.95797
    68  H   1.0    0.03    1.00    1.43     9.96093    67.27095   153.21190
    69  N   5.0   -0.11    3.62    2.18     1.90032    62.55017   153.45927
    70  C   4.0    0.03    4.46    4.48    -0.41245    63.16290   154.82813
    71  C   4.0    0.09    3.27    3.05     0.04292    65.03413   156.99697
    72  O   6.0   -0.30    1.14    1.80     1.82911    64.86644   158.44844
    73  C   4.0   -0.04    4.34    4.28    -1.27798    60.64419   155.99811
    74  C   4.0   -0.05    4.24    4.07    -0.21796    58.64845   154.21881
    75  C   4.0   -0.02    4.38    4.35     2.25383    59.82780   153.30287
    76  H   1.0    0.02    1.04    1.43    -1.82608    63.92848   153.52683
    77  H   1.0    0.06    1.03    1.43    -0.40981    60.48220   157.86370
    78  H   1.0    0.05    1.02    1.43    -3.31525    60.59381   156.27151
    79  H   1.0    0.04    1.02    1.43     0.12938    56.85357   155.15334
    80  H   1.0    0.02    1.02    1.43    -1.52098    58.32022   152.65996
    81  H   1.0    0.03    1.02    1.43     3.82841    59.22773   154.49194
    82  H   1.0    0.03    1.04    1.43     2.66029    59.31258   151.36387
    83  N   5.0   -0.20    3.31    1.99    -2.45691    65.21756   162.08661
    84  C   4.0    0.03    4.34    4.27    -2.69381    64.14310   164.58635
    85  C   4.0    0.15    3.39    3.08    -1.58303    61.47587   164.64285
    86  O   6.0   -0.31    1.23    1.80    -2.73794    59.56521   165.19355
    87  C   4.0   -0.05    4.23    4.07    -5.42348    64.21948   165.59623
    88  C   4.0   -0.06    4.20    4.00    -7.42247    64.43454   163.51643
    89  C   4.0    0.24    3.14    3.03    -7.26813    62.23135   161.58182
    90  O   6.0   -0.34    1.32    1.80    -5.75479    62.49515   159.75458
    91  O   6.0   -0.34    1.16    1.80    -8.68078    60.40267   161.92785
    92  H   1.0    0.12    1.16    1.45    -3.61475    64.33530   160.75273
    93  H   1.0    0.03    1.06    1.44    -1.48780    65.28440   165.83645
    94  H   1.0    0.05    1.04    1.43    -5.75656    62.48929   166.66955
    95  H   1.0    0.01    1.02    1.43    -5.62277    65.83285   166.86877
    96  H   1.0    0.01    1.03    1.43    -9.29101    64.36298   164.38194
    97  H   1.0    0.02    1.02    1.43    -7.21414    66.22744   162.51585
    98  N   5.0   -0.14    3.51    2.08     0.90801    61.51195   164.17959
    99  C   4.0    0.03    4.40    4.39     2.52596    59.31865   164.39639
   100  C   4.0    0.15    3.44    3.09     4.28923    59.69912   166.67093
   101  O   6.0   -0.31    1.29    1.80     5.41784    61.71534   166.95481
   102  C   4.0   -0.04    4.38    4.34     4.10562    59.04935   161.98706
   103  C   4.0   -0.02    4.18    3.96     4.90443    56.34201   161.40678
   104  C   4.0   -0.07    4.12    3.84     2.59552    54.68402   160.91961
   105  C   4.0   -0.08    4.12    3.84     6.61338    56.37832   159.09149
   106  H   1.0    0.09    1.07    1.44     1.67865    63.13815   163.54965
   107  H   1.0    0.06    1.07    1.44     1.29108    57.69919   164.71430
   108  H   1.0    0.05    1.03    1.43     2.99575    59.80677   160.41766
   109  H   1.0    0.05    1.04    1.43     5.77417    60.24523   162.17174
   110  H   1.0    0.05    1.05    1.44     5.95989    55.60450   163.02263
   111  H   1.0    0.04    1.00    1.43     3.15586    52.91456   160.04015
   112  H   1.0    0.06    1.01    1.43     1.62369    54.26059   162.67333
   113  H   1.0    0.04    1.00    1.43     1.28004    55.66431   159.67954
   114  H   1.0    0.04    1.00    1.43     7.24035    54.48552   158.60569
   115  H   1.0    0.04    1.00    1.43     5.55003    57.13156   157.50323
   116  H   1.0    0.04    1.00    1.43     8.26385    57.55450   159.42019
   117  N   5.0   -0.14    3.46    2.05     4.49351    57.76981   168.29686
   118  C   4.0    0.05    4.47    4.50     6.32997    57.92934   170.32436
   119  C   4.0    0.17    3.50    3.12     8.98548    57.64541   169.21181
   120  O   6.0   -0.32    1.31    1.80     9.42486    56.27770   167.40034
   121  C   4.0    0.05    4.22    4.03     5.98112    55.97644   172.46655
   122  O   6.0   -0.26    2.18    1.85     7.45733    53.80079   171.94303
   123  C   4.0   -0.08    4.08    3.77     3.23258    55.23726   172.90482
   124  H   1.0    0.11    1.12    1.45     3.84924    56.03326   167.73897
   125  H   1.0    0.07    1.08    1.44     6.17620    59.81905   171.14413
   126  H   1.0    0.05    1.04    1.43     6.73801    56.87660   174.18819
   127  H   1.0    0.10    1.03    1.43     6.99530    52.52904   173.17319
   128  H   1.0    0.02    1.00    1.43     3.10196    54.01189   174.54888
   129  H   1.0    0.04    1.00    1.43     2.11330    56.91761   173.26317
   130  H   1.0    0.05    1.00    1.43     2.47801    54.27068   171.26039
   131  N   5.0   -0.15    3.49    2.07    10.79932    58.93875   170.39858
   132  C   4.0    0.04    4.44    4.45    13.43225    58.64910   169.71950
   133  C   4.0    0.16    3.51    3.12    14.33135    55.93042   170.02271
   134  O   6.0   -0.33    1.32    1.80    16.15713    55.17429   168.82875
   135  C   4.0   -0.04    4.42    4.41    15.08385    60.21148   171.46801
   136  C   4.0   -0.04    4.05    3.71    15.28219    62.96328   170.72407
   137  S   6.0   -0.06    2.52    3.10    17.70092    63.47715   168.38801
   138  C   4.0   -0.07    3.90    3.47    20.31766    61.61356   169.57684
   139  H   1.0    0.10    1.08    1.44    10.30247    60.27886   171.66030
   140  H   1.0    0.05    1.05    1.44    13.74952    59.19955   167.74202
   141  H   1.0    0.05    1.03    1.43    14.27867    60.11061   173.37476
   142  H   1.0    0.05    1.07    1.44    16.95837    59.36101   171.60064
   143  H   1.0    0.05    1.07    1.44    13.52957    63.68702   169.91452
   144  H   1.0    0.04    1.07    1.44    15.73440    64.08846   172.40062
   145  H   1.0    0.04    1.05    1.44    21.97712    62.31940   168.60296
   146  H   1.0    0.04    1.04    1.43    20.54215    61.88174   171.59957
   147  H   1.0    0.04    1.04    1.43    20.04374    59.63130   169.12174
   148  N   5.0   -0.13    3.52    2.09    13.09527    54.45840   171.66072
   149  C   4.0    0.04    4.50    4.53    13.98919    51.87877   171.95733
   150  C   4.0    0.15    3.52    3.12    13.29275    50.45437   169.54906
   151  O   6.0   -0.32    1.29    1.80    14.79712    49.05765   168.49199
   152  C   4.0    0.05    4.20    4.01    12.96260    50.51023   174.34122
   153  O   6.0   -0.28    2.12    1.84    14.11455    51.44124   176.55596
   154  C   4.0   -0.09    4.10    3.81    13.50163    47.67575   174.19491
   155  H   1.0    0.10    1.06    1.44    11.84804    55.18008   172.90790
   156  H   1.0    0.06    1.06    1.44    16.05981    51.90449   172.09108
   157  H   1.0    0.04    1.04    1.43    10.91459    50.83300   174.42617
   158  H   1.0    0.15    1.07    1.44    13.29006    53.01536   177.03650
   159  H   1.0    0.02    1.00    1.43    12.94754    46.81479   175.97123
   160  H   1.0    0.03    1.00    1.43    12.46621    46.81709   172.64701
   161  H   1.0    0.03    1.00    1.43    15.51330    47.37331   173.92045
   162  N   5.0   -0.15    3.53    2.10    10.90289    50.80226   168.80112
   163  C   4.0    0.03    4.40    4.37     9.95961    49.76293   166.43844
   164  C   4.0    0.16    3.50    3.11    11.82900    50.49558   164.33288
   165  O   6.0   -0.32    1.31    1.80    12.78551    48.91454   162.93632
   166  C   4.0   -0.04    4.27    4.14     7.30256    50.76968   165.87693
   167  C   4.0   -0.05    4.20    3.99     5.20284    49.54012   167.44095
   168  C   4.0    0.14    3.21    3.04     2.70134    50.95806   167.22542
   169  O   6.0   -0.33    1.30    1.80     2.51028    53.20462   166.68102
   170  N   5.0   -0.21    3.19    1.95     0.64747    49.57591   167.73514
   171  H   1.0    0.10    1.11    1.44     9.83250    52.14911   169.64873
   172  H   1.0    0.04    1.05    1.44     9.97477    47.69245   166.54693
   173  H   1.0    0.07    1.04    1.43     7.30494    52.79886   166.23644
   174  H   1.0    0.04    1.03    1.43     6.90386    50.48688   163.87268
   175  H   1.0    0.02    1.03    1.43     4.94053    47.57938   166.86802
   176  H   1.0    0.03    1.03    1.43     5.73123    49.57750   169.43523
   177  H   1.0    0.05    1.03    1.43     0.76808    47.74767   168.24538
   178  H   1.0    0.07    1.03    1.43    -1.05423    50.43489   167.73657
   179  N   5.0   -0.14    3.51    2.08    12.32089    52.96687   164.19731
   180  C   4.0    0.04    4.50    4.53    13.97682    53.93048   162.26281
   181  C   4.0    0.16    3.53    3.13    16.50502    52.56034   162.25116
   182  O   6.0   -0.32    1.28    1.80    17.42924    51.76330   160.28334
   183  C   4.0   -0.04    4.34    4.28    14.45014    56.75621   162.53353
   184  C   4.0   -0.02    3.56    3.14    15.65299    57.80434   160.16485
   185  C   4.0   -0.05    3.48    3.11    14.76292    57.17401   157.75265
   186  C   4.0   -0.05    3.47    3.10    17.65817    59.47897   160.32918
   187  C   4.0   -0.05    3.38    3.07    15.87933    58.16523   155.61379
   188  C   4.0   -0.05    3.40    3.08    18.73408    60.52398   158.16816
   189  C   4.0   -0.05    3.38    3.07    17.87169    59.84945   155.79973
   190  H   1.0    0.11    1.10    1.44    11.43618    54.20843   165.35892
   191  H   1.0    0.04    1.07    1.44    13.09818    53.55702   160.42188
   192  H   1.0    0.04    1.03    1.43    12.61953    57.65995   162.84805
   193  H   1.0    0.05    1.03    1.43    15.65709    57.13745   164.16116
   194  H   1.0    0.04    1.03    1.43    13.15293    55.94533   157.54505
   195  H   1.0    0.04    1.03    1.43    18.37582    60.02451   162.15666
   196  H   1.0    0.04    1.03    1.43    15.16182    57.64504   153.77653
   197  H   1.0    0.04    1.05    1.44    20.27586    61.83991   158.37991
   198  H   1.0    0.04    1.03    1.43    18.71349    60.63165   154.11534
   199  N   5.0   -0.14    3.55    2.12    17.60592    52.45688   164.51269
   200  C   4.0    0.03    4.44    4.44    20.05759    51.28625   164.84301
   201  C   4.0    0.16    3.53    3.13    19.89719    48.63846   163.68867
   202  O   6.0   -0.31    1.28    1.80    21.40335    47.89821   162.09013
   203  C   4.0   -0.05    4.34    4.28    20.78691    51.27600   167.62044
   204  C   4.0   -0.03    4.17    3.94    23.64707    51.06848   168.04903
   205  C   4.0   -0.09    4.11    3.82    24.16651    51.00834   170.90062
   206  C   4.0   -0.09    4.11    3.83    24.85071    48.72765   166.85314
   207  H   1.0    0.12    1.11    1.45    16.81810    53.29136   166.05070
   208  H   1.0    0.04    1.05    1.44    21.46224    52.35353   163.74373
   209  H   1.0    0.05    1.04    1.43    20.12823    53.04770   168.44884
   210  H   1.0    0.05    1.03    1.43    19.80967    49.73164   168.57754
   211  H   1.0    0.03    1.05    1.44    24.54073    52.75196   167.24317
   212  H   1.0    0.02    1.00    1.43    26.19248    50.95779   171.24662
   213  H   1.0    0.03    1.00    1.43    23.37805    52.67202   171.81476
   214  H   1.0    0.02    1.00    1.43    23.31032    49.33967   171.74326
   215  H   1.0    0.01    1.00    1.43    26.85491    48.71000   167.31476
   216  H   1.0    0.03    1.00    1.43    23.96055    47.02533   167.58835
   217  H   1.0    0.05    1.01    1.43    24.65547    48.75019   164.81385
   218  N   5.0   -0.14    3.52    2.09    17.96958    47.23582   164.49075
   219  C   4.0    0.04    4.43    4.43    17.67538    44.68796   163.57701
   220  C   4.0    0.17    3.54    3.13    17.71022    44.55342   160.67091
   221  O   6.0   -0.31    1.24    1.80    18.95918    42.96553   159.53373
   222  C   4.0    0.02    4.17    3.94    15.18649    43.57396   164.51746
   223  O   6.0   -0.28    2.09    1.84    14.84837    41.28987   163.19060
   224  H   1.0    0.11    1.10    1.44    16.76764    47.89131   165.83444
   225  H   1.0    0.04    1.05    1.44    19.25273    43.50133   164.22081
   226  H   1.0    0.02    1.01    1.43    15.29513    43.26522   166.56320
   227  H   1.0    0.06    1.02    1.43    13.66126    44.91658   164.10590
   228  H   1.0    0.09    1.02    1.43    13.39141    40.40962   163.84088
   229  N   5.0   -0.14    3.53    2.10    16.24080    46.23600   159.51552
   230  C   4.0    0.03    4.52    4.57    16.07111    46.19131   156.78568
   231  C   4.0    0.16    3.51    3.12    18.68794    46.68365   155.65771
   232  O   6.0   -0.32    1.26    1.80    19.39905    45.57733   153.75942
   233  C   4.0   -0.02    4.32    4.24    14.13481    47.99089   155.55878
   234  C   4.0   -0.05    4.21    4.03    11.83841    48.44808   157.24058
   235  C   4.0   -0.09    4.15    3.91    13.33882    46.79204   153.06885
   236  C   4.0   -0.08    4.03    3.66     9.83787    50.11959   156.02703
   237  H   1.0    0.11    1.10    1.44    15.22962    47.48825   160.53858
   238  H   1.0    0.04    1.07    1.44    15.57943    44.24405   156.25394
   239  H   1.0    0.04    1.05    1.44    15.06111    49.80865   155.20485
   240  H   1.0    0.04    1.03    1.43    11.00048    46.63973   157.77195
   241  H   1.0    0.06    1.05    1.44    12.46164    49.37926   158.96272
   242  H   1.0    0.03    1.00    1.43    12.30106    48.12912   151.91131
   243  H   1.0    0.04    1.00    1.43    14.98913    46.15911   152.02350
   244  H   1.0    0.02    1.00    1.43    12.12791    45.16972   153.43217
   245  H   1.0    0.04    1.00    1.43     8.38955    50.57271   157.41548
   246  H   1.0    0.03    1.00    1.43    10.67587    51.87589   155.36924
   247  H   1.0    0.03    1.00    1.43     8.91986    49.19481   154.44299
   248  N   5.0   -0.13    3.49    2.07    20.13817    48.40478   156.80081
   249  C   4.0    0.04    4.44    4.45    22.67501    48.78104   155.83876
   250  C   4.0    0.08    3.29    3.05    24.24229    46.38169   156.18480
   251  O   6.0   -0.35    1.12    1.80    25.43443    45.47117   154.41789
   252  C   4.0   -0.02    4.33    4.26    23.91757    51.08747   157.08199
   253  C   4.0   -0.06    4.18    3.96    23.21572    53.52765   155.66123
   254  C   4.0   -0.09    4.15    3.91    26.78391    50.81310   157.20410
   255  C   4.0   -0.08    4.03    3.68    21.91275    55.39584   157.41246
   256  H   1.0    0.12    1.09    1.44    19.52413    49.41717   158.30283
   257  H   1.0    0.05    1.06    1.44    22.55576    49.03307   153.78216
   258  H   1.0    0.05    1.07    1.44    23.18786    51.18464   159.01389
   259  H   1.0    0.03    1.03    1.43    24.91211    54.38366   154.86798
   260  H   1.0    0.04    1.03    1.43    21.94463    53.11015   154.09598
   261  H   1.0    0.02    1.00    1.43    27.62310    52.48100   158.06018
   262  H   1.0    0.03    1.01    1.43    27.33398    49.17452   158.30351
   263  H   1.0    0.03    1.00    1.43    27.53871    50.59371   155.30548
   264  H   1.0    0.04    1.02    1.43    21.40329    57.08414   156.37587
   265  H   1.0    0.06    1.00    1.43    20.19867    54.58024   158.19661
   266  H   1.0    0.03    1.00    1.43    23.15435    55.94176   158.95431
   267  N   5.0   -0.23    3.29    1.98    30.38347    57.85217   170.13197
   268  C   4.0    0.02    4.24    4.09    29.50910    59.61218   168.19137
   269  C   4.0    0.06    3.23    3.04    29.34541    62.11750   169.62205
   270  O   6.0   -0.32    1.15    1.80    28.15232    62.21687   171.60555
   271  C   4.0   -0.05    4.37    4.32    26.99975    58.57983   167.23560
   272  C   4.0   -0.03    4.18    3.96    25.89156    59.96382   164.97932
   273  C   4.0   -0.09    4.12    3.84    27.77184    60.14991   162.78903
   274  C   4.0   -0.08    4.12    3.85    23.56258    58.52972   164.05067
   275  H   1.0    0.08    1.03    1.43    29.30470    57.79630   171.70184
   276  H   1.0    0.01    1.05    1.44    30.95618    59.68824   166.72682
   277  H   1.0    0.02    1.03    1.43    27.31712    56.59781   166.73389
   278  H   1.0    0.04    1.03    1.43    25.66127    58.63599   168.80876
   279  H   1.0    0.04    1.05    1.44    25.35948    61.88256   165.55653
   280  H   1.0    0.03    1.00    1.43    26.82680    60.91183   161.13147
   281  H   1.0    0.03    1.00    1.43    29.36271    61.37030   163.24007
   282  H   1.0    0.02    1.00    1.43    28.47850    58.27612   162.32385
   283  H   1.0    0.04    1.01    1.43    22.65475    59.58405   162.54649
   284  H   1.0    0.03    1.00    1.43    24.13506    56.69454   163.32971
   285  H   1.0    0.04    1.00    1.43    22.21742    58.24318   165.57120
   286  N   5.0   -0.21    3.25    1.97    28.23132    69.99200   169.22374
   287  C   4.0    0.02    4.32    4.24    27.44071    72.14132   167.71614
   288  C   4.0    0.05    3.22    3.04    29.65290    73.97416   167.57052
   289  O   6.0   -0.35    1.13    1.80    30.97333    74.47500   169.42626
   290  C   4.0   -0.03    4.26    4.12    24.97863    73.24716   168.72047
   291  C   4.0   -0.10    4.12    3.85    24.29710    75.63813   167.27614
   292  C   4.0   -0.09    4.12    3.85    22.87903    71.27200   168.52125
   293  H   1.0    0.08    1.02    1.43    27.97161    70.08274   171.12815
   294  H   1.0    0.02    1.06    1.44    27.12724    71.43066   165.79512
   295  H   1.0    0.03    1.06    1.44    25.25125    73.70178   170.71947
   296  H   1.0    0.02    1.00    1.43    22.45573    76.30191   167.88551
   297  H   1.0    0.02    1.00    1.43    25.65935    77.13212   167.62307
   298  H   1.0    0.02    1.00    1.43    24.24178    75.26617   165.25342
   299  H   1.0    0.03    1.00    1.43    21.16518    72.02021   169.35972
   300  H   1.0    0.03    1.00    1.43    22.51118    70.82594   166.54831
   301  H   1.0    0.04    1.00    1.43    23.41170    69.55002   169.50513
   302  N   5.0   -0.21    3.23    1.96    29.95454    70.44860   178.66892
   303  C   4.0    0.02    4.32    4.24    28.69903    68.12879   179.43859
   304  C   4.0    0.14    3.43    3.09    26.03043    68.79824   180.30504
   305  O   6.0   -0.32    1.24    1.80    25.66021    70.68432   181.61677
   306  C   4.0   -0.05    4.39    4.36    30.07525    66.90709   181.63883
   307  C   4.0   -0.04    4.18    3.96    32.46446    65.47452   180.89133
   308  C   4.0   -0.11    4.12    3.83    33.99196    64.98349   183.29285
   309  C   4.0   -0.09    4.11    3.82    31.83379    62.98035   179.60549
   310  H   1.0    0.06    1.03    1.43    30.87051    71.40549   180.04251
   311  H   1.0    0.03    1.05    1.44    28.61973    66.88246   177.78840
   312  H   1.0    0.03    1.03    1.43    30.58806    68.39993   182.97567
   313  H   1.0    0.04    1.03    1.43    28.80455    65.60871   182.62625
   314  H   1.0    0.02    1.05    1.44    33.59713    66.67642   179.64217
   315  H   1.0    0.00    1.00    1.43    35.74636    64.00583   182.87062
   316  H   1.0    0.01    1.00    1.43    34.47167    66.74916   184.23851
   317  H   1.0    0.03    1.00    1.43    32.90999    63.83003   184.61521
   318  H   1.0    0.01    1.00    1.43    33.54749    62.00727   179.02922
   319  H   1.0    0.04    1.03    1.43    30.82747    61.77487   180.92494
   320  H   1.0    0.04    1.00    1.43    30.66967    63.26574   177.93667
   321  N   5.0   -0.14    3.48    2.06    24.15768    67.30167   179.48741
   322  C   4.0    0.03    4.48    4.51    21.53197    68.06298   179.51348
   323  C   4.0    0.15    3.47    3.10    19.89085    66.03947   180.72800
   324  O   6.0   -0.31    1.34    1.80    20.63300    63.88469   181.15332
   325  C   4.0   -0.02    4.27    4.13    20.57886    68.59329   176.79101
   326  C   4.0   -0.08    4.11    3.82    22.03446    70.77229   175.59062
   327  C   4.0   -0.07    4.13    3.86    20.76263    66.22245   175.16839
   328  H   1.0    0.08    1.07    1.44    24.59846    65.74531   178.48392
   329  H   1.0    0.05    1.06    1.44    21.45183    69.79964   180.63654
   330  H   1.0    0.03    1.06    1.44    18.59270    69.14261   176.93762
   331  H   1.0    0.03    1.00    1.43    21.21073    71.27020   173.78007
   332  H   1.0    0.03    1.00    1.43    21.99087    72.42980   176.80479
   333  H   1.0    0.04    1.00    1.43    24.00393    70.26928   175.29052
   334  H   1.0    0.04    1.00    1.43    19.93373    66.58323   173.32495
   335  H   1.0    0.04    1.00    1.43    22.72814    65.68774   174.86640
   336  H   1.0    0.06    1.00    1.43    19.77760    64.64387   176.04689
   337  N   5.0   -0.15    3.47    2.06    17.51064    66.73422   181.23968
   338  C   4.0    0.04    4.43    4.42    15.81016    64.82380   182.21091
   339  C   4.0    0.16    3.48    3.11    15.33225    62.86601   180.13700
   340  O   6.0   -0.32    1.23    1.80    14.42379    63.45263   178.06137
   341  C   4.0    0.02    4.15    3.91    13.33041    66.03457   183.05365
   342  O   6.0   -0.27    2.07    1.83    11.66666    64.09505   183.81114
   343  H   1.0    0.07    1.06    1.44    16.86449    68.47256   180.80987
   344  H   1.0    0.06    1.06    1.44    16.73317    63.90113   183.82339
   345  H   1.0    0.03    1.01    1.43    13.73320    67.34288   184.60542
   346  H   1.0    0.04    1.01    1.43    12.52197    67.07764   181.45019
   347  H   1.0    0.10    1.02    1.43    10.27071    64.85633   184.71121
   348  N   5.0   -0.15    3.48    2.07    15.89986    60.44341   180.76119
   349  C   4.0    0.03    4.43    4.43    15.38181    58.35186   179.08699
   350  C   4.0    0.14    3.36    3.07    12.55741    57.66166   179.07506
   351  O   6.0   -0.33    1.27    1.80    11.74042    55.96024   177.69765
   352  C   4.0   -0.05    4.30    4.21    17.15983    56.11155   179.58215
   353  C   4.0   -0.04    4.04    3.69    19.91619    56.78354   179.04226
   354  S   6.0   -0.05    2.54    3.10    20.38239    57.55114   175.70776
   355  C   4.0   -0.07    3.87    3.42    23.78292    58.05847   175.51242
   356  H   1.0    0.08    1.06    1.44    16.77198    60.09487   182.41448
   357  H   1.0    0.06    1.09    1.44    15.76602    59.01661   177.15032
   358  H   1.0    0.04    1.02    1.43    17.00333    55.52115   181.55614
   359  H   1.0    0.05    1.04    1.43    16.60996    54.52969   178.38313
   360  H   1.0    0.06    1.06    1.44    20.52649    58.42498   180.13609
   361  H   1.0    0.03    1.06    1.44    21.14178    55.18873   179.49072
   362  H   1.0    0.05    1.04    1.43    24.16123    58.84946   173.66037
   363  H   1.0    0.06    1.06    1.44    24.33842    59.37896   176.97537
   364  H   1.0    0.03    1.04    1.43    24.74604    56.26121   175.74778
   365  N   5.0   -0.15    3.49    2.07    10.99328    59.15564   180.43185
   366  C   4.0    0.03    4.34    4.28     8.27534    59.09650   180.25552
   367  C   4.0    0.15    3.41    3.08     7.07561    61.37742   178.89108
   368  O   6.0   -0.32    1.31    1.80     4.76568    61.65282   178.92127
   369  C   4.0    0.03    4.17    3.94     7.16129    58.99538   182.95452
   370  O   6.0   -0.30    2.05    1.83     4.53975    58.73073   183.01811
   371  H   1.0    0.09    1.10    1.44    11.73301    60.56269   181.49201
   372  H   1.0    0.05    1.06    1.44     7.74883    57.38040   179.22283
   373  H   1.0    0.03    1.01    1.43     7.96363    57.36279   183.93871
   374  H   1.0    0.04    1.01    1.43     7.78470    60.71276   183.95110
   375  H   1.0    0.14    1.08    1.44     3.83025    59.87841   181.75556
   376  N   5.0   -0.13    3.48    2.06     8.58238    63.06144   177.77842
   377  C   4.0    0.04    4.38    4.34     7.51190    65.35299   176.72860
   378  C   4.0    0.16    3.43    3.09     6.53984    64.83176   174.05386
   379  O   6.0   -0.30    1.27    1.80     7.39017    63.06368   172.81063
   380  C   4.0   -0.07    4.12    3.84     9.50041    67.42048   176.64302
   381  H   1.0    0.10    1.08    1.44    10.48591    62.87082   177.71266
   382  H   1.0    0.06    1.06    1.44     5.90275    65.92386   177.89997
   383  H   1.0    0.04    1.00    1.43     8.77555    69.03933   175.61222
   384  H   1.0    0.04    1.00    1.43     9.97217    68.02752   178.54734
   385  H   1.0    0.05    1.00    1.43    11.20129    66.71821   175.73152
   386  N   5.0   -0.14    3.50    2.07     4.75382    66.41726   173.25761
   387  C   4.0    0.04    4.45    4.47     3.70103    66.26836   170.75402
   388  C   4.0    0.16    3.49    3.11     5.32981    67.79569   168.92770
   389  O   6.0   -0.32    1.32    1.80     6.55710    69.62490   169.63819
   390  C   4.0    0.05    4.23    4.07     0.97409    67.34093   170.62389
   391  O   6.0   -0.28    2.15    1.85     0.98414    70.01497   170.65908
   392  C   4.0   -0.08    4.08    3.76    -0.72417    66.28715   172.69856
   393  H   1.0    0.11    1.12    1.45     4.20228    67.84831   174.44482
   394  H   1.0    0.06    1.06    1.44     3.70276    64.28241   170.16948
   395  H   1.0    0.03    1.04    1.43     0.21948    66.82664   168.76200
   396  H   1.0    0.12    1.04    1.43     0.75288    70.56583   172.38704
   397  H   1.0    0.02    1.00    1.43    -2.65491    66.92587   172.40317
   398  H   1.0    0.03    1.00    1.43    -0.69676    64.23676   172.68342
   399  H   1.0    0.05    1.00    1.43    -0.09176    66.93901   174.54670
   400  N   5.0   -0.15    3.45    2.05     5.14133    67.08892   166.50097
   401  C   4.0    0.04    4.44    4.45     6.65044    68.37188   164.60834
   402  C   4.0    0.08    3.25    3.04     5.92175    71.14326   164.47984
   403  O   6.0   -0.32    1.12    1.80     7.52741    72.75437   164.02848
   404  C   4.0   -0.04    4.35    4.30     6.54761    67.04963   162.06743
   405  C   4.0   -0.04    4.10    3.80     8.25082    64.74647   162.12348
   406  S   6.0   -0.06    2.63    3.10    11.51489    65.72560   162.61744
   407  C   4.0   -0.07    3.92    3.49    12.82830    62.60419   162.88779
   408  H   1.0    0.10    1.09    1.44     4.64022    65.27445   166.15579
   409  H   1.0    0.05    1.13    1.45     8.64570    68.35050   165.18246
   410  H   1.0    0.06    1.03    1.43     4.61831    66.51389   161.57045
   411  H   1.0    0.04    1.04    1.43     7.25359    68.33925   160.62377
   412  H   1.0    0.06    1.07    1.44     7.75711    63.49276   163.68438
   413  H   1.0    0.04    1.06    1.44     8.15987    63.72033   160.34087
   414  H   1.0    0.04    1.05    1.44    14.76662    62.78447   163.52749
   415  H   1.0    0.05    1.04    1.43    11.72463    61.56534   164.27633
   416  H   1.0    0.04    1.04    1.44    12.77080    61.68755   161.05327
   417  N   5.0   -0.20    3.25    1.97     3.99996    74.52370   169.35932
   418  C   4.0    0.02    4.30    4.19     5.41413    75.58086   171.44009
   419  C   4.0    0.14    3.42    3.08     8.11194    76.23181   170.55905
   420  O   6.0   -0.34    1.24    1.80     9.05548    78.30867   170.98261
   421  C   4.0   -0.05    4.21    4.03     5.32090    73.76729   173.71055
   422  C   4.0   -0.05    4.16    3.91     2.82851    74.00995   175.15984
   423  C   4.0    0.23    3.07    3.02     1.92068    71.75380   176.85699
   424  O   6.0   -0.34    1.25    1.80     3.13736    69.72573   176.88880
   425  O   6.0   -0.36    1.17    1.80    -0.04960    72.18485   178.06013
   426  H   1.0    0.11    1.05    1.44     3.29047    72.75290   169.53776
   427  H   1.0    0.02    1.05    1.44     4.57174    77.40455   171.97976
   428  H   1.0    0.07    1.04    1.43     5.58276    71.84296   173.02172
   429  H   1.0    0.03    1.02    1.43     6.89607    74.18390   174.97930
   430  H   1.0    0.02    1.03    1.43     2.94429    75.61017   176.45049
   431  H   1.0    0.03    1.03    1.43     1.27373    74.38572   173.85341
   432  N   5.0   -0.14    3.48    2.06     9.33842    74.45661   169.25124
   433  C   4.0    0.04    4.42    4.42    11.96026    74.92842   168.58182
   434  C   4.0    0.08    3.25    3.04    12.15326    77.08346   166.65645
   435  O   6.0   -0.34    1.11    1.80    13.96694    78.52863   166.58906
   436  C   4.0   -0.02    4.32    4.24    13.36415    72.63056   167.47416
   437  C   4.0   -0.04    4.22    4.05    12.31031    70.10387   168.39276
   438  C   4.0   -0.08    4.12    3.84    16.17848    72.83011   168.06792
   439  C   4.0   -0.07    4.02    3.66    12.24594    69.70196   171.24133
   440  H   1.0    0.11    1.10    1.44     8.58349    72.71177   169.06904
   441  H   1.0    0.05    1.06    1.44    12.93576    75.57276   170.30077
   442  H   1.0    0.04    1.06    1.44    13.11140    72.64570   165.41839
   443  H   1.0    0.06    1.05    1.44    10.39591    69.91283   167.68299
   444  H   1.0    0.04    1.03    1.43    13.42702    68.60237   167.52467
   445  H   1.0    0.03    1.00    1.43    17.14571    71.17036   167.34414
   446  H   1.0    0.04    1.00    1.43    17.00212    74.50531   167.21407
   447  H   1.0    0.03    1.00    1.43    16.46897    72.93279   170.09981
   448  H   1.0    0.05    1.00    1.43    11.18370    67.98205   171.61548
   449  H   1.0    0.03    1.00    1.43    14.13439    69.48722   172.01730
   450  H   1.0    0.04    1.00    1.43    11.30629    71.24532   172.21860
   451  N   5.0   -0.23    3.26    1.97    27.81360    70.73720   158.26425
   452  C   4.0    0.02    4.26    4.12    28.56273    69.01355   160.22644
   453  C   4.0    0.05    3.26    3.05    30.99998    67.73431   159.46740
   454  O   6.0   -0.34    1.15    1.80    31.32639    67.04765   157.27742
   455  C   4.0   -0.05    4.44    4.44    26.64463    66.87786   160.50960
   456  C   4.0   -0.05    4.11    3.82    24.06006    67.92678   161.09509
   457  S   6.0   -0.07    2.57    3.10    22.03118    65.30771   161.85341
   458  C   4.0   -0.08    3.89    3.45    19.06376    67.04155   161.92338
   459  H   1.0    0.08    1.03    1.43    27.75091    69.99049   156.48794
   460  H   1.0    0.02    1.05    1.44    28.79592    70.04103   162.00379
   461  H   1.0    0.04    1.04    1.43    26.59166    65.79670   158.75148
   462  H   1.0    0.03    1.04    1.43    27.27855    65.63203   162.03101
   463  H   1.0    0.03    1.07    1.44    24.13836    69.19453   162.72672
   464  H   1.0    0.03    1.07    1.44    23.29378    68.94497   159.47620
   465  H   1.0    0.04    1.05    1.44    17.64534    65.76310   162.65358
   466  H   1.0    0.03    1.04    1.43    19.27001    68.64945   163.17980
   467  H   1.0    0.03    1.04    1.43    18.58707    67.64837   160.02461
   468  N   5.0   -0.23    3.30    1.98     6.32726    54.93392   143.92333
   469  C   4.0    0.02    4.43    4.43     6.93273    53.66587   146.30065
   470  C   4.0    0.13    3.45    3.09     5.32020    51.28921   146.59524
   471  O   6.0   -0.36    1.24    1.80     4.38851    50.18650   144.77458
   472  C   4.0   -0.03    4.43    4.44     6.35967    55.65678   148.28943
   473  C   4.0   -0.06    4.16    3.92     7.62464    55.35469   150.87081
   474  C   4.0   -0.08    4.19    3.98     3.49141    56.07668   148.29843
   475  C   4.0   -0.09    4.03    3.68    10.40817    54.67644   150.58117
   476  H   1.0    0.05    1.06    1.44     5.95938    56.78772   144.19444
   477  H   1.0    0.02    1.05    1.44     8.94597    53.13675   146.24642
   478  H   1.0    0.02    1.09    1.44     7.25782    57.36144   147.55853
   479  H   1.0    0.03    1.03    1.43     7.51672    57.20662   151.77733
   480  H   1.0    0.04    1.02    1.43     6.69143    54.02979   152.14974
   481  H   1.0    0.02    1.00    1.43     3.12753    58.09165   148.15837
   482  H   1.0    0.04    1.02    1.43     2.63404    55.17467   146.66769
   483  H   1.0    0.06    1.03    1.43     2.66383    55.30755   150.01060
   484  H   1.0    0.03    1.00    1.43    11.40968    54.92981   152.36288
   485  H   1.0    0.03    1.00    1.43    10.68163    52.72886   149.97983
   486  H   1.0    0.03    1.00    1.43    11.31501    55.93449   149.21483
   487  N   5.0   -0.15    3.41    2.02     5.00720    50.36936   148.96694
   488  C   4.0   -0.01    4.25    4.11     2.74500    48.94276   149.53726
   489  C   4.0    0.12    3.33    3.06     1.26533    50.35564   151.56323
   490  O   6.0   -0.33    1.28    1.80     1.83134    52.52527   152.23944
   491  H   1.0    0.08    1.12    1.45     5.52327    51.51363   150.40089
   492  H   1.0    0.03    1.04    1.43     1.63520    48.79568   147.79397
   493  H   1.0    0.02    1.02    1.43     3.20235    47.03453   150.19722
   494  N   5.0   -0.16    3.50    2.08    -0.72375    49.09062   152.59792
   495  C   4.0    0.03    4.36    4.32    -1.87860    49.99010   154.93066
   496  C   4.0    0.13    3.54    3.13    -2.16091    47.61663   156.53842
   497  O   6.0   -0.32    1.40    1.80    -1.86019    45.48591   155.55632
   498  C   4.0    0.02    4.12    3.85    -4.35905    51.33866   154.10740
   499  O   6.0   -0.30    2.04    1.83    -5.81997    52.48436   156.00516
   500  H   1.0    0.08    1.12    1.45    -0.68288    47.16016   152.58032
   501  H   1.0    0.05    1.05    1.44    -0.64515    51.37469   155.87590
   502  H   1.0    0.03    1.01    1.43    -3.79042    52.71885   152.67112
   503  H   1.0    0.02    1.02    1.43    -5.55698    49.92722   153.19151
   504  H   1.0    0.11    1.02    1.43    -5.22449    54.17494   156.33297
   505  N   5.0   -0.10    3.66    2.22    -2.71092    47.82204   158.99487
   506  C   4.0    0.02    4.49    4.52    -3.28120    45.59761   160.51121
   507  C   4.0    0.07    3.31    3.06    -3.79463    43.24312   158.93563
   508  O   6.0   -0.35    1.12    1.80    -2.24639    41.50690   158.80605
   509  C   4.0   -0.08    4.30    4.20    -5.48825    46.45299   162.23600
   510  C   4.0   -0.06    4.26    4.11    -6.03731    49.18599   161.44374
   511  C   4.0   -0.01    4.41    4.39    -3.48410    50.02756   160.38907
   512  H   1.0    0.04    1.05    1.44    -1.58786    45.16009   161.63043
   513  H   1.0    0.00    1.02    1.43    -7.13382    45.23162   162.08192
   514  H   1.0    0.01    1.03    1.43    -4.84552    46.42127   164.18866
   515  H   1.0    0.02    1.02    1.43    -7.43284    49.29938   159.93144
   516  H   1.0    0.02    1.02    1.43    -6.64626    50.36670   163.00760
   517  H   1.0    0.05    1.04    1.43    -3.58059    51.69424   159.20929
   518  H   1.0    0.04    1.02    1.43    -2.10730    50.38795   161.89746
   519  N   5.0   -0.29    2.22    1.90    16.65847    51.32435   189.27674
   520  C   4.0    0.06    4.04    3.70    19.37485    51.25084   189.41405
   521  C   4.0    0.02    2.22    3.00    20.48350    53.66645   190.53634
   522  O   6.0   -0.29    1.08    1.80    19.35101    55.66202   190.78735
   523  C   4.0   -0.09    4.10    3.79    20.53752    50.80586   186.80810
   524  H   1.0    0.10    1.01    1.43    15.86159    52.40190   187.92686
   525  H   1.0    0.00    1.05    1.44    19.80724    49.69938   190.71676
   526  H   1.0    0.02    1.00    1.43    22.58204    50.67920   186.92978
   527  H   1.0    0.01    1.00    1.43    19.78370    49.08196   185.98242
   528  H   1.0    0.04    1.00    1.43    20.06843    52.36883   185.55449
   529  N   5.0   -0.25    2.29    1.90    28.59105    56.78905   190.66459
   530  C   4.0    0.06    4.14    3.88    31.20042    56.56047   189.94270
   531  C   4.0   -0.02    2.24    3.00    32.89336    56.73362   192.27182
   532  O   6.0   -0.34    1.10    1.80    32.38955    58.13511   194.06060
   533  C   4.0   -0.05    4.34    4.28    31.87687    58.77681   188.20836
   534  C   4.0   -0.02    3.57    3.15    29.88765    59.23235   186.21780
   535  C   4.0   -0.07    3.46    3.10    29.89317    57.93350   183.92426
   536  C   4.0   -0.04    3.47    3.10    28.03960    61.05695   186.60488
   537  C   4.0   -0.06    3.45    3.10    28.17478    58.49865   182.04561
   538  C   4.0   -0.04    3.43    3.09    26.32065    61.64580   184.72260
   539  C   4.0    0.07    3.44    3.09    26.39086    60.40213   182.41131
   540  O   6.0   -0.26    2.14    1.85    24.79257    60.97148   180.50568
   541  H   1.0    0.11    1.02    1.43    27.98587    58.54346   191.12958
   542  H   1.0    0.01    1.05    1.44    31.44619    54.73809   189.00032
   543  H   1.0    0.03    1.03    1.43    32.05981    60.48779   189.35652
   544  H   1.0    0.01    1.03    1.43    33.70354    58.42111   187.31901
   545  H   1.0    0.02    1.03    1.43    31.30677    56.50091   183.58663
   546  H   1.0    0.05    1.03    1.43    27.97964    62.10474   188.35946
   547  H   1.0    0.04    1.03    1.43    28.20017    57.51142   180.26159
   548  H   1.0    0.07    1.03    1.43    24.88942    63.07284   185.03575
   549  H   1.0    0.15    1.08    1.44    23.45378    62.15809   181.01682
   550  N   5.0   -0.28    2.22    1.90    23.91651    64.43382   194.15940
   551  C   4.0    0.06    4.21    4.01    22.11841    63.53275   192.31331
   552  C   4.0    0.15    3.39    3.08    22.23525    64.92994   189.75450
   553  O   6.0   -0.30    1.22    1.80    21.10047    64.08214   187.93143
   554  C   4.0    0.02    4.15    3.90    19.38409    63.62872   193.28688
   555  O   6.0   -0.28    2.05    1.83    18.45063    66.10363   193.40550
   556  H   1.0    0.08    1.00    1.43    23.38827    65.90017   195.32226
   557  H   1.0    0.05    1.05    1.44    22.58639    61.55777   191.89296
   558  H   1.0    0.05    1.02    1.43    18.19681    62.59427   191.94853
   559  H   1.0    0.01    1.01    1.43    19.29473    62.70471   195.13759
   560  H   1.0    0.09    1.02    1.43    19.31080    66.95893   194.79939
   561  N   5.0   -0.14    3.57    2.13    23.58882    67.04877   189.68887
   562  C   4.0    0.05    4.30    4.21    23.97997    68.58435   187.47497
   563  C   4.0    0.03    2.27    3.00    26.00349    70.48937   188.21877
   564  O   6.0   -0.34    1.17    1.80    26.29361    70.92165   190.47585
   565  C   4.0   -0.03    4.30    4.20    21.52298    69.90321   186.68499
   566  C   4.0   -0.04    4.27    4.13    20.10757    71.00318   188.92873
   567  C   4.0    0.13    3.24    3.04    17.75336    72.27388   187.91594
   568  O   6.0   -0.35    1.20    1.80    17.78662    74.37802   186.97851
   569  N   5.0   -0.21    3.19    1.95    15.64395    70.87651   188.09197
   570  H   1.0    0.10    1.11    1.45    24.43580    67.75404   191.26241
   571  H   1.0    0.05    1.05    1.44    24.66871    67.43236   185.89053
   572  H   1.0    0.05    1.03    1.43    21.99317    71.37753   185.31887
   573  H   1.0    0.06    1.03    1.43    20.34769    68.49063   185.74238
   574  H   1.0    0.05    1.03    1.43    19.61409    69.50470   190.25593
   575  H   1.0    0.04    1.03    1.43    21.30421    72.39306   189.87169
   576  H   1.0    0.07    1.03    1.43    15.66584    69.16213   188.91376
   577  H   1.0    0.07    1.03    1.43    14.00185    71.58053   187.42990
   578  H   1.0    0.07    1.08    1.44    14.53812    70.54705   151.00375
   579  H   1.0    0.02    1.05    1.44    21.97641    70.06277   149.90726
   580  H   1.0    0.08    1.08    1.44    25.31249    65.84682   151.52247
   581  H   1.0    0.03    1.04    1.43    32.61353    64.50560   152.19390
   582  H   1.0    0.08    1.10    1.44    19.32447    63.24655   144.32946
   583  H   1.0    0.02    1.04    1.43    11.80091    63.96841   144.97699
   584  H   1.0    0.08    1.08    1.44     8.44364    63.97916   149.15172
   585  H   1.0    0.04    1.05    1.44    -1.15251    66.47176   157.27120
   586  H   1.0    0.08    1.07    1.44    -2.88538    66.86281   162.13290
   587  H   1.0    0.05    1.05    1.44    24.30670    45.53011   157.87054
   588  H   1.0    0.07    1.08    1.44    30.40871    56.27435   169.49761
   589  H   1.0    0.03    1.04    1.43    30.20667    63.65419   168.93806
   590  H   1.0    0.08    1.07    1.44    27.38009    68.60602   168.72671
   591  H   1.0    0.02    1.05    1.44    30.07597    74.81629   165.93257
   592  H   1.0    0.07    1.07    1.44    31.12264    70.09579   177.48417
   593  H   1.0    0.05    1.05    1.44     4.12704    71.66249   164.76354
   594  H   1.0    0.07    1.07    1.44     2.64564    75.50119   169.03857
   595  H   1.0    0.05    1.05    1.44    10.77107    77.35086   165.39585
   596  H   1.0    0.07    1.08    1.44    26.25297    71.32796   158.59288
   597  H   1.0    0.02    1.04    1.44    32.35492    67.44438   160.75236
   598  H   1.0    0.06    1.07    1.44     7.64386    54.79691   142.85545
   599  H   1.0    0.02    1.05    1.44    -5.41582    43.08198   157.97811

  Z AO/shell   Hii/eV     exponent
  1     Wed Apr 25 08:07:45 CEST 2018   EN: 2.200 GM2: 0.406  GM3: 0.0800  RAES: 1.40
     1s    -10.707211    1.230000
  6     Wed Apr 25 08:07:45 CEST 2018   EN: 2.550 GM2: 0.538  GM3: 0.1500  RAES: 3.00
     2s    -13.970922    2.096432
     2p    -10.063292    1.800000
  7     Wed Apr 25 08:07:45 CEST 2018   EN: 3.040 GM2: 0.461  GM3:-0.0640  RAES: 1.90
     2s    -16.686243    2.339881
     2p    -12.523956    2.014332
  8     Wed Apr 25 08:07:45 CEST 2018   EN: 3.440 GM2: 0.452  GM3:-0.0517  RAES: 1.80
     2s    -20.229985    2.439742
     2p    -15.503117    2.137023
 16     Tue Apr 24 11:44:34 CEST 2018   EN: 2.580 GM2: 0.340  GM3:-0.0502  RAES: 3.10
     3s    -20.029654    1.981333
     3p    -11.377694    2.025643
     3d     -0.420282    1.702555
 no old-style atom pair restraining (fixing) potential

molecular fragmentation (1/2 indicates fragments):
111111111111111122222222222222222222222222222222222222222222222222222222
222222222222222222222222222222222222222222222222222222222222222222222222
222222222222222222222222222222222222222222222222222222222222222222222222
222222222222222222222222222222222222222222222222222222222222222222222222
222222222222222222222222222222222222222222222222222222222222222222222222
222222222222222222222222222222222222222222222222222222222222222222222222
222222222222222222222222222222222222222222222222222222222222222222222222
222222222222222222222222222222222222222222222222222222222222222222222222
21122222222222222222222
# atoms in fragment 1/2:    18   581
 fragment masses (1/2) :      101.15     3948.88
CMA distance (Bohr)    :  18.367
constraining FC (au)   :  0.0500
           ------------------------------------------------- 
          |        Self-Consistent Charge Iterations        |
           ------------------------------------------------- 

 Ncao       : 1463
 Nao        : 1459
 Nshell     : 883
 Nel        : 1598
 T(el)      :   500.0
 intcut     :    35.0
 scfconv/Eh :  0.100E-06
   qconv/e  :  0.100E-04
 intneglect :  0.100E-08
 broydamp   :      0.400
 iter      E             dE          RMSdq      gap      omega  full diag
   1   -907.4079285 -0.907408E+03  0.467E+00    0.67       0.0  T
   2   -904.9218759  0.248605E+01  0.321E+00    0.00       1.0  T
   3   -906.2232277 -0.130135E+01  0.261E+00    0.06       1.0  T
   4   -908.4985247 -0.227530E+01  0.177E+00    0.01       1.0  T
   5   -909.7766433 -0.127812E+01  0.123E+00    0.12       1.0  T
   6   -909.9656090 -0.188966E+00  0.947E-01    0.34       1.0  T
   7   -909.5631630  0.402446E+00  0.117E+00    0.02       1.0  T
   8   -909.9631465 -0.399983E+00  0.820E-01    0.04       1.0  T
   9   -910.2373795 -0.274233E+00  0.541E-01    0.03       1.0  T
  10   -909.8675921  0.369787E+00  0.899E-01    0.14       1.0  T
  11   -909.9304555 -0.628633E-01  0.788E-01    0.07       1.0  T
  12   -909.9309964 -0.540949E-03  0.804E-01    0.00       1.0  T
  13   -910.0324168 -0.101420E+00  0.649E-01    0.01       1.0  T
  14   -910.2681594 -0.235743E+00  0.368E-01    0.02       1.0  T
  15   -909.8004890  0.467670E+00  0.909E-01    0.00       1.0  T
  16   -909.8206049 -0.201158E-01  0.845E-01    0.03       1.0  T
  17   -910.1893142 -0.368709E+00  0.485E-01    0.01       1.0  T
  18   -910.2785292 -0.892150E-01  0.334E-01    0.08       1.0  T
  19   -910.2836851 -0.515595E-02  0.321E-01    0.01       1.0  T
  20   -910.2952645 -0.115793E-01  0.302E-01    0.04       1.0  T
  21   -910.3381020 -0.428375E-01  0.183E-01    0.04       1.0  T
  22   -910.3368215  0.128047E-02  0.179E-01    0.06       1.0  T
  23   -910.3382547 -0.143316E-02  0.176E-01    0.05       1.0  T
  24   -910.3447870 -0.653233E-02  0.150E-01    0.06       1.0  T
  25   -910.3417628  0.302423E-02  0.160E-01    0.06       1.0  T
  26   -910.3519505 -0.101877E-01  0.111E-01    0.05       1.0  T
  27   -910.3587775 -0.682697E-02  0.624E-02    0.07       1.0  T
  28   -910.3587057  0.717282E-04  0.622E-02    0.06       1.0  T
  29   -910.3593756 -0.669906E-03  0.542E-02    0.08       1.0  T
  30   -910.3607362 -0.136053E-02  0.338E-02    0.06       1.0  T
  31   -910.3600733  0.662829E-03  0.453E-02    0.07       1.0  T
  32   -910.3609725 -0.899177E-03  0.290E-02    0.08       1.0  T
  33   -910.3615686 -0.596071E-03  0.916E-03    0.07       1.0  T
  34   -910.3614858  0.827778E-04  0.134E-02    0.07       1.0  T
  35   -910.3616151 -0.129333E-03  0.423E-03    0.07       1.0  T
  36   -910.3616243 -0.912023E-05  0.234E-03    0.07       1.7  T
  37   -910.3616230  0.127670E-05  0.267E-03    0.07       1.5  T
  38   -910.3616276 -0.459356E-05  0.109E-03    0.07       3.7  T
  39   -910.3616279 -0.333981E-06  0.866E-04    0.07       4.7  T
  40   -910.3616284 -0.460607E-06  0.395E-04    0.07      10.4  T
  41   -910.3616285 -0.775383E-07  0.213E-04    0.07      19.2  T
  42   -910.3616285 -0.206652E-07  0.130E-04    0.07      31.5  T
  43   -910.3616285 -0.904652E-08  0.719E-05    0.07      56.8  T
  44   -910.3616285 -0.232694E-08  0.460E-05    0.07      88.8  T
speedup  1.69
cpu  time for SCC    2 m 37.2 s
wall time for SCC    1 m 32.8 s

   *** convergence criteria satisfied after 44 iterations ***

          eigenvalues
 #    :         787        788        789        790        791        792        793        794
 occ. :        2.000      2.000      2.000      2.000      2.000      2.000      2.000      2.000
 eps  :        -9.522     -9.465     -9.369     -9.321     -9.000     -8.804     -8.313     -8.210
 #    :         795        796        797        798        799        800        801        802
 occ. :        2.000      1.999      1.669      1.007      0.930      0.294      0.259      0.219
 eps  :        -8.184     -7.317     -7.077     -7.008     -7.001     -6.931     -6.925     -6.917
 #    :         803        804        805        806        807        808        809        810
 occ. :        0.211      0.207      0.198      0.191      0.184      0.176      0.160      0.130
 eps  :        -6.915     -6.914     -6.912     -6.910     -6.909     -6.906     -6.902     -6.892


   #   Z            q   n(s)   n(p)   n(d)      C6AA      α(0)
   1   7 N     -0.409  1.320  4.088  0.000    30.621     8.218
   2   6 C      0.046  1.052  2.902  0.000    19.808     6.338
   3   6 C      0.179  1.072  2.748  0.000    24.142     8.047
   4   8 O     -0.421  1.745  4.675  0.000    22.103     6.303
   5   6 C     -0.005  1.061  2.944  0.000    20.630     6.459
   6   6 C     -0.104  1.039  3.065  0.000    22.540     6.769
   7   6 C     -0.105  1.039  3.067  0.000    22.564     6.772
   8   1 H      0.190  0.810  0.000  0.000     1.161     1.688
   9   1 H      0.024  0.976  0.000  0.000     2.667     2.554
  10   1 H      0.027  0.973  0.000  0.000     2.632     2.537
  11   1 H      0.051  0.949  0.000  0.000     2.311     2.377
  12   1 H      0.026  0.974  0.000  0.000     2.651     2.546
  13   1 H      0.031  0.969  0.000  0.000     2.575     2.510
  14   1 H      0.036  0.964  0.000  0.000     2.504     2.475
  15   1 H      0.032  0.968  0.000  0.000     2.563     2.503
  16   1 H      0.040  0.960  0.000  0.000     2.446     2.446
  17   7 N     -0.379  1.319  4.060  0.000    29.798     8.107
  18   6 C      0.038  1.061  2.901  0.000    19.954     6.363
  19   6 C      0.188  1.078  2.734  0.000    23.976     8.019
  20   8 O     -0.422  1.752  4.670  0.000    22.121     6.306
  21   6 C     -0.011  1.061  2.949  0.000    20.731     6.476
  22   6 C     -0.110  1.039  3.071  0.000    22.656     6.786
  23   6 C     -0.102  1.036  3.066  0.000    22.498     6.763
  24   1 H      0.152  0.848  0.000  0.000     1.388     1.846
  25   1 H      0.041  0.959  0.000  0.000     2.438     2.442
  26   1 H      0.034  0.966  0.000  0.000     2.532     2.488
  27   1 H      0.046  0.954  0.000  0.000     2.369     2.407
  28   1 H      0.033  0.967  0.000  0.000     2.542     2.493
  29   1 H      0.034  0.966  0.000  0.000     2.535     2.490
  30   1 H      0.045  0.955  0.000  0.000     2.381     2.413
  31   1 H      0.032  0.968  0.000  0.000     2.562     2.503
  32   1 H      0.031  0.969  0.000  0.000     2.578     2.511
  33   7 N     -0.407  1.324  4.083  0.000    30.566     8.211
  34   6 C      0.047  1.058  2.895  0.000    19.808     6.340
  35   6 C      0.167  1.070  2.763  0.000    24.396     8.090
  36   8 O     -0.438  1.756  4.683  0.000    22.462     6.354
  37   6 C     -0.055  1.053  3.003  0.000    21.553     6.607
  38   6 C      0.012  1.082  2.906  0.000    27.746     8.640
  39   6 C     -0.041  1.079  2.963  0.000    29.028     8.836
  40   6 C     -0.041  1.081  2.960  0.000    29.015     8.833
  41   6 C     -0.031  1.080  2.951  0.000    28.773     8.796
  42   6 C     -0.032  1.080  2.952  0.000    28.797     8.800
  43   6 C     -0.035  1.079  2.956  0.000    28.876     8.812
  44   1 H      0.181  0.819  0.000  0.000     1.210     1.723
  45   1 H      0.035  0.965  0.000  0.000     2.520     2.482
  46   1 H      0.031  0.969  0.000  0.000     2.575     2.510
  47   1 H      0.022  0.978  0.000  0.000     2.704     2.571
  48   1 H      0.033  0.967  0.000  0.000     2.539     2.492
  49   1 H      0.030  0.970  0.000  0.000     2.585     2.514
  50   1 H      0.029  0.971  0.000  0.000     2.602     2.522
  51   1 H      0.035  0.965  0.000  0.000     2.520     2.482
  52   1 H      0.037  0.963  0.000  0.000     2.483     2.464
  53   7 N     -0.374  1.310  4.065  0.000    29.670     8.090
  54   6 C      0.030  1.065  2.905  0.000    20.086     6.384
  55   6 C      0.266  1.050  2.683  0.000    22.505     7.768
  56   8 O     -0.522  1.761  4.762  0.000    24.283     6.607
  57   6 C     -0.011  1.062  2.949  0.000    20.741     6.478
  58   6 C     -0.111  1.043  3.068  0.000    22.677     6.789
  59   6 C     -0.096  1.034  3.062  0.000    22.384     6.745
  60   1 H      0.152  0.848  0.000  0.000     1.387     1.845
  61   1 H      0.047  0.953  0.000  0.000     2.363     2.404
  62   1 H      0.006  0.994  0.000  0.000     2.964     2.692
  63   1 H      0.030  0.970  0.000  0.000     2.591     2.517
  64   1 H      0.039  0.961  0.000  0.000     2.458     2.452
  65   1 H      0.051  0.949  0.000  0.000     2.306     2.375
  66   1 H      0.045  0.955  0.000  0.000     2.379     2.412
  67   1 H      0.042  0.958  0.000  0.000     2.416     2.431
  68   1 H      0.025  0.975  0.000  0.000     2.661     2.551
  69   7 N     -0.091  1.238  3.853  0.000    23.014     7.125
  70   6 C      0.034  1.064  2.902  0.000    19.993     6.364
  71   6 C      0.191  1.064  2.745  0.000    23.916     8.009
  72   8 O     -0.441  1.751  4.690  0.000    22.508     6.361
  73   6 C     -0.050  1.049  3.000  0.000    21.439     6.588
  74   6 C     -0.063  1.049  3.014  0.000    21.695     6.628
  75   6 C     -0.012  1.053  2.959  0.000    20.824     6.503
  76   1 H      0.048  0.952  0.000  0.000     2.348     2.396
  77   1 H      0.031  0.969  0.000  0.000     2.570     2.507
  78   1 H      0.057  0.943  0.000  0.000     2.233     2.337
  79   1 H      0.065  0.935  0.000  0.000     2.144     2.290
  80   1 H      0.067  0.933  0.000  0.000     2.116     2.275
  81   1 H      0.048  0.952  0.000  0.000     2.345     2.395
  82   1 H      0.086  0.914  0.000  0.000     1.913     2.163
  83   7 N     -0.441  1.346  4.095  0.000    31.553     8.343
  84   6 C      0.050  1.056  2.894  0.000    19.747     6.329
  85   6 C      0.276  1.048  2.677  0.000    22.334     7.739
  86   8 O     -0.487  1.739  4.747  0.000    23.491     6.498
  87   6 C     -0.055  1.052  3.003  0.000    21.567     6.612
  88   6 C     -0.084  1.064  3.020  0.000    22.098     6.693
  89   6 C      0.375  1.023  2.601  0.000    20.639     7.435
  90   8 O     -0.625  1.772  4.853  0.000    26.745     6.934
  91   8 O     -0.612  1.762  4.850  0.000    26.421     6.892
  92   1 H      0.198  0.802  0.000  0.000     1.114     1.654
  93   1 H     -0.004  1.004  0.000  0.000     3.128     2.766
  94   1 H      0.031  0.969  0.000  0.000     2.578     2.511
  95   1 H      0.018  0.982  0.000  0.000     2.758     2.597
  96   1 H      0.024  0.976  0.000  0.000     2.675     2.558
  97   1 H      0.015  0.985  0.000  0.000     2.805     2.619
  98   7 N     -0.181  1.242  3.939  0.000    24.912     7.413
  99   6 C      0.023  1.061  2.916  0.000    20.198     6.400
 100   6 C      0.270  1.051  2.679  0.000    22.435     7.757
 101   8 O     -0.517  1.752  4.764  0.000    24.157     6.590
 102   6 C     -0.061  1.055  3.006  0.000    21.666     6.625
 103   6 C     -0.012  1.054  2.958  0.000    20.748     6.479
 104   6 C     -0.118  1.041  3.077  0.000    22.814     6.810
 105   6 C     -0.111  1.042  3.070  0.000    22.678     6.789
 106   1 H      0.187  0.813  0.000  0.000     1.176     1.699
 107   1 H      0.090  0.910  0.000  0.000     1.875     2.141
 108   1 H      0.052  0.948  0.000  0.000     2.301     2.372
 109   1 H      0.033  0.967  0.000  0.000     2.547     2.496
 110   1 H      0.034  0.966  0.000  0.000     2.532     2.489
 111   1 H      0.053  0.947  0.000  0.000     2.277     2.360
 112   1 H      0.051  0.949  0.000  0.000     2.301     2.372
 113   1 H      0.036  0.964  0.000  0.000     2.508     2.476
 114   1 H      0.055  0.945  0.000  0.000     2.261     2.351
 115   1 H      0.045  0.955  0.000  0.000     2.387     2.416
 116   1 H      0.033  0.967  0.000  0.000     2.546     2.495
 117   7 N     -0.190  1.267  3.922  0.000    25.117     7.443
 118   6 C      0.020  1.058  2.922  0.000    20.236     6.405
 119   6 C      0.283  1.043  2.674  0.000    22.202     7.716
 120   8 O     -0.471  1.718  4.753  0.000    23.145     6.450
 121   6 C      0.118  1.047  2.835  0.000    18.758     6.184
 122   8 O     -0.478  1.719  4.759  0.000    22.426     6.393
 123   6 C     -0.141  1.043  3.098  0.000    23.281     6.881
 124   1 H      0.254  0.746  0.000  0.000     0.868     1.460
 125   1 H      0.073  0.927  0.000  0.000     2.051     2.239
 126   1 H      0.009  0.991  0.000  0.000     2.908     2.667
 127   1 H      0.342  0.658  0.000  0.000     0.608     1.225
 128   1 H      0.079  0.921  0.000  0.000     1.990     2.206
 129   1 H      0.051  0.949  0.000  0.000     2.310     2.377
 130   1 H      0.083  0.917  0.000  0.000     1.952     2.185
 131   7 N     -0.188  1.247  3.941  0.000    25.073     7.437
 132   6 C      0.034  1.053  2.913  0.000    20.002     6.368
 133   6 C      0.275  1.041  2.684  0.000    22.354     7.744
 134   8 O     -0.473  1.727  4.745  0.000    23.190     6.456
 135   6 C     -0.056  1.045  3.010  0.000    21.535     6.600
 136   6 C     -0.003  1.056  2.947  0.000    20.636     6.468
 137  16 S     -0.194  1.901  4.247  0.046   149.279    20.564
 138   6 C     -0.051  1.050  3.001  0.000    21.566     6.625
 139   1 H      0.200  0.800  0.000  0.000     1.107     1.648
 140   1 H      0.080  0.920  0.000  0.000     1.984     2.203
 141   1 H      0.030  0.970  0.000  0.000     2.593     2.518
 142   1 H      0.072  0.928  0.000  0.000     2.060     2.245
 143   1 H      0.050  0.950  0.000  0.000     2.316     2.380
 144   1 H      0.037  0.963  0.000  0.000     2.487     2.466
 145   1 H      0.077  0.923  0.000  0.000     2.011     2.218
 146   1 H      0.043  0.957  0.000  0.000     2.406     2.426
 147   1 H      0.054  0.946  0.000  0.000     2.266     2.354
 148   7 N     -0.178  1.244  3.934  0.000    24.848     7.403
 149   6 C      0.005  1.070  2.925  0.000    20.495     6.444
 150   6 C      0.274  1.041  2.686  0.000    22.376     7.746
 151   8 O     -0.471  1.730  4.741  0.000    23.145     6.450
 152   6 C      0.116  1.047  2.836  0.000    18.779     6.188
 153   8 O     -0.484  1.722  4.762  0.000    22.549     6.410
 154   6 C     -0.133  1.044  3.089  0.000    23.118     6.856
 155   1 H      0.199  0.801  0.000  0.000     1.112     1.652
 156   1 H      0.084  0.916  0.000  0.000     1.938     2.177
 157   1 H      0.033  0.967  0.000  0.000     2.550     2.497
 158   1 H      0.317  0.683  0.000  0.000     0.672     1.288
 159   1 H      0.081  0.919  0.000  0.000     1.965     2.192
 160   1 H      0.066  0.934  0.000  0.000     2.132     2.284
 161   1 H      0.065  0.935  0.000  0.000     2.137     2.286
 162   7 N     -0.187  1.251  3.935  0.000    25.049     7.433
 163   6 C      0.011  1.069  2.920  0.000    20.397     6.431
 164   6 C      0.275  1.042  2.683  0.000    22.354     7.743
 165   8 O     -0.475  1.736  4.739  0.000    23.235     6.463
 166   6 C     -0.076  1.051  3.025  0.000    21.948     6.670
 167   6 C     -0.112  1.061  3.051  0.000    22.637     6.773
 168   6 C      0.287  1.039  2.674  0.000    22.141     7.704
 169   8 O     -0.500  1.750  4.749  0.000    23.779     6.538
 170   7 N     -0.274  1.262  4.012  0.000    27.077     7.728
 171   1 H      0.223  0.777  0.000  0.000     0.998     1.565
 172   1 H      0.092  0.908  0.000  0.000     1.860     2.133
 173   1 H      0.076  0.924  0.000  0.000     2.016     2.220
 174   1 H      0.068  0.932  0.000  0.000     2.103     2.268
 175   1 H      0.093  0.907  0.000  0.000     1.847     2.125
 176   1 H      0.090  0.910  0.000  0.000     1.879     2.144
 177   1 H      0.245  0.755  0.000  0.000     0.904     1.489
 178   1 H      0.230  0.770  0.000  0.000     0.963     1.537
 179   7 N     -0.194  1.252  3.942  0.000    25.216     7.458
 180   6 C      0.030  1.055  2.914  0.000    20.057     6.375
 181   6 C      0.284  1.035  2.681  0.000    22.191     7.714
 182   8 O     -0.485  1.737  4.748  0.000    23.449     6.492
 183   6 C     -0.074  1.054  3.020  0.000    21.904     6.662
 184   6 C      0.006  1.083  2.911  0.000    27.874     8.660
 185   6 C     -0.040  1.078  2.962  0.000    28.995     8.830
 186   6 C     -0.038  1.082  2.956  0.000    28.941     8.822
 187   6 C     -0.029  1.078  2.951  0.000    28.718     8.788
 188   6 C     -0.027  1.082  2.945  0.000    28.686     8.783
 189   6 C     -0.029  1.078  2.951  0.000    28.720     8.788
 190   1 H      0.221  0.779  0.000  0.000     1.006     1.572
 191   1 H      0.075  0.925  0.000  0.000     2.027     2.226
 192   1 H      0.052  0.948  0.000  0.000     2.289     2.366
 193   1 H      0.044  0.956  0.000  0.000     2.392     2.419
 194   1 H      0.036  0.964  0.000  0.000     2.503     2.474
 195   1 H      0.032  0.968  0.000  0.000     2.557     2.501
 196   1 H      0.045  0.955  0.000  0.000     2.390     2.417
 197   1 H      0.049  0.951  0.000  0.000     2.336     2.390
 198   1 H      0.042  0.958  0.000  0.000     2.425     2.435
 199   7 N     -0.194  1.254  3.940  0.000    25.215     7.458
 200   6 C      0.034  1.059  2.908  0.000    20.012     6.369
 201   6 C      0.287  1.037  2.676  0.000    22.129     7.704
 202   8 O     -0.490  1.746  4.744  0.000    23.572     6.509
 203   6 C     -0.077  1.058  3.019  0.000    21.962     6.671
 204   6 C     -0.010  1.059  2.951  0.000    20.713     6.473
 205   6 C     -0.113  1.043  3.070  0.000    22.715     6.795
 206   6 C     -0.118  1.041  3.076  0.000    22.810     6.810
 207   1 H      0.221  0.779  0.000  0.000     1.005     1.570
 208   1 H      0.059  0.941  0.000  0.000     2.212     2.326
 209   1 H      0.058  0.942  0.000  0.000     2.226     2.333
 210   1 H      0.049  0.951  0.000  0.000     2.327     2.385
 211   1 H      0.033  0.967  0.000  0.000     2.543     2.494
 212   1 H      0.046  0.954  0.000  0.000     2.365     2.405
 213   1 H      0.028  0.972  0.000  0.000     2.615     2.529
 214   1 H      0.042  0.958  0.000  0.000     2.428     2.437
 215   1 H      0.052  0.948  0.000  0.000     2.294     2.369
 216   1 H      0.036  0.964  0.000  0.000     2.509     2.477
 217   1 H      0.045  0.955  0.000  0.000     2.382     2.414
 218   7 N     -0.194  1.250  3.944  0.000    25.217     7.458
 219   6 C      0.028  1.059  2.912  0.000    20.095     6.382
 220   6 C      0.297  1.035  2.668  0.000    21.966     7.675
 221   8 O     -0.505  1.749  4.755  0.000    23.887     6.553
 222   6 C      0.070  1.041  2.889  0.000    19.616     6.343
 223   8 O     -0.489  1.732  4.756  0.000    22.652     6.425
 224   1 H      0.225  0.775  0.000  0.000     0.989     1.558
 225   1 H      0.063  0.937  0.000  0.000     2.162     2.299
 226   1 H      0.044  0.956  0.000  0.000     2.395     2.420
 227   1 H      0.053  0.947  0.000  0.000     2.288     2.366
 228   1 H      0.362  0.638  0.000  0.000     0.560     1.175
 229   7 N     -0.186  1.244  3.941  0.000    25.026     7.430
 230   6 C      0.025  1.065  2.911  0.000    20.152     6.390
 231   6 C      0.284  1.041  2.675  0.000    22.185     7.714
 232   8 O     -0.508  1.742  4.766  0.000    23.959     6.563
 233   6 C     -0.015  1.061  2.954  0.000    20.809     6.488
 234   6 C     -0.067  1.048  3.018  0.000    21.777     6.643
 235   6 C     -0.121  1.041  3.079  0.000    22.857     6.815
 236   6 C     -0.107  1.036  3.070  0.000    22.598     6.779
 237   1 H      0.219  0.781  0.000  0.000     1.013     1.577
 238   1 H      0.067  0.933  0.000  0.000     2.114     2.274
 239   1 H      0.033  0.967  0.000  0.000     2.547     2.496
 240   1 H      0.042  0.958  0.000  0.000     2.416     2.431
 241   1 H      0.041  0.959  0.000  0.000     2.439     2.442
 242   1 H      0.059  0.941  0.000  0.000     2.213     2.326
 243   1 H      0.048  0.952  0.000  0.000     2.351     2.398
 244   1 H      0.053  0.947  0.000  0.000     2.279     2.361
 245   1 H      0.031  0.969  0.000  0.000     2.571     2.508
 246   1 H      0.039  0.961  0.000  0.000     2.459     2.452
 247   1 H      0.053  0.947  0.000  0.000     2.287     2.365
 248   7 N     -0.182  1.250  3.932  0.000    24.948     7.418
 249   6 C      0.036  1.062  2.902  0.000    19.969     6.362
 250   6 C      0.201  1.072  2.727  0.000    23.715     7.975
 251   8 O     -0.408  1.747  4.662  0.000    21.849     6.267
 252   6 C     -0.019  1.066  2.953  0.000    20.885     6.500
 253   6 C     -0.061  1.053  3.008  0.000    21.673     6.628
 254   6 C     -0.113  1.041  3.073  0.000    22.721     6.796
 255   6 C     -0.108  1.037  3.071  0.000    22.627     6.783
 256   1 H      0.215  0.785  0.000  0.000     1.034     1.593
 257   1 H      0.070  0.930  0.000  0.000     2.088     2.260
 258   1 H      0.049  0.951  0.000  0.000     2.331     2.387
 259   1 H      0.049  0.951  0.000  0.000     2.337     2.391
 260   1 H      0.036  0.964  0.000  0.000     2.509     2.477
 261   1 H      0.057  0.943  0.000  0.000     2.232     2.336
 262   1 H      0.035  0.965  0.000  0.000     2.515     2.480
 263   1 H      0.049  0.951  0.000  0.000     2.329     2.386
 264   1 H      0.043  0.957  0.000  0.000     2.406     2.425
 265   1 H      0.031  0.969  0.000  0.000     2.572     2.508
 266   1 H      0.034  0.966  0.000  0.000     2.530     2.488
 267   7 N     -0.392  1.322  4.070  0.000    30.145     8.154
 268   6 C      0.036  1.060  2.903  0.000    19.984     6.368
 269   6 C      0.176  1.066  2.757  0.000    24.203     8.058
 270   8 O     -0.456  1.766  4.691  0.000    22.841     6.408
 271   6 C     -0.059  1.058  3.001  0.000    21.620     6.618
 272   6 C     -0.007  1.055  2.952  0.000    20.667     6.466
 273   6 C     -0.112  1.042  3.071  0.000    22.700     6.793
 274   6 C     -0.108  1.041  3.068  0.000    22.614     6.779
 275   1 H      0.142  0.858  0.000  0.000     1.459     1.892
 276   1 H      0.049  0.951  0.000  0.000     2.336     2.390
 277   1 H      0.042  0.958  0.000  0.000     2.429     2.437
 278   1 H      0.021  0.979  0.000  0.000     2.718     2.578
 279   1 H      0.013  0.987  0.000  0.000     2.847     2.639
 280   1 H      0.047  0.953  0.000  0.000     2.355     2.400
 281   1 H      0.029  0.971  0.000  0.000     2.594     2.519
 282   1 H      0.049  0.951  0.000  0.000     2.333     2.389
 283   1 H      0.052  0.948  0.000  0.000     2.290     2.367
 284   1 H      0.038  0.962  0.000  0.000     2.473     2.459
 285   1 H      0.024  0.976  0.000  0.000     2.671     2.556
 286   7 N     -0.374  1.310  4.064  0.000    29.651     8.087
 287   6 C      0.044  1.058  2.898  0.000    19.853     6.346
 288   6 C      0.171  1.071  2.758  0.000    24.306     8.074
 289   8 O     -0.441  1.765  4.676  0.000    22.518     6.362
 290   6 C     -0.013  1.060  2.953  0.000    20.771     6.482
 291   6 C     -0.116  1.040  3.076  0.000    22.777     6.804
 292   6 C     -0.103  1.039  3.065  0.000    22.529     6.767
 293   1 H      0.138  0.862  0.000  0.000     1.484     1.908
 294   1 H      0.031  0.969  0.000  0.000     2.572     2.508
 295   1 H      0.026  0.974  0.000  0.000     2.637     2.540
 296   1 H      0.045  0.955  0.000  0.000     2.378     2.411
 297   1 H      0.039  0.961  0.000  0.000     2.456     2.451
 298   1 H      0.047  0.953  0.000  0.000     2.358     2.401
 299   1 H      0.038  0.962  0.000  0.000     2.481     2.463
 300   1 H      0.037  0.963  0.000  0.000     2.493     2.469
 301   1 H      0.032  0.968  0.000  0.000     2.555     2.500
 302   7 N     -0.387  1.320  4.067  0.000    30.004     8.135
 303   6 C      0.042  1.054  2.904  0.000    19.881     6.351
 304   6 C      0.275  1.049  2.676  0.000    22.350     7.742
 305   8 O     -0.487  1.756  4.731  0.000    23.502     6.500
 306   6 C     -0.050  1.052  2.998  0.000    21.455     6.592
 307   6 C     -0.008  1.058  2.950  0.000    20.693     6.470
 308   6 C     -0.106  1.041  3.065  0.000    22.577     6.774
 309   6 C     -0.115  1.038  3.077  0.000    22.752     6.801
 310   1 H      0.167  0.833  0.000  0.000     1.292     1.781
 311   1 H      0.034  0.966  0.000  0.000     2.536     2.490
 312   1 H      0.033  0.967  0.000  0.000     2.548     2.496
 313   1 H     -0.011  1.011  0.000  0.000     3.261     2.824
 314   1 H      0.049  0.951  0.000  0.000     2.338     2.391
 315   1 H      0.062  0.938  0.000  0.000     2.181     2.310
 316   1 H      0.037  0.963  0.000  0.000     2.494     2.470
 317   1 H      0.005  0.995  0.000  0.000     2.964     2.693
 318   1 H      0.060  0.940  0.000  0.000     2.204     2.322
 319   1 H      0.025  0.975  0.000  0.000     2.659     2.550
 320   1 H      0.032  0.968  0.000  0.000     2.552     2.498
 321   7 N     -0.183  1.239  3.944  0.000    24.963     7.420
 322   6 C      0.028  1.059  2.913  0.000    20.105     6.385
 323   6 C      0.281  1.040  2.679  0.000    22.240     7.723
 324   8 O     -0.503  1.747  4.756  0.000    23.841     6.547
 325   6 C     -0.015  1.064  2.952  0.000    20.813     6.489
 326   6 C     -0.114  1.038  3.076  0.000    22.728     6.798
 327   6 C     -0.098  1.032  3.066  0.000    22.434     6.754
 328   1 H      0.192  0.808  0.000  0.000     1.148     1.679
 329   1 H      0.066  0.934  0.000  0.000     2.136     2.285
 330   1 H      0.037  0.963  0.000  0.000     2.490     2.467
 331   1 H      0.071  0.929  0.000  0.000     2.071     2.250
 332   1 H      0.046  0.954  0.000  0.000     2.368     2.406
 333   1 H      0.047  0.953  0.000  0.000     2.364     2.404
 334   1 H      0.064  0.936  0.000  0.000     2.149     2.292
 335   1 H      0.046  0.954  0.000  0.000     2.374     2.410
 336   1 H      0.019  0.981  0.000  0.000     2.753     2.595
 337   7 N     -0.195  1.249  3.945  0.000    25.229     7.460
 338   6 C      0.041  1.054  2.905  0.000    19.880     6.348
 339   6 C      0.254  1.037  2.709  0.000    22.720     7.805
 340   8 O     -0.514  1.740  4.774  0.000    24.107     6.583
 341   6 C      0.076  1.038  2.886  0.000    19.528     6.330
 342   8 O     -0.487  1.725  4.762  0.000    22.614     6.420
 343   1 H      0.208  0.792  0.000  0.000     1.065     1.617
 344   1 H      0.040  0.960  0.000  0.000     2.446     2.446
 345   1 H      0.043  0.957  0.000  0.000     2.405     2.425
 346   1 H      0.050  0.950  0.000  0.000     2.319     2.381
 347   1 H      0.358  0.642  0.000  0.000     0.569     1.185
 348   7 N     -0.195  1.244  3.951  0.000    25.224     7.459
 349   6 C      0.036  1.057  2.906  0.000    19.978     6.365
 350   6 C      0.244  1.047  2.709  0.000    22.912     7.838
 351   8 O     -0.503  1.729  4.774  0.000    23.859     6.549
 352   6 C     -0.061  1.050  3.012  0.000    21.657     6.621
 353   6 C      0.005  1.061  2.934  0.000    20.508     6.449
 354  16 S     -0.229  1.903  4.274  0.052   150.828    20.670
 355   6 C     -0.054  1.054  3.000  0.000    21.612     6.632
 356   1 H      0.173  0.827  0.000  0.000     1.255     1.755
 357   1 H      0.082  0.918  0.000  0.000     1.954     2.186
 358   1 H      0.030  0.970  0.000  0.000     2.587     2.516
 359   1 H      0.097  0.903  0.000  0.000     1.816     2.107
 360   1 H      0.019  0.981  0.000  0.000     2.746     2.591
 361   1 H      0.043  0.957  0.000  0.000     2.412     2.429
 362   1 H      0.074  0.926  0.000  0.000     2.042     2.235
 363   1 H      0.063  0.937  0.000  0.000     2.162     2.299
 364   1 H      0.058  0.942  0.000  0.000     2.226     2.333
 365   7 N     -0.192  1.240  3.952  0.000    25.158     7.449
 366   6 C      0.009  1.065  2.926  0.000    20.439     6.439
 367   6 C      0.265  1.045  2.690  0.000    22.533     7.773
 368   8 O     -0.489  1.743  4.746  0.000    23.538     6.505
 369   6 C      0.079  1.036  2.885  0.000    19.468     6.320
 370   8 O     -0.463  1.705  4.758  0.000    22.110     6.348
 371   1 H      0.188  0.812  0.000  0.000     1.169     1.694
 372   1 H      0.098  0.902  0.000  0.000     1.799     2.098
 373   1 H      0.061  0.939  0.000  0.000     2.188     2.313
 374   1 H      0.023  0.977  0.000  0.000     2.687     2.564
 375   1 H      0.345  0.655  0.000  0.000     0.600     1.217
 376   7 N     -0.165  1.242  3.923  0.000    24.570     7.362
 377   6 C      0.034  1.055  2.912  0.000    20.009     6.368
 378   6 C      0.279  1.043  2.678  0.000    22.286     7.731
 379   8 O     -0.510  1.736  4.775  0.000    24.010     6.570
 380   6 C     -0.115  1.039  3.076  0.000    22.750     6.800
 381   1 H      0.204  0.796  0.000  0.000     1.084     1.631
 382   1 H      0.077  0.923  0.000  0.000     2.010     2.217
 383   1 H      0.061  0.939  0.000  0.000     2.191     2.315
 384   1 H      0.053  0.947  0.000  0.000     2.280     2.361
 385   1 H      0.064  0.936  0.000  0.000     2.152     2.294
 386   7 N     -0.188  1.255  3.933  0.000    25.081     7.438
 387   6 C      0.026  1.059  2.915  0.000    20.135     6.389
 388   6 C      0.282  1.040  2.678  0.000    22.219     7.719
 389   8 O     -0.471  1.739  4.733  0.000    23.159     6.452
 390   6 C      0.119  1.048  2.832  0.000    18.725     6.178
 391   8 O     -0.465  1.714  4.751  0.000    22.144     6.352
 392   6 C     -0.130  1.042  3.088  0.000    23.057     6.848
 393   1 H      0.233  0.767  0.000  0.000     0.951     1.528
 394   1 H      0.056  0.944  0.000  0.000     2.243     2.342
 395   1 H      0.036  0.964  0.000  0.000     2.502     2.474
 396   1 H      0.312  0.688  0.000  0.000     0.685     1.300
 397   1 H      0.072  0.928  0.000  0.000     2.068     2.249
 398   1 H      0.057  0.943  0.000  0.000     2.234     2.337
 399   1 H      0.055  0.945  0.000  0.000     2.255     2.348
 400   7 N     -0.201  1.271  3.931  0.000    25.378     7.482
 401   6 C      0.038  1.055  2.907  0.000    19.937     6.357
 402   6 C      0.167  1.058  2.775  0.000    24.384     8.087
 403   8 O     -0.442  1.753  4.689  0.000    22.536     6.365
 404   6 C     -0.059  1.047  3.013  0.000    21.605     6.611
 405   6 C     -0.003  1.065  2.938  0.000    20.633     6.467
 406  16 S     -0.222  1.918  4.250  0.054   150.528    20.650
 407   6 C     -0.050  1.050  2.999  0.000    21.538     6.620
 408   1 H      0.212  0.788  0.000  0.000     1.045     1.601
 409   1 H      0.074  0.926  0.000  0.000     2.045     2.236
 410   1 H      0.063  0.937  0.000  0.000     2.167     2.302
 411   1 H      0.061  0.939  0.000  0.000     2.192     2.315
 412   1 H      0.041  0.959  0.000  0.000     2.432     2.439
 413   1 H      0.055  0.945  0.000  0.000     2.261     2.351
 414   1 H      0.074  0.926  0.000  0.000     2.045     2.236
 415   1 H      0.035  0.965  0.000  0.000     2.517     2.481
 416   1 H      0.063  0.937  0.000  0.000     2.163     2.300
 417   7 N     -0.401  1.314  4.087  0.000    30.409     8.190
 418   6 C      0.042  1.061  2.897  0.000    19.889     6.353
 419   6 C      0.266  1.052  2.682  0.000    22.503     7.768
 420   8 O     -0.523  1.748  4.776  0.000    24.310     6.611
 421   6 C     -0.052  1.051  3.001  0.000    21.504     6.602
 422   6 C     -0.095  1.069  3.027  0.000    22.321     6.727
 423   6 C      0.365  1.028  2.607  0.000    20.810     7.465
 424   8 O     -0.629  1.766  4.863  0.000    26.839     6.946
 425   8 O     -0.623  1.767  4.856  0.000    26.698     6.928
 426   1 H      0.163  0.837  0.000  0.000     1.315     1.796
 427   1 H      0.026  0.974  0.000  0.000     2.638     2.540
 428   1 H      0.046  0.954  0.000  0.000     2.376     2.411
 429   1 H      0.003  0.997  0.000  0.000     2.998     2.708
 430   1 H      0.028  0.972  0.000  0.000     2.611     2.527
 431   1 H      0.028  0.972  0.000  0.000     2.608     2.526
 432   7 N     -0.178  1.255  3.923  0.000    24.862     7.405
 433   6 C      0.036  1.061  2.902  0.000    19.960     6.361
 434   6 C      0.188  1.069  2.743  0.000    23.975     8.019
 435   8 O     -0.432  1.747  4.685  0.000    22.322     6.334
 436   6 C     -0.012  1.062  2.950  0.000    20.754     6.479
 437   6 C     -0.060  1.047  3.012  0.000    21.649     6.624
 438   6 C     -0.111  1.040  3.071  0.000    22.676     6.790
 439   6 C     -0.095  1.033  3.062  0.000    22.370     6.745
 440   1 H      0.224  0.776  0.000  0.000     0.990     1.559
 441   1 H      0.058  0.942  0.000  0.000     2.225     2.333
 442   1 H      0.044  0.956  0.000  0.000     2.402     2.424
 443   1 H      0.043  0.957  0.000  0.000     2.409     2.427
 444   1 H      0.046  0.954  0.000  0.000     2.365     2.405
 445   1 H      0.056  0.944  0.000  0.000     2.244     2.343
 446   1 H      0.054  0.946  0.000  0.000     2.275     2.359
 447   1 H      0.038  0.962  0.000  0.000     2.478     2.462
 448   1 H      0.020  0.980  0.000  0.000     2.738     2.588
 449   1 H      0.037  0.963  0.000  0.000     2.489     2.467
 450   1 H      0.026  0.974  0.000  0.000     2.641     2.542
 451   7 N     -0.381  1.316  4.066  0.000    29.857     8.115
 452   6 C      0.043  1.049  2.907  0.000    19.859     6.347
 453   6 C      0.171  1.066  2.763  0.000    24.300     8.074
 454   8 O     -0.427  1.752  4.675  0.000    22.226     6.321
 455   6 C     -0.054  1.050  3.004  0.000    21.481     6.589
 456   6 C      0.005  1.057  2.938  0.000    20.498     6.446
 457  16 S     -0.216  1.915  4.249  0.052   150.277    20.632
 458   6 C     -0.054  1.053  3.000  0.000    21.614     6.632
 459   1 H      0.166  0.834  0.000  0.000     1.299     1.785
 460   1 H      0.029  0.971  0.000  0.000     2.603     2.523
 461   1 H      0.048  0.952  0.000  0.000     2.344     2.394
 462   1 H      0.038  0.962  0.000  0.000     2.482     2.464
 463   1 H      0.027  0.973  0.000  0.000     2.630     2.536
 464   1 H      0.046  0.954  0.000  0.000     2.376     2.410
 465   1 H      0.055  0.945  0.000  0.000     2.254     2.348
 466   1 H      0.043  0.957  0.000  0.000     2.407     2.426
 467   1 H      0.063  0.937  0.000  0.000     2.165     2.301
 468   7 N     -0.392  1.327  4.065  0.000    30.155     8.156
 469   6 C      0.031  1.058  2.912  0.000    20.067     6.380
 470   6 C      0.275  1.054  2.671  0.000    22.355     7.743
 471   8 O     -0.474  1.749  4.725  0.000    23.224     6.461
 472   6 C     -0.027  1.068  2.959  0.000    21.007     6.517
 473   6 C     -0.069  1.052  3.017  0.000    21.825     6.652
 474   6 C     -0.136  1.044  3.092  0.000    23.162     6.862
 475   6 C     -0.103  1.037  3.066  0.000    22.534     6.770
 476   1 H      0.165  0.835  0.000  0.000     1.304     1.788
 477   1 H      0.033  0.967  0.000  0.000     2.538     2.492
 478   1 H      0.035  0.965  0.000  0.000     2.517     2.481
 479   1 H      0.038  0.962  0.000  0.000     2.470     2.458
 480   1 H      0.041  0.959  0.000  0.000     2.435     2.440
 481   1 H      0.033  0.967  0.000  0.000     2.538     2.492
 482   1 H      0.057  0.943  0.000  0.000     2.237     2.339
 483   1 H      0.076  0.924  0.000  0.000     2.023     2.224
 484   1 H      0.036  0.964  0.000  0.000     2.506     2.476
 485   1 H      0.040  0.960  0.000  0.000     2.445     2.445
 486   1 H      0.033  0.967  0.000  0.000     2.548     2.496
 487   7 N     -0.190  1.268  3.922  0.000    25.122     7.444
 488   6 C     -0.032  1.052  2.980  0.000    21.210     6.569
 489   6 C      0.266  1.051  2.683  0.000    22.508     7.769
 490   8 O     -0.471  1.752  4.719  0.000    23.148     6.451
 491   1 H      0.206  0.794  0.000  0.000     1.077     1.626
 492   1 H      0.109  0.891  0.000  0.000     1.709     2.045
 493   1 H      0.085  0.915  0.000  0.000     1.929     2.172
 494   7 N     -0.204  1.283  3.921  0.000    25.434     7.490
 495   6 C      0.015  1.065  2.919  0.000    20.332     6.422
 496   6 C      0.251  1.047  2.702  0.000    22.792     7.819
 497   8 O     -0.495  1.764  4.731  0.000    23.669     6.523
 498   6 C      0.072  1.039  2.890  0.000    19.596     6.342
 499   8 O     -0.451  1.709  4.742  0.000    21.860     6.312
 500   1 H      0.231  0.769  0.000  0.000     0.962     1.536
 501   1 H      0.064  0.936  0.000  0.000     2.153     2.295
 502   1 H      0.053  0.947  0.000  0.000     2.279     2.361
 503   1 H      0.074  0.926  0.000  0.000     2.039     2.233
 504   1 H      0.320  0.680  0.000  0.000     0.664     1.280
 505   7 N     -0.066  1.236  3.829  0.000    22.509     7.046
 506   6 C      0.018  1.071  2.912  0.000    20.258     6.404
 507   6 C      0.193  1.060  2.746  0.000    23.868     8.001
 508   8 O     -0.449  1.761  4.687  0.000    22.682     6.385
 509   6 C     -0.078  1.060  3.018  0.000    21.964     6.668
 510   6 C     -0.071  1.053  3.018  0.000    21.834     6.648
 511   6 C     -0.017  1.053  2.964  0.000    20.893     6.510
 512   1 H      0.068  0.932  0.000  0.000     2.102     2.268
 513   1 H      0.068  0.932  0.000  0.000     2.104     2.269
 514   1 H      0.068  0.932  0.000  0.000     2.103     2.268
 515   1 H      0.067  0.933  0.000  0.000     2.120     2.277
 516   1 H      0.063  0.937  0.000  0.000     2.166     2.301
 517   1 H      0.073  0.927  0.000  0.000     2.052     2.240
 518   1 H      0.057  0.943  0.000  0.000     2.235     2.338
 519   7 N     -0.597  1.525  4.072  0.000    37.604     9.081
 520   6 C      0.087  1.065  2.848  0.000    19.158     6.235
 521   6 C      0.026  1.347  2.627  0.000    30.494     8.921
 522   8 O     -0.473  1.797  4.676  0.000    23.198     6.457
 523   6 C     -0.082  1.040  3.042  0.000    22.125     6.706
 524   1 H      0.033  0.967  0.000  0.000     2.556     2.504
 525   1 H      0.013  0.987  0.000  0.000     2.839     2.635
 526   1 H      0.019  0.981  0.000  0.000     2.749     2.593
 527   1 H      0.053  0.947  0.000  0.000     2.277     2.360
 528   1 H     -0.010  1.010  0.000  0.000     3.232     2.811
 529   7 N     -0.590  1.538  4.052  0.000    37.359     9.051
 530   6 C      0.095  1.069  2.836  0.000    19.032     6.214
 531   6 C      0.011  1.352  2.637  0.000    30.861     8.974
 532   8 O     -0.476  1.795  4.681  0.000    23.256     6.466
 533   6 C     -0.029  1.052  2.977  0.000    21.081     6.535
 534   6 C      0.018  1.084  2.898  0.000    27.615     8.620
 535   6 C     -0.046  1.084  2.962  0.000    29.138     8.852
 536   6 C     -0.016  1.072  2.943  0.000    28.404     8.740
 537   6 C     -0.063  1.073  2.990  0.000    29.580     8.919
 538   6 C     -0.061  1.072  2.989  0.000    29.525     8.910
 539   6 C      0.142  1.042  2.816  0.000    24.898     8.178
 540   8 O     -0.423  1.688  4.735  0.000    21.307     6.231
 541   1 H      0.017  0.983  0.000  0.000     2.791     2.617
 542   1 H     -0.005  1.005  0.000  0.000     3.137     2.770
 543   1 H     -0.011  1.011  0.000  0.000     3.257     2.822
 544   1 H      0.030  0.970  0.000  0.000     2.590     2.517
 545   1 H      0.064  0.936  0.000  0.000     2.152     2.294
 546   1 H     -0.037  1.037  0.000  0.000     3.798     3.048
 547   1 H      0.065  0.935  0.000  0.000     2.141     2.288
 548   1 H     -0.023  1.023  0.000  0.000     3.493     2.923
 549   1 H      0.316  0.684  0.000  0.000     0.674     1.290
 550   7 N     -0.721  1.552  4.170  0.000    42.320     9.633
 551   6 C      0.079  1.054  2.867  0.000    19.289     6.256
 552   6 C      0.273  1.063  2.664  0.000    22.385     7.747
 553   8 O     -0.587  1.754  4.832  0.000    25.788     6.809
 554   6 C      0.107  1.038  2.855  0.000    19.034     6.249
 555   8 O     -0.480  1.715  4.765  0.000    22.462     6.398
 556   1 H      0.015  0.985  0.000  0.000     2.828     2.635
 557   1 H     -0.065  1.065  0.000  0.000     4.471     3.307
 558   1 H     -0.010  1.010  0.000  0.000     3.243     2.816
 559   1 H      0.001  0.999  0.000  0.000     3.048     2.730
 560   1 H      0.327  0.673  0.000  0.000     0.647     1.263
 561   7 N     -0.198  1.256  3.942  0.000    25.298     7.470
 562   6 C      0.073  1.057  2.870  0.000    19.374     6.268
 563   6 C     -0.074  1.371  2.702  0.000    33.170     9.304
 564   8 O     -0.545  1.785  4.760  0.000    24.805     6.678
 565   6 C     -0.023  1.044  2.979  0.000    20.966     6.517
 566   6 C     -0.073  1.048  3.025  0.000    21.893     6.660
 567   6 C      0.291  1.039  2.670  0.000    22.059     7.691
 568   8 O     -0.483  1.738  4.745  0.000    23.408     6.487
 569   7 N     -0.289  1.263  4.026  0.000    27.455     7.782
 570   1 H      0.192  0.808  0.000  0.000     1.150     1.680
 571   1 H     -0.037  1.037  0.000  0.000     3.782     3.041
 572   1 H      0.037  0.963  0.000  0.000     2.488     2.467
 573   1 H     -0.005  1.005  0.000  0.000     3.145     2.773
 574   1 H      0.032  0.968  0.000  0.000     2.553     2.499
 575   1 H      0.055  0.945  0.000  0.000     2.260     2.351
 576   1 H      0.204  0.796  0.000  0.000     1.088     1.634
 577   1 H      0.241  0.759  0.000  0.000     0.921     1.503
 578   1 H      0.165  0.835  0.000  0.000     1.304     1.789
 579   1 H      0.037  0.963  0.000  0.000     2.483     2.464
 580   1 H      0.164  0.836  0.000  0.000     1.308     1.792
 581   1 H      0.041  0.959  0.000  0.000     2.429     2.437
 582   1 H      0.180  0.820  0.000  0.000     1.211     1.724
 583   1 H      0.031  0.969  0.000  0.000     2.576     2.510
 584   1 H      0.179  0.821  0.000  0.000     1.217     1.728
 585   1 H      0.023  0.977  0.000  0.000     2.682     2.561
 586   1 H      0.161  0.839  0.000  0.000     1.328     1.805
 587   1 H      0.037  0.963  0.000  0.000     2.487     2.466
 588   1 H      0.183  0.817  0.000  0.000     1.195     1.713
 589   1 H      0.028  0.972  0.000  0.000     2.607     2.525
 590   1 H      0.166  0.834  0.000  0.000     1.298     1.784
 591   1 H      0.043  0.957  0.000  0.000     2.413     2.429
 592   1 H      0.196  0.804  0.000  0.000     1.128     1.664
 593   1 H      0.027  0.973  0.000  0.000     2.632     2.537
 594   1 H      0.178  0.822  0.000  0.000     1.226     1.734
 595   1 H      0.038  0.962  0.000  0.000     2.478     2.462
 596   1 H      0.175  0.825  0.000  0.000     1.245     1.748
 597   1 H      0.031  0.969  0.000  0.000     2.575     2.509
 598   1 H      0.181  0.819  0.000  0.000     1.211     1.723
 599   1 H      0.044  0.956  0.000  0.000     2.400     2.423

 Mol. C6AA /au·bohr⁶  :    3385576.660144
 Mol. C8AA /au·bohr⁸  :   76209840.374397
 Mol. α(0) /au        :       2759.902058

 
molecular dipole:
                 x           y           z       tot (Debye)
 q only:     -134.552    -505.046   -1401.882
   full:     -137.882    -502.167   -1394.089    3782.646
molecular quadrupole (traceless):
                xx          xy          yy          xz          yz          zz
 q only:   136750.865  -12473.967   93003.095  -36333.705 -132884.263 -229753.960
  q+dip:   135172.861  -12763.029   92041.292  -36987.222 -131433.430 -227214.153
   full:   135175.642  -12766.803   92039.989  -36989.308 -131440.160 -227215.631
speedup  1.72
cpu  time for grad    2 m 54.0 s
wall time for grad    1 m 41.3 s

SCC energy    :    -910.3849141
rep           :      10.8576886
ES            :       4.1985298
AES           :      -0.0894766
AXC           :       0.3065698
disp          :      -0.8188693
XB            :       0.0000000
fix           :       0.0000000
Gborn         :       0.0000000
Gsasa         :       0.0000000
Ghb           :       0.0000000
Gshift        :       0.0000000
Gsolv         :      -1.9969845    -1253.13
Etot ala COSMO:    -910.3849141
grad norm     :       0.7413941
total E       :    -899.4360370
atomizationE  :     166.5861573   104534.39
(atE without considering molecular charge,
 total energy contains solvation terms)
H-L gap (eV)  :          0.0697

------------------------------------------------------------------------
 * finished run on 2019/05/10 at 01:45:03.694     
------------------------------------------------------------------------
 total:
 * wall-time:     0 d,  0 h,  1 min, 42.994 sec
 *  cpu-time:     0 d,  0 h,  2 min, 57.099 sec
 * ratio c/w:     1.720 speedup
 SCF:
 * wall-time:     0 d,  0 h,  1 min, 42.569 sec
 *  cpu-time:     0 d,  0 h,  2 min, 56.456 sec
 * ratio c/w:     1.720 speedup

