      -----------------------------------------------------------      
     |                   =====================                   |     
     |                           x T B                           |     
     |                   =====================                   |     
     |                         S. Grimme                         |     
     |          Mulliken Center for Theoretical Chemistry        |     
     |                    University of Bonn                     |     
     |                 Version 6.0.1 (SAW181210)                 |     
      -----------------------------------------------------------      

   This program is distributed in the hope that it will be useful,
   but WITHOUT ANY WARRANTY; without even the implied warranty of
   MERCHANTABILITY or FITNESS FOR A PARTICULAR PURPOSE.
   
   FOR NON-COMMERCIAL, ACADEMIA USE ONLY.
   
   Cite this work as:
   S. Grimme, C. Bannwarth, P. Shushkov, J. Comput. Theory Chem., 2017,
   13, 1989-2009.
   C. Bannwarth, S. Ehlert and S. Grimme., ChemRxiv, 2018, preprint.
   http://doi.org/10.26434/chemrxiv.7246238.v1
   
   for sTDA-xTB:
   S. Grimme and C. Bannwarth, J. Chem. Phys., 2016, 145, 054103.
   
   in the mass-spec context:
   V. Asgeirsson, C. Bauer and S. Grimme, Chem. Sci., 2017, 8, 4879.
   
   if GBSA is used:
   P. Shushkov, F. März and S. Grimme, unpublished.
   
   for ANC optimizer:
   S. Grimme, unpublished.
   Rational Function algorithm used in ANCopt:
   F. Eckert, P. Pulay, H.-J. Werner, J. Comput. Chem., 1997, 18, 1473.
   
   with help from (in alphabetical order)
   C. Bannwarth, F. Bohle, G. Brandenburg, E. Caldeweyher, M. Checinski,
   S. Dohm, S. Ehlert, S. Ehrlich, F. März, H. Neugebauer, J. Pisarek,
   P. Pracht, P. Shushkov, and S. Spicher.
   
 * started run on 2019/05/12 at 12:15:48.562     
========================================================================
 # omp threads = 2
========================================================================
number of atoms            : 278
number of electrons        : 716
charge                     : 2
spin                       : .0
first test random number   : .1334

########################################################################
# WARNING! Please study the warnings concerning your input carefully
#  - Process number higher than OMP_NUM_THREADS, I hope you know what you are doing.
########################################################################

           ------------------------------------------------- 
          |                 G F N 2 - x T B                 |
          | Geometry, Frequencies, Noncovalent interactions |
          |            JCTC 2018 parametrisation            |
           ------------------------------------------------- 
 
      method parameters     
 k(s)        :  1.8500
 k(p)        :  2.2300
 k(d)        :  2.2300
 k(f)        :  2.0000
 kEN (H0ij)  : -2.0000
 D4 a1       :  0.5200
 D4 a2       :  5.0000
 D4 s6       :  1.0000
 D4 s8       :  2.7000
 D4 s9       :  5.0000
 alphaj      :  2.0000

 Solvent             : h2o
 Using internal parameter file: .param_gbsa2_h2o
 Gsolv ref. state (COSMO-RS): gsolv [1 M gas/solution]
 temperature (mdtemp)       :    298.150000000000     
 dielectric constant        :    80.2000000000000     
 rho                        :    1.00000000000000     
 mass                       :    18.0000000000000     
 surface tension            :    15.5689454083859     
 probe radius               :   0.975313790000000     
 vdW radii scaling          :    1.00000000000000     
 Gshift (Eh)                :   1.857443126794793E-003
 c1                         :    1.55243817000000     
 soset                      :   0.130326360000000     
 HB correction              :  T

            Z     q(EN)     CN     RAES       Cart. coordinates
     1  N   5.0   -0.18    3.20    1.96    27.01022    65.73970   150.77752
     2  C   4.0    0.03    4.29    4.18    28.49866    64.07742   152.44858
     3  C   4.0    0.08    3.23    3.04    31.17960    63.83512   151.26331
     4  O   6.0   -0.28    1.11    1.80    31.46782    62.95690   149.06072
     5  C   4.0   -0.02    4.28    4.16    27.33201    61.39503   152.65385
     6  C   4.0   -0.08    4.17    3.93    29.05994    59.79441   154.06487
     7  C   4.0   -0.07    4.12    3.84    24.72451    61.47614   153.83230
     8  H   1.0    0.12    1.05    1.44    26.83624    65.22052   148.96942
     9  H   1.0    0.05    1.05    1.44    28.68117    65.03806   154.25366
    10  H   1.0    0.05    1.07    1.44    27.21982    60.68515   150.73787
    11  H   1.0    0.03    1.01    1.43    28.27960    57.93793   154.44357
    12  H   1.0    0.05    1.01    1.43    30.93357    59.61794   153.30837
    13  H   1.0    0.04    0.95    1.42    29.37397    60.62308   156.08042
    14  H   1.0    0.04    1.02    1.43    23.95207    59.63785   153.88055
    15  H   1.0    0.05    0.99    1.43    24.84719    62.22277   155.78392
    16  H   1.0    0.05    1.00    1.43    23.49244    62.75769   152.77282
    17  N   5.0   -0.13    3.52    2.09    42.16381    48.91210   148.36552
    18  C   4.0    0.03    4.52    4.57    40.65665    51.16566   147.84680
    19  C   4.0    0.15    3.41    3.08    38.21979    50.27895   146.57500
    20  O   6.0   -0.26    1.21    1.80    37.92343    47.96766   145.94895
    21  C   4.0   -0.04    4.27    4.14    42.30662    52.84071   146.17982
    22  C   4.0   -0.03    4.25    4.10    44.61259    51.14071   145.63635
    23  C   4.0    0.02    4.26    4.12    43.69606    48.40381   146.22100
    24  H   1.0    0.06    1.08    1.44    40.16108    52.03591   149.60448
    25  H   1.0    0.06    1.00    1.43    41.28583    53.24125   144.34681
    26  H   1.0    0.06    1.04    1.43    42.83872    54.56119   146.99470
    27  H   1.0    0.06    0.97    1.43    45.17970    51.25254   143.53000
    28  H   1.0    0.06    1.04    1.43    46.21504    51.58035   146.70219
    29  H   1.0    0.07    1.01    1.43    42.52298    47.66193   144.64655
    30  H   1.0    0.06    1.02    1.43    45.24558    47.12902   146.54034
    31  N   5.0   -0.14    3.40    2.02    36.43250    52.09588   146.32258
    32  C   4.0    0.04    4.41    4.40    33.89303    51.44816   145.36623
    33  C   4.0    0.16    3.47    3.10    33.64404    51.88721   142.52316
    34  O   6.0   -0.25    1.25    1.80    34.85112    53.44261   141.32590
    35  C   4.0   -0.04    4.38    4.34    31.84575    52.97092   146.68604
    36  C   4.0   -0.02    4.18    3.95    31.24549    52.03777   149.36464
    37  C   4.0   -0.08    4.11    3.82    29.97253    54.23321   150.78577
    38  C   4.0   -0.07    4.10    3.81    29.48491    49.77604   149.29448
    39  H   1.0    0.09    1.07    1.44    36.89323    53.88271   146.33713
    40  H   1.0    0.06    1.06    1.44    33.64028    49.40940   145.74854
    41  H   1.0    0.06    1.03    1.43    32.49381    54.93795   146.73840
    42  H   1.0    0.05    1.04    1.43    30.12538    52.94726   145.55908
    43  H   1.0    0.05    1.06    1.44    32.98406    51.50609   150.31288
    44  H   1.0    0.03    0.99    1.43    29.56395    53.66202   152.73884
    45  H   1.0    0.04    1.00    1.43    31.23133    55.84856   150.87540
    46  H   1.0    0.04    1.01    1.43    28.24566    54.79343   149.88122
    47  H   1.0    0.04    1.00    1.43    29.13921    49.03596   151.18389
    48  H   1.0    0.04    1.00    1.43    27.65778    50.32109   148.48480
    49  H   1.0    0.05    1.00    1.43    30.25927    48.26481   148.15228
    50  N   5.0   -0.14    3.68    2.24    31.81534    50.46585   141.50652
    51  C   4.0    0.05    4.50    4.54    31.56235    50.37358   138.84287
    52  C   4.0    0.16    3.59    3.16    30.81653    52.98976   138.11261
    53  O   6.0   -0.26    1.21    1.80    31.48855    54.09715   136.04506
    54  C   4.0   -0.03    4.28    4.16    29.48434    48.47582   138.04843
    55  C   4.0    0.26    3.16    3.03    29.51872    46.09353   139.78935
    56  O   6.0   -0.31    1.28    1.80    28.60546    46.47557   141.87096
    57  O   6.0   -0.24    1.15    1.80    30.38875    44.05515   138.91224
    58  H   1.0    0.10    1.12    1.45    30.99967    48.95189   142.44504
    59  H   1.0    0.08    1.05    1.44    33.34280    49.91177   137.87224
    60  H   1.0    0.04    1.04    1.44    27.68179    49.37409   138.27924
    61  H   1.0    0.06    1.01    1.43    29.81515    47.83956   136.09324
    62  N   5.0   -0.12    3.64    2.20    29.11258    53.93815   139.54845
    63  C   4.0    0.04    4.38    4.34    27.83841    56.26565   138.93985
    64  C   4.0    0.14    3.48    3.11    28.15390    58.12731   141.01041
    65  O   6.0   -0.28    1.24    1.80    28.87940    57.14062   143.21411
    66  C   4.0   -0.05    4.26    4.13    24.91130    55.72794   138.74856
    67  C   4.0   -0.05    4.16    3.91    24.17635    53.62689   136.93736
    68  C   4.0   -0.04    4.16    3.91    24.89517    54.20503   134.18626
    69  C   4.0   -0.03    4.10    3.81    23.61319    52.49704   132.21259
    70  N   5.0   -0.11    4.01    2.90    24.57990    49.84161   132.44374
    71  H   1.0    0.09    1.11    1.45    28.79716    53.10937   141.23643
    72  H   1.0    0.06    1.01    1.43    28.52754    57.28344   137.16290
    73  H   1.0    0.04    1.01    1.43    24.02889    55.37235   140.60902
    74  H   1.0    0.04    1.02    1.43    23.90111    57.43997   138.13819
    75  H   1.0    0.04    1.05    1.44    25.20986    52.00333   137.51979
    76  H   1.0    0.04    1.02    1.43    22.10263    53.35758   137.02053
    77  H   1.0    0.04    1.03    1.43    24.36200    56.13742   133.72501
    78  H   1.0    0.06    1.01    1.43    26.95953    54.18093   133.83493
    79  H   1.0    0.05    1.03    1.43    21.60356    52.49096   132.54516
    80  H   1.0    0.06    1.02    1.43    23.99480    53.20534   130.31749
    81  H   1.0    0.07    1.02    1.43    23.70388    48.69982   131.11954
    82  H   1.0    0.07    1.02    1.43    26.50382    49.85311   132.04675
    83  H   1.0    0.06    1.03    1.43    24.31376    49.17967   134.20530
    84  N   5.0   -0.14    3.45    2.05    27.29487    60.43947   140.91664
    85  C   4.0    0.04    4.46    4.49    27.99841    62.42298   142.51402
    86  C   4.0    0.12    3.45    3.09    25.75399    64.01329   143.26332
    87  O   6.0   -0.30    1.22    1.80    25.85280    65.35339   145.39736
    88  C   4.0    0.06    4.18    3.97    30.14794    64.11523   141.38530
    89  O   6.0   -0.22    2.10    1.84    32.20971    62.42782   140.84390
    90  C   4.0   -0.05    4.07    3.75    31.06524    66.18960   143.12711
    91  H   1.0    0.07    1.04    1.43    27.45123    61.15841   138.96237
    92  H   1.0    0.08    1.06    1.44    28.87090    61.65233   144.26211
    93  H   1.0    0.05    1.02    1.43    29.38325    65.09152   139.67169
    94  H   1.0    0.13    1.01    1.43    33.81981    63.31192   140.72266
    95  H   1.0    0.06    0.99    1.43    32.71642    67.25155   142.44982
    96  H   1.0    0.06    1.00    1.43    29.60957    67.59198   143.48972
    97  H   1.0    0.08    1.00    1.43    31.62217    65.44799   144.95287
    98  N   5.0   -0.14    3.54    2.11    23.89905    64.22293   141.72201
    99  C   4.0    0.04    4.41    4.39    21.62295    65.63375   142.11235
   100  C   4.0    0.16    3.39    3.08    19.43659    63.75891   142.41902
   101  O   6.0   -0.33    1.35    1.80    19.21215    62.10013   141.02508
   102  C   4.0   -0.04    4.25    4.10    21.21799    67.58995   139.91144
   103  C   4.0   -0.04    4.21    4.01    22.04982    66.61549   137.44768
   104  C   4.0   -0.04    4.14    3.87    21.20513    68.34389   135.28225
   105  C   4.0   -0.03    4.06    3.73    21.91675    67.17008   132.61114
   106  N   5.0   -0.11    3.95    2.74    20.67403    68.55041   130.46115
   107  H   1.0    0.08    1.11    1.45    23.81128    62.89118   140.36213
   108  H   1.0    0.06    1.04    1.43    21.85828    66.72835   143.92231
   109  H   1.0    0.06    1.03    1.43    19.19893    68.03411   139.92386
   110  H   1.0    0.05    1.03    1.43    22.24733    69.29904   140.38385
   111  H   1.0    0.05    1.03    1.43    24.11409    66.44246   137.39228
   112  H   1.0    0.05    1.02    1.43    21.24682    64.69042   137.13988
   113  H   1.0    0.05    1.03    1.43    19.16182    68.55536   135.32676
   114  H   1.0    0.05    1.04    1.43    22.04620    70.15734   135.45782
   115  H   1.0    0.05    1.01    1.43    23.98126    67.36219   132.41126
   116  H   1.0    0.05    1.03    1.43    21.41995    65.21884   132.50044
   117  H   1.0    0.08    1.03    1.43    21.39713    68.06670   128.80304
   118  H   1.0    0.07    1.03    1.43    18.78829    68.50459   130.58052
   119  H   1.0    0.07    0.96    1.43    21.08730    70.59658   130.70211
   120  N   5.0   -0.14    3.47    2.06    17.84865    64.24420   144.34538
   121  C   4.0    0.04    4.27    4.14    15.70203    62.73929   144.94023
   122  C   4.0    0.09    3.21    3.04    13.37492    64.39905   145.67443
   123  O   6.0   -0.25    1.11    1.80    13.62201    66.30688   147.03099
   124  C   4.0   -0.03    4.34    4.27    16.09377    61.21471   147.49833
   125  C   4.0   -0.01    3.54    3.13    18.32678    59.48126   147.41900
   126  C   4.0   -0.03    3.47    3.10    20.77760    60.48133   147.39776
   127  C   4.0   -0.04    3.44    3.09    17.96994    56.87379   147.37340
   128  C   4.0   -0.04    3.36    3.07    22.88524    58.88776   147.37554
   129  C   4.0   -0.04    3.37    3.07    20.07886    55.31629   147.29335
   130  C   4.0   -0.04    3.36    3.07    22.51657    56.29232   147.31399
   131  H   1.0    0.09    1.07    1.44    18.20289    65.67106   145.55674
   132  H   1.0    0.07    1.05    1.44    15.23980    61.46388   143.39592
   133  H   1.0    0.06    1.04    1.43    16.37149    62.58728   148.97150
   134  H   1.0    0.05    1.04    1.43    14.40572    60.12703   147.83575
   135  H   1.0    0.06    1.03    1.43    21.08267    62.49579   147.53415
   136  H   1.0    0.05    1.04    1.43    16.13734    56.10438   147.32151
   137  H   1.0    0.06    1.03    1.43    24.74569    59.65960   147.33489
   138  H   1.0    0.05    1.02    1.43    19.83140    53.27867   147.25232
   139  H   1.0    0.05    1.03    1.43    24.14947    55.07081   147.24405
   140  N   5.0   -0.21    3.24    1.96    16.27444    46.21437   159.54487
   141  C   4.0    0.03    4.40    4.39    16.04789    46.14611   156.79027
   142  C   4.0    0.14    3.44    3.09    18.69233    46.63251   155.58631
   143  O   6.0   -0.32    1.27    1.80    19.32622    45.58218   153.64738
   144  C   4.0   -0.02    4.34    4.27    14.09447    47.95022   155.72245
   145  C   4.0   -0.04    4.22    4.05    11.58811    47.73134   157.05642
   146  C   4.0   -0.07    4.17    3.95    13.79840    47.43544   152.95132
   147  C   4.0   -0.06    4.02    3.66     9.64007    49.65157   156.15622
   148  H   1.0    0.09    1.03    1.43    15.29687    47.51011   160.50699
   149  H   1.0    0.05    1.05    1.44    15.54371    44.20579   156.24897
   150  H   1.0    0.04    1.04    1.43    14.85057    49.90755   156.02105
   151  H   1.0    0.05    1.03    1.43    10.82874    45.83742   156.75429
   152  H   1.0    0.05    1.03    1.43    11.81148    47.99462   159.09038
   153  H   1.0    0.04    0.99    1.43    12.83383    49.03016   151.98704
   154  H   1.0    0.06    1.01    1.43    15.62777    47.22013   152.00516
   155  H   1.0    0.05    1.01    1.43    12.70606    45.75806   152.62254
   156  H   1.0    0.06    1.00    1.43     7.94309    49.58886   157.29121
   157  H   1.0    0.05    0.99    1.43    10.41792    51.57505   156.27088
   158  H   1.0    0.05    1.00    1.43     9.10849    49.32043   154.19308
   159  N   5.0   -0.15    3.49    2.07    20.17826    48.26668   156.78081
   160  C   4.0    0.04    4.43    4.43    22.69104    48.74447   155.86824
   161  C   4.0    0.08    3.25    3.04    24.36595    46.39403   156.28758
   162  O   6.0   -0.31    1.13    1.80    25.57833    45.51723   154.46481
   163  C   4.0   -0.03    4.35    4.30    23.70261    51.12636   157.17756
   164  C   4.0   -0.05    4.21    4.01    22.55521    53.42958   155.78067
   165  C   4.0   -0.08    4.14    3.87    26.57012    51.26088   157.15599
   166  C   4.0   -0.07    4.03    3.66    22.44523    55.67942   157.51486
   167  H   1.0    0.08    1.07    1.44    19.52520    49.23092   158.30238
   168  H   1.0    0.05    1.06    1.44    22.62033    49.02165   153.80468
   169  H   1.0    0.04    1.06    1.44    23.04560    51.08248   159.12217
   170  H   1.0    0.04    1.04    1.43    23.60742    53.83779   154.11598
   171  H   1.0    0.04    1.03    1.43    20.58462    52.99360   155.29116
   172  H   1.0    0.04    1.00    1.43    27.20641    53.08677   157.81711
   173  H   1.0    0.04    1.01    1.43    27.36012    49.80587   158.33425
   174  H   1.0    0.04    1.00    1.43    27.26394    50.99194   155.22673
   175  H   1.0    0.04    1.00    1.43    21.74734    57.33932   156.55451
   176  H   1.0    0.05    1.00    1.43    21.27702    55.35286   159.15856
   177  H   1.0    0.04    0.98    1.43    24.38103    56.17050   158.21130
   178  N   5.0   -0.20    3.24    1.96    22.74597    40.79448   156.65436
   179  C   4.0    0.04    4.27    4.14    21.76425    38.92272   154.90990
   180  C   4.0    0.17    3.43    3.09    23.25048    38.88157   152.35509
   181  O   6.0   -0.24    1.21    1.80    23.72305    36.92752   151.23454
   182  C   4.0    0.04    4.17    3.94    19.00772    39.60050   154.32624
   183  O   6.0   -0.22    2.08    1.84    18.26542    38.52688   151.98660
   184  H   1.0    0.09    1.03    1.43    21.43730    41.80976   157.59629
   185  H   1.0    0.07    1.05    1.44    21.89746    37.01604   155.67019
   186  H   1.0    0.05    1.02    1.43    17.79318    38.98722   155.84803
   187  H   1.0    0.07    1.03    1.43    18.89883    41.66962   154.10376
   188  H   1.0    0.13    1.03    1.43    16.53244    38.83051   151.68123
   189  N   5.0   -0.14    3.54    2.11    23.78074    41.19692   151.44376
   190  C   4.0    0.05    4.42    4.42    24.99512    41.56480   149.07850
   191  C   4.0    0.15    3.41    3.08    27.83100    40.98946   149.21346
   192  O   6.0   -0.25    1.20    1.80    29.16988    41.05946   147.19274
   193  C   4.0   -0.04    4.32    4.24    24.63188    44.24707   148.13795
   194  C   4.0   -0.04    4.18    3.97    21.91220    44.81286   147.46938
   195  C   4.0   -0.01    4.18    3.97    21.72002    47.55119   146.66194
   196  N   5.0   -0.14    3.34    2.00    20.17632    47.95007   144.33505
   197  C   4.0    0.09    3.30    3.05    20.76745    47.73756   142.01829
   198  N   5.0   -0.19    3.21    1.96    23.42946    47.33478   141.20301
   199  N   5.0   -0.18    3.24    1.97    19.24483    48.06887   140.18123
   200  H   1.0    0.11    1.10    1.44    23.53414    42.69110   152.60531
   201  H   1.0    0.08    1.06    1.44    24.23407    40.19203   147.73471
   202  H   1.0    0.05    1.02    1.43    25.28869    45.51444   149.66273
   203  H   1.0    0.07    1.03    1.43    25.91513    44.49944   146.52800
   204  H   1.0    0.06    1.03    1.43    21.35601    43.58401   145.91316
   205  H   1.0    0.06    1.04    1.43    20.72646    44.47267   149.07321
   206  H   1.0    0.04    1.03    1.43    20.90374    48.72802   148.12343
   207  H   1.0    0.04    1.02    1.43    23.61596    48.34992   146.21462
   208  H   1.0    0.08    1.07    1.44    18.25236    48.02397   144.71120
   209  H   1.0    0.11    1.04    1.43    24.70000    47.06618   142.53025
   210  H   1.0    0.10    1.05    1.44    23.69646    46.96275   139.52198
   211  H   1.0    0.08    1.01    1.43    17.29454    48.19997   140.61037
   212  H   1.0    0.09    1.03    1.43    19.59697    47.65158   138.35915
   213  N   5.0   -0.12    3.49    2.07    28.86836    40.50393   151.47806
   214  C   4.0    0.04    4.30    4.20    31.47576    39.71187   151.82594
   215  C   4.0    0.11    3.17    3.03    31.62202    36.80307   152.31257
   216  O   6.0   -0.23    1.13    1.80    29.86915    35.47090   152.74648
   217  C   4.0   -0.03    4.33    4.26    32.64832    41.20122   153.90385
   218  C   4.0   -0.03    4.06    3.73    32.56922    44.02306   153.41256
   219  S   6.0   -0.01    2.46    3.10    34.39698    45.79059   155.87111
   220  C   4.0   -0.06    3.89    3.44    32.27514    48.27144   156.67606
   221  H   1.0    0.10    1.09    1.44    27.72901    40.15452   152.95316
   222  H   1.0    0.07    1.05    1.44    32.42755    40.10107   150.00213
   223  H   1.0    0.06    1.02    1.43    31.59696    40.80169   155.67638
   224  H   1.0    0.06    1.04    1.43    34.60781    40.61598   154.21321
   225  H   1.0    0.06    1.06    1.44    33.41637    44.46587   151.60064
   226  H   1.0    0.05    1.07    1.44    30.64946    44.73908   153.50269
   227  H   1.0    0.05    1.06    1.44    32.96267    49.10830   158.40580
   228  H   1.0    0.04    1.04    1.43    32.30111    49.68835   155.16842
   229  H   1.0    0.05    1.05    1.44    30.40480    47.49272   156.90727
   230  N   5.0   -0.18    3.28    1.98    36.04014    61.25519   161.26314
   231  C   4.0    0.04    4.27    4.13    36.11842    58.99561   162.69970
   232  C   4.0    0.10    3.23    3.04    38.82035    58.14775   163.13897
   233  O   6.0   -0.25    1.15    1.80    40.38710    58.37910   161.53516
   234  C   4.0   -0.03    4.37    4.32    34.44893    56.99280   161.58373
   235  C   4.0   -0.01    3.62    3.18    35.34141    56.01379   159.16639
   236  C   4.0   -0.04    3.52    3.13    34.90270    57.38630   157.03586
   237  C   4.0   -0.03    3.48    3.11    36.62615    53.67998   158.94973
   238  C   4.0   -0.04    3.44    3.09    35.64412    56.53235   154.71354
   239  C   4.0   -0.03    3.44    3.09    37.37578    52.81205   156.63305
   240  C   4.0    0.07    3.48    3.10    36.83846    54.22375   154.51142
   241  O   6.0   -0.24    2.11    1.84    37.41725    53.17817   152.17164
   242  H   1.0    0.11    1.04    1.43    37.09444    61.48448   159.76010
   243  H   1.0    0.05    1.03    1.43    35.32585    59.45513   164.64455
   244  H   1.0    0.05    1.00    1.43    34.34889    55.38691   163.01899
   245  H   1.0    0.04    1.04    1.44    32.55585    57.73435   161.43803
   246  H   1.0    0.05    1.03    1.43    33.90455    59.18612   157.16986
   247  H   1.0    0.06    1.03    1.43    36.98376    52.59308   160.63848
   248  H   1.0    0.05    1.01    1.43    35.17786    57.61939   152.99446
   249  H   1.0    0.07    1.03    1.43    38.33448    51.02576   156.39695
   250  H   1.0    0.11    1.02    1.43    36.57844    54.26262   150.88342
   251  N   5.0   -0.18    3.17    1.95    15.64232    59.80688   137.63224
   252  C   4.0    0.03    4.30    4.20    14.51337    57.43610   138.69449
   253  C   4.0    0.09    3.24    3.04    11.90931    57.88502   139.79309
   254  O   6.0   -0.28    1.14    1.80    11.58801    59.25328   141.57996
   255  C   4.0   -0.02    4.31    4.21    16.08514    56.21565   140.80135
   256  C   4.0   -0.07    4.17    3.93    15.32080    53.47925   140.95495
   257  C   4.0   -0.07    4.15    3.90    18.90175    56.32295   140.31997
   258  H   1.0    0.11    1.06    1.44    17.13492    60.48875   138.63616
   259  H   1.0    0.04    1.04    1.43    14.36569    56.15547   137.02835
   260  H   1.0    0.06    1.08    1.44    15.68723    57.17078   142.52113
   261  H   1.0    0.04    1.00    1.43    16.30163    52.58454   142.52395
   262  H   1.0    0.05    1.00    1.43    13.29457    53.22868   141.27556
   263  H   1.0    0.04    0.99    1.43    15.79614    52.45172   139.20994
   264  H   1.0    0.04    1.01    1.43    19.86290    55.04223   141.54918
   265  H   1.0    0.04    0.98    1.43    19.30839    55.74835   138.31724
   266  H   1.0    0.06    1.02    1.43    19.68104    58.18534   140.58518
   267  H   1.0    0.10    1.07    1.44    25.41972    65.86080   151.36760
   268  H   1.0    0.06    1.04    1.43    32.69978    64.37735   152.24622
   269  H   1.0    0.10    1.09    1.44    42.44131    48.78748   150.03885
   270  H   1.0    0.08    1.04    1.43    11.65101    63.93660   145.05368
   271  H   1.0    0.10    1.07    1.44    15.76669    44.72633   160.19332
   272  H   1.0    0.06    1.04    1.43    24.46673    45.59876   157.99885
   273  H   1.0    0.11    1.07    1.44    23.69537    40.02523   157.83735
   274  H   1.0    0.08    1.05    1.44    33.29276    35.92103   152.27152
   275  H   1.0    0.09    1.09    1.44    34.46465    61.49631   160.66964
   276  H   1.0    0.07    1.05    1.44    39.31260    57.38047   164.79428
   277  H   1.0    0.10    1.06    1.44    16.19765    59.51264   136.05186
   278  H   1.0    0.07    1.05    1.44    10.40323    57.03441   139.03201

  Z AO/shell   Hii/eV     exponent
  1     Wed Apr 25 08:07:45 CEST 2018   EN: 2.200 GM2: 0.406  GM3: 0.0800  RAES: 1.40
     1s    -10.707211    1.230000
  6     Wed Apr 25 08:07:45 CEST 2018   EN: 2.550 GM2: 0.538  GM3: 0.1500  RAES: 3.00
     2s    -13.970922    2.096432
     2p    -10.063292    1.800000
  7     Wed Apr 25 08:07:45 CEST 2018   EN: 3.040 GM2: 0.461  GM3:-0.0640  RAES: 1.90
     2s    -16.686243    2.339881
     2p    -12.523956    2.014332
  8     Wed Apr 25 08:07:45 CEST 2018   EN: 3.440 GM2: 0.452  GM3:-0.0517  RAES: 1.80
     2s    -20.229985    2.439742
     2p    -15.503117    2.137023
 16     Tue Apr 24 11:44:34 CEST 2018   EN: 2.580 GM2: 0.340  GM3:-0.0502  RAES: 3.10
     3s    -20.029654    1.981333
     3p    -11.377694    2.025643
     3d     -0.420282    1.702555
 no old-style atom pair restraining (fixing) potential

molecular fragmentation (1/2 indicates fragments):
111111111111111122222222222222222222222222222222222222222222222222222222
222222222222222222222222222222222222222222222222222222222222222222222222
222222222222222222222222222222222222222222222222222222222222222222222222
22222222222222222222222222222222222222222222222222112222222222
# atoms in fragment 1/2:    18   260
 fragment masses (1/2) :      101.15     1705.17
CMA distance (Bohr)    :  11.366
constraining FC (au)   :  0.0500
           ------------------------------------------------- 
          |        Self-Consistent Charge Iterations        |
           ------------------------------------------------- 

 Ncao       : 662
 Nao        : 661
 Nshell     : 405
 Nel        : 716
 T(el)      :   500.0
 intcut     :    35.0
 scfconv/Eh :  0.100E-06
   qconv/e  :  0.100E-04
 intneglect :  0.100E-08
 broydamp   :      0.400
 iter      E             dE          RMSdq      gap      omega  full diag
   1   -405.8903545 -0.405890E+03  0.450E+00    2.78       0.0  T
   2   -406.8012434 -0.910889E+00  0.217E+00    1.17       1.0  T
   3   -406.8513613 -0.501179E-01  0.122E+00    1.35       1.0  T
   4   -406.9223794 -0.710181E-01  0.274E-01    0.79       1.0  T
   5   -406.9281022 -0.572279E-02  0.128E-01    1.04       1.0  T
   6   -406.9290954 -0.993210E-03  0.526E-02    1.02       1.0  T
   7   -406.9292411 -0.145761E-03  0.219E-02    1.01       1.0  T
   8   -406.9292587 -0.175389E-04  0.103E-02    1.01       1.0  T
   9   -406.9292657 -0.701631E-05  0.444E-03    1.00       1.3  T
  10   -406.9292667 -0.104202E-05  0.205E-03    1.01       2.9  T
  11   -406.9292669 -0.205491E-06  0.916E-04    1.01       6.5  T
  12   -406.9292670 -0.465456E-07  0.389E-04    1.01      15.4  T
  13   -406.9292670 -0.100271E-07  0.184E-04    1.01      32.6  T
  14   -406.9292670 -0.158872E-08  0.900E-05    1.01      66.7  T
  15   -406.9292670 -0.453895E-09  0.368E-05    1.01     163.2  T
speedup  1.83
cpu  time for SCC    8.57 s
wall time for SCC    4.67 s

   *** convergence criteria satisfied after 15 iterations ***

          eigenvalues
 #    :         346        347        348        349        350        351        352        353
 occ. :        2.000      2.000      2.000      2.000      2.000      2.000      2.000      2.000
 eps  :       -10.697    -10.631    -10.565    -10.560    -10.460    -10.262    -10.125     -9.970
 #    :         354        355        356        357        358        359        360        361
 occ. :        2.000      2.000      2.000      2.000      2.000      0.000      0.000      0.000
 eps  :        -9.870     -9.716     -9.551     -9.428     -9.107     -8.102     -8.004     -7.977
 #    :         362        363        364        365        366        367        368        369
 occ. :        0.000      0.000      0.000      0.000      0.000      0.000      0.000      0.000
 eps  :        -7.697     -7.485     -7.300     -6.857     -6.656     -6.319     -6.278     -6.187


   #   Z            q   n(s)   n(p)   n(d)      C6AA      α(0)
   1   7 N     -0.400  1.327  4.073  0.000    30.382     8.186
   2   6 C      0.035  1.069  2.896  0.000    20.000     6.370
   3   6 C      0.196  1.102  2.702  0.000    23.821     7.993
   4   8 O     -0.390  1.775  4.615  0.000    21.477     6.213
   5   6 C     -0.007  1.049  2.958  0.000    20.668     6.466
   6   6 C     -0.103  1.041  3.062  0.000    22.525     6.768
   7   6 C     -0.115  1.038  3.077  0.000    22.749     6.800
   8   1 H      0.180  0.820  0.000  0.000     1.216     1.727
   9   1 H      0.046  0.954  0.000  0.000     2.367     2.406
  10   1 H      0.050  0.950  0.000  0.000     2.322     2.383
  11   1 H      0.061  0.939  0.000  0.000     2.188     2.313
  12   1 H      0.028  0.972  0.000  0.000     2.614     2.528
  13   1 H      0.015  0.985  0.000  0.000     2.817     2.626
  14   1 H      0.067  0.933  0.000  0.000     2.118     2.276
  15   1 H      0.038  0.962  0.000  0.000     2.478     2.462
  16   1 H      0.039  0.961  0.000  0.000     2.459     2.452
  17   7 N     -0.266  1.209  4.058  0.000    26.890     7.702
  18   6 C      0.013  1.062  2.925  0.000    20.324     6.413
  19   6 C      0.267  1.062  2.671  0.000    22.501     7.768
  20   8 O     -0.520  1.786  4.734  0.000    24.230     6.600
  21   6 C     -0.066  1.055  3.011  0.000    21.750     6.638
  22   6 C     -0.064  1.066  2.998  0.000    21.699     6.627
  23   6 C      0.019  1.044  2.937  0.000    20.289     6.419
  24   1 H      0.072  0.928  0.000  0.000     2.068     2.249
  25   1 H      0.019  0.981  0.000  0.000     2.755     2.596
  26   1 H      0.059  0.941  0.000  0.000     2.211     2.325
  27   1 H      0.010  0.990  0.000  0.000     2.887     2.658
  28   1 H      0.051  0.949  0.000  0.000     2.303     2.373
  29   1 H      0.024  0.976  0.000  0.000     2.671     2.556
  30   1 H      0.035  0.965  0.000  0.000     2.513     2.479
  31   7 N     -0.186  1.247  3.939  0.000    25.041     7.432
  32   6 C      0.022  1.064  2.914  0.000    20.206     6.401
  33   6 C      0.282  1.040  2.677  0.000    22.221     7.720
  34   8 O     -0.498  1.754  4.744  0.000    23.743     6.533
  35   6 C     -0.071  1.059  3.012  0.000    21.846     6.652
  36   6 C     -0.012  1.055  2.958  0.000    20.761     6.481
  37   6 C     -0.115  1.044  3.071  0.000    22.757     6.801
  38   6 C     -0.111  1.039  3.071  0.000    22.672     6.789
  39   1 H      0.203  0.797  0.000  0.000     1.093     1.638
  40   1 H      0.060  0.940  0.000  0.000     2.197     2.318
  41   1 H      0.055  0.945  0.000  0.000     2.265     2.353
  42   1 H      0.070  0.930  0.000  0.000     2.088     2.260
  43   1 H      0.028  0.972  0.000  0.000     2.608     2.525
  44   1 H      0.046  0.954  0.000  0.000     2.370     2.408
  45   1 H      0.032  0.968  0.000  0.000     2.555     2.500
  46   1 H      0.062  0.938  0.000  0.000     2.178     2.308
  47   1 H      0.045  0.955  0.000  0.000     2.389     2.417
  48   1 H      0.056  0.944  0.000  0.000     2.243     2.342
  49   1 H      0.023  0.977  0.000  0.000     2.692     2.566
  50   7 N     -0.209  1.259  3.950  0.000    25.547     7.507
  51   6 C      0.048  1.042  2.910  0.000    19.753     6.324
  52   6 C      0.269  1.042  2.689  0.000    22.454     7.762
  53   8 O     -0.555  1.773  4.782  0.000    25.029     6.708
  54   6 C     -0.122  1.081  3.041  0.000    22.840     6.804
  55   6 C      0.373  1.017  2.610  0.000    20.684     7.443
  56   8 O     -0.580  1.741  4.839  0.000    25.632     6.788
  57   8 O     -0.657  1.800  4.857  0.000    27.552     7.038
  58   1 H      0.216  0.784  0.000  0.000     1.026     1.587
  59   1 H      0.024  0.976  0.000  0.000     2.669     2.555
  60   1 H      0.074  0.926  0.000  0.000     2.045     2.236
  61   1 H      0.050  0.950  0.000  0.000     2.316     2.380
  62   7 N     -0.111  1.211  3.900  0.000    23.432     7.189
  63   6 C      0.022  1.059  2.918  0.000    20.205     6.401
  64   6 C      0.255  1.059  2.686  0.000    22.714     7.806
  65   8 O     -0.546  1.806  4.740  0.000    24.828     6.681
  66   6 C     -0.095  1.067  3.028  0.000    22.300     6.723
  67   6 C     -0.094  1.054  3.040  0.000    22.285     6.721
  68   6 C     -0.104  1.056  3.048  0.000    22.497     6.754
  69   6 C     -0.062  1.065  2.997  0.000    21.787     6.664
  70   7 N     -0.138  1.223  3.915  0.000    23.981     7.273
  71   1 H      0.214  0.786  0.000  0.000     1.036     1.595
  72   1 H      0.098  0.902  0.000  0.000     1.802     2.100
  73   1 H      0.077  0.923  0.000  0.000     2.007     2.215
  74   1 H      0.086  0.914  0.000  0.000     1.921     2.168
  75   1 H      0.056  0.944  0.000  0.000     2.247     2.344
  76   1 H      0.104  0.896  0.000  0.000     1.748     2.067
  77   1 H      0.101  0.899  0.000  0.000     1.780     2.086
  78   1 H      0.062  0.938  0.000  0.000     2.172     2.305
  79   1 H      0.141  0.859  0.000  0.000     1.455     1.886
  80   1 H      0.125  0.875  0.000  0.000     1.570     1.960
  81   1 H      0.305  0.695  0.000  0.000     0.698     1.309
  82   1 H      0.277  0.723  0.000  0.000     0.787     1.390
  83   1 H      0.278  0.722  0.000  0.000     0.784     1.387
  84   7 N     -0.143  1.274  3.869  0.000    24.099     7.291
  85   6 C      0.024  1.049  2.926  0.000    20.167     6.394
  86   6 C      0.242  1.054  2.704  0.000    22.951     7.845
  87   8 O     -0.559  1.801  4.758  0.000    25.125     6.720
  88   6 C      0.118  1.056  2.826  0.000    18.762     6.188
  89   8 O     -0.496  1.734  4.761  0.000    22.804     6.446
  90   6 C     -0.126  1.037  3.089  0.000    22.988     6.838
  91   1 H      0.218  0.782  0.000  0.000     1.022     1.585
  92   1 H      0.096  0.904  0.000  0.000     1.823     2.112
  93   1 H      0.039  0.961  0.000  0.000     2.469     2.457
  94   1 H      0.334  0.666  0.000  0.000     0.627     1.244
  95   1 H      0.053  0.947  0.000  0.000     2.289     2.366
  96   1 H      0.061  0.939  0.000  0.000     2.189     2.314
  97   1 H      0.052  0.948  0.000  0.000     2.296     2.370
  98   7 N     -0.109  1.221  3.888  0.000    23.381     7.181
  99   6 C     -0.004  1.073  2.930  0.000    20.656     6.473
 100   6 C      0.283  1.028  2.689  0.000    22.208     7.717
 101   8 O     -0.398  1.682  4.716  0.000    21.632     6.236
 102   6 C     -0.074  1.052  3.021  0.000    21.902     6.663
 103   6 C     -0.077  1.047  3.030  0.000    21.976     6.674
 104   6 C     -0.097  1.060  3.036  0.000    22.349     6.731
 105   6 C     -0.062  1.069  2.992  0.000    21.801     6.669
 106   7 N     -0.146  1.230  3.916  0.000    24.156     7.300
 107   1 H      0.230  0.770  0.000  0.000     0.965     1.539
 108   1 H      0.067  0.933  0.000  0.000     2.117     2.276
 109   1 H      0.067  0.933  0.000  0.000     2.114     2.274
 110   1 H      0.064  0.936  0.000  0.000     2.155     2.296
 111   1 H      0.056  0.944  0.000  0.000     2.242     2.341
 112   1 H      0.074  0.926  0.000  0.000     2.044     2.236
 113   1 H      0.080  0.920  0.000  0.000     1.974     2.197
 114   1 H      0.078  0.922  0.000  0.000     2.002     2.213
 115   1 H      0.116  0.884  0.000  0.000     1.650     2.009
 116   1 H      0.134  0.866  0.000  0.000     1.506     1.919
 117   1 H      0.300  0.700  0.000  0.000     0.713     1.322
 118   1 H      0.296  0.704  0.000  0.000     0.725     1.334
 119   1 H      0.295  0.705  0.000  0.000     0.730     1.340
 120   7 N     -0.166  1.228  3.938  0.000    24.594     7.366
 121   6 C      0.025  1.064  2.911  0.000    20.168     6.398
 122   6 C      0.194  1.097  2.708  0.000    23.853     7.999
 123   8 O     -0.385  1.773  4.611  0.000    21.375     6.199
 124   6 C     -0.073  1.057  3.017  0.000    21.884     6.658
 125   6 C      0.015  1.080  2.905  0.000    27.673     8.629
 126   6 C     -0.039  1.082  2.957  0.000    28.980     8.828
 127   6 C     -0.042  1.079  2.963  0.000    29.033     8.836
 128   6 C     -0.029  1.080  2.949  0.000    28.725     8.789
 129   6 C     -0.035  1.082  2.953  0.000    28.874     8.812
 130   6 C     -0.034  1.081  2.953  0.000    28.857     8.809
 131   1 H      0.195  0.805  0.000  0.000     1.132     1.667
 132   1 H      0.113  0.887  0.000  0.000     1.671     2.021
 133   1 H      0.058  0.942  0.000  0.000     2.227     2.334
 134   1 H      0.063  0.937  0.000  0.000     2.164     2.300
 135   1 H      0.022  0.978  0.000  0.000     2.708     2.573
 136   1 H      0.058  0.942  0.000  0.000     2.216     2.328
 137   1 H      0.022  0.978  0.000  0.000     2.702     2.571
 138   1 H      0.055  0.945  0.000  0.000     2.256     2.349
 139   1 H      0.038  0.962  0.000  0.000     2.472     2.458
 140   7 N     -0.401  1.310  4.091  0.000    30.394     8.188
 141   6 C      0.021  1.067  2.911  0.000    20.223     6.404
 142   6 C      0.260  1.050  2.689  0.000    22.614     7.787
 143   8 O     -0.475  1.736  4.739  0.000    23.234     6.463
 144   6 C     -0.015  1.058  2.956  0.000    20.802     6.487
 145   6 C     -0.054  1.045  3.009  0.000    21.534     6.606
 146   6 C     -0.121  1.040  3.081  0.000    22.857     6.815
 147   6 C     -0.110  1.039  3.072  0.000    22.669     6.790
 148   1 H      0.162  0.838  0.000  0.000     1.321     1.801
 149   1 H      0.033  0.967  0.000  0.000     2.546     2.495
 150   1 H      0.033  0.967  0.000  0.000     2.547     2.496
 151   1 H      0.030  0.970  0.000  0.000     2.584     2.514
 152   1 H      0.027  0.973  0.000  0.000     2.632     2.537
 153   1 H      0.050  0.950  0.000  0.000     2.326     2.385
 154   1 H      0.055  0.945  0.000  0.000     2.263     2.352
 155   1 H      0.043  0.957  0.000  0.000     2.405     2.425
 156   1 H      0.033  0.967  0.000  0.000     2.551     2.497
 157   1 H      0.038  0.962  0.000  0.000     2.474     2.460
 158   1 H      0.045  0.955  0.000  0.000     2.383     2.414
 159   7 N     -0.160  1.237  3.923  0.000    24.461     7.346
 160   6 C      0.018  1.067  2.915  0.000    20.269     6.409
 161   6 C      0.195  1.095  2.710  0.000    23.832     7.995
 162   8 O     -0.365  1.763  4.602  0.000    20.997     6.144
 163   6 C     -0.030  1.070  2.959  0.000    21.062     6.527
 164   6 C     -0.072  1.051  3.021  0.000    21.867     6.657
 165   6 C     -0.119  1.037  3.082  0.000    22.827     6.812
 166   6 C     -0.111  1.038  3.074  0.000    22.693     6.794
 167   1 H      0.215  0.785  0.000  0.000     1.033     1.592
 168   1 H      0.101  0.899  0.000  0.000     1.774     2.083
 169   1 H      0.061  0.939  0.000  0.000     2.185     2.311
 170   1 H      0.065  0.935  0.000  0.000     2.146     2.291
 171   1 H      0.052  0.948  0.000  0.000     2.298     2.371
 172   1 H      0.063  0.937  0.000  0.000     2.168     2.303
 173   1 H      0.036  0.964  0.000  0.000     2.499     2.472
 174   1 H      0.047  0.953  0.000  0.000     2.364     2.404
 175   1 H      0.048  0.952  0.000  0.000     2.349     2.397
 176   1 H      0.039  0.961  0.000  0.000     2.457     2.451
 177   1 H      0.032  0.968  0.000  0.000     2.563     2.504
 178   7 N     -0.389  1.314  4.075  0.000    30.070     8.144
 179   6 C      0.025  1.060  2.914  0.000    20.166     6.397
 180   6 C      0.276  1.047  2.677  0.000    22.335     7.739
 181   8 O     -0.498  1.759  4.739  0.000    23.751     6.534
 182   6 C      0.073  1.043  2.884  0.000    19.565     6.335
 183   8 O     -0.506  1.731  4.775  0.000    23.022     6.477
 184   1 H      0.161  0.839  0.000  0.000     1.329     1.806
 185   1 H      0.025  0.975  0.000  0.000     2.665     2.553
 186   1 H      0.027  0.973  0.000  0.000     2.635     2.539
 187   1 H      0.066  0.934  0.000  0.000     2.132     2.283
 188   1 H      0.351  0.649  0.000  0.000     0.585     1.201
 189   7 N     -0.171  1.236  3.935  0.000    24.693     7.380
 190   6 C      0.032  1.050  2.918  0.000    20.038     6.373
 191   6 C      0.261  1.063  2.677  0.000    22.605     7.786
 192   8 O     -0.535  1.788  4.748  0.000    24.585     6.648
 193   6 C     -0.075  1.055  3.020  0.000    21.925     6.664
 194   6 C     -0.085  1.047  3.038  0.000    22.107     6.693
 195   6 C     -0.026  1.065  2.961  0.000    21.129     6.559
 196   7 N     -0.115  1.215  3.900  0.000    23.505     7.201
 197   6 C      0.222  1.028  2.750  0.000    23.316     7.905
 198   7 N     -0.299  1.233  4.066  0.000    27.698     7.816
 199   7 N     -0.212  1.230  3.982  0.000    25.619     7.517
 200   1 H      0.231  0.769  0.000  0.000     0.959     1.534
 201   1 H      0.081  0.919  0.000  0.000     1.972     2.196
 202   1 H      0.071  0.929  0.000  0.000     2.076     2.253
 203   1 H      0.071  0.929  0.000  0.000     2.078     2.255
 204   1 H      0.071  0.929  0.000  0.000     2.078     2.254
 205   1 H      0.088  0.912  0.000  0.000     1.894     2.152
 206   1 H      0.102  0.898  0.000  0.000     1.771     2.081
 207   1 H      0.085  0.915  0.000  0.000     1.925     2.170
 208   1 H      0.250  0.750  0.000  0.000     0.884     1.473
 209   1 H      0.207  0.793  0.000  0.000     1.070     1.620
 210   1 H      0.215  0.785  0.000  0.000     1.034     1.593
 211   1 H      0.254  0.746  0.000  0.000     0.870     1.461
 212   1 H      0.272  0.728  0.000  0.000     0.801     1.402
 213   7 N     -0.150  1.232  3.918  0.000    24.254     7.314
 214   6 C      0.024  1.061  2.915  0.000    20.189     6.399
 215   6 C      0.203  1.083  2.714  0.000    23.689     7.970
 216   8 O     -0.346  1.741  4.605  0.000    20.640     6.091
 217   6 C     -0.065  1.048  3.017  0.000    21.721     6.631
 218   6 C     -0.012  1.070  2.941  0.000    20.792     6.493
 219  16 S     -0.241  1.923  4.266  0.051   151.361    20.707
 220   6 C     -0.054  1.049  3.005  0.000    21.608     6.630
 221   1 H      0.202  0.798  0.000  0.000     1.097     1.640
 222   1 H      0.095  0.905  0.000  0.000     1.836     2.119
 223   1 H      0.064  0.936  0.000  0.000     2.149     2.292
 224   1 H      0.068  0.932  0.000  0.000     2.103     2.268
 225   1 H      0.046  0.954  0.000  0.000     2.371     2.408
 226   1 H      0.072  0.928  0.000  0.000     2.067     2.248
 227   1 H      0.074  0.926  0.000  0.000     2.038     2.233
 228   1 H      0.057  0.943  0.000  0.000     2.238     2.340
 229   1 H      0.069  0.931  0.000  0.000     2.094     2.263
 230   7 N     -0.384  1.292  4.092  0.000    29.922     8.124
 231   6 C      0.047  1.051  2.902  0.000    19.811     6.340
 232   6 C      0.209  1.075  2.716  0.000    23.567     7.950
 233   8 O     -0.366  1.743  4.622  0.000    21.009     6.145
 234   6 C     -0.069  1.052  3.017  0.000    21.806     6.646
 235   6 C      0.007  1.067  2.925  0.000    27.848     8.656
 236   6 C     -0.037  1.075  2.962  0.000    28.912     8.819
 237   6 C     -0.041  1.086  2.955  0.000    29.020     8.835
 238   6 C     -0.066  1.077  2.989  0.000    29.636     8.927
 239   6 C     -0.047  1.071  2.977  0.000    29.179     8.858
 240   6 C      0.140  1.048  2.812  0.000    24.937     8.185
 241   8 O     -0.440  1.743  4.697  0.000    21.651     6.281
 242   1 H      0.165  0.835  0.000  0.000     1.306     1.790
 243   1 H      0.050  0.950  0.000  0.000     2.324     2.384
 244   1 H      0.040  0.960  0.000  0.000     2.456     2.451
 245   1 H      0.075  0.925  0.000  0.000     2.036     2.231
 246   1 H      0.048  0.952  0.000  0.000     2.345     2.395
 247   1 H      0.035  0.965  0.000  0.000     2.513     2.479
 248   1 H      0.031  0.969  0.000  0.000     2.569     2.507
 249   1 H      0.046  0.954  0.000  0.000     2.368     2.406
 250   1 H      0.317  0.683  0.000  0.000     0.673     1.289
 251   7 N     -0.415  1.342  4.073  0.000    30.800     8.242
 252   6 C      0.025  1.068  2.907  0.000    20.171     6.397
 253   6 C      0.210  1.081  2.709  0.000    23.548     7.948
 254   8 O     -0.377  1.748  4.629  0.000    21.234     6.178
 255   6 C     -0.019  1.051  2.968  0.000    20.870     6.496
 256   6 C     -0.132  1.048  3.084  0.000    23.073     6.846
 257   6 C     -0.139  1.046  3.092  0.000    23.222     6.870
 258   1 H      0.192  0.808  0.000  0.000     1.147     1.677
 259   1 H      0.043  0.957  0.000  0.000     2.408     2.427
 260   1 H      0.045  0.955  0.000  0.000     2.381     2.413
 261   1 H      0.055  0.945  0.000  0.000     2.257     2.349
 262   1 H      0.023  0.977  0.000  0.000     2.692     2.566
 263   1 H      0.064  0.936  0.000  0.000     2.155     2.296
 264   1 H      0.056  0.944  0.000  0.000     2.246     2.344
 265   1 H      0.059  0.941  0.000  0.000     2.215     2.328
 266   1 H      0.063  0.937  0.000  0.000     2.163     2.300
 267   1 H      0.182  0.818  0.000  0.000     1.202     1.717
 268   1 H      0.065  0.935  0.000  0.000     2.144     2.290
 269   1 H      0.172  0.828  0.000  0.000     1.257     1.756
 270   1 H      0.085  0.915  0.000  0.000     1.925     2.170
 271   1 H      0.172  0.828  0.000  0.000     1.260     1.759
 272   1 H      0.077  0.923  0.000  0.000     2.013     2.218
 273   1 H      0.185  0.815  0.000  0.000     1.186     1.706
 274   1 H      0.076  0.924  0.000  0.000     2.020     2.222
 275   1 H      0.190  0.810  0.000  0.000     1.161     1.688
 276   1 H      0.056  0.944  0.000  0.000     2.248     2.344
 277   1 H      0.191  0.809  0.000  0.000     1.155     1.683
 278   1 H      0.049  0.951  0.000  0.000     2.337     2.390

 Mol. C6AA /au·bohr⁶  :     677372.509282
 Mol. C8AA /au·bohr⁸  :   15159737.641098
 Mol. α(0) /au        :       1237.142390

 
molecular dipole:
                 x           y           z       tot (Debye)
 q only:       27.226     127.337     269.723
   full:       27.493     126.548     270.810     762.998
molecular quadrupole (traceless):
                xx          xy          yy          xz          yz          zz
 q only:   -22244.380    3001.595  -10360.740    5320.606   25749.472   32605.121
  q+dip:   -22333.667    3014.663  -10620.174    5383.172   25642.876   32953.840
   full:   -22334.797    3014.482  -10619.751    5385.522   25642.013   32954.548
speedup  1.87
cpu  time for grad   11.56 s
wall time for grad    6.17 s

SCC energy    :    -406.9423562
rep           :       5.2195111
ES            :       1.3738640
AES           :      -0.0567394
AXC           :       0.1683486
disp          :      -0.3243045
XB            :       0.0000000
fix           :       0.0000000
Gborn         :       0.0000000
Gsasa         :       0.0000000
Ghb           :       0.0000000
Gshift        :       0.0000000
Gsolv         :      -0.5475347     -343.58
Etot ala COSMO:    -406.9423562
grad norm     :       0.7827443
total E       :    -401.6964793
atomizationE  :      74.8683175    46980.58
(atE without considering molecular charge,
 total energy contains solvation terms)
H-L gap (eV)  :          1.0057

------------------------------------------------------------------------
 * finished run on 2019/05/12 at 12:15:55.081     
------------------------------------------------------------------------
 total:
 * wall-time:     0 d,  0 h,  0 min,  6.516 sec
 *  cpu-time:     0 d,  0 h,  0 min, 12.154 sec
 * ratio c/w:     1.865 speedup
 SCF:
 * wall-time:     0 d,  0 h,  0 min,  6.370 sec
 *  cpu-time:     0 d,  0 h,  0 min, 11.957 sec
 * ratio c/w:     1.877 speedup

