      -----------------------------------------------------------      
     |                   =====================                   |     
     |                           x T B                           |     
     |                   =====================                   |     
     |                         S. Grimme                         |     
     |          Mulliken Center for Theoretical Chemistry        |     
     |                    University of Bonn                     |     
     |                 Version 6.0.1 (SAW181210)                 |     
      -----------------------------------------------------------      

   This program is distributed in the hope that it will be useful,
   but WITHOUT ANY WARRANTY; without even the implied warranty of
   MERCHANTABILITY or FITNESS FOR A PARTICULAR PURPOSE.
   
   FOR NON-COMMERCIAL, ACADEMIA USE ONLY.
   
   Cite this work as:
   S. Grimme, C. Bannwarth, P. Shushkov, J. Comput. Theory Chem., 2017,
   13, 1989-2009.
   C. Bannwarth, S. Ehlert and S. Grimme., ChemRxiv, 2018, preprint.
   http://doi.org/10.26434/chemrxiv.7246238.v1
   
   for sTDA-xTB:
   S. Grimme and C. Bannwarth, J. Chem. Phys., 2016, 145, 054103.
   
   in the mass-spec context:
   V. Asgeirsson, C. Bauer and S. Grimme, Chem. Sci., 2017, 8, 4879.
   
   if GBSA is used:
   P. Shushkov, F. März and S. Grimme, unpublished.
   
   for ANC optimizer:
   S. Grimme, unpublished.
   Rational Function algorithm used in ANCopt:
   F. Eckert, P. Pulay, H.-J. Werner, J. Comput. Chem., 1997, 18, 1473.
   
   with help from (in alphabetical order)
   C. Bannwarth, F. Bohle, G. Brandenburg, E. Caldeweyher, M. Checinski,
   S. Dohm, S. Ehlert, S. Ehrlich, F. März, H. Neugebauer, J. Pisarek,
   P. Pracht, P. Shushkov, and S. Spicher.
   
 * started run on 2019/05/10 at 00:41:51.259     
========================================================================
 # omp threads = 2
========================================================================
number of atoms            : 385
number of electrons        : 1018
charge                     : 1
spin                       : .0
first test random number   : .7357

########################################################################
# WARNING! Please study the warnings concerning your input carefully
#  - Process number higher than OMP_NUM_THREADS, I hope you know what you are doing.
########################################################################

           ------------------------------------------------- 
          |                 G F N 2 - x T B                 |
          | Geometry, Frequencies, Noncovalent interactions |
          |            JCTC 2018 parametrisation            |
           ------------------------------------------------- 
 
      method parameters     
 k(s)        :  1.8500
 k(p)        :  2.2300
 k(d)        :  2.2300
 k(f)        :  2.0000
 kEN (H0ij)  : -2.0000
 D4 a1       :  0.5200
 D4 a2       :  5.0000
 D4 s6       :  1.0000
 D4 s8       :  2.7000
 D4 s9       :  5.0000
 alphaj      :  2.0000

 Solvent             : h2o
 Using internal parameter file: .param_gbsa2_h2o
 Gsolv ref. state (COSMO-RS): gsolv [1 M gas/solution]
 temperature (mdtemp)       :    298.150000000000     
 dielectric constant        :    80.2000000000000     
 rho                        :    1.00000000000000     
 mass                       :    18.0000000000000     
 surface tension            :    15.5689454083859     
 probe radius               :   0.975313790000000     
 vdW radii scaling          :    1.00000000000000     
 Gshift (Eh)                :   1.857443126794793E-003
 c1                         :    1.55243817000000     
 soset                      :   0.130326360000000     
 HB correction              :  T

            Z     q(EN)     CN     RAES       Cart. coordinates
     1  N   5.0   -0.11    4.12    3.19    14.33894   183.51533    -5.79906
     2  C   4.0    0.01    4.33    4.25    11.84410   182.30901    -6.23975
     3  C   4.0    0.16    3.51    3.12    10.30978   182.76088    -3.81205
     4  O   6.0   -0.31    1.26    1.80    11.34995   182.55462    -1.76088
     5  C   4.0    0.04    4.16    3.91    12.07397   179.39169    -6.40735
     6  O   6.0   -0.26    2.12    1.84     9.72184   178.37189    -5.86948
     7  H   1.0    0.06    1.02    1.43    15.75789   182.62779    -6.80361
     8  H   1.0    0.07    1.02    1.43    14.31674   185.38578    -6.25008
     9  H   1.0    0.08    1.04    1.43    14.69789   183.29027    -3.84341
    10  H   1.0    0.07    1.05    1.44    10.91850   183.09100    -7.88511
    11  H   1.0    0.05    1.00    1.43    12.79536   178.80095    -8.25417
    12  H   1.0    0.05    1.01    1.43    13.36883   178.73726    -4.92263
    13  H   1.0    0.15    1.06    1.44     8.82003   177.94117    -7.41895
    14  N   5.0   -0.14    3.53    2.10     7.92023   183.29956    -4.23123
    15  C   4.0    0.03    4.36    4.31     6.25551   184.18079    -2.23086
    16  C   4.0    0.14    3.34    3.06     4.78913   182.03737    -0.84541
    17  O   6.0   -0.30    1.19    1.80     3.87451   182.33409     1.29201
    18  C   4.0   -0.04    4.20    3.99     4.43568   186.21745    -3.31456
    19  C   4.0   -0.03    4.16    3.92     3.58488   185.81727    -6.08582
    20  C   4.0    0.25    3.09    3.02     5.32719   187.09140    -8.13352
    21  O   6.0   -0.26    1.16    1.80     4.39938   188.86676    -9.33315
    22  O   6.0   -0.29    1.24    1.80     7.53460   186.17452    -8.42143
    23  H   1.0    0.11    1.18    1.46     7.52598   184.02069    -6.01938
    24  H   1.0    0.06    1.06    1.44     7.39675   185.06861    -0.74518
    25  H   1.0    0.05    1.03    1.43     2.77193   186.27701    -2.10560
    26  H   1.0    0.06    1.03    1.43     5.35753   188.05670    -3.21158
    27  H   1.0    0.05    1.02    1.43     3.42327   183.80350    -6.52333
    28  H   1.0    0.06    1.03    1.43     1.73813   186.67645    -6.32936
    29  N   5.0   -0.14    3.47    2.06     4.68381   179.87777    -2.15625
    30  C   4.0    0.03    4.31    4.22     3.19640   177.68452    -1.45362
    31  C   4.0    0.15    3.41    3.08     4.79778   175.74005    -0.00406
    32  O   6.0   -0.32    1.33    1.80     4.38695   175.15375     2.18207
    33  C   4.0   -0.08    4.11    3.82     2.06724   176.50918    -3.86058
    34  H   1.0    0.09    1.08    1.44     5.63365   179.78421    -3.83210
    35  H   1.0    0.06    1.06    1.44     1.70354   178.31967    -0.17421
    36  H   1.0    0.04    0.99    1.43     1.11292   174.73310    -3.38272
    37  H   1.0    0.04    1.00    1.43     0.68396   177.77599    -4.66552
    38  H   1.0    0.05    1.00    1.43     3.51755   176.11586    -5.25302
    39  N   5.0   -0.15    3.53    2.10     6.68953   174.78623    -1.29787
    40  C   4.0    0.03    4.37    4.33     8.63836   173.13040    -0.30324
    41  C   4.0    0.16    3.46    3.10     9.43441   174.04925     2.35640
    42  O   6.0   -0.30    1.31    1.80     9.44195   172.61368     4.16373
    43  C   4.0   -0.05    4.29    4.18    10.80798   173.08072    -2.28143
    44  C   4.0   -0.02    4.13    3.86    10.51645   171.12756    -4.48182
    45  C   4.0   -0.07    4.09    3.78     7.81477   170.83023    -5.50586
    46  C   4.0   -0.07    4.10    3.80    12.29471   171.88551    -6.63926
    47  H   1.0    0.08    1.08    1.44     6.99305   175.37279    -3.12177
    48  H   1.0    0.05    1.05    1.44     7.89985   171.20824    -0.02708
    49  H   1.0    0.05    1.04    1.43    10.95752   174.95408    -3.10870
    50  H   1.0    0.04    1.03    1.43    12.57199   172.64582    -1.31850
    51  H   1.0    0.04    1.05    1.44    11.06991   169.27632    -3.74183
    52  H   1.0    0.04    1.00    1.43     7.81434   169.35347    -6.92321
    53  H   1.0    0.04    1.00    1.43     6.48795   170.29311    -4.03242
    54  H   1.0    0.05    1.00    1.43     7.17200   172.57134    -6.40012
    55  H   1.0    0.05    1.00    1.43    12.27324   170.47382    -8.11851
    56  H   1.0    0.05    1.00    1.43    11.68701   173.66940    -7.45541
    57  H   1.0    0.04    1.00    1.43    14.21287   172.09066    -5.94860
    58  N   5.0   -0.14    3.48    2.07    10.04339   176.48897     2.49145
    59  C   4.0    0.03    4.34    4.27    10.22567   178.00888     4.78518
    60  C   4.0    0.17    3.44    3.09     9.13749   176.52381     7.07172
    61  O   6.0   -0.29    1.20    1.80    10.40469   175.95667     8.93316
    62  C   4.0   -0.04    4.26    4.11     8.82740   180.54887     4.26251
    63  C   4.0   -0.05    4.14    3.89     9.71318   182.83695     5.79106
    64  C   4.0   -0.04    4.15    3.89    11.91726   184.19609     4.45109
    65  C   4.0   -0.03    4.10    3.80    12.73419   186.55562     5.92214
    66  N   5.0   -0.12    3.99    2.84    14.81120   188.00952     4.61387
    67  H   1.0    0.09    1.08    1.44    10.08891   177.50431     0.86505
    68  H   1.0    0.05    1.04    1.43    12.24450   178.35360     5.20636
    69  H   1.0    0.06    1.04    1.43     9.14776   180.98505     2.27120
    70  H   1.0    0.06    1.04    1.43     6.83501   180.27420     4.52426
    71  H   1.0    0.05    1.04    1.43     8.15462   184.11746     6.00004
    72  H   1.0    0.05    1.02    1.43    10.31538   182.21846     7.68370
    73  H   1.0    0.05    1.02    1.43    13.51431   182.88290     4.28401
    74  H   1.0    0.06    1.03    1.43    11.30870   184.71112     2.57126
    75  H   1.0    0.05    1.03    1.43    11.13164   187.78452     6.20230
    76  H   1.0    0.05    1.01    1.43    13.42822   185.96341     7.80545
    77  H   1.0    0.06    1.02    1.43    15.34983   189.49280     5.72428
    78  H   1.0    0.06    1.02    1.43    16.34370   186.81509     4.35531
    79  H   1.0    0.06    1.03    1.43    14.17794   188.61914     2.91004
    80  N   5.0   -0.14    3.59    2.15     6.69353   176.07744     6.83592
    81  C   4.0    0.04    4.45    4.46     5.09358   174.97106     8.76641
    82  C   4.0    0.15    3.59    3.16     4.59718   172.12266     8.53201
    83  O   6.0   -0.31    1.39    1.80     4.16412   170.90086    10.42162
    84  C   4.0   -0.02    4.29    4.19     2.49797   176.33403     8.80770
    85  C   4.0   -0.04    4.20    4.00     0.42712   174.86020     7.33412
    86  C   4.0   -0.07    4.11    3.83     2.82967   179.10741     7.77976
    87  C   4.0   -0.07    4.02    3.66    -1.03135   172.93906     8.88117
    88  H   1.0    0.11    1.12    1.45     5.82443   176.26399     5.13162
    89  H   1.0    0.06    1.06    1.44     6.04141   175.25547    10.58022
    90  H   1.0    0.05    1.06    1.44     1.89228   176.41917    10.76896
    91  H   1.0    0.04    1.02    1.43    -0.94854   176.28725     6.66480
    92  H   1.0    0.06    1.04    1.43     1.22758   174.02386     5.63222
    93  H   1.0    0.05    1.00    1.43     1.14288   180.15574     8.29987
    94  H   1.0    0.05    1.01    1.43     4.44774   179.96071     8.63621
    95  H   1.0    0.06    1.00    1.43     2.95810   179.09805     5.74449
    96  H   1.0    0.04    1.00    1.43    -2.36556   171.95200     7.64620
    97  H   1.0    0.06    1.02    1.43     0.17836   171.54585     9.75010
    98  H   1.0    0.05    1.00    1.43    -2.10222   173.85699    10.36261
    99  N   5.0   -0.14    3.49    2.07     4.58263   171.10455     6.18153
   100  C   4.0    0.04    4.44    4.44     4.32673   168.41083     6.07620
   101  C   4.0    0.16    3.47    3.10     6.41564   167.19208     7.68775
   102  O   6.0   -0.29    1.21    1.80     6.04861   165.08482     8.61749
   103  C   4.0   -0.05    4.26    4.12     4.05780   167.09983     3.47684
   104  C   4.0   -0.02    4.18    3.96     2.23819   164.76985     3.67914
   105  C   4.0   -0.08    4.12    3.85    -0.43326   165.53729     3.02071
   106  C   4.0   -0.07    4.11    3.82     2.96134   162.56857     2.03014
   107  H   1.0    0.11    1.07    1.44     5.07147   172.14551     4.63387
   108  H   1.0    0.05    1.08    1.44     2.59346   167.98465     7.14962
   109  H   1.0    0.04    1.03    1.43     3.29354   168.46113     2.14462
   110  H   1.0    0.05    1.06    1.44     5.90856   166.48580     2.83901
   111  H   1.0    0.05    1.06    1.44     2.33507   164.10856     5.64399
   112  H   1.0    0.04    1.01    1.43    -1.75006   164.03267     3.33993
   113  H   1.0    0.04    0.99    1.43    -1.02934   167.17176     4.19449
   114  H   1.0    0.04    1.01    1.43    -0.51529   166.13276     1.06850
   115  H   1.0    0.05    1.01    1.43     1.48221   161.16846     2.02328
   116  H   1.0    0.04    1.00    1.43     3.38071   163.14070     0.10968
   117  H   1.0    0.05    0.99    1.43     4.66182   161.63411     2.79684
   118  N   5.0   -0.14    3.49    2.07     8.53199   168.58315     8.14212
   119  C   4.0    0.05    4.42    4.42    10.52317   167.66354     9.77720
   120  C   4.0    0.16    3.48    3.11    10.04689   168.01379    12.63319
   121  O   6.0   -0.27    1.31    1.80    11.36101   166.99334    14.22940
   122  C   4.0   -0.03    4.32    4.24    13.08389   168.84784     9.20337
   123  C   4.0    0.17    3.30    3.05    15.06771   167.38581    10.70242
   124  O   6.0   -0.27    1.23    1.80    15.17675   165.10945    10.68316
   125  N   5.0   -0.17    3.19    1.95    16.63749   168.80987    12.08872
   126  H   1.0    0.11    1.09    1.44     8.89739   170.12157     7.06417
   127  H   1.0    0.07    1.06    1.44    10.69502   165.59335     9.51100
   128  H   1.0    0.05    1.03    1.43    13.50453   168.62990     7.19567
   129  H   1.0    0.06    1.03    1.43    13.06173   170.84618     9.69053
   130  H   1.0    0.11    1.03    1.43    18.10496   167.95404    12.94796
   131  H   1.0    0.09    1.03    1.43    16.62912   170.69947    11.94490
   132  N   5.0   -0.13    3.49    2.07     8.23138   169.60839    13.31774
   133  C   4.0    0.05    4.52    4.56     7.93869   170.06560    15.95258
   134  C   4.0    0.11    3.37    3.07     5.65457   168.77655    17.08767
   135  O   6.0   -0.30    1.25    1.80     3.51032   169.38579    16.53984
   136  C   4.0   -0.03    4.36    4.31     7.69524   172.87513    16.53027
   137  C   4.0    0.15    3.39    3.08     7.51146   172.77484    19.36622
   138  O   6.0   -0.30    1.34    1.80     5.55320   172.21027    20.45601
   139  N   5.0   -0.18    3.20    1.96     9.70485   172.98730    20.59290
   140  H   1.0    0.13    1.13    1.45     6.81543   170.18115    12.10651
   141  H   1.0    0.07    1.10    1.44     9.66148   169.35099    16.83916
   142  H   1.0    0.05    1.02    1.43     9.36168   173.92847    15.86856
   143  H   1.0    0.07    1.04    1.43     6.00956   173.68277    15.66251
   144  H   1.0    0.11    1.02    1.43     9.75021   172.91173    22.51102
   145  H   1.0    0.09    1.03    1.43    11.28509   173.56010    19.70728
   146  N   5.0   -0.19    3.25    1.97     0.14831   172.50050    20.44963
   147  C   4.0    0.03    4.33    4.25    -1.04252   174.10262    18.53116
   148  C   4.0    0.16    3.47    3.10    -2.77108   172.41248    16.94190
   149  O   6.0   -0.31    1.32    1.80    -4.86490   172.97403    16.17959
   150  C   4.0    0.06    4.16    3.92     0.82791   175.70689    16.86969
   151  O   6.0   -0.26    2.12    1.84     2.19714   174.28667    15.09002
   152  C   4.0   -0.06    4.05    3.70     2.55884   177.37382    18.51882
   153  H   1.0    0.13    1.06    1.44     2.08842   172.39236    20.46026
   154  H   1.0    0.05    1.05    1.44    -2.26575   175.46936    19.52310
   155  H   1.0    0.05    1.05    1.44    -0.40340   176.95793    15.78431
   156  H   1.0    0.16    1.06    1.44     2.40529   172.53578    15.61753
   157  H   1.0    0.05    1.01    1.43     3.75847   178.46896    17.29841
   158  H   1.0    0.05    1.00    1.43     1.42861   178.60443    19.69607
   159  H   1.0    0.06    1.00    1.43     3.73661   176.18554    19.73687
   160  N   5.0   -0.14    3.57    2.13    -1.72397   170.19767    16.49817
   161  C   4.0    0.04    4.38    4.34    -3.13081   168.42327    15.02897
   162  C   4.0    0.09    3.22    3.04    -5.54496   167.73927    16.51843
   163  O   6.0   -0.28    1.21    1.80    -7.56322   168.49458    15.61277
   164  C   4.0   -0.04    4.25    4.10    -1.31089   166.29080    14.10173
   165  C   4.0   -0.02    4.11    3.83    -2.23793   164.74424    11.75319
   166  C   4.0   -0.07    4.09    3.78    -4.53523   165.93111    10.33983
   167  C   4.0   -0.07    4.11    3.82    -0.07449   164.36403     9.90072
   168  H   1.0    0.11    1.11    1.45     0.02422   169.66928    17.09548
   169  H   1.0    0.06    1.08    1.44    -3.85623   169.42571    13.36906
   170  H   1.0    0.07    1.05    1.44     0.40589   167.23125    13.57417
   171  H   1.0    0.05    1.02    1.43    -0.94127   165.01012    15.65507
   172  H   1.0    0.05    1.04    1.43    -2.88460   162.87815    12.43266
   173  H   1.0    0.04    1.00    1.43    -5.11037   164.66210     8.84678
   174  H   1.0    0.06    0.99    1.43    -6.15102   166.19286    11.60849
   175  H   1.0    0.04    1.00    1.43    -4.01111   167.72876     9.53823
   176  H   1.0    0.04    1.00    1.43    -0.70750   163.25887     8.30014
   177  H   1.0    0.05    1.01    1.43     0.56439   166.19957     9.27617
   178  H   1.0    0.07    1.00    1.43     1.49481   163.39034    10.78995
   179  N   5.0   -0.17    3.29    1.98   -10.20136   172.39067    15.76270
   180  C   4.0    0.05    4.29    4.18   -11.15391   172.30981    13.24529
   181  C   4.0    0.10    3.23    3.04   -12.71642   170.00553    12.89457
   182  O   6.0   -0.26    1.13    1.80   -14.41251   169.87926    11.34789
   183  C   4.0   -0.04    4.21    4.02    -9.05366   172.76563    11.26250
   184  C   4.0   -0.04    4.18    3.96    -9.64630   175.20729     9.77993
   185  C   4.0    0.15    3.21    3.04   -10.42218   177.52516    11.35921
   186  O   6.0   -0.28    1.23    1.80   -12.21687   177.52138    12.88984
   187  N   5.0   -0.18    3.17    1.95    -9.13549   179.68788    10.96609
   188  H   1.0    0.14    1.08    1.44    -8.29042   172.42871    16.02450
   189  H   1.0    0.08    1.10    1.44   -12.55705   173.87266    13.06038
   190  H   1.0    0.06    1.04    1.43    -7.28738   173.01294    12.25200
   191  H   1.0    0.05    1.03    1.43    -8.93026   171.22515     9.94236
   192  H   1.0    0.04    1.03    1.43    -8.07640   175.72298     8.58126
   193  H   1.0    0.06    1.02    1.43   -11.30517   174.84817     8.56893
   194  H   1.0    0.08    1.02    1.43    -7.79751   179.78192     9.58142
   195  H   1.0    0.11    1.04    1.43    -9.71112   181.24425    11.80284
   196  N   5.0   -0.20    3.24    1.96   -11.43447   171.29997   -10.88279
   197  C   4.0    0.03    4.18    3.96    -9.55966   171.07118   -12.89900
   198  C   4.0    0.08    3.17    3.03    -8.23565   168.44260   -12.98668
   199  O   6.0   -0.28    1.10    1.80    -7.58561   167.28354   -14.87576
   200  C   4.0   -0.02    4.22    4.04    -7.55434   173.24396   -12.29792
   201  C   4.0   -0.05    4.10    3.80    -5.17678   172.33893   -10.70182
   202  C   4.0   -0.07    4.13    3.87    -8.87733   175.65882   -11.21958
   203  C   4.0   -0.08    4.00    3.62    -3.87489   174.40126    -9.07302
   204  H   1.0    0.08    1.07    1.44   -10.80689   172.36355    -9.44557
   205  H   1.0    0.05    1.04    1.44   -10.41364   171.43414   -14.72893
   206  H   1.0    0.05    1.04    1.43    -6.77815   173.74604   -14.18966
   207  H   1.0    0.04    1.04    1.43    -5.68899   170.80332    -9.51029
   208  H   1.0    0.05    1.01    1.43    -3.80153   171.57995   -12.09888
   209  H   1.0    0.05    1.01    1.43    -7.65418   177.23193   -11.65546
   210  H   1.0    0.05    1.00    1.43   -10.63676   175.91592   -12.24040
   211  H   1.0    0.04    1.01    1.43    -9.14900   175.56559    -9.25155
   212  H   1.0    0.04    1.00    1.43    -2.13103   173.56377    -8.37400
   213  H   1.0    0.04    1.00    1.43    -3.42548   176.02701   -10.20490
   214  H   1.0    0.04    1.01    1.43    -5.08241   174.87645    -7.55271
   215  N   5.0   -0.21    3.34    2.00    -1.49519   163.57143   -23.69880
   216  C   4.0    0.02    4.41    4.40    -0.76348   165.86509   -22.46072
   217  C   4.0    0.16    3.57    3.15     0.79771   165.34801   -20.13862
   218  O   6.0   -0.32    1.35    1.80     2.21252   166.84252   -19.10332
   219  C   4.0    0.05    4.28    4.15    -3.17769   167.21890   -21.52892
   220  O   6.0   -0.23    2.16    1.85    -3.80661   166.31623   -19.11313
   221  C   4.0   -0.07    4.07    3.75    -5.31096   167.16802   -23.52077
   222  H   1.0    0.08    1.04    1.43    -3.28782   162.99271   -23.31745
   223  H   1.0    0.04    1.04    1.43     0.27073   167.08262   -23.81164
   224  H   1.0    0.05    1.04    1.43    -2.67918   169.22282   -21.21257
   225  H   1.0    0.12    1.03    1.43    -4.29038   164.56186   -19.28651
   226  H   1.0    0.06    1.00    1.43    -6.83509   168.37799   -22.89349
   227  H   1.0    0.04    1.00    1.43    -4.56249   167.94553   -25.28731
   228  H   1.0    0.05    1.00    1.43    -6.02367   165.29485   -23.87398
   229  N   5.0   -0.14    3.66    2.22     0.44611   163.13689   -19.21148
   230  C   4.0    0.04    4.46    4.48     1.66936   162.41413   -16.96288
   231  C   4.0    0.08    3.28    3.05     4.26567   161.38928   -17.72890
   232  O   6.0   -0.31    1.23    1.80     6.23652   162.33436   -17.06720
   233  C   4.0   -0.05    4.37    4.32    -0.12244   160.71816   -15.49111
   234  C   4.0   -0.02    4.19    3.98     0.87885   160.27625   -12.84391
   235  C   4.0   -0.08    4.14    3.88     1.61593   162.83815   -11.67632
   236  C   4.0   -0.07    4.08    3.76    -1.02522   158.81593   -11.20802
   237  H   1.0    0.08    1.09    1.44    -0.92067   161.93507   -19.91258
   238  H   1.0    0.06    1.10    1.44     2.03623   164.16284   -15.90090
   239  H   1.0    0.05    1.04    1.43    -1.95351   161.63062   -15.37628
   240  H   1.0    0.04    1.03    1.43    -0.31058   158.90393   -16.44185
   241  H   1.0    0.04    1.05    1.44     2.61352   159.13331   -12.93368
   242  H   1.0    0.04    0.98    1.43     1.87003   162.58537    -9.59587
   243  H   1.0    0.05    1.01    1.43     3.36991   163.53737   -12.37553
   244  H   1.0    0.04    1.00    1.43     0.11216   164.21281   -11.90525
   245  H   1.0    0.04    1.00    1.43    -0.28913   158.52612    -9.31772
   246  H   1.0    0.05    1.00    1.43    -2.79498   159.85857   -11.05368
   247  H   1.0    0.05    1.00    1.43    -1.41720   156.99534   -12.05465
   248  N   5.0   -0.19    3.26    1.97     6.64662   163.24983   -21.91993
   249  C   4.0    0.03    4.18    3.97     7.73663   165.74060   -22.38492
   250  C   4.0    0.15    3.42    3.09     8.77935   167.22358   -20.02191
   251  O   6.0   -0.31    1.30    1.80    11.03699   167.75855   -19.98807
   252  C   4.0   -0.07    4.11    3.82     5.86814   167.27060   -23.90276
   253  H   1.0    0.09    1.04    1.43     4.80464   163.05719   -22.21611
   254  H   1.0    0.04    1.06    1.44     9.45891   165.46728   -23.50526
   255  H   1.0    0.05    1.00    1.43     6.79318   168.94078   -24.67328
   256  H   1.0    0.04    1.01    1.43     5.13005   166.12589   -25.42705
   257  H   1.0    0.06    1.01    1.43     4.32171   167.92127   -22.69870
   258  N   5.0   -0.14    3.49    2.07     7.26545   167.94162   -18.09018
   259  C   4.0    0.04    4.42    4.42     8.42333   169.29929   -16.02560
   260  C   4.0    0.15    3.39    3.08    10.30154   167.63749   -14.61101
   261  O   6.0   -0.32    1.23    1.80    11.73800   168.39649   -12.98878
   262  C   4.0   -0.05    4.13    3.86     6.50871   170.75438   -14.41253
   263  C   4.0   -0.03    4.07    3.74     7.71163   173.00885   -12.84822
   264  C   4.0    0.15    3.10    3.02     6.25120   175.43675   -11.79546
   265  O   6.0   -0.31    1.22    1.80     6.91644   176.67540    -9.91506
   266  N   5.0   -0.19    3.15    1.95     4.19018   176.16952   -13.16155
   267  H   1.0    0.12    1.10    1.44     5.37805   167.59047   -18.14780
   268  H   1.0    0.06    1.05    1.44     9.68304   170.77014   -16.91483
   269  H   1.0    0.05    1.02    1.43     5.11250   171.58429   -15.72506
   270  H   1.0    0.04    1.03    1.43     5.53168   169.54488   -13.11274
   271  H   1.0    0.05    1.02    1.43     8.70164   172.20075   -11.23049
   272  H   1.0    0.07    1.02    1.43     9.21499   173.90429   -13.98650
   273  H   1.0    0.09    1.04    1.43     3.63295   175.25574   -14.66574
   274  H   1.0    0.10    1.03    1.43     3.34699   177.77053   -12.59520
   275  N   5.0   -0.13    3.58    2.14    10.37134   165.26789   -15.47051
   276  C   4.0    0.03    4.32    4.24    11.98591   163.21176   -14.48937
   277  C   4.0    0.15    3.49    3.11    14.57189   163.12245   -15.73032
   278  O   6.0   -0.28    1.25    1.80    16.42315   162.54252   -14.48287
   279  C   4.0   -0.06    4.13    3.87    10.79111   160.60570   -14.84362
   280  H   1.0    0.11    1.15    1.45     8.86163   164.57459   -16.44741
   281  H   1.0    0.05    1.05    1.44    12.30582   163.60343   -12.45794
   282  H   1.0    0.05    1.01    1.43    11.95872   159.22092   -13.89607
   283  H   1.0    0.06    1.00    1.43     8.91040   160.59874   -13.98592
   284  H   1.0    0.06    1.01    1.43    10.65252   160.18880   -16.82222
   285  N   5.0   -0.14    3.53    2.10    14.56617   163.53040   -18.22201
   286  C   4.0    0.04    4.42    4.41    16.84798   163.92316   -19.66900
   287  C   4.0    0.16    3.51    3.12    18.88104   165.43404   -18.23738
   288  O   6.0   -0.24    1.16    1.80    21.26831   165.26749   -18.67832
   289  C   4.0   -0.04    4.36    4.30    16.28982   165.80620   -21.86393
   290  C   4.0   -0.04    4.20    3.99    14.57279   164.68035   -23.87005
   291  C   4.0   -0.01    4.20    4.00    16.02704   162.79102   -25.53579
   292  N   5.0   -0.14    3.39    2.02    14.33540   160.70423   -26.15843
   293  C   4.0    0.10    3.32    3.06    14.11948   159.67233   -28.47099
   294  N   5.0   -0.18    3.19    1.95    15.65028   160.26775   -30.45868
   295  N   5.0   -0.18    3.22    1.96    12.21670   157.97481   -28.73816
   296  H   1.0    0.09    1.10    1.44    12.95420   164.17446   -19.02378
   297  H   1.0    0.06    1.05    1.44    17.62324   162.14909   -20.33311
   298  H   1.0    0.06    1.04    1.43    15.39204   167.46681   -21.07534
   299  H   1.0    0.06    1.03    1.43    18.08659   166.38091   -22.70698
   300  H   1.0    0.05    1.04    1.44    13.06205   163.67385   -22.92659
   301  H   1.0    0.05    1.03    1.43    13.77540   166.19406   -25.00418
   302  H   1.0    0.05    1.02    1.43    16.70259   163.76837   -27.23994
   303  H   1.0    0.05    1.03    1.43    17.65251   162.05068   -24.52942
   304  H   1.0    0.08    1.09    1.44    13.18106   160.18392   -24.81897
   305  H   1.0    0.09    1.02    1.43    17.07108   161.54929   -30.22585
   306  H   1.0    0.10    1.03    1.43    15.35898   159.54130   -32.15241
   307  H   1.0    0.09    1.04    1.43    11.24868   157.39777   -27.25364
   308  H   1.0    0.09    1.03    1.43    12.07147   157.03175   -30.38608
   309  N   5.0   -0.13    3.64    2.19    17.72927   167.16545   -16.78094
   310  C   4.0    0.03    4.37    4.32    19.04484   169.09927   -15.41408
   311  C   4.0    0.17    3.42    3.08    20.81399   167.61058   -13.58360
   312  O   6.0   -0.24    1.18    1.80    23.14638   167.50845   -13.96265
   313  C   4.0   -0.04    4.13    3.87    17.10295   171.02312   -14.40803
   314  C   4.0   -0.03    4.08    3.77    16.25291   172.74402   -16.69360
   315  C   4.0    0.25    2.99    3.02    14.62805   175.35847   -16.45737
   316  O   6.0   -0.26    1.15    1.80    14.16354   176.28138   -18.58367
   317  O   6.0   -0.27    1.11    1.80    13.95811   176.30434   -14.33046
   318  H   1.0    0.09    1.12    1.45    15.83870   167.29236   -16.77599
   319  H   1.0    0.07    1.05    1.44    20.36438   170.09893   -16.68948
   320  H   1.0    0.07    1.04    1.43    15.48285   170.11751   -13.57211
   321  H   1.0    0.05    1.01    1.43    17.97993   172.26654   -12.97779
   322  H   1.0    0.06    1.03    1.43    17.91995   173.41714   -17.66195
   323  H   1.0    0.06    1.03    1.43    15.14343   171.62508   -17.97756
   324  N   5.0   -0.13    3.41    2.03    19.52404   166.41618   -11.65604
   325  C   4.0    0.04    4.26    4.12    20.92703   165.78076    -9.41518
   326  C   4.0    0.10    3.15    3.03    22.30496   163.20680    -9.44659
   327  O   6.0   -0.25    1.12    1.80    22.47744   161.68596   -11.11304
   328  C   4.0    0.02    4.12    3.84    19.46162   166.57706    -7.05409
   329  O   6.0   -0.25    2.05    1.83    21.08983   166.66145    -4.97475
   330  H   1.0    0.09    1.07    1.44    17.65987   166.56126   -11.63344
   331  H   1.0    0.07    1.06    1.44    22.60732   167.10495    -9.45374
   332  H   1.0    0.05    1.02    1.43    18.68084   168.46281    -7.37258
   333  H   1.0    0.03    1.04    1.43    17.92741   165.26336    -6.71588
   334  H   1.0    0.12    1.01    1.43    20.70084   165.39696    -3.70571
   335  N   5.0   -0.20    3.30    1.98    18.84148   158.67689    -1.07620
   336  C   4.0    0.03    4.31    4.22    16.38287   158.03106    -1.92982
   337  C   4.0    0.11    3.21    3.04    15.43116   155.87494    -0.24871
   338  O   6.0   -0.32    1.21    1.80    13.81601   155.92744     0.93862
   339  C   4.0   -0.05    4.38    4.35    16.52063   157.57286    -4.69002
   340  C   4.0   -0.02    4.21    4.02    17.17988   160.01369    -6.11984
   341  C   4.0   -0.06    4.10    3.80    17.28862   159.53991    -8.97978
   342  C   4.0   -0.08    4.16    3.91    15.30450   162.08377    -5.50357
   343  H   1.0    0.08    1.03    1.43    20.31545   158.64201    -2.30887
   344  H   1.0    0.04    1.05    1.44    15.08404   159.65061    -1.47502
   345  H   1.0    0.05    1.04    1.43    17.89323   156.10691    -5.04090
   346  H   1.0    0.04    1.03    1.43    14.66476   156.92971    -5.37752
   347  H   1.0    0.04    1.05    1.44    19.06162   160.65806    -5.48060
   348  H   1.0    0.07    1.00    1.43    17.63171   161.27169   -10.01454
   349  H   1.0    0.06    0.99    1.43    18.87759   158.25773    -9.37866
   350  H   1.0    0.05    1.01    1.43    15.56283   158.69141    -9.59909
   351  H   1.0    0.04    1.01    1.43    14.94234   163.31471    -7.10349
   352  H   1.0    0.04    1.00    1.43    13.44928   161.24099    -5.05218
   353  H   1.0    0.03    1.00    1.43    15.85610   163.20899    -3.88118
   354  N   5.0   -0.19    3.14    1.94    13.49179   157.36529     6.26138
   355  C   4.0    0.04    4.16    3.91    11.08917   158.83189     6.63148
   356  C   4.0    0.09    3.17    3.03     8.54388   157.41325     6.08140
   357  O   6.0   -0.27    1.12    1.80     6.62989   158.03821     7.13139
   358  C   4.0   -0.04    4.28    4.15    11.18434   161.26363     5.09865
   359  C   4.0   -0.04    4.00    3.63    10.16212   161.09155     2.33568
   360  S   6.0   -0.06    2.37    3.10    10.01592   164.35894     0.91190
   361  C   4.0   -0.07    3.84    3.38    13.48505   165.18686     0.73945
   362  H   1.0    0.12    1.06    1.44    14.04789   157.25591     4.48188
   363  H   1.0    0.07    1.06    1.44    11.06238   159.33251     8.62874
   364  H   1.0    0.06    1.03    1.43    10.02266   162.69622     6.07919
   365  H   1.0    0.05    1.02    1.43    13.14777   161.93807     5.11070
   366  H   1.0    0.05    1.06    1.44    11.36449   159.92467     1.18205
   367  H   1.0    0.05    1.08    1.44     8.25537   160.44217     2.33935
   368  H   1.0    0.04    1.04    1.43    13.60786   166.74211    -0.55898
   369  H   1.0    0.05    1.02    1.43    14.17439   165.69981     2.60924
   370  H   1.0    0.04    1.03    1.43    14.49239   163.53275     0.07403
   371  H   1.0    0.07    1.05    1.44     5.88295   167.37344    18.33274
   372  H   1.0    0.10    1.07    1.44    -0.27494   173.06004    21.99893
   373  H   1.0    0.06    1.04    1.43    -5.41742   166.74025    18.11742
   374  H   1.0    0.11    1.08    1.44   -10.77290   173.79057    16.54127
   375  H   1.0    0.08    1.05    1.44   -12.39264   168.47419    13.95344
   376  H   1.0    0.10    1.07    1.44   -12.84587   172.02148   -11.49917
   377  H   1.0    0.06    1.05    1.44    -7.83562   167.53207   -11.37983
   378  H   1.0    0.09    1.08    1.44    -1.39252   163.77814   -25.38382
   379  H   1.0    0.05    1.05    1.44     4.38990   159.86073   -18.83305
   380  H   1.0    0.09    1.07    1.44     7.39365   162.10526   -22.93208
   381  H   1.0    0.06    1.06    1.44    23.22640   162.60951    -7.90865
   382  H   1.0    0.09    1.08    1.44    18.83535   160.26982    -0.48031
   383  H   1.0    0.07    1.08    1.44    16.35957   154.22955    -0.20634
   384  H   1.0    0.11    1.06    1.44    14.74913   158.10555     7.13527
   385  H   1.0    0.07    1.04    1.43     8.50805   155.97970     4.85067

  Z AO/shell   Hii/eV     exponent
  1     Wed Apr 25 08:07:45 CEST 2018   EN: 2.200 GM2: 0.406  GM3: 0.0800  RAES: 1.40
     1s    -10.707211    1.230000
  6     Wed Apr 25 08:07:45 CEST 2018   EN: 2.550 GM2: 0.538  GM3: 0.1500  RAES: 3.00
     2s    -13.970922    2.096432
     2p    -10.063292    1.800000
  7     Wed Apr 25 08:07:45 CEST 2018   EN: 3.040 GM2: 0.461  GM3:-0.0640  RAES: 1.90
     2s    -16.686243    2.339881
     2p    -12.523956    2.014332
  8     Wed Apr 25 08:07:45 CEST 2018   EN: 3.440 GM2: 0.452  GM3:-0.0517  RAES: 1.80
     2s    -20.229985    2.439742
     2p    -15.503117    2.137023
 16     Tue Apr 24 11:44:34 CEST 2018   EN: 2.580 GM2: 0.340  GM3:-0.0502  RAES: 3.10
     3s    -20.029654    1.981333
     3p    -11.377694    2.025643
     3d     -0.420282    1.702555
 no old-style atom pair restraining (fixing) potential

molecular fragmentation (1/2 indicates fragments):
111111111111111111111111111111111111111111111111111111111111111111111111
111111111111111111111111111111111111111111111111111111111111111111111111
122222222222222222222222222222222222222222222222222222222222222222222222
222222222222222222222222222222222222222222222222222222222222222222222222
222222222222222222222222222222222222222222222222222222222222222222222222
2222222222122222222222222
# atoms in fragment 1/2:   146   239
 fragment masses (1/2) :      986.15     1570.95
CMA distance (Bohr)    :  14.188
constraining FC (au)   :  0.0500
           ------------------------------------------------- 
          |        Self-Consistent Charge Iterations        |
           ------------------------------------------------- 

 Ncao       : 922
 Nao        : 921
 Nshell     : 563
 Nel        : 1018
 T(el)      :   500.0
 intcut     :    35.0
 scfconv/Eh :  0.100E-06
   qconv/e  :  0.100E-04
 intneglect :  0.100E-08
 broydamp   :      0.400
 iter      E             dE          RMSdq      gap      omega  full diag
   1   -582.7671884 -0.582767E+03  0.455E+00    2.71       0.0  T
   2   -584.1682931 -0.140110E+01  0.211E+00    1.67       1.0  T
   3   -584.2546723 -0.863792E-01  0.120E+00    1.61       1.0  T
   4   -584.3468863 -0.922140E-01  0.254E-01    0.97       1.0  T
   5   -584.3523718 -0.548549E-02  0.120E-01    1.19       1.0  T
   6   -584.3532516 -0.879770E-03  0.497E-02    1.18       1.0  T
   7   -584.3534517 -0.200142E-03  0.209E-02    1.17       1.0  T
   8   -584.3534733 -0.216353E-04  0.910E-03    1.17       1.0  T
   9   -584.3534798 -0.646352E-05  0.420E-03    1.17       1.2  T
  10   -584.3534808 -0.100789E-05  0.191E-03    1.17       2.7  T
  11   -584.3534811 -0.257907E-06  0.916E-04    1.17       5.6  T
  12   -584.3534811 -0.451134E-07  0.384E-04    1.17      13.3  T
  13   -584.3534811 -0.790340E-08  0.197E-04    1.17      25.8  T
  14   -584.3534811 -0.206717E-08  0.756E-05    1.17      67.4  T
  15   -584.3534811 -0.323666E-09  0.314E-05    1.17     162.3  T
speedup  1.91
cpu  time for SCC   16.18 s
wall time for SCC    8.49 s

   *** convergence criteria satisfied after 15 iterations ***

          eigenvalues
 #    :         497        498        499        500        501        502        503        504
 occ. :        2.000      2.000      2.000      2.000      2.000      2.000      2.000      2.000
 eps  :       -10.506    -10.485    -10.470    -10.354    -10.250    -10.077    -10.013     -9.941
 #    :         505        506        507        508        509        510        511        512
 occ. :        2.000      2.000      2.000      2.000      2.000      0.000      0.000      0.000
 eps  :        -9.864     -9.845     -9.754     -9.696     -9.204     -8.032     -7.915     -7.646
 #    :         513        514        515        516        517        518        519        520
 occ. :        0.000      0.000      0.000      0.000      0.000      0.000      0.000      0.000
 eps  :        -7.493     -7.484     -7.448     -7.031     -6.709     -6.623     -6.593     -6.535


   #   Z            q   n(s)   n(p)   n(d)      C6AA      α(0)
   1   7 N     -0.162  1.236  3.926  0.000    24.500     7.351
   2   6 C     -0.037  1.080  2.957  0.000    21.248     6.566
   3   6 C      0.271  1.031  2.698  0.000    22.417     7.754
   4   8 O     -0.453  1.722  4.732  0.000    22.775     6.398
   5   6 C      0.065  1.038  2.897  0.000    19.682     6.353
   6   8 O     -0.462  1.688  4.774  0.000    22.082     6.344
   7   1 H      0.301  0.699  0.000  0.000     0.710     1.320
   8   1 H      0.306  0.694  0.000  0.000     0.695     1.306
   9   1 H      0.323  0.677  0.000  0.000     0.648     1.262
  10   1 H      0.112  0.888  0.000  0.000     1.683     2.029
  11   1 H      0.049  0.951  0.000  0.000     2.335     2.390
  12   1 H      0.089  0.911  0.000  0.000     1.894     2.152
  13   1 H      0.334  0.666  0.000  0.000     0.626     1.243
  14   7 N     -0.196  1.280  3.915  0.000    25.245     7.462
  15   6 C      0.010  1.070  2.919  0.000    20.412     6.434
  16   6 C      0.264  1.047  2.689  0.000    22.548     7.775
  17   8 O     -0.477  1.756  4.720  0.000    23.272     6.468
  18   6 C     -0.063  1.056  3.006  0.000    21.711     6.635
  19   6 C     -0.106  1.071  3.035  0.000    22.536     6.760
  20   6 C      0.364  1.030  2.607  0.000    20.834     7.469
  21   8 O     -0.620  1.782  4.839  0.000    26.627     6.918
  22   8 O     -0.624  1.768  4.856  0.000    26.715     6.930
  23   1 H      0.243  0.757  0.000  0.000     0.911     1.495
  24   1 H      0.093  0.907  0.000  0.000     1.851     2.128
  25   1 H      0.058  0.942  0.000  0.000     2.223     2.332
  26   1 H      0.051  0.949  0.000  0.000     2.302     2.373
  27   1 H      0.036  0.964  0.000  0.000     2.510     2.477
  28   1 H      0.030  0.970  0.000  0.000     2.590     2.517
  29   7 N     -0.170  1.242  3.928  0.000    24.689     7.380
  30   6 C      0.011  1.064  2.925  0.000    20.403     6.433
  31   6 C      0.270  1.040  2.691  0.000    22.445     7.758
  32   8 O     -0.488  1.734  4.754  0.000    23.510     6.501
  33   6 C     -0.139  1.046  3.093  0.000    23.228     6.872
  34   1 H      0.210  0.790  0.000  0.000     1.056     1.609
  35   1 H      0.090  0.910  0.000  0.000     1.882     2.145
  36   1 H      0.070  0.930  0.000  0.000     2.080     2.256
  37   1 H      0.073  0.927  0.000  0.000     2.048     2.238
  38   1 H      0.067  0.933  0.000  0.000     2.113     2.273
  39   7 N     -0.163  1.247  3.916  0.000    24.515     7.354
  40   6 C      0.007  1.072  2.922  0.000    20.477     6.445
  41   6 C      0.276  1.040  2.684  0.000    22.331     7.738
  42   8 O     -0.489  1.746  4.743  0.000    23.547     6.506
  43   6 C     -0.095  1.070  3.026  0.000    22.320     6.726
  44   6 C     -0.015  1.064  2.952  0.000    20.818     6.490
  45   6 C     -0.122  1.042  3.080  0.000    22.895     6.823
  46   6 C     -0.118  1.040  3.078  0.000    22.818     6.811
  47   1 H      0.226  0.774  0.000  0.000     0.984     1.554
  48   1 H      0.080  0.920  0.000  0.000     1.980     2.200
  49   1 H      0.081  0.919  0.000  0.000     1.973     2.196
  50   1 H      0.066  0.934  0.000  0.000     2.130     2.282
  51   1 H      0.041  0.959  0.000  0.000     2.432     2.439
  52   1 H      0.043  0.957  0.000  0.000     2.409     2.427
  53   1 H      0.045  0.955  0.000  0.000     2.385     2.415
  54   1 H      0.042  0.958  0.000  0.000     2.419     2.432
  55   1 H      0.040  0.960  0.000  0.000     2.450     2.448
  56   1 H      0.046  0.954  0.000  0.000     2.376     2.411
  57   1 H      0.043  0.957  0.000  0.000     2.413     2.429
  58   7 N     -0.177  1.249  3.928  0.000    24.823     7.400
  59   6 C      0.001  1.082  2.917  0.000    20.577     6.461
  60   6 C      0.285  1.037  2.678  0.000    22.174     7.711
  61   8 O     -0.500  1.751  4.750  0.000    23.787     6.539
  62   6 C     -0.088  1.061  3.028  0.000    22.183     6.705
  63   6 C     -0.075  1.051  3.025  0.000    21.940     6.669
  64   6 C     -0.099  1.059  3.040  0.000    22.397     6.738
  65   6 C     -0.054  1.064  2.990  0.000    21.648     6.643
  66   7 N     -0.152  1.231  3.921  0.000    24.281     7.318
  67   1 H      0.214  0.786  0.000  0.000     1.036     1.594
  68   1 H      0.091  0.909  0.000  0.000     1.870     2.138
  69   1 H      0.073  0.927  0.000  0.000     2.057     2.243
  70   1 H      0.060  0.940  0.000  0.000     2.199     2.319
  71   1 H      0.067  0.933  0.000  0.000     2.118     2.276
  72   1 H      0.053  0.947  0.000  0.000     2.282     2.362
  73   1 H      0.083  0.917  0.000  0.000     1.948     2.183
  74   1 H      0.086  0.914  0.000  0.000     1.919     2.166
  75   1 H      0.116  0.884  0.000  0.000     1.647     2.007
  76   1 H      0.115  0.885  0.000  0.000     1.656     2.013
  77   1 H      0.302  0.698  0.000  0.000     0.708     1.318
  78   1 H      0.304  0.696  0.000  0.000     0.702     1.313
  79   1 H      0.299  0.701  0.000  0.000     0.716     1.326
  80   7 N     -0.176  1.243  3.934  0.000    24.817     7.399
  81   6 C      0.013  1.066  2.921  0.000    20.365     6.427
  82   6 C      0.280  1.046  2.673  0.000    22.254     7.726
  83   8 O     -0.478  1.739  4.739  0.000    23.293     6.471
  84   6 C     -0.032  1.077  2.955  0.000    21.113     6.536
  85   6 C     -0.072  1.056  3.016  0.000    21.888     6.662
  86   6 C     -0.128  1.046  3.082  0.000    23.028     6.844
  87   6 C     -0.104  1.033  3.071  0.000    22.549     6.772
  88   1 H      0.223  0.777  0.000  0.000     0.995     1.562
  89   1 H      0.076  0.924  0.000  0.000     2.022     2.224
  90   1 H      0.062  0.938  0.000  0.000     2.176     2.307
  91   1 H      0.045  0.955  0.000  0.000     2.387     2.416
  92   1 H      0.046  0.954  0.000  0.000     2.372     2.409
  93   1 H      0.054  0.946  0.000  0.000     2.270     2.356
  94   1 H      0.060  0.940  0.000  0.000     2.195     2.317
  95   1 H      0.058  0.942  0.000  0.000     2.224     2.332
  96   1 H      0.030  0.970  0.000  0.000     2.587     2.515
  97   1 H      0.038  0.962  0.000  0.000     2.472     2.459
  98   1 H      0.030  0.970  0.000  0.000     2.583     2.513
  99   7 N     -0.183  1.251  3.932  0.000    24.966     7.421
 100   6 C      0.026  1.060  2.914  0.000    20.130     6.387
 101   6 C      0.277  1.051  2.672  0.000    22.313     7.735
 102   8 O     -0.495  1.761  4.734  0.000    23.674     6.523
 103   6 C     -0.076  1.062  3.014  0.000    21.963     6.673
 104   6 C     -0.013  1.056  2.956  0.000    20.770     6.482
 105   6 C     -0.116  1.042  3.074  0.000    22.776     6.803
 106   6 C     -0.106  1.038  3.068  0.000    22.571     6.773
 107   1 H      0.221  0.779  0.000  0.000     1.007     1.572
 108   1 H      0.077  0.923  0.000  0.000     2.016     2.220
 109   1 H      0.064  0.936  0.000  0.000     2.149     2.292
 110   1 H      0.055  0.945  0.000  0.000     2.258     2.350
 111   1 H      0.042  0.958  0.000  0.000     2.425     2.435
 112   1 H      0.043  0.957  0.000  0.000     2.405     2.425
 113   1 H      0.032  0.968  0.000  0.000     2.556     2.500
 114   1 H      0.052  0.948  0.000  0.000     2.294     2.368
 115   1 H      0.046  0.954  0.000  0.000     2.372     2.408
 116   1 H      0.049  0.951  0.000  0.000     2.336     2.390
 117   1 H      0.016  0.984  0.000  0.000     2.791     2.613
 118   7 N     -0.202  1.250  3.952  0.000    25.398     7.485
 119   6 C      0.039  1.053  2.908  0.000    19.917     6.355
 120   6 C      0.274  1.044  2.682  0.000    22.376     7.748
 121   8 O     -0.492  1.747  4.745  0.000    23.601     6.514
 122   6 C     -0.103  1.061  3.042  0.000    22.455     6.745
 123   6 C      0.302  1.030  2.668  0.000    21.873     7.658
 124   8 O     -0.489  1.745  4.745  0.000    23.549     6.506
 125   7 N     -0.296  1.273  4.023  0.000    27.628     7.806
 126   1 H      0.224  0.776  0.000  0.000     0.994     1.561
 127   1 H      0.070  0.930  0.000  0.000     2.083     2.257
 128   1 H      0.084  0.916  0.000  0.000     1.938     2.177
 129   1 H      0.076  0.924  0.000  0.000     2.026     2.226
 130   1 H      0.236  0.764  0.000  0.000     0.939     1.518
 131   1 H      0.236  0.764  0.000  0.000     0.940     1.519
 132   7 N     -0.179  1.252  3.927  0.000    24.875     7.407
 133   6 C      0.036  1.043  2.921  0.000    19.929     6.349
 134   6 C      0.212  1.084  2.705  0.000    23.516     7.942
 135   8 O     -0.339  1.729  4.610  0.000    20.502     6.071
 136   6 C     -0.118  1.064  3.054  0.000    22.741     6.787
 137   6 C      0.292  1.036  2.673  0.000    22.057     7.693
 138   8 O     -0.496  1.747  4.749  0.000    23.692     6.526
 139   7 N     -0.282  1.272  4.011  0.000    27.293     7.759
 140   1 H      0.231  0.769  0.000  0.000     0.961     1.535
 141   1 H      0.090  0.910  0.000  0.000     1.881     2.145
 142   1 H      0.084  0.916  0.000  0.000     1.942     2.179
 143   1 H      0.114  0.886  0.000  0.000     1.662     2.016
 144   1 H      0.241  0.759  0.000  0.000     0.918     1.501
 145   1 H      0.242  0.758  0.000  0.000     0.915     1.499
 146   7 N     -0.418  1.330  4.088  0.000    30.881     8.253
 147   6 C      0.012  1.073  2.915  0.000    20.395     6.432
 148   6 C      0.275  1.039  2.686  0.000    22.351     7.743
 149   8 O     -0.505  1.741  4.765  0.000    23.903     6.555
 150   6 C      0.114  1.049  2.837  0.000    18.830     6.198
 151   8 O     -0.477  1.708  4.769  0.000    22.404     6.390
 152   6 C     -0.131  1.044  3.087  0.000    23.078     6.851
 153   1 H      0.189  0.811  0.000  0.000     1.164     1.690
 154   1 H      0.026  0.974  0.000  0.000     2.651     2.546
 155   1 H      0.027  0.973  0.000  0.000     2.636     2.539
 156   1 H      0.327  0.673  0.000  0.000     0.646     1.262
 157   1 H      0.066  0.934  0.000  0.000     2.127     2.280
 158   1 H      0.045  0.955  0.000  0.000     2.382     2.413
 159   1 H      0.052  0.948  0.000  0.000     2.298     2.371
 160   7 N     -0.170  1.246  3.923  0.000    24.670     7.377
 161   6 C      0.022  1.063  2.915  0.000    20.199     6.398
 162   6 C      0.191  1.085  2.724  0.000    23.922     8.010
 163   8 O     -0.339  1.766  4.574  0.000    20.506     6.071
 164   6 C     -0.085  1.066  3.019  0.000    22.117     6.696
 165   6 C     -0.013  1.066  2.946  0.000    20.775     6.484
 166   6 C     -0.119  1.044  3.075  0.000    22.838     6.815
 167   6 C     -0.109  1.040  3.069  0.000    22.627     6.782
 168   1 H      0.239  0.761  0.000  0.000     0.925     1.507
 169   1 H      0.085  0.915  0.000  0.000     1.924     2.169
 170   1 H      0.071  0.929  0.000  0.000     2.072     2.251
 171   1 H      0.050  0.950  0.000  0.000     2.319     2.381
 172   1 H      0.029  0.971  0.000  0.000     2.602     2.522
 173   1 H      0.049  0.951  0.000  0.000     2.330     2.387
 174   1 H      0.034  0.966  0.000  0.000     2.531     2.488
 175   1 H      0.044  0.956  0.000  0.000     2.390     2.418
 176   1 H      0.050  0.950  0.000  0.000     2.315     2.379
 177   1 H      0.043  0.957  0.000  0.000     2.411     2.428
 178   1 H      0.037  0.963  0.000  0.000     2.485     2.465
 179   7 N     -0.394  1.308  4.086  0.000    30.207     8.163
 180   6 C      0.036  1.049  2.915  0.000    19.982     6.367
 181   6 C      0.207  1.084  2.708  0.000    23.603     7.957
 182   8 O     -0.413  1.750  4.663  0.000    21.943     6.280
 183   6 C     -0.058  1.055  3.002  0.000    21.611     6.619
 184   6 C     -0.099  1.063  3.036  0.000    22.380     6.736
 185   6 C      0.283  1.052  2.665  0.000    22.199     7.714
 186   8 O     -0.520  1.770  4.749  0.000    24.222     6.599
 187   7 N     -0.287  1.270  4.017  0.000    27.406     7.775
 188   1 H      0.189  0.811  0.000  0.000     1.166     1.691
 189   1 H      0.086  0.914  0.000  0.000     1.915     2.164
 190   1 H      0.073  0.927  0.000  0.000     2.056     2.242
 191   1 H      0.052  0.948  0.000  0.000     2.300     2.372
 192   1 H      0.070  0.930  0.000  0.000     2.086     2.258
 193   1 H      0.072  0.928  0.000  0.000     2.066     2.248
 194   1 H      0.234  0.766  0.000  0.000     0.947     1.525
 195   1 H      0.236  0.764  0.000  0.000     0.938     1.517
 196   7 N     -0.398  1.322  4.076  0.000    30.318     8.178
 197   6 C      0.029  1.070  2.902  0.000    20.121     6.393
 198   6 C      0.197  1.095  2.708  0.000    23.789     7.987
 199   8 O     -0.374  1.757  4.617  0.000    21.175     6.169
 200   6 C     -0.027  1.094  2.932  0.000    21.027     6.525
 201   6 C     -0.068  1.059  3.009  0.000    21.807     6.651
 202   6 C     -0.116  1.036  3.080  0.000    22.789     6.808
 203   6 C     -0.120  1.036  3.084  0.000    22.864     6.819
 204   1 H      0.181  0.819  0.000  0.000     1.208     1.721
 205   1 H      0.044  0.956  0.000  0.000     2.397     2.421
 206   1 H      0.026  0.974  0.000  0.000     2.648     2.545
 207   1 H      0.045  0.955  0.000  0.000     2.389     2.417
 208   1 H      0.023  0.977  0.000  0.000     2.686     2.563
 209   1 H      0.053  0.947  0.000  0.000     2.279     2.361
 210   1 H      0.045  0.955  0.000  0.000     2.388     2.416
 211   1 H      0.058  0.942  0.000  0.000     2.218     2.329
 212   1 H      0.050  0.950  0.000  0.000     2.322     2.383
 213   1 H      0.045  0.955  0.000  0.000     2.381     2.413
 214   1 H      0.055  0.945  0.000  0.000     2.253     2.347
 215   7 N     -0.393  1.309  4.083  0.000    30.173     8.158
 216   6 C      0.010  1.060  2.930  0.000    20.406     6.432
 217   6 C      0.281  1.028  2.690  0.000    22.238     7.725
 218   8 O     -0.509  1.734  4.775  0.000    23.972     6.565
 219   6 C      0.111  1.049  2.840  0.000    18.836     6.194
 220   8 O     -0.473  1.736  4.737  0.000    22.322     6.378
 221   6 C     -0.133  1.045  3.089  0.000    23.126     6.858
 222   1 H      0.165  0.835  0.000  0.000     1.306     1.790
 223   1 H      0.043  0.957  0.000  0.000     2.412     2.429
 224   1 H      0.032  0.968  0.000  0.000     2.554     2.499
 225   1 H      0.320  0.680  0.000  0.000     0.663     1.279
 226   1 H      0.055  0.945  0.000  0.000     2.253     2.347
 227   1 H      0.052  0.948  0.000  0.000     2.290     2.367
 228   1 H      0.060  0.940  0.000  0.000     2.201     2.320
 229   7 N     -0.142  1.230  3.912  0.000    24.075     7.287
 230   6 C      0.012  1.055  2.933  0.000    20.360     6.421
 231   6 C      0.198  1.088  2.714  0.000    23.784     7.987
 232   8 O     -0.337  1.736  4.601  0.000    20.467     6.066
 233   6 C     -0.083  1.058  3.025  0.000    22.070     6.686
 234   6 C     -0.013  1.057  2.956  0.000    20.776     6.483
 235   6 C     -0.123  1.044  3.079  0.000    22.915     6.826
 236   6 C     -0.120  1.042  3.078  0.000    22.854     6.817
 237   1 H      0.221  0.779  0.000  0.000     1.006     1.571
 238   1 H      0.100  0.900  0.000  0.000     1.783     2.088
 239   1 H      0.070  0.930  0.000  0.000     2.083     2.257
 240   1 H      0.065  0.935  0.000  0.000     2.140     2.288
 241   1 H      0.036  0.964  0.000  0.000     2.505     2.475
 242   1 H      0.038  0.962  0.000  0.000     2.470     2.458
 243   1 H      0.043  0.957  0.000  0.000     2.406     2.426
 244   1 H      0.045  0.955  0.000  0.000     2.382     2.413
 245   1 H      0.043  0.957  0.000  0.000     2.403     2.424
 246   1 H      0.043  0.957  0.000  0.000     2.415     2.430
 247   1 H      0.045  0.955  0.000  0.000     2.384     2.415
 248   7 N     -0.389  1.307  4.082  0.000    30.082     8.146
 249   6 C      0.025  1.063  2.912  0.000    20.177     6.400
 250   6 C      0.255  1.066  2.679  0.000    22.709     7.803
 251   8 O     -0.509  1.754  4.756  0.000    23.995     6.568
 252   6 C     -0.125  1.042  3.084  0.000    22.957     6.831
 253   1 H      0.153  0.847  0.000  0.000     1.380     1.840
 254   1 H      0.057  0.943  0.000  0.000     2.230     2.336
 255   1 H      0.036  0.964  0.000  0.000     2.501     2.473
 256   1 H      0.065  0.935  0.000  0.000     2.139     2.287
 257   1 H      0.049  0.951  0.000  0.000     2.329     2.386
 258   7 N     -0.190  1.255  3.936  0.000    25.128     7.445
 259   6 C      0.033  1.059  2.908  0.000    20.020     6.370
 260   6 C      0.281  1.038  2.681  0.000    22.237     7.721
 261   8 O     -0.499  1.743  4.756  0.000    23.768     6.536
 262   6 C     -0.068  1.056  3.012  0.000    21.810     6.651
 263   6 C     -0.096  1.068  3.027  0.000    22.349     6.735
 264   6 C      0.279  1.064  2.657  0.000    22.280     7.728
 265   8 O     -0.486  1.741  4.746  0.000    23.486     6.498
 266   7 N     -0.285  1.260  4.024  0.000    27.348     7.767
 267   1 H      0.240  0.760  0.000  0.000     0.924     1.506
 268   1 H      0.056  0.944  0.000  0.000     2.244     2.343
 269   1 H      0.060  0.940  0.000  0.000     2.194     2.316
 270   1 H      0.075  0.925  0.000  0.000     2.028     2.227
 271   1 H      0.081  0.919  0.000  0.000     1.969     2.194
 272   1 H      0.053  0.947  0.000  0.000     2.287     2.365
 273   1 H      0.228  0.772  0.000  0.000     0.976     1.547
 274   1 H      0.236  0.764  0.000  0.000     0.941     1.520
 275   7 N     -0.212  1.265  3.947  0.000    25.617     7.517
 276   6 C      0.019  1.064  2.917  0.000    20.261     6.411
 277   6 C      0.273  1.039  2.688  0.000    22.391     7.749
 278   8 O     -0.482  1.756  4.726  0.000    23.391     6.484
 279   6 C     -0.136  1.045  3.091  0.000    23.172     6.862
 280   1 H      0.239  0.761  0.000  0.000     0.928     1.509
 281   1 H      0.067  0.933  0.000  0.000     2.118     2.276
 282   1 H      0.074  0.926  0.000  0.000     2.047     2.237
 283   1 H      0.082  0.918  0.000  0.000     1.962     2.190
 284   1 H      0.083  0.917  0.000  0.000     1.950     2.184
 285   7 N     -0.184  1.245  3.939  0.000    24.987     7.424
 286   6 C      0.013  1.063  2.923  0.000    20.353     6.423
 287   6 C      0.272  1.052  2.677  0.000    22.410     7.753
 288   8 O     -0.525  1.792  4.733  0.000    24.343     6.615
 289   6 C     -0.079  1.059  3.020  0.000    21.982     6.671
 290   6 C     -0.083  1.055  3.028  0.000    22.077     6.689
 291   6 C     -0.033  1.058  2.976  0.000    21.254     6.579
 292   7 N     -0.137  1.210  3.927  0.000    23.959     7.270
 293   6 C      0.222  1.032  2.745  0.000    23.313     7.905
 294   7 N     -0.245  1.230  4.016  0.000    26.402     7.631
 295   7 N     -0.260  1.239  4.020  0.000    26.738     7.680
 296   1 H      0.221  0.779  0.000  0.000     1.007     1.572
 297   1 H      0.094  0.906  0.000  0.000     1.837     2.120
 298   1 H      0.064  0.936  0.000  0.000     2.158     2.297
 299   1 H      0.062  0.938  0.000  0.000     2.173     2.305
 300   1 H      0.074  0.926  0.000  0.000     2.046     2.237
 301   1 H      0.081  0.919  0.000  0.000     1.967     2.193
 302   1 H      0.093  0.907  0.000  0.000     1.852     2.128
 303   1 H      0.087  0.913  0.000  0.000     1.912     2.162
 304   1 H      0.234  0.766  0.000  0.000     0.948     1.525
 305   1 H      0.243  0.757  0.000  0.000     0.912     1.496
 306   1 H      0.259  0.741  0.000  0.000     0.850     1.445
 307   1 H      0.254  0.746  0.000  0.000     0.868     1.459
 308   1 H      0.256  0.744  0.000  0.000     0.861     1.453
 309   7 N     -0.168  1.238  3.930  0.000    24.634     7.371
 310   6 C      0.025  1.067  2.908  0.000    20.173     6.397
 311   6 C      0.272  1.058  2.670  0.000    22.408     7.752
 312   8 O     -0.470  1.771  4.700  0.000    23.141     6.450
 313   6 C     -0.069  1.061  3.007  0.000    21.823     6.652
 314   6 C     -0.099  1.078  3.021  0.000    22.416     6.745
 315   6 C      0.358  1.044  2.598  0.000    20.930     7.486
 316   8 O     -0.632  1.779  4.853  0.000    26.916     6.956
 317   8 O     -0.634  1.780  4.854  0.000    26.982     6.964
 318   1 H      0.205  0.795  0.000  0.000     1.081     1.629
 319   1 H      0.057  0.943  0.000  0.000     2.240     2.341
 320   1 H      0.067  0.933  0.000  0.000     2.123     2.279
 321   1 H      0.048  0.952  0.000  0.000     2.351     2.398
 322   1 H      0.019  0.981  0.000  0.000     2.745     2.591
 323   1 H      0.021  0.979  0.000  0.000     2.718     2.578
 324   7 N     -0.169  1.240  3.929  0.000    24.657     7.375
 325   6 C      0.019  1.066  2.915  0.000    20.272     6.413
 326   6 C      0.208  1.074  2.718  0.000    23.579     7.952
 327   8 O     -0.358  1.750  4.608  0.000    20.853     6.122
 328   6 C      0.061  1.037  2.901  0.000    19.759     6.367
 329   8 O     -0.464  1.709  4.754  0.000    22.122     6.349
 330   1 H      0.204  0.796  0.000  0.000     1.084     1.631
 331   1 H      0.100  0.900  0.000  0.000     1.786     2.090
 332   1 H      0.064  0.936  0.000  0.000     2.156     2.296
 333   1 H      0.073  0.927  0.000  0.000     2.054     2.241
 334   1 H      0.341  0.659  0.000  0.000     0.609     1.226
 335   7 N     -0.391  1.302  4.088  0.000    30.112     8.150
 336   6 C      0.030  1.054  2.916  0.000    20.086     6.383
 337   6 C      0.239  1.051  2.710  0.000    23.009     7.856
 338   8 O     -0.301  1.664  4.637  0.000    19.794     5.965
 339   6 C     -0.069  1.053  3.016  0.000    21.807     6.646
 340   6 C     -0.009  1.058  2.951  0.000    20.707     6.472
 341   6 C     -0.114  1.041  3.073  0.000    22.733     6.798
 342   6 C     -0.116  1.041  3.075  0.000    22.776     6.805
 343   1 H      0.164  0.836  0.000  0.000     1.307     1.791
 344   1 H      0.025  0.975  0.000  0.000     2.660     2.551
 345   1 H      0.049  0.951  0.000  0.000     2.329     2.387
 346   1 H      0.037  0.963  0.000  0.000     2.486     2.466
 347   1 H      0.022  0.978  0.000  0.000     2.708     2.574
 348   1 H      0.045  0.955  0.000  0.000     2.386     2.416
 349   1 H      0.028  0.972  0.000  0.000     2.608     2.526
 350   1 H      0.047  0.953  0.000  0.000     2.353     2.399
 351   1 H      0.045  0.955  0.000  0.000     2.384     2.414
 352   1 H      0.048  0.952  0.000  0.000     2.346     2.395
 353   1 H      0.040  0.960  0.000  0.000     2.445     2.445
 354   7 N     -0.404  1.331  4.073  0.000    30.476     8.199
 355   6 C      0.029  1.068  2.903  0.000    20.120     6.391
 356   6 C      0.207  1.087  2.707  0.000    23.611     7.957
 357   8 O     -0.357  1.749  4.608  0.000    20.848     6.122
 358   6 C     -0.050  1.057  2.993  0.000    21.464     6.594
 359   6 C     -0.018  1.075  2.943  0.000    20.910     6.513
 360  16 S     -0.218  1.931  4.243  0.043   150.338    20.637
 361   6 C     -0.069  1.064  3.005  0.000    21.908     6.680
 362   1 H      0.171  0.829  0.000  0.000     1.269     1.764
 363   1 H      0.060  0.940  0.000  0.000     2.202     2.321
 364   1 H      0.036  0.964  0.000  0.000     2.506     2.476
 365   1 H      0.050  0.950  0.000  0.000     2.317     2.380
 366   1 H      0.062  0.938  0.000  0.000     2.180     2.309
 367   1 H      0.042  0.958  0.000  0.000     2.423     2.434
 368   1 H      0.084  0.916  0.000  0.000     1.941     2.179
 369   1 H      0.052  0.948  0.000  0.000     2.293     2.368
 370   1 H      0.058  0.942  0.000  0.000     2.223     2.332
 371   1 H      0.075  0.925  0.000  0.000     2.029     2.227
 372   1 H      0.175  0.825  0.000  0.000     1.242     1.746
 373   1 H      0.070  0.930  0.000  0.000     2.087     2.259
 374   1 H      0.167  0.833  0.000  0.000     1.293     1.781
 375   1 H      0.059  0.941  0.000  0.000     2.204     2.322
 376   1 H      0.179  0.821  0.000  0.000     1.221     1.731
 377   1 H      0.072  0.928  0.000  0.000     2.059     2.244
 378   1 H      0.192  0.808  0.000  0.000     1.146     1.677
 379   1 H      0.093  0.907  0.000  0.000     1.854     2.129
 380   1 H      0.196  0.804  0.000  0.000     1.125     1.661
 381   1 H      0.084  0.916  0.000  0.000     1.934     2.175
 382   1 H      0.175  0.825  0.000  0.000     1.243     1.746
 383   1 H      0.025  0.975  0.000  0.000     2.659     2.550
 384   1 H      0.185  0.815  0.000  0.000     1.187     1.707
 385   1 H      0.075  0.925  0.000  0.000     2.032     2.229

 Mol. C6AA /au·bohr⁶  :    1287000.196359
 Mol. C8AA /au·bohr⁸  :   28365841.023096
 Mol. α(0) /au        :       1689.084413

 
molecular dipole:
                 x           y           z       tot (Debye)
 q only:       19.594     172.662     -17.837
   full:       19.217     174.138     -20.641     448.391
molecular quadrupole (traceless):
                xx          xy          yy          xz          yz          zz
 q only:   -15245.364    5290.865   29784.939     180.510   -3646.465  -14539.575
  q+dip:   -15545.830    5204.562   30271.500     203.226   -4374.511  -14725.671
   full:   -15545.684    5208.263   30271.514     202.965   -4372.027  -14725.829
speedup  1.93
cpu  time for grad   20.39 s
wall time for grad   10.59 s

SCC energy    :    -584.3738776
rep           :       6.9534822
ES            :       1.9051357
AES           :      -0.0638425
AXC           :       0.1963948
disp          :      -0.4631813
XB            :       0.0000000
fix           :       0.0000000
Gborn         :       0.0000000
Gsasa         :       0.0000000
Ghb           :       0.0000000
Gshift        :       0.0000000
Gsolv         :      -0.5343132     -335.29
Etot ala COSMO:    -584.3738776
grad norm     :       0.8431375
total E       :    -577.3865060
atomizationE  :     103.6269901    65026.92
(atE without considering molecular charge,
 total energy contains solvation terms)
H-L gap (eV)  :          1.1721

------------------------------------------------------------------------
 * finished run on 2019/05/10 at 00:42:02.387     
------------------------------------------------------------------------
 total:
 * wall-time:     0 d,  0 h,  0 min, 11.127 sec
 *  cpu-time:     0 d,  0 h,  0 min, 21.199 sec
 * ratio c/w:     1.905 speedup
 SCF:
 * wall-time:     0 d,  0 h,  0 min, 10.839 sec
 *  cpu-time:     0 d,  0 h,  0 min, 20.884 sec
 * ratio c/w:     1.927 speedup

