      -----------------------------------------------------------      
     |                   =====================                   |     
     |                           x T B                           |     
     |                   =====================                   |     
     |                         S. Grimme                         |     
     |          Mulliken Center for Theoretical Chemistry        |     
     |                    University of Bonn                     |     
     |                 Version 6.0.1 (SAW181210)                 |     
      -----------------------------------------------------------      

   This program is distributed in the hope that it will be useful,
   but WITHOUT ANY WARRANTY; without even the implied warranty of
   MERCHANTABILITY or FITNESS FOR A PARTICULAR PURPOSE.
   
   FOR NON-COMMERCIAL, ACADEMIA USE ONLY.
   
   Cite this work as:
   S. Grimme, C. Bannwarth, P. Shushkov, J. Comput. Theory Chem., 2017,
   13, 1989-2009.
   C. Bannwarth, S. Ehlert and S. Grimme., ChemRxiv, 2018, preprint.
   http://doi.org/10.26434/chemrxiv.7246238.v1
   
   for sTDA-xTB:
   S. Grimme and C. Bannwarth, J. Chem. Phys., 2016, 145, 054103.
   
   in the mass-spec context:
   V. Asgeirsson, C. Bauer and S. Grimme, Chem. Sci., 2017, 8, 4879.
   
   if GBSA is used:
   P. Shushkov, F. März and S. Grimme, unpublished.
   
   for ANC optimizer:
   S. Grimme, unpublished.
   Rational Function algorithm used in ANCopt:
   F. Eckert, P. Pulay, H.-J. Werner, J. Comput. Chem., 1997, 18, 1473.
   
   with help from (in alphabetical order)
   C. Bannwarth, F. Bohle, G. Brandenburg, E. Caldeweyher, M. Checinski,
   S. Dohm, S. Ehlert, S. Ehrlich, F. März, H. Neugebauer, J. Pisarek,
   P. Pracht, P. Shushkov, and S. Spicher.
   
 * started run on 2019/05/07 at 22:46:54.751     
========================================================================
 # omp threads = 2
========================================================================
number of atoms            : 747
number of electrons        : 2016
charge                     : -1
spin                       : .0
first test random number   : .6669

########################################################################
# WARNING! Please study the warnings concerning your input carefully
#  - Process number higher than OMP_NUM_THREADS, I hope you know what you are doing.
########################################################################

           ------------------------------------------------- 
          |                 G F N 2 - x T B                 |
          | Geometry, Frequencies, Noncovalent interactions |
          |            JCTC 2018 parametrisation            |
           ------------------------------------------------- 
 
      method parameters     
 k(s)        :  1.8500
 k(p)        :  2.2300
 k(d)        :  2.2300
 k(f)        :  2.0000
 kEN (H0ij)  : -2.0000
 D4 a1       :  0.5200
 D4 a2       :  5.0000
 D4 s6       :  1.0000
 D4 s8       :  2.7000
 D4 s9       :  5.0000
 alphaj      :  2.0000

 Solvent             : h2o
 Using internal parameter file: .param_gbsa2_h2o
 Gsolv ref. state (COSMO-RS): gsolv [1 M gas/solution]
 temperature (mdtemp)       :    298.150000000000     
 dielectric constant        :    80.2000000000000     
 rho                        :    1.00000000000000     
 mass                       :    18.0000000000000     
 surface tension            :    15.5689454083859     
 probe radius               :   0.975313790000000     
 vdW radii scaling          :    1.00000000000000     
 Gshift (Eh)                :   1.857443126794793E-003
 c1                         :    1.55243817000000     
 soset                      :   0.130326360000000     
 HB correction              :  T

            Z     q(EN)     CN     RAES       Cart. coordinates
     1  N   5.0   -0.20    3.22    1.96    98.11939   123.13040   414.82971
     2  C   4.0    0.03    4.35    4.29    99.86154   123.76930   416.85621
     3  C   4.0    0.14    3.40    3.08   100.73173   126.51046   416.63800
     4  O   6.0   -0.28    1.24    1.80   100.30140   127.80100   414.77785
     5  C   4.0   -0.04    4.30    4.19   102.17757   122.02709   417.01985
     6  C   4.0   -0.03    4.27    4.13   101.33838   119.31455   417.37720
     7  C   4.0    0.15    3.24    3.04   100.09337   118.95304   419.94737
     8  O   6.0   -0.29    1.19    1.80   100.29201   120.42766   421.73475
     9  N   5.0   -0.19    3.18    1.95    98.91952   116.64878   420.03736
    10  H   1.0    0.09    1.02    1.43    98.67538   123.35454   413.01521
    11  H   1.0    0.05    1.06    1.44    98.75902   123.57374   418.60075
    12  H   1.0    0.05    1.03    1.43   103.28821   122.20294   415.29114
    13  H   1.0    0.06    1.03    1.43   103.33874   122.55172   418.63524
    14  H   1.0    0.03    1.03    1.43   100.01281   118.74307   415.90848
    15  H   1.0    0.05    1.03    1.43   102.97385   118.06100   417.30321
    16  H   1.0    0.08    1.03    1.43    98.29606   115.84314   418.42372
    17  H   1.0    0.09    1.03    1.43    97.71053   116.36956   421.48844
    18  N   5.0   -0.15    3.44    2.04   102.02833   127.28819   418.74396
    19  C   4.0    0.03    4.49    4.52   103.48045   129.61543   418.62275
    20  C   4.0    0.15    3.50    3.12   106.15688   128.84781   417.80121
    21  O   6.0   -0.31    1.30    1.80   107.61620   127.80062   419.28729
    22  C   4.0   -0.02    4.25    4.10   103.80452   131.19807   421.04268
    23  C   4.0   -0.08    4.10    3.80   105.06229   133.71907   420.30257
    24  C   4.0   -0.08    4.07    3.75   101.35790   131.47679   422.55874
    25  H   1.0    0.08    1.06    1.44   102.38555   126.06156   420.15529
    26  H   1.0    0.06    1.07    1.44   102.57074   130.75251   417.15095
    27  H   1.0    0.05    1.07    1.44   105.14103   130.16084   422.23992
    28  H   1.0    0.04    1.00    1.43   105.44569   134.83976   421.98338
    29  H   1.0    0.05    1.00    1.43   106.84045   133.38218   419.33118
    30  H   1.0    0.04    1.00    1.43   103.83223   134.80395   419.06691
    31  H   1.0    0.04    1.00    1.43   101.73640   132.55819   424.26265
    32  H   1.0    0.04    1.00    1.43    99.93778   132.45594   421.44328
    33  H   1.0    0.04    1.00    1.43   100.65261   129.62241   423.07480
    34  N   5.0   -0.15    3.44    2.04   106.78102   129.45906   415.42758
    35  C   4.0    0.05    4.50    4.54   109.25897   128.97722   414.42776
    36  C   4.0    0.16    3.45    3.10   111.50934   129.03164   416.27581
    37  O   6.0   -0.31    1.26    1.80   112.93525   127.21982   416.47131
    38  C   4.0    0.05    4.24    4.08   109.59263   130.79841   412.19610
    39  O   6.0   -0.25    2.19    1.86   109.78688   128.90735   410.34316
    40  C   4.0   -0.07    4.06    3.72   111.74404   132.77069   412.27706
    41  H   1.0    0.08    1.07    1.44   105.42136   130.03790   414.22023
    42  H   1.0    0.07    1.08    1.44   109.32101   127.05364   413.65433
    43  H   1.0    0.04    1.04    1.44   107.82617   131.87396   411.91393
    44  H   1.0    0.13    1.02    1.43   110.26023   129.56520   408.70295
    45  H   1.0    0.05    1.00    1.43   111.73947   133.84914   410.53370
    46  H   1.0    0.05    1.00    1.43   111.45963   134.10328   413.80629
    47  H   1.0    0.05    1.00    1.43   113.56333   131.84320   412.48655
    48  N   5.0   -0.14    3.57    2.13   112.00003   131.18305   417.54553
    49  C   4.0    0.04    4.40    4.38   114.42121   131.53020   418.77323
    50  C   4.0    0.16    3.44    3.09   114.34050   130.26282   421.36050
    51  O   6.0   -0.32    1.32    1.80   116.22811   129.24080   422.22464
    52  C   4.0    0.03    4.11    3.83   115.09399   134.37545   418.79897
    53  O   6.0   -0.26    2.11    1.84   112.92136   135.80729   418.14936
    54  H   1.0    0.09    1.09    1.44   110.95466   132.77025   417.33663
    55  H   1.0    0.05    1.06    1.44   115.85562   130.49419   417.69003
    56  H   1.0    0.05    1.01    1.43   115.81172   134.88461   420.66521
    57  H   1.0    0.04    1.01    1.43   116.56680   134.74466   417.39390
    58  H   1.0    0.12    1.02    1.43   112.75968   137.23517   419.26419
    59  N   5.0   -0.13    3.52    2.09   112.09353   130.18728   422.51937
    60  C   4.0    0.04    4.44    4.44   111.78580   128.82418   424.87825
    61  C   4.0    0.16    3.54    3.13   112.46073   126.07108   424.34375
    62  O   6.0   -0.32    1.30    1.80   113.77932   124.84856   425.82840
    63  C   4.0   -0.05    4.24    4.07   109.13389   128.92308   426.04576
    64  C   4.0   -0.03    4.16    3.92   108.34617   131.54731   426.96981
    65  C   4.0    0.24    3.13    3.03   110.42077   132.93355   428.51674
    66  O   6.0   -0.33    1.38    1.80   111.07925   131.99510   430.64902
    67  O   6.0   -0.28    1.17    1.80   111.29590   134.85635   427.50667
    68  H   1.0    0.09    1.07    1.44   110.59474   131.11435   421.79389
    69  H   1.0    0.06    1.05    1.44   113.16501   129.57101   426.24168
    70  H   1.0    0.05    1.03    1.43   107.77930   128.23993   424.64629
    71  H   1.0    0.05    1.03    1.43   109.11445   127.61830   427.63834
    72  H   1.0    0.05    1.03    1.43   107.95654   132.79519   425.37755
    73  H   1.0    0.04    1.03    1.43   106.64931   131.37684   428.10729
    74  N   5.0   -0.14    3.53    2.10   111.52114   125.10028   422.22919
    75  C   4.0    0.04    4.47    4.50   112.12880   122.52956   421.56321
    76  C   4.0    0.16    3.47    3.10   115.00788   122.28213   421.29862
    77  O   6.0   -0.32    1.27    1.80   116.14258   120.46708   422.19110
    78  C   4.0   -0.03    4.31    4.22   110.67345   121.63681   419.27142
    79  C   4.0   -0.04    4.27    4.14   110.62351   118.77969   419.32674
    80  C   4.0    0.14    3.24    3.04   108.56612   117.86976   421.10263
    81  O   6.0   -0.30    1.24    1.80   106.71719   119.20643   421.41736
    82  N   5.0   -0.19    3.14    1.94   108.76855   115.51051   422.16190
    83  H   1.0    0.11    1.09    1.44   110.37068   126.11442   421.07715
    84  H   1.0    0.06    1.07    1.44   111.64253   121.33640   423.19829
    85  H   1.0    0.07    1.04    1.43   108.74199   122.35363   419.37938
    86  H   1.0    0.05    1.03    1.43   111.55008   122.35681   417.54882
    87  H   1.0    0.05    1.08    1.44   110.10002   118.07946   417.46206
    88  H   1.0    0.05    1.03    1.43   112.47182   118.02783   419.83733
    89  H   1.0    0.08    1.03    1.43   110.44898   114.62921   422.20876
    90  H   1.0    0.10    1.02    1.43   107.43915   114.92782   423.40097
    91  N   5.0   -0.13    3.47    2.06   116.30579   124.11469   420.13538
    92  C   4.0    0.04    4.34    4.28   119.04460   123.82627   419.81545
    93  C   4.0    0.16    3.40    3.08   120.51720   124.06317   422.32476
    94  O   6.0   -0.32    1.27    1.80   122.43008   122.80985   422.67907
    95  C   4.0   -0.07    4.11    3.81   119.99271   125.71963   417.86848
    96  H   1.0    0.11    1.07    1.44   115.41715   125.50564   419.16636
    97  H   1.0    0.05    1.06    1.44   119.41523   121.88714   419.16973
    98  H   1.0    0.04    1.00    1.43   122.01232   125.49143   417.59909
    99  H   1.0    0.05    1.00    1.43   119.03882   125.40561   416.07870
   100  H   1.0    0.05    1.00    1.43   119.59516   127.61320   418.54736
   101  N   5.0   -0.14    3.50    2.08   119.62084   125.70078   424.00592
   102  C   4.0    0.03    4.37    4.32   120.72203   126.01901   426.54530
   103  C   4.0    0.16    3.46    3.10   120.67278   123.47390   428.00779
   104  O   6.0   -0.30    1.26    1.80   122.37582   122.66530   429.36595
   105  C   4.0   -0.05    4.28    4.16   119.20155   128.04934   427.93437
   106  C   4.0   -0.05    4.15    3.91   120.19069   128.94970   430.47005
   107  C   4.0   -0.04    4.18    3.97   118.11196   130.29854   431.98943
   108  C   4.0   -0.02    4.15    3.89   117.40833   132.82770   430.84593
   109  N   5.0   -0.10    4.05    3.01   115.27105   133.93824   432.21893
   110  H   1.0    0.12    1.12    1.45   118.12024   126.80589   423.56501
   111  H   1.0    0.05    1.05    1.44   122.70716   126.59081   426.37780
   112  H   1.0    0.05    1.03    1.43   119.06019   129.66902   426.66027
   113  H   1.0    0.06    1.03    1.43   117.29099   127.30121   428.18892
   114  H   1.0    0.05    1.03    1.43   120.86416   127.33093   431.55998
   115  H   1.0    0.05    1.03    1.43   121.77841   130.23806   430.21210
   116  H   1.0    0.05    1.03    1.43   116.43224   129.10601   432.08807
   117  H   1.0    0.06    1.03    1.43   118.76987   130.63687   433.91309
   118  H   1.0    0.07    1.02    1.43   119.01973   134.11782   430.92075
   119  H   1.0    0.06    1.02    1.43   116.83986   132.63182   428.86962
   120  H   1.0    0.11    1.06    1.44   115.08131   135.80912   431.69262
   121  H   1.0    0.12    1.17    1.46   113.47011   133.06079   431.71946
   122  H   1.0    0.10    1.08    1.44   115.70951   133.91858   434.16318
   123  N   5.0   -0.14    3.59    2.14   118.57278   122.16195   427.55772
   124  C   4.0    0.04    4.52    4.56   118.30822   119.75351   428.76227
   125  C   4.0    0.16    3.63    3.18   120.34059   118.05631   427.71286
   126  O   6.0   -0.30    1.30    1.80   121.60872   116.71315   429.08612
   127  C   4.0   -0.04    4.36    4.31   115.63350   118.78139   428.40806
   128  C   4.0   -0.01    3.61    3.18   115.53714   116.00982   428.80953
   129  C   4.0   -0.04    3.52    3.12   114.56239   114.97794   430.97068
   130  C   4.0   -0.03    3.54    3.13   116.32349   114.33867   426.98105
   131  C   4.0   -0.04    3.41    3.08   114.24552   112.38778   431.26888
   132  C   4.0   -0.04    3.43    3.09   116.04300   111.76071   427.30776
   133  C   4.0   -0.05    3.35    3.07   114.96043   110.70970   429.44075
   134  H   1.0    0.11    1.09    1.44   117.07943   122.94423   426.64903
   135  H   1.0    0.06    1.06    1.44   118.72198   119.94559   430.79455
   136  H   1.0    0.05    1.03    1.43   114.41862   119.78896   429.73199
   137  H   1.0    0.06    1.04    1.43   115.04654   119.23007   426.47608
   138  H   1.0    0.05    1.05    1.44   113.96415   116.21540   432.47809
   139  H   1.0    0.06    1.04    1.43   117.04904   115.02211   425.20084
   140  H   1.0    0.04    1.03    1.43   113.40641   111.73770   433.01268
   141  H   1.0    0.05    1.03    1.43   116.66443   110.53685   425.79289
   142  H   1.0    0.04    1.03    1.43   114.70050   108.69917   429.61680
   143  N   5.0   -0.13    3.51    2.09   120.72044   118.07084   425.21664
   144  C   4.0    0.04    4.53    4.58   122.31594   116.00511   424.29488
   145  C   4.0    0.16    3.56    3.15   124.98607   116.56036   425.05149
   146  O   6.0   -0.30    1.29    1.80   126.27754   114.94146   426.05960
   147  C   4.0   -0.04    4.29    4.18   122.20162   115.49496   421.44183
   148  C   4.0   -0.02    3.71    3.24   119.96987   113.91183   420.90690
   149  C   4.0   -0.01    3.60    3.17   117.64694   114.76270   420.16073
   150  C   4.0   -0.00    3.90    3.46   119.71580   111.27075   421.38171
   151  N   5.0   -0.13    3.49    2.07   115.94658   112.79506   420.09285
   152  C   4.0    0.02    3.94    3.52   117.15084   110.62066   420.82628
   153  C   4.0   -0.05    3.38    3.07   121.37807   109.40180   422.17363
   154  C   4.0   -0.05    3.38    3.07   116.18111   108.18956   421.02575
   155  C   4.0   -0.04    3.40    3.08   120.37632   106.99661   422.41339
   156  C   4.0   -0.04    3.38    3.07   117.85334   106.38617   421.85289
   157  H   1.0    0.10    1.07    1.44   119.49086   118.94950   424.04182
   158  H   1.0    0.06    1.07    1.44   121.77911   114.28028   425.32035
   159  H   1.0    0.05    1.03    1.43   122.07961   117.29908   420.44959
   160  H   1.0    0.06    1.03    1.43   123.94044   114.53387   420.87959
   161  H   1.0    0.06    1.02    1.43   117.07487   116.65385   419.70677
   162  H   1.0    0.07    1.05    1.44   114.11620   112.93681   419.60626
   163  H   1.0    0.06    1.02    1.43   123.32107   109.82144   422.62594
   164  H   1.0    0.05    1.03    1.43   114.23221   107.79121   420.59332
   165  H   1.0    0.06    1.03    1.43   121.58089   105.47840   423.06354
   166  H   1.0    0.06    1.03    1.43   117.27753   104.44354   422.08216
   167  N   5.0   -0.15    3.50    2.07   125.89598   118.84979   424.50275
   168  C   4.0    0.04    4.45    4.47   128.41442   119.38578   425.34346
   169  C   4.0    0.16    3.37    3.07   128.88953   118.97709   428.29486
   170  O   6.0   -0.30    1.20    1.80   131.02543   118.50012   429.07445
   171  C   4.0   -0.04    4.42    4.42   129.13896   122.08556   424.68491
   172  C   4.0   -0.02    4.20    3.99   129.33607   122.76935   421.93272
   173  C   4.0   -0.08    4.14    3.88   131.05294   125.08758   421.77778
   174  C   4.0   -0.08    4.18    3.95   130.42331   120.55071   420.51472
   175  H   1.0    0.11    1.09    1.44   124.76703   120.29325   423.93807
   176  H   1.0    0.05    1.06    1.44   129.71121   118.01937   424.48512
   177  H   1.0    0.05    1.03    1.43   127.79908   123.33476   425.65124
   178  H   1.0    0.04    1.04    1.44   130.98701   122.39028   425.57015
   179  H   1.0    0.05    1.05    1.44   127.46686   123.23499   421.18468
   180  H   1.0    0.04    1.00    1.43   131.13977   125.76755   419.84437
   181  H   1.0    0.05    1.00    1.43   130.29092   126.60204   422.93408
   182  H   1.0    0.05    1.00    1.43   132.95026   124.64046   422.41455
   183  H   1.0    0.03    1.00    1.43   130.82224   121.07829   418.56627
   184  H   1.0    0.04    1.00    1.43   132.19977   119.97787   421.38438
   185  H   1.0    0.04    1.01    1.43   129.14356   118.95078   420.50264
   186  N   5.0   -0.13    3.36    2.00   126.85436   119.25520   429.79685
   187  C   4.0    0.03    4.23    4.05   126.83254   118.79099   432.48457
   188  C   4.0    0.16    3.35    3.07   127.55913   116.07694   433.17147
   189  O   6.0   -0.29    1.23    1.80   129.30761   115.76389   434.65222
   190  H   1.0    0.11    1.08    1.44   125.20373   119.83615   429.03226
   191  H   1.0    0.06    1.03    1.43   128.21066   120.00154   433.44276
   192  H   1.0    0.05    1.02    1.43   124.94002   119.22650   433.17877
   193  N   5.0   -0.14    3.52    2.09   126.25602   114.18304   432.08251
   194  C   4.0    0.04    4.54    4.60   126.86604   111.54509   432.51383
   195  C   4.0    0.16    3.54    3.13   129.58554   110.98511   431.86444
   196  O   6.0   -0.31    1.26    1.80   130.72397   109.23309   432.84931
   197  C   4.0   -0.04    4.51    4.55   125.38958   109.86115   430.78790
   198  C   4.0   -0.02    4.26    4.13   122.70671   109.79203   431.60454
   199  C   4.0   -0.07    4.15    3.89   121.13651   108.24761   429.82432
   200  C   4.0   -0.07    4.19    3.97   122.61204   108.60780   434.22575
   201  H   1.0    0.11    1.07    1.44   124.90629   114.61936   430.79852
   202  H   1.0    0.06    1.06    1.44   126.59099   111.11916   434.51614
   203  H   1.0    0.06    1.03    1.43   125.57480   110.58675   428.85522
   204  H   1.0    0.04    1.04    1.43   126.20197   107.96536   430.81923
   205  H   1.0    0.05    1.06    1.44   121.93981   111.71490   431.68914
   206  H   1.0    0.04    1.01    1.43   119.17667   108.20971   430.43227
   207  H   1.0    0.05    1.00    1.43   121.19170   109.04019   427.92408
   208  H   1.0    0.04    1.00    1.43   121.82315   106.31454   429.72303
   209  H   1.0    0.04    1.00    1.43   120.66871   108.09230   434.66480
   210  H   1.0    0.04    1.00    1.43   123.75015   106.90289   434.29859
   211  H   1.0    0.05    1.00    1.43   123.24023   109.89607   435.69766
   212  N   5.0   -0.13    3.45    2.05   130.42824   112.49040   430.01343
   213  C   4.0    0.02    4.24    4.08   132.93093   112.46434   428.98424
   214  C   4.0    0.18    3.38    3.07   134.92021   111.34600   430.74589
   215  O   6.0   -0.28    1.21    1.80   136.23499   109.61134   429.96095
   216  H   1.0    0.11    1.10    1.44   129.21984   113.76970   429.27265
   217  H   1.0    0.05    1.04    1.43   132.99889   111.28140   427.28897
   218  H   1.0    0.06    1.03    1.43   133.50390   114.39328   428.51428
   219  N   5.0   -0.12    3.31    1.99   135.12530   112.43038   433.05708
   220  C   4.0    0.02    4.13    3.85   137.55863   112.59246   434.31901
   221  C   4.0    0.25    3.03    3.02   139.60846   114.43035   432.93255
   222  O   6.0   -0.28    1.17    1.80   139.14745   115.28028   430.76326
   223  O   6.0   -0.28    1.15    1.80   141.51306   114.89757   434.24236
   224  H   1.0    0.10    1.07    1.44   133.98680   113.94121   433.34183
   225  H   1.0    0.05    1.02    1.43   137.29701   113.30185   436.23027
   226  H   1.0    0.06    1.02    1.43   138.43267   110.72924   434.36553
   227  O   6.0   -0.27    1.94    1.82    97.60688   130.96824   412.14921
   228  H   1.0    0.12    0.97    1.43    96.57818   132.45463   411.94194
   229  H   1.0    0.13    0.97    1.43    96.48040   129.54640   412.05665
   230  O   6.0   -0.32    1.98    1.82   112.18397   126.43325   430.82568
   231  H   1.0    0.15    0.99    1.43   111.77968   128.22076   430.84726
   232  H   1.0    0.14    1.00    1.43   112.99148   126.03532   429.23553
   233  N   5.0   -0.21    3.20    1.96   107.67039   138.81620   439.49330
   234  C   4.0    0.03    4.18    3.95   108.78329   136.39520   438.75952
   235  C   4.0    0.08    3.16    3.03   106.88336   134.30587   439.64164
   236  O   6.0   -0.31    1.14    1.80   105.99012   132.80538   438.12712
   237  C   4.0   -0.04    4.21    4.01   111.51991   136.24021   439.65428
   238  C   4.0   -0.03    4.13    3.87   112.90748   133.83202   438.82435
   239  C   4.0    0.24    3.09    3.02   115.86258   134.13914   439.04924
   240  O   6.0   -0.28    1.16    1.80   116.76870   134.61192   441.15769
   241  O   6.0   -0.31    1.26    1.80   117.14229   133.83270   437.07056
   242  H   1.0    0.08    1.02    1.43   108.68360   139.99536   440.59342
   243  H   1.0    0.06    1.05    1.44   108.79241   136.26426   436.68835
   244  H   1.0    0.06    1.03    1.43   112.50231   137.83988   438.78509
   245  H   1.0    0.05    1.02    1.43   111.65474   136.42764   441.70601
   246  H   1.0    0.05    1.02    1.43   112.37091   132.21651   439.98902
   247  H   1.0    0.06    1.02    1.43   112.46926   133.41314   436.85455
   248  N   5.0   -0.21    3.17    1.95   101.14401   131.43311   436.12832
   249  C   4.0    0.03    4.15    3.90   102.14658   130.23317   433.85788
   250  C   4.0    0.08    3.21    3.04   103.49546   127.72031   434.31045
   251  O   6.0   -0.32    1.18    1.80   103.15270   125.99800   432.79391
   252  C   4.0   -0.06    4.11    3.83   104.00218   131.92204   432.43700
   253  H   1.0    0.11    1.05    1.44   102.29741   132.70652   436.95800
   254  H   1.0    0.04    1.06    1.44   100.53328   129.78823   432.63586
   255  H   1.0    0.05    1.01    1.43   104.67024   130.88695   430.80301
   256  H   1.0    0.04    1.00    1.43   103.10329   133.66512   431.83091
   257  H   1.0    0.07    1.00    1.43   105.61751   132.38619   433.61570
   258  N   5.0   -0.20    3.20    1.96    98.79096   123.05070   434.53506
   259  C   4.0    0.03    4.22    4.03    98.03463   122.20794   431.98993
   260  C   4.0    0.15    3.38    3.07    99.98504   120.17323   431.03895
   261  O   6.0   -0.31    1.27    1.80    99.33695   118.10937   430.19615
   262  C   4.0   -0.05    4.14    3.89    97.57255   124.44686   430.18335
   263  C   4.0   -0.05    4.04    3.68    95.09915   124.26872   428.53709
   264  C   4.0   -0.05    4.01    3.64    94.77615   126.43698   426.46608
   265  C   4.0   -0.05    3.99    3.61    92.67826   128.48210   426.96690
   266  N   5.0   -0.13    3.93    2.67    92.76179   129.90987   429.56359
   267  H   1.0    0.09    1.02    1.43    99.17756   124.89112   434.84588
   268  H   1.0    0.04    1.05    1.44    96.26295   121.15552   432.24279
   269  H   1.0    0.04    1.03    1.43    97.56208   126.16827   431.31445
   270  H   1.0    0.05    1.02    1.43    99.19182   124.57995   428.89909
   271  H   1.0    0.05    1.02    1.43    95.04701   122.42291   427.64389
   272  H   1.0    0.04    1.02    1.43    93.50686   124.39263   429.84222
   273  H   1.0    0.04    1.02    1.43    96.58477   127.41565   426.31594
   274  H   1.0    0.04    1.02    1.43    94.33460   125.61118   424.63641
   275  H   1.0    0.04    1.02    1.43    92.83251   129.92274   425.50986
   276  H   1.0    0.04    1.02    1.43    90.81809   127.60789   426.89068
   277  H   1.0    0.05    1.01    1.43    91.28610   131.17542   429.63906
   278  H   1.0    0.05    1.01    1.43    92.62938   128.68024   431.06405
   279  H   1.0    0.05    1.01    1.43    94.42369   130.90363   429.72191
   280  N   5.0   -0.14    3.48    2.06   102.42959   120.77042   431.27503
   281  C   4.0    0.04    4.49    4.52   104.23391   119.16081   430.05158
   282  C   4.0    0.09    3.34    3.06   104.25074   116.54014   431.24550
   283  O   6.0   -0.31    1.20    1.80   104.39792   114.60571   429.95477
   284  C   4.0   -0.02    4.31    4.23   106.88566   120.19950   430.24459
   285  C   4.0   -0.06    4.18    3.96   108.68621   118.29385   429.06174
   286  C   4.0   -0.06    4.13    3.86   107.09840   122.74760   428.94346
   287  H   1.0    0.11    1.09    1.44   102.97273   122.48560   431.92793
   288  H   1.0    0.07    1.06    1.44   103.70828   118.92671   428.05081
   289  H   1.0    0.05    1.06    1.44   107.36615   120.44925   432.24422
   290  H   1.0    0.04    1.00    1.43   110.57205   119.08847   428.93755
   291  H   1.0    0.05    1.01    1.43   108.80677   116.55582   430.14457
   292  H   1.0    0.06    1.00    1.43   108.04977   117.83359   427.16180
   293  H   1.0    0.06    1.00    1.43   109.02422   123.43920   429.12132
   294  H   1.0    0.05    1.00    1.43   106.65087   122.57941   426.94179
   295  H   1.0    0.06    1.00    1.43   105.85468   124.14146   429.79558
   296  N   5.0   -0.20    3.22    1.96    99.20246   112.53797   429.57763
   297  C   4.0    0.04    4.25    4.10    99.64533   111.33165   427.17918
   298  C   4.0    0.17    3.48    3.11   101.59080   109.16268   427.41003
   299  O   6.0   -0.29    1.28    1.80   101.15362   107.10820   426.40350
   300  C   4.0    0.04    4.11    3.82   100.39718   113.22628   425.08983
   301  O   6.0   -0.24    2.06    1.83   102.89621   112.72403   424.15755
   302  H   1.0    0.12    1.05    1.44   100.07925   114.18815   429.97276
   303  H   1.0    0.05    1.06    1.44    97.87596   110.39241   426.63427
   304  H   1.0    0.04    1.01    1.43    99.06084   113.06219   423.52694
   305  H   1.0    0.06    1.01    1.43   100.33272   115.14082   425.88118
   306  H   1.0    0.13    1.02    1.43   103.11433   113.75687   422.67294
   307  N   5.0   -0.14    3.45    2.05   103.63253   109.53497   428.82988
   308  C   4.0    0.04    4.30    4.20   105.37867   107.41960   429.02992
   309  C   4.0    0.10    3.32    3.06   103.96624   105.15004   430.05209
   310  O   6.0   -0.31    1.17    1.80   104.48949   103.01597   429.32192
   311  C   4.0   -0.08    4.10    3.81   107.63695   107.89216   430.72962
   312  H   1.0    0.12    1.10    1.44   104.13497   111.30582   429.39058
   313  H   1.0    0.06    1.05    1.44   106.03974   106.90923   427.12673
   314  H   1.0    0.04    1.00    1.43   108.82599   106.21951   430.79499
   315  H   1.0    0.04    1.00    1.43   108.75745   109.45816   430.00567
   316  H   1.0    0.04    1.00    1.43   107.00752   108.34829   432.63296
   317  N   5.0   -0.21    3.19    1.95   104.25624    98.04418   427.16847
   318  C   4.0    0.03    4.21    4.01   105.89998    96.13414   428.30103
   319  C   4.0    0.08    3.17    3.03   104.79885    94.85951   430.71052
   320  O   6.0   -0.29    1.11    1.80   105.88246    93.24508   431.97506
   321  C   4.0   -0.03    4.33    4.26   108.50600    97.22728   428.98747
   322  C   4.0   -0.02    3.58    3.15   109.72667    98.31227   426.70495
   323  C   4.0   -0.05    3.50    3.11   110.93276    96.82734   424.92026
   324  C   4.0   -0.04    3.50    3.11   109.44133   100.82390   426.11860
   325  C   4.0   -0.04    3.44    3.09   111.88463    97.78584   422.68674
   326  C   4.0   -0.05    3.46    3.10   110.36702   101.79032   423.86036
   327  C   4.0    0.06    3.41    3.08   111.69916   100.34248   422.13005
   328  O   6.0   -0.25    2.09    1.84   112.91288   101.37138   420.06815
   329  H   1.0    0.12    1.06    1.44   104.14171    99.75006   428.04229
   330  H   1.0    0.05    1.05    1.44   106.14548    94.65070   426.87261
   331  H   1.0    0.05    1.03    1.43   108.22537    98.70852   430.39585
   332  H   1.0    0.05    1.03    1.43   109.61090    95.69651   429.80631
   333  H   1.0    0.05    1.03    1.43   111.15839    94.81662   425.22295
   334  H   1.0    0.06    1.04    1.43   108.43575   102.06866   427.38314
   335  H   1.0    0.05    1.03    1.43   112.83278    96.52490   421.39231
   336  H   1.0    0.05    1.03    1.43   110.13394   103.78853   423.47993
   337  H   1.0    0.11    1.03    1.43   112.39357   103.11554   419.87470
   338  N   5.0   -0.20    3.14    1.94   115.77287   128.17729   442.24203
   339  C   4.0    0.03    4.16    3.92   117.60222   126.81403   440.69514
   340  C   4.0    0.09    3.25    3.04   119.67220   125.22677   441.98447
   341  O   6.0   -0.31    1.17    1.80   120.54793   123.36613   440.90134
   342  C   4.0    0.04    4.18    3.95   119.25505   128.63621   439.10978
   343  O   6.0   -0.23    2.04    1.83   121.21943   129.86725   440.46396
   344  H   1.0    0.10    1.03    1.43   116.29501   130.01091   442.48132
   345  H   1.0    0.05    1.05    1.44   116.58849   125.51277   439.43685
   346  H   1.0    0.04    1.01    1.43   120.04623   127.53310   437.54285
   347  H   1.0    0.07    1.04    1.43   118.09297   130.18164   438.37262
   348  H   1.0    0.12    1.01    1.43   122.79817   128.93244   440.46191
   349  N   5.0   -0.20    3.26    1.97   120.18423   118.09302   441.99625
   350  C   4.0    0.03    4.33    4.26   120.84964   116.52377   439.84960
   351  C   4.0    0.16    3.43    3.09   123.51886   115.48986   440.05922
   352  O   6.0   -0.30    1.22    1.80   124.07489   113.48605   439.08915
   353  C   4.0   -0.03    4.35    4.29   120.85207   118.05018   437.38156
   354  C   4.0   -0.01    3.52    3.12   118.32799   119.12264   436.59432
   355  C   4.0   -0.05    3.46    3.10   116.02567   117.85248   436.79691
   356  C   4.0   -0.03    3.49    3.11   118.30095   121.53086   435.58728
   357  C   4.0   -0.04    3.43    3.09   113.77484   118.97489   436.05043
   358  C   4.0   -0.04    3.44    3.09   116.08832   122.69283   434.83497
   359  C   4.0    0.07    3.44    3.09   113.80194   121.43837   435.07902
   360  O   6.0   -0.25    2.12    1.84   111.63560   122.58989   434.40886
   361  H   1.0    0.12    1.07    1.44   120.46204   119.97376   441.82351
   362  H   1.0    0.04    1.05    1.44   119.53677   114.92714   439.76099
   363  H   1.0    0.06    1.03    1.43   122.21997   119.59038   437.59263
   364  H   1.0    0.05    1.03    1.43   121.56533   116.79564   435.89238
   365  H   1.0    0.05    1.03    1.43   115.98784   115.96233   437.55986
   366  H   1.0    0.06    1.03    1.43   120.07661   122.54332   435.41660
   367  H   1.0    0.05    1.03    1.43   112.00498   117.99573   436.27775
   368  H   1.0    0.05    1.03    1.43   116.15100   124.58324   434.07184
   369  H   1.0    0.14    1.07    1.44   111.96412   124.03258   433.28814
   370  N   5.0   -0.12    3.54    2.10   125.15025   117.00610   441.27368
   371  C   4.0    0.04    4.36    4.30   127.88477   116.60482   441.36501
   372  C   4.0    0.14    3.54    3.13   128.26335   114.43147   443.18399
   373  O   6.0   -0.28    1.30    1.80   127.02988   114.51472   445.16580
   374  C   4.0    0.03    4.11    3.82   129.22189   119.00975   442.33615
   375  O   6.0   -0.25    2.03    1.83   128.59292   121.08334   440.70326
   376  H   1.0    0.09    1.08    1.44   124.54673   118.61228   442.09580
   377  H   1.0    0.06    1.04    1.44   128.54677   116.20921   439.43649
   378  H   1.0    0.05    1.00    1.43   128.60212   119.41773   444.27969
   379  H   1.0    0.04    1.00    1.43   131.27772   118.71153   442.34665
   380  H   1.0    0.12    1.01    1.43   129.12562   122.70015   441.37269
   381  N   5.0   -0.10    3.67    2.24   129.66411   112.42316   442.64200
   382  C   4.0    0.04    4.56    4.61   129.43773   110.19177   444.25473
   383  C   4.0    0.09    3.19    3.03   130.88891   110.51290   446.76873
   384  O   6.0   -0.28    1.11    1.80   130.32670   109.20300   448.60105
   385  C   4.0   -0.04    4.30    4.21   130.35295   107.96190   442.69067
   386  C   4.0   -0.04    4.32    4.23   130.89750   109.17096   440.14028
   387  C   4.0   -0.01    4.36    4.31   131.49038   111.92303   440.71284
   388  H   1.0    0.07    1.06    1.44   127.46167   110.02966   444.82659
   389  H   1.0    0.05    1.03    1.43   132.08134   107.21449   443.52789
   390  H   1.0    0.05    1.02    1.43   128.93810   106.47911   442.58542
   391  H   1.0    0.04    1.02    1.43   132.44974   108.28828   439.12158
   392  H   1.0    0.05    1.03    1.43   129.20892   109.12800   438.95927
   393  H   1.0    0.04    1.02    1.43   133.41357   112.18297   441.43816
   394  H   1.0    0.05    1.02    1.43   131.24221   113.15638   439.07657
   395  N   5.0   -0.22    3.22    1.96   113.52054   102.53535   436.84465
   396  C   4.0    0.03    4.23    4.06   115.94547   103.60129   436.22473
   397  C   4.0    0.07    3.17    3.03   117.92791   101.53269   435.45145
   398  O   6.0   -0.32    1.16    1.80   119.39452   101.89102   433.66841
   399  C   4.0   -0.05    4.41    4.40   117.01556   105.10992   438.38085
   400  C   4.0   -0.03    4.23    4.07   115.17444   107.05170   439.37664
   401  C   4.0   -0.08    4.12    3.85   116.41490   108.25694   441.69642
   402  C   4.0   -0.08    4.14    3.87   114.61383   108.99783   437.37422
   403  H   1.0    0.08    1.02    1.43   112.61661   102.88216   438.49557
   404  H   1.0    0.04    1.05    1.44   115.74186   104.77833   434.52434
   405  H   1.0    0.04    1.03    1.43   117.49411   103.79970   439.90720
   406  H   1.0    0.04    1.03    1.43   118.75688   106.04089   437.79272
   407  H   1.0    0.04    1.06    1.44   113.40877   106.16687   439.97488
   408  H   1.0    0.04    1.00    1.43   115.20242   109.70053   442.51895
   409  H   1.0    0.04    1.00    1.43   116.81651   106.85670   443.14344
   410  H   1.0    0.04    1.00    1.43   118.18633   109.16641   441.18745
   411  H   1.0    0.04    1.00    1.43   113.44200   110.50839   438.14184
   412  H   1.0    0.04    1.00    1.43   116.35767   109.84850   436.68274
   413  H   1.0    0.03    1.00    1.43   113.61298   108.16105   435.78643
   414  N   5.0   -0.20    3.27    1.97   116.85401    98.19147   428.84341
   415  C   4.0    0.03    4.25    4.11   117.25164   100.16246   427.01229
   416  C   4.0    0.15    3.41    3.08   120.08465   100.57372   426.66203
   417  O   6.0   -0.31    1.23    1.80   121.02050   100.68266   424.53929
   418  C   4.0   -0.07    4.14    3.87   115.92627   102.50816   428.05611
   419  H   1.0    0.09    1.04    1.43   115.85753    98.75706   430.38766
   420  H   1.0    0.05    1.05    1.44   116.47413    99.60086   425.16795
   421  H   1.0    0.04    1.00    1.43   116.26148   104.10174   426.80381
   422  H   1.0    0.04    1.00    1.43   113.91040   102.14546   428.17688
   423  H   1.0    0.05    1.01    1.43   116.68737   102.92578   429.91587
   424  N   5.0   -0.15    3.42    2.03   121.40000   100.91921   428.81251
   425  C   4.0    0.03    4.28    4.15   124.15692   101.16955   428.70049
   426  C   4.0    0.09    3.15    3.03   125.46375    98.80809   427.32899
   427  O   6.0   -0.27    1.10    1.80   127.19766    99.11180   425.81478
   428  C   4.0   -0.05    4.18    3.96   125.33253   101.93704   431.23353
   429  C   4.0   -0.04    4.14    3.88   128.17219   102.35212   430.87833
   430  C   4.0   -0.00    4.10    3.81   129.61990   103.93913   432.90752
   431  N   5.0   -0.14    3.29    1.98   131.01918   102.75246   435.05948
   432  C   4.0    0.09    3.29    3.05   130.41671   100.74575   436.51386
   433  N   5.0   -0.19    3.20    1.96   128.69315    98.96027   435.84856
   434  N   5.0   -0.19    3.22    1.96   131.49725   100.56729   438.80711
   435  H   1.0    0.11    1.09    1.44   120.57601   100.81750   430.54715
   436  H   1.0    0.06    1.06    1.44   124.54670   102.68433   427.32314
   437  H   1.0    0.04    1.03    1.43   124.40410   103.67509   431.83257
   438  H   1.0    0.05    1.02    1.43   124.87937   100.47324   432.61387
   439  H   1.0    0.05    1.02    1.43   129.11588   100.54698   430.55058
   440  H   1.0    0.05    1.04    1.43   128.39483   103.38470   429.10702
   441  H   1.0    0.07    1.04    1.43   131.06000   105.02075   431.91824
   442  H   1.0    0.05    1.02    1.43   128.28800   105.27896   433.74614
   443  H   1.0    0.08    1.07    1.44   132.25736   104.00227   435.80416
   444  H   1.0    0.08    1.04    1.43   128.07868    98.87724   434.05194
   445  H   1.0    0.08    1.03    1.43   128.66246    97.31547   436.80992
   446  H   1.0    0.08    1.03    1.43   132.79330   101.84982   439.35583
   447  H   1.0    0.08    1.03    1.43   131.42147    98.92921   439.77808
   448  N   5.0   -0.18    3.22    1.96   123.13040    98.11939   419.55609
   449  C   4.0    0.04    4.24    4.08   123.76930    99.86154   417.52960
   450  C   4.0    0.08    3.20    3.04   126.51046   100.73173   417.74781
   451  O   6.0   -0.26    1.13    1.80   127.80100   100.30140   419.60796
   452  C   4.0   -0.04    4.27    4.15   122.02709   102.17757   417.36596
   453  C   4.0   -0.03    4.27    4.13   119.31455   101.33838   417.00861
   454  C   4.0    0.15    3.24    3.04   118.95304   100.09337   414.43844
   455  O   6.0   -0.28    1.19    1.80   120.42766   100.29201   412.65106
   456  N   5.0   -0.18    3.17    1.95   116.64878    98.91952   414.34844
   457  H   1.0    0.12    1.03    1.43   123.35454    98.67538   421.37059
   458  H   1.0    0.06    1.06    1.44   123.57374    98.75902   415.78505
   459  H   1.0    0.05    1.03    1.43   122.20294   103.28821   419.09467
   460  H   1.0    0.06    1.03    1.43   122.55172   103.33874   415.75056
   461  H   1.0    0.04    1.03    1.43   118.74307   100.01281   418.47732
   462  H   1.0    0.06    1.03    1.43   118.06100   102.97385   417.08259
   463  H   1.0    0.08    1.03    1.43   115.84314    98.29606   415.96209
   464  H   1.0    0.09    1.03    1.43   116.36956    97.71053   412.89736
   465  N   5.0   -0.21    3.22    1.96   129.45906   106.78102   418.95822
   466  C   4.0    0.04    4.40    4.38   128.97722   109.25897   419.95805
   467  C   4.0    0.14    3.39    3.08   129.03164   111.50934   418.11000
   468  O   6.0   -0.32    1.26    1.80   127.21982   112.93525   417.91450
   469  C   4.0    0.06    4.24    4.08   130.79841   109.59263   422.18970
   470  O   6.0   -0.25    2.19    1.86   128.90735   109.78688   424.04265
   471  C   4.0   -0.07    4.06    3.72   132.77069   111.74404   422.10874
   472  H   1.0    0.10    1.03    1.43   130.03790   105.42136   420.16558
   473  H   1.0    0.06    1.08    1.44   127.05364   109.32101   420.73147
   474  H   1.0    0.05    1.04    1.44   131.87396   107.82617   422.47187
   475  H   1.0    0.12    1.02    1.43   129.56520   110.26023   425.68285
   476  H   1.0    0.05    1.00    1.43   133.84914   111.73947   423.85210
   477  H   1.0    0.05    1.00    1.43   134.10328   111.45963   420.57951
   478  H   1.0    0.05    1.00    1.43   131.84320   113.56333   421.89925
   479  N   5.0   -0.14    3.51    2.09   131.18305   112.00003   416.84028
   480  C   4.0    0.04    4.31    4.21   131.53020   114.42121   415.61258
   481  C   4.0    0.08    3.21    3.04   130.26282   114.34050   413.02530
   482  O   6.0   -0.30    1.13    1.80   129.24080   116.22811   412.16116
   483  C   4.0    0.03    4.11    3.82   134.37545   115.09399   415.58684
   484  O   6.0   -0.26    2.11    1.84   135.80729   112.92136   416.23645
   485  H   1.0    0.09    1.09    1.44   132.77025   110.95466   417.04918
   486  H   1.0    0.05    1.06    1.44   130.49419   115.85562   416.69577
   487  H   1.0    0.04    1.01    1.43   134.88461   115.81172   413.72060
   488  H   1.0    0.04    1.01    1.43   134.74466   116.56680   416.99190
   489  H   1.0    0.12    1.02    1.43   137.23517   112.75968   415.12162
   490  N   5.0   -0.19    3.24    1.97   125.10028   111.52114   412.15662
   491  C   4.0    0.04    4.35    4.29   122.52956   112.12880   412.82259
   492  C   4.0    0.15    3.42    3.08   122.28213   115.00788   413.08718
   493  O   6.0   -0.31    1.27    1.80   120.46708   116.14258   412.19471
   494  C   4.0   -0.03    4.31    4.22   121.63681   110.67345   415.11438
   495  C   4.0   -0.03    4.27    4.14   118.77969   110.62351   415.05907
   496  C   4.0    0.15    3.23    3.04   117.86976   108.56612   413.28317
   497  O   6.0   -0.29    1.24    1.80   119.20643   106.71719   412.96845
   498  N   5.0   -0.19    3.14    1.94   115.51051   108.76855   412.22391
   499  H   1.0    0.09    1.02    1.43   126.11442   110.37068   413.30865
   500  H   1.0    0.06    1.06    1.44   121.33640   111.64253   411.18752
   501  H   1.0    0.06    1.04    1.43   122.35363   108.74199   415.00643
   502  H   1.0    0.05    1.03    1.43   122.35681   111.55008   416.83699
   503  H   1.0    0.05    1.08    1.44   118.07946   110.10002   416.92374
   504  H   1.0    0.05    1.03    1.43   118.02783   112.47182   414.54848
   505  H   1.0    0.08    1.03    1.43   114.62921   110.44898   412.17705
   506  H   1.0    0.10    1.02    1.43   114.92782   107.43915   410.98483
   507  N   5.0   -0.13    3.43    2.04   124.11469   116.30579   414.25043
   508  C   4.0    0.04    4.25    4.10   123.82627   119.04460   414.57035
   509  C   4.0    0.09    3.19    3.03   124.06317   120.51720   412.06104
   510  O   6.0   -0.32    1.16    1.80   122.80985   122.43008   411.70674
   511  C   4.0   -0.07    4.10    3.81   125.71963   119.99271   416.51733
   512  H   1.0    0.11    1.07    1.44   125.50564   115.41715   415.21945
   513  H   1.0    0.05    1.06    1.44   121.88714   119.41523   415.21608
   514  H   1.0    0.04    1.00    1.43   125.49143   122.01232   416.78671
   515  H   1.0    0.05    1.00    1.43   125.40561   119.03882   418.30711
   516  H   1.0    0.05    1.00    1.43   127.61320   119.59516   415.83845
   517  N   5.0   -0.19    3.23    1.96   118.07084   120.72044   409.16917
   518  C   4.0    0.03    4.36    4.31   116.00511   122.31594   410.09092
   519  C   4.0    0.15    3.50    3.12   116.56036   124.98607   409.33432
   520  O   6.0   -0.31    1.28    1.80   114.94146   126.27754   408.32620
   521  C   4.0   -0.03    4.29    4.18   115.49496   122.20162   412.94397
   522  C   4.0   -0.02    3.71    3.24   113.91183   119.96987   413.47891
   523  C   4.0   -0.01    3.60    3.17   114.76270   117.64694   414.22508
   524  C   4.0    0.00    3.89    3.46   111.27075   119.71580   413.00409
   525  N   5.0   -0.13    3.49    2.07   112.79506   115.94658   414.29296
   526  C   4.0    0.03    3.94    3.52   110.62066   117.15084   413.55952
   527  C   4.0   -0.05    3.38    3.07   109.40180   121.37807   412.21217
   528  C   4.0   -0.05    3.38    3.07   108.18956   116.18111   413.36006
   529  C   4.0   -0.04    3.40    3.08   106.99661   120.37632   411.97242
   530  C   4.0   -0.05    3.38    3.07   106.38617   117.85334   412.53292
   531  H   1.0    0.11    1.03    1.43   118.94950   119.49086   410.34399
   532  H   1.0    0.05    1.06    1.44   114.28028   121.77911   409.06545
   533  H   1.0    0.05    1.03    1.43   117.29908   122.07961   413.93622
   534  H   1.0    0.06    1.03    1.43   114.53387   123.94044   413.50622
   535  H   1.0    0.06    1.02    1.43   116.65385   117.07487   414.67903
   536  H   1.0    0.07    1.05    1.44   112.93681   114.11620   414.77955
   537  H   1.0    0.06    1.02    1.43   109.82144   123.32107   411.75986
   538  H   1.0    0.05    1.03    1.43   107.79121   114.23221   413.79249
   539  H   1.0    0.05    1.03    1.43   105.47840   121.58089   411.32226
   540  H   1.0    0.05    1.03    1.43   104.44354   117.27753   412.30365
   541  N   5.0   -0.15    3.47    2.06   118.84979   125.89598   409.88306
   542  C   4.0    0.04    4.37    4.33   119.38578   128.41442   409.04234
   543  C   4.0    0.09    3.18    3.03   118.97709   128.88953   406.09094
   544  O   6.0   -0.29    1.10    1.80   118.50012   131.02543   405.31136
   545  C   4.0   -0.04    4.42    4.41   122.08556   129.13896   409.70089
   546  C   4.0   -0.02    4.20    3.99   122.76935   129.33607   412.45308
   547  C   4.0   -0.08    4.13    3.86   125.08758   131.05294   412.60803
   548  C   4.0   -0.08    4.18    3.95   120.55071   130.42331   413.87108
   549  H   1.0    0.11    1.09    1.44   120.29325   124.76703   410.44773
   550  H   1.0    0.06    1.06    1.44   118.01937   129.71121   409.90069
   551  H   1.0    0.05    1.03    1.43   123.33476   127.79908   408.73456
   552  H   1.0    0.05    1.04    1.44   122.39028   130.98701   408.81565
   553  H   1.0    0.05    1.05    1.44   123.23499   127.46686   413.20112
   554  H   1.0    0.04    1.00    1.43   125.76755   131.13977   414.54143
   555  H   1.0    0.04    1.00    1.43   126.60204   130.29092   411.45172
   556  H   1.0    0.05    1.00    1.43   124.64046   132.95026   411.97126
   557  H   1.0    0.03    1.00    1.43   121.07829   130.82224   415.81954
   558  H   1.0    0.04    1.00    1.43   119.97787   132.19977   413.00143
   559  H   1.0    0.04    1.01    1.43   118.95078   129.14356   413.88316
   560  N   5.0   -0.20    3.30    1.98   114.18304   126.25602   402.30329
   561  C   4.0    0.03    4.45    4.47   111.54509   126.86604   401.87197
   562  C   4.0    0.15    3.49    3.11   110.98511   129.58554   402.52136
   563  O   6.0   -0.29    1.23    1.80   109.23309   130.72397   401.53650
   564  C   4.0   -0.04    4.51    4.55   109.86115   125.38958   403.59790
   565  C   4.0   -0.03    4.26    4.13   109.79203   122.70671   402.78127
   566  C   4.0   -0.08    4.14    3.89   108.24761   121.13651   404.56149
   567  C   4.0   -0.08    4.19    3.97   108.60780   122.61204   400.16006
   568  H   1.0    0.09    1.03    1.43   114.61936   124.90629   403.58729
   569  H   1.0    0.04    1.06    1.44   111.11916   126.59099   399.86966
   570  H   1.0    0.06    1.03    1.43   110.58675   125.57480   405.53058
   571  H   1.0    0.05    1.04    1.43   107.96536   126.20197   403.56658
   572  H   1.0    0.04    1.06    1.44   111.71490   121.93981   402.69667
   573  H   1.0    0.04    1.00    1.43   108.20971   119.17667   403.95354
   574  H   1.0    0.04    1.00    1.43   109.04019   121.19170   406.46172
   575  H   1.0    0.04    1.00    1.43   106.31454   121.82315   404.66278
   576  H   1.0    0.04    1.00    1.43   108.09230   120.66871   399.72101
   577  H   1.0    0.04    1.00    1.43   106.90289   123.75015   400.08722
   578  H   1.0    0.04    1.00    1.43   109.89607   123.24023   398.68815
   579  N   5.0   -0.14    3.42    2.03   112.49040   130.42824   404.37238
   580  C   4.0    0.02    4.15    3.90   112.46434   132.93093   405.40157
   581  C   4.0    0.10    3.17    3.03   111.34600   134.92021   403.63991
   582  O   6.0   -0.28    1.12    1.80   109.61134   136.23499   404.42485
   583  H   1.0    0.11    1.10    1.44   113.76970   129.21984   405.11316
   584  H   1.0    0.05    1.04    1.43   111.28140   132.99889   407.09684
   585  H   1.0    0.06    1.03    1.43   114.39328   133.50390   405.87153
   586  N   5.0   -0.20    3.26    1.97   123.52177   142.70478   416.84028
   587  C   4.0    0.03    4.19    3.98   123.17462   140.28360   415.61258
   588  C   4.0    0.08    3.19    3.03   124.44199   140.36432   413.02530
   589  O   6.0   -0.30    1.12    1.80   125.46401   138.47670   412.16116
   590  C   4.0    0.03    4.11    3.82   120.32937   139.61082   415.58684
   591  O   6.0   -0.26    2.11    1.84   118.89753   141.78345   416.23645
   592  H   1.0    0.10    1.06    1.44   121.93456   143.75016   417.04918
   593  H   1.0    0.04    1.05    1.44   124.21063   138.84919   416.69577
   594  H   1.0    0.04    1.01    1.43   119.82021   138.89310   413.72060
   595  H   1.0    0.04    1.01    1.43   119.96016   138.13802   416.99190
   596  H   1.0    0.12    1.02    1.43   117.46964   141.94514   415.12162
   597  N   5.0   -0.21    3.19    1.95   135.85503   128.80884   409.88306
   598  C   4.0    0.03    4.22    4.04   135.31904   126.29040   409.04234
   599  C   4.0    0.08    3.14    3.03   135.72772   125.81529   406.09094
   600  O   6.0   -0.29    1.10    1.80   136.20470   123.67938   405.31136
   601  C   4.0   -0.04    4.42    4.41   132.61925   125.56586   409.70089
   602  C   4.0   -0.03    4.20    3.99   131.93547   125.36874   412.45308
   603  C   4.0   -0.08    4.13    3.87   129.61724   123.65187   412.60803
   604  C   4.0   -0.08    4.18    3.95   134.15411   124.28151   413.87108
   605  H   1.0    0.08    1.02    1.43   134.41157   129.93779   410.44773
   606  H   1.0    0.05    1.06    1.44   136.68544   124.99361   409.90069
   607  H   1.0    0.04    1.03    1.43   131.37005   126.90574   408.73456
   608  H   1.0    0.05    1.04    1.44   132.31454   123.71780   408.81565
   609  H   1.0    0.03    1.05    1.44   131.46983   127.23796   413.20112
   610  H   1.0    0.04    1.00    1.43   128.93726   123.56504   414.54143
   611  H   1.0    0.05    1.00    1.43   128.10277   124.41390   411.45172
   612  H   1.0    0.05    1.00    1.43   130.06436   121.75456   411.97126
   613  H   1.0    0.03    1.00    1.43   133.62652   123.88258   415.81954
   614  H   1.0    0.04    1.00    1.43   134.72694   122.50504   413.00143
   615  H   1.0    0.03    1.01    1.43   135.75404   125.56126   413.88316
   616  N   5.0   -0.21    3.31    1.99   142.70478   123.52177   417.54553
   617  C   4.0    0.03    4.28    4.16   140.28360   123.17462   418.77323
   618  C   4.0    0.15    3.42    3.09   140.36432   124.44199   421.36050
   619  O   6.0   -0.32    1.32    1.80   138.47670   125.46401   422.22464
   620  C   4.0    0.03    4.11    3.83   139.61082   120.32937   418.79897
   621  O   6.0   -0.26    2.11    1.84   141.78345   118.89753   418.14936
   622  H   1.0    0.10    1.06    1.44   143.75016   121.93456   417.33663
   623  H   1.0    0.04    1.05    1.44   138.84919   124.21063   417.69003
   624  H   1.0    0.05    1.01    1.43   138.89310   119.82021   420.66521
   625  H   1.0    0.04    1.01    1.43   138.13802   119.96016   417.39390
   626  H   1.0    0.13    1.02    1.43   141.94514   117.46964   419.26419
   627  N   5.0   -0.14    3.47    2.06   142.61128   124.51753   422.51937
   628  C   4.0    0.04    4.34    4.27   142.91902   125.88064   424.87825
   629  C   4.0    0.09    3.28    3.05   142.24409   128.63374   424.34375
   630  O   6.0   -0.29    1.11    1.80   140.92550   129.85625   425.82840
   631  C   4.0   -0.05    4.23    4.05   145.57093   125.78173   426.04576
   632  C   4.0   -0.03    4.16    3.92   146.35864   123.15751   426.96981
   633  C   4.0    0.24    3.13    3.03   144.28405   121.77127   428.51674
   634  O   6.0   -0.31    1.36    1.80   143.62557   122.70971   430.64902
   635  O   6.0   -0.28    1.17    1.80   143.40892   119.84847   427.50667
   636  H   1.0    0.08    1.07    1.44   144.11008   123.59046   421.79389
   637  H   1.0    0.07    1.05    1.44   141.53980   125.13381   426.24168
   638  H   1.0    0.04    1.03    1.43   146.92551   126.46489   424.64629
   639  H   1.0    0.05    1.03    1.43   145.59036   127.08651   427.63834
   640  H   1.0    0.05    1.03    1.43   146.74827   121.90962   425.37755
   641  H   1.0    0.05    1.03    1.43   148.05551   123.32798   428.10729
   642  N   5.0   -0.19    3.21    1.96   138.39903   130.59012   420.13538
   643  C   4.0    0.03    4.22    4.04   135.66021   130.87854   419.81545
   644  C   4.0    0.15    3.37    3.07   134.18762   130.64165   422.32476
   645  O   6.0   -0.32    1.26    1.80   132.27474   131.89497   422.67907
   646  C   4.0   -0.08    4.11    3.81   134.71210   128.98519   417.86848
   647  H   1.0    0.09    1.02    1.43   139.28766   129.19918   419.16636
   648  H   1.0    0.05    1.05    1.44   135.28959   132.81767   419.16973
   649  H   1.0    0.04    1.00    1.43   132.69250   129.21339   417.59909
   650  H   1.0    0.04    1.00    1.43   135.66600   129.29921   416.07870
   651  H   1.0    0.04    1.00    1.43   135.10966   127.09161   418.54736
   652  N   5.0   -0.14    3.46    2.05   135.08398   129.00404   424.00592
   653  C   4.0    0.03    4.25    4.10   133.98279   128.68580   426.54530
   654  C   4.0    0.09    3.20    3.04   134.03204   131.23092   428.00779
   655  O   6.0   -0.30    1.12    1.80   132.32900   132.03952   429.36595
   656  C   4.0   -0.04    4.27    4.15   135.50326   126.65548   427.93437
   657  C   4.0   -0.05    4.15    3.91   134.51413   125.75511   430.47005
   658  C   4.0   -0.04    4.18    3.97   136.59286   124.40628   431.98943
   659  C   4.0   -0.02    4.15    3.89   137.29649   121.87711   430.84593
   660  N   5.0   -0.10    4.03    2.96   139.43377   120.76658   432.21893
   661  H   1.0    0.12    1.12    1.45   136.58458   127.89893   423.56501
   662  H   1.0    0.05    1.05    1.44   131.99766   128.11401   426.37780
   663  H   1.0    0.05    1.03    1.43   135.64462   125.03580   426.66027
   664  H   1.0    0.06    1.03    1.43   137.41383   127.40361   428.18892
   665  H   1.0    0.05    1.03    1.43   133.84066   127.37389   431.55998
   666  H   1.0    0.05    1.03    1.43   132.92641   124.46676   430.21210
   667  H   1.0    0.05    1.03    1.43   138.27257   125.59881   432.08807
   668  H   1.0    0.05    1.03    1.43   135.93495   124.06795   433.91309
   669  H   1.0    0.06    1.02    1.43   135.68508   120.58700   430.92075
   670  H   1.0    0.06    1.02    1.43   137.86496   122.07299   428.86962
   671  H   1.0    0.10    1.06    1.44   139.62350   118.89570   431.69262
   672  H   1.0    0.12    1.17    1.46   141.23471   121.64402   431.71946
   673  H   1.0    0.07    1.01    1.43   138.99531   120.78624   434.16318
   674  N   5.0   -0.20    3.22    1.96   128.80884   135.85503   424.50275
   675  C   4.0    0.03    4.30    4.20   126.29040   135.31904   425.34346
   676  C   4.0    0.15    3.33    3.06   125.81529   135.72772   428.29486
   677  O   6.0   -0.29    1.19    1.80   123.67938   136.20470   429.07445
   678  C   4.0   -0.04    4.42    4.42   125.56586   132.61925   424.68491
   679  C   4.0   -0.02    4.20    3.99   125.36874   131.93547   421.93272
   680  C   4.0   -0.08    4.14    3.88   123.65187   129.61724   421.77778
   681  C   4.0   -0.08    4.17    3.94   124.28151   134.15411   420.51472
   682  H   1.0    0.12    1.05    1.44   129.93779   134.41157   423.93807
   683  H   1.0    0.05    1.06    1.44   124.99361   136.68544   424.48512
   684  H   1.0    0.05    1.03    1.43   126.90574   131.37005   425.65124
   685  H   1.0    0.05    1.04    1.44   123.71780   132.31454   425.57015
   686  H   1.0    0.05    1.05    1.44   127.23796   131.46983   421.18468
   687  H   1.0    0.04    1.00    1.43   123.56504   128.93726   419.84437
   688  H   1.0    0.05    1.00    1.43   124.41390   128.10277   422.93408
   689  H   1.0    0.05    1.00    1.43   121.75456   130.06436   422.41455
   690  H   1.0    0.04    1.00    1.43   123.88258   133.62652   418.56627
   691  H   1.0    0.04    1.00    1.43   122.50504   134.72694   421.38438
   692  H   1.0    0.04    1.00    1.43   125.56126   135.75404   420.50264
   693  N   5.0   -0.14    3.33    1.99   127.85046   135.44961   429.79685
   694  C   4.0    0.03    4.14    3.88   127.87228   135.91382   432.48457
   695  C   4.0    0.09    3.12    3.03   127.14568   138.62788   433.17147
   696  O   6.0   -0.27    1.12    1.80   125.39720   138.94092   434.65222
   697  H   1.0    0.11    1.08    1.44   129.50109   134.86866   429.03226
   698  H   1.0    0.07    1.03    1.43   126.49416   134.70328   433.44276
   699  H   1.0    0.05    1.02    1.43   129.76479   135.47832   433.17877
   700  N   5.0   -0.19    3.08    1.93   119.57952   142.27444   433.05708
   701  C   4.0    0.02    4.04    3.68   117.14619   142.11235   434.31901
   702  C   4.0    0.25    3.03    3.02   115.09636   140.27447   432.93255
   703  O   6.0   -0.28    1.17    1.80   115.55736   139.42454   430.76326
   704  O   6.0   -0.29    1.15    1.80   113.19176   139.80725   434.24236
   705  H   1.0    0.11    1.02    1.43   120.71802   140.76361   433.34183
   706  H   1.0    0.06    1.02    1.43   117.40781   141.40297   436.23027
   707  H   1.0    0.05    1.02    1.43   116.27214   143.97557   434.36553
   708  H   1.0    0.09    1.08    1.44    97.69654   121.48686   414.94162
   709  H   1.0    0.10    1.07    1.44   107.31905   139.72525   438.09947
   710  H   1.0    0.05    1.04    1.43   106.38729   134.18725   441.46123
   711  H   1.0    0.09    1.07    1.44    99.70889   132.26183   435.74595
   712  H   1.0    0.06    1.04    1.43   104.62353   127.51046   435.81194
   713  H   1.0    0.09    1.07    1.44    97.55040   122.69513   435.64283
   714  H   1.0    0.05    1.05    1.44   104.14061   116.35650   433.12305
   715  H   1.0    0.10    1.08    1.44    97.54693   112.89336   429.73726
   716  H   1.0    0.06    1.05    1.44   102.59619   105.38754   431.33177
   717  H   1.0    0.10    1.07    1.44   104.78663    98.38521   425.58893
   718  H   1.0    0.06    1.05    1.44   103.08224    95.34363   431.33498
   719  H   1.0    0.09    1.07    1.44   114.25043   128.14152   441.48476
   720  H   1.0    0.06    1.04    1.43   120.30222   125.70937   443.69948
   721  H   1.0    0.10    1.07    1.44   118.52913   117.90974   442.34212
   722  H   1.0    0.06    1.04    1.43   132.28099   111.78406   446.90044
   723  H   1.0    0.09    1.08    1.44   112.37139   103.03084   435.69291
   724  H   1.0    0.05    1.04    1.43   118.01410    99.90336   436.40483
   725  H   1.0    0.09    1.07    1.44   115.98970    96.91502   428.12494
   726  H   1.0    0.06    1.04    1.43   124.87045    97.05277   427.70032
   727  H   1.0    0.09    1.08    1.44   121.48686    97.69654   419.44419
   728  H   1.0    0.05    1.05    1.44   127.31206   101.69332   416.33223
   729  H   1.0    0.10    1.08    1.44   128.03825   106.16712   418.25325
   730  H   1.0    0.06    1.05    1.44   130.26285   112.73866   412.02272
   731  H   1.0    0.10    1.07    1.44   125.12589   110.73956   410.64631
   732  H   1.0    0.06    1.04    1.43   125.24412   119.90952   410.71674
   733  H   1.0    0.10    1.07    1.44   117.50514   119.73345   407.90489
   734  H   1.0    0.06    1.04    1.43   119.10904   127.44910   404.87487
   735  H   1.0    0.09    1.07    1.44   114.88413   125.71069   400.85290
   736  H   1.0    0.06    1.04    1.43   112.03098   135.12558   401.89072
   737  H   1.0    0.09    1.07    1.44   124.14969   142.46433   418.40248
   738  H   1.0    0.06    1.05    1.44   124.44197   141.96616   412.02272
   739  H   1.0    0.09    1.08    1.44   136.89367   128.74924   411.22851
   740  H   1.0    0.06    1.04    1.43   135.59578   127.25571   404.87487
   741  H   1.0    0.09    1.07    1.44   142.46433   124.14969   415.98333
   742  H   1.0    0.05    1.05    1.44   142.87252   129.47251   422.77130
   743  H   1.0    0.09    1.07    1.44   139.18063   132.02234   419.65535
   744  H   1.0    0.07    1.05    1.44   135.54071   132.36224   427.88491
   745  H   1.0    0.09    1.08    1.44   128.74924   136.89367   423.15730
   746  H   1.0    0.06    1.04    1.43   128.09103   140.07917   432.41574
   747  H   1.0    0.11    1.07    1.44   119.34078   142.40641   431.37835

  Z AO/shell   Hii/eV     exponent
  1     Wed Apr 25 08:07:45 CEST 2018   EN: 2.200 GM2: 0.406  GM3: 0.0800  RAES: 1.40
     1s    -10.707211    1.230000
  6     Wed Apr 25 08:07:45 CEST 2018   EN: 2.550 GM2: 0.538  GM3: 0.1500  RAES: 3.00
     2s    -13.970922    2.096432
     2p    -10.063292    1.800000
  7     Wed Apr 25 08:07:45 CEST 2018   EN: 3.040 GM2: 0.461  GM3:-0.0640  RAES: 1.90
     2s    -16.686243    2.339881
     2p    -12.523956    2.014332
  8     Wed Apr 25 08:07:45 CEST 2018   EN: 3.440 GM2: 0.452  GM3:-0.0517  RAES: 1.80
     2s    -20.229985    2.439742
     2p    -15.503117    2.137023
 no old-style atom pair restraining (fixing) potential

molecular fragmentation (1/2 indicates fragments):
111111111111111111111111111111111111111111111111111111111111111111111111
111111111111111111111111111111111111111111111111111111111111111111111111
111111111111111111111111111111111111111111111111111111111111111111111111
111111111122222222222222222222222222222222222222222222222222222222222222
222222222222222222222222222222222222222222222222222222222222222222222222
222222222222222222222222222222222222222222222222222222222222222222222222
222222222222222222222222222222222222222222222222222222222222222222222222
222222222222222222222222222222222222222222222222222222222222222222222222
222222222222222222222222222222222222222222222222222222222222222222222222
222222222222222222222222222222222222222222222222222222222221222222222222
222222222222222222222222222
# atoms in fragment 1/2:   227   520
 fragment masses (1/2) :     1619.81     3444.10
CMA distance (Bohr)    :   3.291
constraining FC (au)   :  0.0500
           ------------------------------------------------- 
          |        Self-Consistent Charge Iterations        |
           ------------------------------------------------- 

 Ncao       : 1812
 Nao        : 1812
 Nshell     : 1102
 Nel        : 2016
 T(el)      :   500.0
 intcut     :    35.0
 scfconv/Eh :  0.100E-06
   qconv/e  :  0.100E-04
 intneglect :  0.100E-08
 broydamp   :      0.400
 iter      E             dE          RMSdq      gap      omega  full diag
   1  -1155.9560017 -0.115596E+04  0.472E+00    2.87       0.0  T
   2  -1158.7199983 -0.276400E+01  0.222E+00    1.79       1.0  T
   3  -1158.8976816 -0.177683E+00  0.128E+00    1.89       1.0  T
   4  -1159.1190546 -0.221373E+00  0.263E-01    1.21       1.0  T
   5  -1159.1296328 -0.105782E-01  0.133E-01    1.31       1.0  T
   6  -1159.1332158 -0.358305E-02  0.620E-02    1.31       1.0  T
   7  -1159.1342445 -0.102864E-02  0.269E-02    1.30       1.0  T
   8  -1159.1343758 -0.131296E-03  0.126E-02    1.31       1.0  T
   9  -1159.1344051 -0.292977E-04  0.556E-03    1.31       1.0  T
  10  -1159.1344112 -0.616623E-05  0.282E-03    1.31       1.3  T
  11  -1159.1344126 -0.138019E-05  0.139E-03    1.31       2.6  T
  12  -1159.1344131 -0.439645E-06  0.712E-04    1.31       5.1  T
  13  -1159.1344132 -0.111800E-06  0.336E-04    1.31      10.9  T
  14  -1159.1344132 -0.192017E-07  0.179E-04    1.31      20.4  T
  15  -1159.1344132 -0.757223E-08  0.779E-05    1.31      47.0  T
  16  -1159.1344132 -0.149021E-08  0.393E-05    1.31      93.2  T
speedup  1.60
cpu  time for SCC    1 m 33.7 s
wall time for SCC    0 m 58.7 s

   *** convergence criteria satisfied after 16 iterations ***

          eigenvalues
 #    :         996        997        998        999       1000       1001       1002       1003
 occ. :        2.000      2.000      2.000      2.000      2.000      2.000      2.000      2.000
 eps  :        -9.937     -9.871     -9.833     -9.783     -9.758     -9.744     -9.738     -9.734
 #    :        1004       1005       1006       1007       1008       1009       1010       1011
 occ. :        2.000      2.000      2.000      2.000      2.000      0.000      0.000      0.000
 eps  :        -9.733     -9.711     -9.704     -9.673     -9.365     -8.053     -8.045     -7.953
 #    :        1012       1013       1014       1015       1016       1017       1018       1019
 occ. :        0.000      0.000      0.000      0.000      0.000      0.000      0.000      0.000
 eps  :        -7.935     -7.912     -7.871     -7.867     -7.850     -7.849     -7.828     -7.813


   #   Z            q   n(s)   n(p)   n(d)      C6AA      α(0)
   1   7 N     -0.383  1.313  4.071  0.000    29.917     8.123
   2   6 C      0.024  1.059  2.917  0.000    20.181     6.398
   3   6 C      0.266  1.049  2.685  0.000    22.515     7.770
   4   8 O     -0.443  1.749  4.693  0.000    22.551     6.367
   5   6 C     -0.065  1.049  3.016  0.000    21.750     6.639
   6   6 C     -0.095  1.056  3.039  0.000    22.299     6.721
   7   6 C      0.288  1.043  2.669  0.000    22.119     7.701
   8   8 O     -0.469  1.758  4.711  0.000    23.100     6.444
   9   7 N     -0.308  1.301  4.006  0.000    27.921     7.848
  10   1 H      0.156  0.844  0.000  0.000     1.360     1.827
  11   1 H      0.065  0.935  0.000  0.000     2.147     2.291
  12   1 H      0.038  0.962  0.000  0.000     2.481     2.463
  13   1 H      0.050  0.950  0.000  0.000     2.322     2.383
  14   1 H      0.062  0.938  0.000  0.000     2.174     2.306
  15   1 H      0.078  0.922  0.000  0.000     1.999     2.211
  16   1 H      0.225  0.775  0.000  0.000     0.988     1.557
  17   1 H      0.209  0.791  0.000  0.000     1.061     1.613
  18   7 N     -0.191  1.249  3.941  0.000    25.133     7.446
  19   6 C      0.011  1.066  2.923  0.000    20.397     6.430
  20   6 C      0.264  1.051  2.685  0.000    22.553     7.777
  21   8 O     -0.495  1.742  4.753  0.000    23.671     6.523
  22   6 C     -0.022  1.063  2.959  0.000    20.923     6.506
  23   6 C     -0.120  1.042  3.078  0.000    22.855     6.817
  24   6 C     -0.130  1.042  3.088  0.000    23.061     6.848
  25   1 H      0.200  0.800  0.000  0.000     1.104     1.646
  26   1 H      0.081  0.919  0.000  0.000     1.964     2.192
  27   1 H      0.042  0.958  0.000  0.000     2.425     2.435
  28   1 H      0.049  0.951  0.000  0.000     2.333     2.389
  29   1 H      0.021  0.979  0.000  0.000     2.723     2.580
  30   1 H      0.061  0.939  0.000  0.000     2.185     2.311
  31   1 H      0.058  0.942  0.000  0.000     2.223     2.331
  32   1 H      0.065  0.935  0.000  0.000     2.142     2.289
  33   1 H      0.063  0.937  0.000  0.000     2.161     2.299
  34   7 N     -0.181  1.256  3.925  0.000    24.921     7.414
  35   6 C      0.021  1.065  2.914  0.000    20.219     6.400
  36   6 C      0.279  1.045  2.676  0.000    22.277     7.729
  37   8 O     -0.470  1.736  4.734  0.000    23.129     6.448
  38   6 C      0.107  1.054  2.839  0.000    18.917     6.209
  39   8 O     -0.457  1.718  4.740  0.000    21.983     6.330
  40   6 C     -0.149  1.047  3.102  0.000    23.442     6.906
  41   1 H      0.225  0.775  0.000  0.000     0.986     1.555
  42   1 H      0.101  0.899  0.000  0.000     1.778     2.085
  43   1 H      0.038  0.962  0.000  0.000     2.470     2.458
  44   1 H      0.307  0.693  0.000  0.000     0.700     1.314
  45   1 H      0.071  0.929  0.000  0.000     2.076     2.253
  46   1 H      0.076  0.924  0.000  0.000     2.023     2.224
  47   1 H      0.054  0.946  0.000  0.000     2.269     2.356
  48   7 N     -0.183  1.243  3.940  0.000    24.962     7.420
  49   6 C      0.012  1.064  2.924  0.000    20.376     6.428
  50   6 C      0.268  1.044  2.688  0.000    22.473     7.763
  51   8 O     -0.485  1.735  4.750  0.000    23.454     6.493
  52   6 C      0.066  1.039  2.895  0.000    19.697     6.360
  53   8 O     -0.464  1.704  4.760  0.000    22.126     6.350
  54   1 H      0.222  0.778  0.000  0.000     1.000     1.566
  55   1 H      0.093  0.907  0.000  0.000     1.847     2.125
  56   1 H      0.039  0.961  0.000  0.000     2.464     2.455
  57   1 H      0.073  0.927  0.000  0.000     2.052     2.240
  58   1 H      0.354  0.646  0.000  0.000     0.580     1.196
  59   7 N     -0.173  1.241  3.931  0.000    24.733     7.386
  60   6 C      0.033  1.055  2.912  0.000    20.026     6.372
  61   6 C      0.272  1.042  2.686  0.000    22.405     7.752
  62   8 O     -0.509  1.741  4.767  0.000    23.975     6.565
  63   6 C     -0.072  1.054  3.018  0.000    21.871     6.658
  64   6 C     -0.101  1.064  3.037  0.000    22.422     6.742
  65   6 C      0.364  1.027  2.609  0.000    20.820     7.467
  66   8 O     -0.607  1.770  4.837  0.000    26.286     6.874
  67   8 O     -0.598  1.781  4.817  0.000    26.075     6.846
  68   1 H      0.214  0.786  0.000  0.000     1.038     1.596
  69   1 H      0.048  0.952  0.000  0.000     2.341     2.393
  70   1 H      0.072  0.928  0.000  0.000     2.066     2.248
  71   1 H      0.075  0.925  0.000  0.000     2.028     2.227
  72   1 H      0.047  0.953  0.000  0.000     2.352     2.398
  73   1 H      0.062  0.938  0.000  0.000     2.170     2.304
  74   7 N     -0.173  1.247  3.926  0.000    24.741     7.387
  75   6 C      0.030  1.058  2.912  0.000    20.062     6.375
  76   6 C      0.270  1.048  2.682  0.000    22.433     7.756
  77   8 O     -0.490  1.734  4.756  0.000    23.561     6.508
  78   6 C     -0.067  1.047  3.021  0.000    21.784     6.644
  79   6 C     -0.106  1.054  3.052  0.000    22.518     6.754
  80   6 C      0.280  1.045  2.676  0.000    22.266     7.726
  81   8 O     -0.474  1.747  4.727  0.000    23.221     6.461
  82   7 N     -0.289  1.267  4.022  0.000    27.457     7.782
  83   1 H      0.234  0.766  0.000  0.000     0.948     1.525
  84   1 H      0.076  0.924  0.000  0.000     2.022     2.223
  85   1 H      0.082  0.918  0.000  0.000     1.959     2.189
  86   1 H      0.062  0.938  0.000  0.000     2.181     2.309
  87   1 H      0.095  0.905  0.000  0.000     1.833     2.117
  88   1 H      0.060  0.940  0.000  0.000     2.201     2.320
  89   1 H      0.212  0.788  0.000  0.000     1.046     1.602
  90   1 H      0.221  0.779  0.000  0.000     1.006     1.571
  91   7 N     -0.181  1.254  3.928  0.000    24.931     7.416
  92   6 C      0.026  1.063  2.911  0.000    20.145     6.391
  93   6 C      0.275  1.043  2.682  0.000    22.357     7.742
  94   8 O     -0.488  1.732  4.756  0.000    23.524     6.503
  95   6 C     -0.133  1.044  3.090  0.000    23.119     6.856
  96   1 H      0.214  0.786  0.000  0.000     1.039     1.597
  97   1 H      0.076  0.924  0.000  0.000     2.017     2.221
  98   1 H      0.075  0.925  0.000  0.000     2.031     2.229
  99   1 H      0.082  0.918  0.000  0.000     1.960     2.189
 100   1 H      0.067  0.933  0.000  0.000     2.119     2.276
 101   7 N     -0.189  1.255  3.935  0.000    25.107     7.442
 102   6 C      0.022  1.067  2.912  0.000    20.219     6.404
 103   6 C      0.276  1.043  2.681  0.000    22.332     7.739
 104   8 O     -0.500  1.750  4.749  0.000    23.774     6.537
 105   6 C     -0.069  1.054  3.015  0.000    21.821     6.650
 106   6 C     -0.060  1.046  3.014  0.000    21.653     6.625
 107   6 C     -0.072  1.050  3.021  0.000    21.867     6.657
 108   6 C      0.010  1.037  2.953  0.000    20.501     6.462
 109   7 N     -0.210  1.269  3.942  0.000    25.567     7.510
 110   1 H      0.233  0.767  0.000  0.000     0.953     1.529
 111   1 H      0.066  0.934  0.000  0.000     2.127     2.281
 112   1 H      0.053  0.947  0.000  0.000     2.281     2.362
 113   1 H      0.054  0.946  0.000  0.000     2.265     2.354
 114   1 H      0.048  0.952  0.000  0.000     2.342     2.393
 115   1 H      0.046  0.954  0.000  0.000     2.374     2.410
 116   1 H      0.059  0.941  0.000  0.000     2.212     2.326
 117   1 H      0.057  0.943  0.000  0.000     2.238     2.339
 118   1 H      0.061  0.939  0.000  0.000     2.183     2.310
 119   1 H      0.063  0.937  0.000  0.000     2.166     2.302
 120   1 H      0.232  0.768  0.000  0.000     0.957     1.533
 121   1 H      0.288  0.712  0.000  0.000     0.750     1.356
 122   1 H      0.256  0.744  0.000  0.000     0.862     1.454
 123   7 N     -0.183  1.250  3.933  0.000    24.965     7.421
 124   6 C      0.040  1.050  2.910  0.000    19.894     6.348
 125   6 C      0.291  1.036  2.673  0.000    22.067     7.694
 126   8 O     -0.495  1.738  4.757  0.000    23.662     6.522
 127   6 C     -0.076  1.051  3.025  0.000    21.929     6.665
 128   6 C      0.010  1.070  2.920  0.000    27.792     8.648
 129   6 C     -0.047  1.080  2.967  0.000    29.155     8.856
 130   6 C     -0.047  1.077  2.970  0.000    29.178     8.859
 131   6 C     -0.035  1.079  2.956  0.000    28.863     8.811
 132   6 C     -0.035  1.079  2.955  0.000    28.860     8.811
 133   6 C     -0.035  1.076  2.959  0.000    28.883     8.813
 134   1 H      0.221  0.779  0.000  0.000     1.003     1.569
 135   1 H      0.055  0.945  0.000  0.000     2.263     2.352
 136   1 H      0.054  0.946  0.000  0.000     2.277     2.360
 137   1 H      0.068  0.932  0.000  0.000     2.109     2.271
 138   1 H      0.039  0.961  0.000  0.000     2.464     2.455
 139   1 H      0.025  0.975  0.000  0.000     2.657     2.549
 140   1 H      0.054  0.946  0.000  0.000     2.271     2.356
 141   1 H      0.041  0.959  0.000  0.000     2.438     2.442
 142   1 H      0.059  0.941  0.000  0.000     2.207     2.323
 143   7 N     -0.197  1.264  3.933  0.000    25.275     7.467
 144   6 C      0.037  1.057  2.905  0.000    19.929     6.352
 145   6 C      0.281  1.036  2.683  0.000    22.244     7.725
 146   8 O     -0.495  1.737  4.758  0.000    23.680     6.524
 147   6 C     -0.066  1.046  3.020  0.000    21.765     6.641
 148   6 C     -0.033  1.062  2.970  0.000    28.760     8.795
 149   6 C     -0.016  1.071  2.945  0.000    28.378     8.738
 150   6 C     -0.017  1.073  2.944  0.000    28.280     8.711
 151   7 N     -0.113  1.222  3.891  0.000    23.460     7.194
 152   6 C      0.038  1.066  2.895  0.000    27.053     8.527
 153   6 C     -0.037  1.078  2.959  0.000    28.915     8.817
 154   6 C     -0.062  1.070  2.992  0.000    29.532     8.911
 155   6 C     -0.040  1.079  2.962  0.000    29.000     8.831
 156   6 C     -0.038  1.078  2.960  0.000    28.939     8.822
 157   1 H      0.215  0.785  0.000  0.000     1.030     1.590
 158   1 H      0.074  0.926  0.000  0.000     2.042     2.235
 159   1 H      0.051  0.949  0.000  0.000     2.313     2.378
 160   1 H      0.066  0.934  0.000  0.000     2.129     2.282
 161   1 H      0.047  0.953  0.000  0.000     2.358     2.401
 162   1 H      0.189  0.811  0.000  0.000     1.163     1.690
 163   1 H      0.023  0.977  0.000  0.000     2.686     2.563
 164   1 H      0.051  0.949  0.000  0.000     2.305     2.374
 165   1 H      0.025  0.975  0.000  0.000     2.654     2.548
 166   1 H      0.045  0.955  0.000  0.000     2.385     2.415
 167   7 N     -0.193  1.251  3.942  0.000    25.189     7.454
 168   6 C      0.025  1.063  2.912  0.000    20.152     6.391
 169   6 C      0.265  1.057  2.678  0.000    22.536     7.773
 170   8 O     -0.490  1.749  4.741  0.000    23.572     6.509
 171   6 C     -0.068  1.053  3.015  0.000    21.787     6.642
 172   6 C     -0.013  1.050  2.962  0.000    20.766     6.481
 173   6 C     -0.119  1.044  3.075  0.000    22.820     6.809
 174   6 C     -0.124  1.041  3.083  0.000    22.925     6.825
 175   1 H      0.226  0.774  0.000  0.000     0.982     1.553
 176   1 H      0.073  0.927  0.000  0.000     2.049     2.239
 177   1 H      0.030  0.970  0.000  0.000     2.580     2.512
 178   1 H      0.052  0.948  0.000  0.000     2.298     2.371
 179   1 H      0.048  0.952  0.000  0.000     2.345     2.395
 180   1 H      0.055  0.945  0.000  0.000     2.254     2.348
 181   1 H      0.031  0.969  0.000  0.000     2.577     2.511
 182   1 H      0.048  0.952  0.000  0.000     2.349     2.397
 183   1 H      0.058  0.942  0.000  0.000     2.226     2.333
 184   1 H      0.041  0.959  0.000  0.000     2.440     2.443
 185   1 H      0.042  0.958  0.000  0.000     2.428     2.437
 186   7 N     -0.170  1.236  3.934  0.000    24.688     7.380
 187   6 C     -0.019  1.049  2.970  0.000    20.990     6.537
 188   6 C      0.276  1.041  2.682  0.000    22.324     7.737
 189   8 O     -0.491  1.741  4.750  0.000    23.584     6.511
 190   1 H      0.204  0.796  0.000  0.000     1.086     1.632
 191   1 H      0.079  0.921  0.000  0.000     1.986     2.204
 192   1 H      0.072  0.928  0.000  0.000     2.060     2.245
 193   7 N     -0.179  1.245  3.934  0.000    24.887     7.409
 194   6 C      0.023  1.054  2.923  0.000    20.179     6.393
 195   6 C      0.272  1.037  2.690  0.000    22.399     7.752
 196   8 O     -0.460  1.729  4.732  0.000    22.923     6.419
 197   6 C     -0.075  1.051  3.024  0.000    21.887     6.654
 198   6 C     -0.008  1.043  2.965  0.000    20.687     6.468
 199   6 C     -0.118  1.039  3.079  0.000    22.795     6.805
 200   6 C     -0.127  1.044  3.083  0.000    22.974     6.831
 201   1 H      0.215  0.785  0.000  0.000     1.035     1.593
 202   1 H      0.093  0.907  0.000  0.000     1.849     2.127
 203   1 H      0.049  0.951  0.000  0.000     2.328     2.386
 204   1 H      0.074  0.926  0.000  0.000     2.045     2.236
 205   1 H      0.026  0.974  0.000  0.000     2.643     2.542
 206   1 H      0.054  0.946  0.000  0.000     2.268     2.355
 207   1 H      0.026  0.974  0.000  0.000     2.645     2.544
 208   1 H      0.058  0.942  0.000  0.000     2.225     2.332
 209   1 H      0.053  0.947  0.000  0.000     2.277     2.360
 210   1 H      0.056  0.944  0.000  0.000     2.251     2.346
 211   1 H      0.042  0.958  0.000  0.000     2.425     2.435
 212   7 N     -0.184  1.234  3.950  0.000    24.977     7.423
 213   6 C     -0.018  1.047  2.971  0.000    20.974     6.534
 214   6 C      0.294  1.036  2.670  0.000    22.007     7.682
 215   8 O     -0.485  1.742  4.742  0.000    23.445     6.492
 216   1 H      0.201  0.799  0.000  0.000     1.102     1.645
 217   1 H      0.067  0.933  0.000  0.000     2.122     2.278
 218   1 H      0.069  0.931  0.000  0.000     2.099     2.266
 219   7 N     -0.173  1.263  3.910  0.000    24.746     7.388
 220   6 C     -0.043  1.073  2.970  0.000    21.465     6.616
 221   6 C      0.358  1.037  2.606  0.000    20.930     7.486
 222   8 O     -0.617  1.778  4.839  0.000    26.540     6.907
 223   8 O     -0.615  1.773  4.842  0.000    26.486     6.900
 224   1 H      0.184  0.816  0.000  0.000     1.193     1.711
 225   1 H      0.057  0.943  0.000  0.000     2.236     2.339
 226   1 H      0.064  0.936  0.000  0.000     2.154     2.295
 227   8 O     -0.650  1.780  4.870  0.000    26.409     6.936
 228   1 H      0.327  0.673  0.000  0.000     0.645     1.261
 229   1 H      0.323  0.677  0.000  0.000     0.657     1.273
 230   8 O     -0.621  1.739  4.881  0.000    25.688     6.841
 231   1 H      0.309  0.691  0.000  0.000     0.696     1.310
 232   1 H      0.305  0.695  0.000  0.000     0.705     1.319
 233   7 N     -0.380  1.300  4.080  0.000    29.830     8.112
 234   6 C      0.042  1.062  2.895  0.000    19.887     6.354
 235   6 C      0.195  1.100  2.705  0.000    23.845     7.997
 236   8 O     -0.349  1.741  4.608  0.000    20.682     6.097
 237   6 C     -0.045  1.051  2.994  0.000    21.376     6.582
 238   6 C     -0.095  1.069  3.027  0.000    22.321     6.728
 239   6 C      0.368  1.029  2.603  0.000    20.754     7.455
[...]
 461   1 H      0.066  0.934  0.000  0.000     2.136     2.285
 462   1 H      0.082  0.918  0.000  0.000     1.955     2.187
 463   1 H      0.220  0.780  0.000  0.000     1.008     1.572
 464   1 H      0.219  0.781  0.000  0.000     1.015     1.578
 465   7 N     -0.386  1.301  4.084  0.000    29.973     8.131
 466   6 C      0.035  1.061  2.904  0.000    19.980     6.364
 467   6 C      0.261  1.056  2.683  0.000    22.595     7.784
 468   8 O     -0.482  1.737  4.744  0.000    23.384     6.484
 469   6 C      0.114  1.054  2.832  0.000    18.807     6.191
 470   8 O     -0.460  1.716  4.744  0.000    22.045     6.339
 471   6 C     -0.141  1.046  3.095  0.000    23.283     6.882
 472   1 H      0.172  0.828  0.000  0.000     1.260     1.758
 473   1 H      0.052  0.948  0.000  0.000     2.295     2.369
 474   1 H      0.030  0.970  0.000  0.000     2.582     2.513
 475   1 H      0.291  0.709  0.000  0.000     0.747     1.358
 476   1 H      0.047  0.953  0.000  0.000     2.358     2.401
 477   1 H      0.079  0.921  0.000  0.000     1.994     2.208
 478   1 H      0.042  0.958  0.000  0.000     2.428     2.437
 479   7 N     -0.174  1.246  3.929  0.000    24.772     7.392
 480   6 C      0.017  1.061  2.922  0.000    20.306     6.417
 481   6 C      0.195  1.087  2.718  0.000    23.844     7.997
 482   8 O     -0.345  1.748  4.597  0.000    20.615     6.087
 483   6 C      0.068  1.040  2.892  0.000    19.671     6.356
 484   8 O     -0.473  1.719  4.754  0.000    22.321     6.378
 485   1 H      0.236  0.764  0.000  0.000     0.942     1.520
 486   1 H      0.090  0.910  0.000  0.000     1.879     2.144
 487   1 H      0.061  0.939  0.000  0.000     2.187     2.313
 488   1 H      0.064  0.936  0.000  0.000     2.150     2.293
 489   1 H      0.361  0.639  0.000  0.000     0.562     1.178
 490   7 N     -0.389  1.305  4.084  0.000    30.079     8.145
 491   6 C      0.040  1.055  2.904  0.000    19.904     6.353
 492   6 C      0.264  1.055  2.681  0.000    22.546     7.776
 493   8 O     -0.503  1.739  4.765  0.000    23.860     6.549
 494   6 C     -0.059  1.047  3.012  0.000    21.636     6.621
 495   6 C     -0.103  1.055  3.048  0.000    22.451     6.744
 496   6 C      0.285  1.044  2.670  0.000    22.162     7.708
 497   8 O     -0.485  1.755  4.730  0.000    23.455     6.493
 498   7 N     -0.306  1.275  4.031  0.000    27.872     7.841
 499   1 H      0.146  0.854  0.000  0.000     1.429     1.872
 500   1 H      0.035  0.965  0.000  0.000     2.514     2.480
 501   1 H      0.057  0.943  0.000  0.000     2.236     2.339
 502   1 H      0.047  0.953  0.000  0.000     2.364     2.404
 503   1 H      0.084  0.916  0.000  0.000     1.934     2.175
 504   1 H      0.056  0.944  0.000  0.000     2.248     2.345
 505   1 H      0.214  0.786  0.000  0.000     1.035     1.594
 506   1 H      0.229  0.771  0.000  0.000     0.970     1.543
 507   7 N     -0.166  1.250  3.916  0.000    24.593     7.365
 508   6 C      0.034  1.059  2.907  0.000    20.013     6.371
 509   6 C      0.204  1.091  2.705  0.000    23.657     7.965
 510   8 O     -0.343  1.735  4.608  0.000    20.571     6.081
 511   6 C     -0.129  1.044  3.085  0.000    23.040     6.844
 512   1 H      0.217  0.783  0.000  0.000     1.025     1.586
 513   1 H      0.075  0.925  0.000  0.000     2.030     2.228
 514   1 H      0.070  0.930  0.000  0.000     2.081     2.256
 515   1 H      0.069  0.931  0.000  0.000     2.098     2.265
 516   1 H      0.080  0.920  0.000  0.000     1.974     2.197
 517   7 N     -0.401  1.314  4.087  0.000    30.399     8.189
 518   6 C      0.040  1.057  2.904  0.000    19.914     6.354
 519   6 C      0.267  1.044  2.689  0.000    22.501     7.770
 520   8 O     -0.499  1.738  4.761  0.000    23.754     6.535
 521   6 C     -0.064  1.047  3.017  0.000    21.718     6.634
 522   6 C     -0.031  1.065  2.966  0.000    28.726     8.790
 523   6 C     -0.013  1.072  2.941  0.000    28.314     8.728
 524   6 C     -0.019  1.074  2.945  0.000    28.333     8.720
 525   7 N     -0.116  1.223  3.893  0.000    23.535     7.205
 526   6 C      0.037  1.067  2.896  0.000    27.084     8.532
 527   6 C     -0.040  1.078  2.962  0.000    28.984     8.828
 528   6 C     -0.063  1.072  2.991  0.000    29.560     8.915
 529   6 C     -0.047  1.078  2.969  0.000    29.155     8.855
 530   6 C     -0.043  1.078  2.965  0.000    29.074     8.843
 531   1 H      0.168  0.832  0.000  0.000     1.285     1.776
 532   1 H      0.033  0.967  0.000  0.000     2.549     2.497
 533   1 H      0.043  0.957  0.000  0.000     2.409     2.427
 534   1 H      0.048  0.952  0.000  0.000     2.351     2.398
 535   1 H      0.046  0.954  0.000  0.000     2.373     2.409
 536   1 H      0.184  0.816  0.000  0.000     1.190     1.709
 537   1 H      0.025  0.975  0.000  0.000     2.665     2.553
 538   1 H      0.051  0.949  0.000  0.000     2.309     2.376
 539   1 H      0.020  0.980  0.000  0.000     2.735     2.586
 540   1 H      0.040  0.960  0.000  0.000     2.451     2.448
 541   7 N     -0.177  1.249  3.928  0.000    24.833     7.401
 542   6 C      0.024  1.063  2.913  0.000    20.173     6.395
 543   6 C      0.195  1.101  2.704  0.000    23.827     7.993
 544   8 O     -0.364  1.755  4.609  0.000    20.978     6.141
 545   6 C     -0.076  1.057  3.019  0.000    21.931     6.664
 546   6 C     -0.013  1.051  2.962  0.000    20.769     6.482
 547   6 C     -0.120  1.042  3.077  0.000    22.835     6.811
 548   6 C     -0.123  1.040  3.083  0.000    22.907     6.822
 549   1 H      0.237  0.763  0.000  0.000     0.934     1.514
 550   1 H      0.084  0.916  0.000  0.000     1.936     2.176
 551   1 H      0.055  0.945  0.000  0.000     2.255     2.349
 552   1 H      0.063  0.937  0.000  0.000     2.160     2.298
 553   1 H      0.049  0.951  0.000  0.000     2.335     2.389
 554   1 H      0.042  0.958  0.000  0.000     2.427     2.436
 555   1 H      0.045  0.955  0.000  0.000     2.387     2.416
 556   1 H      0.049  0.951  0.000  0.000     2.331     2.387
 557   1 H      0.039  0.961  0.000  0.000     2.466     2.455
 558   1 H      0.044  0.956  0.000  0.000     2.392     2.418
 559   1 H      0.041  0.959  0.000  0.000     2.436     2.441
 560   7 N     -0.392  1.309  4.083  0.000    30.160     8.156
 561   6 C      0.031  1.051  2.918  0.000    20.041     6.373
 562   6 C      0.272  1.042  2.686  0.000    22.412     7.754
 563   8 O     -0.505  1.753  4.751  0.000    23.886     6.553
 564   6 C     -0.063  1.049  3.015  0.000    21.680     6.623
 565   6 C     -0.004  1.045  2.958  0.000    20.602     6.455
 566   6 C     -0.113  1.038  3.075  0.000    22.697     6.790
 567   6 C     -0.117  1.042  3.074  0.000    22.769     6.801
 568   1 H      0.157  0.843  0.000  0.000     1.358     1.825
 569   1 H      0.047  0.953  0.000  0.000     2.359     2.402
 570   1 H      0.049  0.951  0.000  0.000     2.327     2.386
 571   1 H      0.039  0.961  0.000  0.000     2.468     2.457
 572   1 H      0.029  0.971  0.000  0.000     2.596     2.520
 573   1 H      0.044  0.956  0.000  0.000     2.392     2.418
 574   1 H      0.034  0.966  0.000  0.000     2.536     2.490
 575   1 H      0.042  0.958  0.000  0.000     2.423     2.434
 576   1 H      0.045  0.955  0.000  0.000     2.380     2.412
 577   1 H      0.040  0.960  0.000  0.000     2.449     2.447
 578   1 H      0.033  0.967  0.000  0.000     2.547     2.496
 579   7 N     -0.169  1.233  3.936  0.000    24.653     7.374
 580   6 C     -0.026  1.047  2.979  0.000    21.125     6.558
 581   6 C      0.214  1.077  2.709  0.000    23.475     7.935
 582   8 O     -0.372  1.752  4.619  0.000    21.122     6.162
 583   1 H      0.229  0.771  0.000  0.000     0.971     1.544
 584   1 H      0.080  0.920  0.000  0.000     1.979     2.200
 585   1 H      0.113  0.887  0.000  0.000     1.668     2.020
 586   7 N     -0.394  1.313  4.081  0.000    30.214     8.164
 587   6 C      0.031  1.058  2.911  0.000    20.072     6.382
 588   6 C      0.196  1.093  2.711  0.000    23.818     7.993
 589   8 O     -0.371  1.754  4.617  0.000    21.111     6.160
 590   6 C      0.075  1.039  2.887  0.000    19.557     6.337
 591   8 O     -0.479  1.725  4.754  0.000    22.440     6.395
 592   1 H      0.190  0.810  0.000  0.000     1.156     1.684
 593   1 H      0.054  0.946  0.000  0.000     2.274     2.358
 594   1 H      0.041  0.959  0.000  0.000     2.431     2.438
 595   1 H      0.043  0.957  0.000  0.000     2.404     2.425
 596   1 H      0.353  0.647  0.000  0.000     0.582     1.198
 597   7 N     -0.383  1.302  4.082  0.000    29.915     8.123
 598   6 C      0.036  1.061  2.903  0.000    19.993     6.371
 599   6 C      0.189  1.107  2.704  0.000    23.947     8.013
 600   8 O     -0.379  1.763  4.616  0.000    21.269     6.183
 601   6 C     -0.068  1.056  3.013  0.000    21.790     6.642
 602   6 C     -0.008  1.049  2.958  0.000    20.680     6.468
 603   6 C     -0.124  1.044  3.079  0.000    22.916     6.824
 604   6 C     -0.117  1.039  3.078  0.000    22.781     6.804
 605   1 H      0.166  0.834  0.000  0.000     1.297     1.784
 606   1 H      0.060  0.940  0.000  0.000     2.193     2.316
 607   1 H      0.040  0.960  0.000  0.000     2.453     2.449
 608   1 H      0.046  0.954  0.000  0.000     2.373     2.409
 609   1 H      0.036  0.964  0.000  0.000     2.501     2.473
 610   1 H      0.045  0.955  0.000  0.000     2.387     2.416
 611   1 H      0.041  0.959  0.000  0.000     2.435     2.440
 612   1 H      0.049  0.951  0.000  0.000     2.334     2.389
 613   1 H      0.040  0.960  0.000  0.000     2.447     2.446
 614   1 H      0.044  0.956  0.000  0.000     2.399     2.422
 615   1 H      0.037  0.963  0.000  0.000     2.494     2.469
 616   7 N     -0.401  1.314  4.086  0.000    30.394     8.188
 617   6 C      0.023  1.061  2.916  0.000    20.206     6.403
 618   6 C      0.262  1.050  2.688  0.000    22.592     7.784
 619   8 O     -0.484  1.735  4.750  0.000    23.440     6.491
 620   6 C      0.073  1.038  2.890  0.000    19.591     6.343
 621   8 O     -0.471  1.712  4.759  0.000    22.269     6.370
 622   1 H      0.188  0.812  0.000  0.000     1.169     1.694
 623   1 H      0.053  0.947  0.000  0.000     2.283     2.363
 624   1 H      0.022  0.978  0.000  0.000     2.703     2.571
 625   1 H      0.052  0.948  0.000  0.000     2.299     2.371
 626   1 H      0.341  0.659  0.000  0.000     0.609     1.226
 627   7 N     -0.163  1.239  3.924  0.000    24.526     7.355
 628   6 C      0.035  1.055  2.910  0.000    19.993     6.367
 629   6 C      0.199  1.090  2.711  0.000    23.752     7.982
 630   8 O     -0.361  1.757  4.604  0.000    20.917     6.132
 631   6 C     -0.063  1.054  3.009  0.000    21.700     6.632
 632   6 C     -0.097  1.063  3.034  0.000    22.360     6.733
 633   6 C      0.363  1.028  2.609  0.000    20.840     7.471
 634   8 O     -0.598  1.768  4.831  0.000    26.065     6.846
 635   8 O     -0.597  1.777  4.821  0.000    26.053     6.843
 636   1 H      0.221  0.779  0.000  0.000     1.003     1.569
 637   1 H      0.069  0.931  0.000  0.000     2.101     2.267
 638   1 H      0.069  0.931  0.000  0.000     2.094     2.263
 639   1 H      0.065  0.935  0.000  0.000     2.141     2.288
 640   1 H      0.043  0.957  0.000  0.000     2.412     2.428
 641   1 H      0.050  0.950  0.000  0.000     2.322     2.383
 642   7 N     -0.393  1.317  4.076  0.000    30.186     8.160
 643   6 C      0.032  1.061  2.907  0.000    20.050     6.379
 644   6 C      0.268  1.051  2.681  0.000    22.474     7.763
 645   8 O     -0.511  1.743  4.768  0.000    24.038     6.573
 646   6 C     -0.119  1.043  3.076  0.000    22.831     6.813
 647   1 H      0.154  0.846  0.000  0.000     1.377     1.838
 648   1 H      0.039  0.961  0.000  0.000     2.456     2.451
 649   1 H      0.051  0.949  0.000  0.000     2.310     2.377
 650   1 H      0.057  0.943  0.000  0.000     2.239     2.340
 651   1 H      0.062  0.938  0.000  0.000     2.176     2.307
 652   7 N     -0.176  1.253  3.923  0.000    24.815     7.398
 653   6 C      0.030  1.064  2.906  0.000    20.086     6.384
 654   6 C      0.205  1.093  2.702  0.000    23.649     7.964
 655   8 O     -0.372  1.752  4.620  0.000    21.135     6.164
 656   6 C     -0.075  1.055  3.020  0.000    21.926     6.666
 657   6 C     -0.067  1.046  3.021  0.000    21.784     6.645
 658   6 C     -0.085  1.055  3.030  0.000    22.118     6.695
 659   6 C     -0.010  1.042  2.968  0.000    20.848     6.517
 660   7 N     -0.185  1.264  3.922  0.000    25.008     7.427
 661   1 H      0.244  0.756  0.000  0.000     0.905     1.491
 662   1 H      0.075  0.925  0.000  0.000     2.033     2.230
 663   1 H      0.064  0.936  0.000  0.000     2.148     2.292
 664   1 H      0.072  0.928  0.000  0.000     2.060     2.245
 665   1 H      0.057  0.943  0.000  0.000     2.233     2.337
 666   1 H      0.049  0.951  0.000  0.000     2.334     2.389
 667   1 H      0.074  0.926  0.000  0.000     2.046     2.237
 668   1 H      0.067  0.933  0.000  0.000     2.117     2.276
 669   1 H      0.077  0.923  0.000  0.000     2.011     2.217
 670   1 H      0.077  0.923  0.000  0.000     2.007     2.216
 671   1 H      0.248  0.752  0.000  0.000     0.893     1.480
 672   1 H      0.303  0.697  0.000  0.000     0.702     1.312
 673   1 H      0.252  0.748  0.000  0.000     0.876     1.466
 674   7 N     -0.403  1.306  4.097  0.000    30.449     8.195
 675   6 C      0.034  1.062  2.904  0.000    20.035     6.378
 676   6 C      0.256  1.065  2.679  0.000    22.694     7.800
 677   8 O     -0.519  1.767  4.752  0.000    24.208     6.597
 678   6 C     -0.059  1.053  3.007  0.000    21.622     6.617
 679   6 C     -0.006  1.049  2.958  0.000    20.652     6.463
 680   6 C     -0.117  1.044  3.073  0.000    22.777     6.803
 681   6 C     -0.109  1.037  3.073  0.000    22.635     6.782
 682   1 H      0.186  0.814  0.000  0.000     1.180     1.701
 683   1 H      0.038  0.962  0.000  0.000     2.479     2.462
 684   1 H      0.027  0.973  0.000  0.000     2.624     2.533
 685   1 H      0.021  0.979  0.000  0.000     2.713     2.576
 686   1 H      0.047  0.953  0.000  0.000     2.363     2.404
 687   1 H      0.055  0.945  0.000  0.000     2.256     2.349
 688   1 H      0.030  0.970  0.000  0.000     2.581     2.513
 689   1 H      0.035  0.965  0.000  0.000     2.515     2.480
 690   1 H      0.050  0.950  0.000  0.000     2.317     2.380
 691   1 H      0.029  0.971  0.000  0.000     2.606     2.524
 692   1 H      0.036  0.964  0.000  0.000     2.506     2.476
 693   7 N     -0.161  1.236  3.925  0.000    24.489     7.350
 694   6 C     -0.027  1.051  2.976  0.000    21.143     6.561
 695   6 C      0.208  1.082  2.710  0.000    23.591     7.954
 696   8 O     -0.372  1.767  4.606  0.000    21.138     6.164
 697   1 H      0.233  0.767  0.000  0.000     0.952     1.528
 698   1 H      0.083  0.917  0.000  0.000     1.948     2.183
 699   1 H      0.121  0.879  0.000  0.000     1.603     1.980
 700   7 N     -0.379  1.316  4.063  0.000    29.804     8.108
 701   6 C     -0.018  1.062  2.956  0.000    21.022     6.551
 702   6 C      0.349  1.046  2.605  0.000    21.077     7.512
 703   8 O     -0.631  1.774  4.856  0.000    26.882     6.951
 704   8 O     -0.638  1.771  4.867  0.000    27.072     6.976
 705   1 H      0.138  0.862  0.000  0.000     1.486     1.909
 706   1 H      0.004  0.996  0.000  0.000     2.985     2.702
 707   1 H      0.024  0.976  0.000  0.000     2.667     2.554
 708   1 H      0.183  0.817  0.000  0.000     1.197     1.714
 709   1 H      0.183  0.817  0.000  0.000     1.196     1.713
 710   1 H      0.088  0.912  0.000  0.000     1.900     2.156
 711   1 H      0.201  0.799  0.000  0.000     1.099     1.642
 712   1 H      0.066  0.934  0.000  0.000     2.125     2.279
 713   1 H      0.186  0.814  0.000  0.000     1.182     1.703
 714   1 H      0.077  0.923  0.000  0.000     2.015     2.220
 715   1 H      0.184  0.816  0.000  0.000     1.189     1.708
 716   1 H      0.066  0.934  0.000  0.000     2.124     2.279
 717   1 H      0.176  0.824  0.000  0.000     1.237     1.742
 718   1 H      0.073  0.927  0.000  0.000     2.048     2.238
 719   1 H      0.184  0.816  0.000  0.000     1.190     1.709
 720   1 H      0.084  0.916  0.000  0.000     1.939     2.178
 721   1 H      0.184  0.816  0.000  0.000     1.190     1.709
 722   1 H      0.072  0.928  0.000  0.000     2.065     2.247
 723   1 H      0.175  0.825  0.000  0.000     1.243     1.746
 724   1 H      0.087  0.913  0.000  0.000     1.904     2.158
 725   1 H      0.174  0.826  0.000  0.000     1.250     1.751
 726   1 H      0.084  0.916  0.000  0.000     1.941     2.179
 727   1 H      0.181  0.819  0.000  0.000     1.210     1.723
 728   1 H      0.056  0.944  0.000  0.000     2.241     2.341
 729   1 H      0.167  0.833  0.000  0.000     1.290     1.779
 730   1 H      0.088  0.912  0.000  0.000     1.900     2.156
 731   1 H      0.184  0.816  0.000  0.000     1.191     1.709
 732   1 H      0.085  0.915  0.000  0.000     1.927     2.171
 733   1 H      0.175  0.825  0.000  0.000     1.240     1.744
 734   1 H      0.077  0.923  0.000  0.000     2.010     2.217
 735   1 H      0.182  0.818  0.000  0.000     1.203     1.718
 736   1 H      0.075  0.925  0.000  0.000     2.034     2.230
 737   1 H      0.176  0.824  0.000  0.000     1.235     1.741
 738   1 H      0.084  0.916  0.000  0.000     1.937     2.176
 739   1 H      0.174  0.826  0.000  0.000     1.247     1.749
 740   1 H      0.076  0.924  0.000  0.000     2.017     2.221
 741   1 H      0.189  0.811  0.000  0.000     1.166     1.691
 742   1 H      0.089  0.911  0.000  0.000     1.891     2.150
 743   1 H      0.180  0.820  0.000  0.000     1.215     1.726
 744   1 H      0.082  0.918  0.000  0.000     1.959     2.189
 745   1 H      0.178  0.822  0.000  0.000     1.224     1.733
 746   1 H      0.088  0.912  0.000  0.000     1.895     2.152
 747   1 H      0.176  0.824  0.000  0.000     1.234     1.740

 Mol. C6AA /au·bohr⁶  :    5052982.427863
 Mol. C8AA /au·bohr⁸  :  111532826.579173
 Mol. α(0) /au        :       3370.347362

 
molecular dipole:
                 x           y           z       tot (Debye)
 q only:     -149.658    -146.102    -435.077
   full:     -151.019    -141.732    -436.833    1228.817
molecular quadrupole (traceless):
                xx          xy          yy          xz          yz          zz
 q only:    84120.488  -31900.118   84338.408  -97411.658  -95523.496 -168458.896
  q+dip:    84045.467  -31381.501   86267.708  -98589.761  -92968.818 -170313.176
   full:    84048.954  -31379.254   86261.913  -98589.199  -92962.964 -170310.867
speedup  1.67
cpu  time for grad    2 m  1.0 s
wall time for grad    1 m 12.5 s

SCC energy    :   -1159.1664194
rep           :      14.1458190
ES            :       3.4958855
AES           :      -0.1051080
AXC           :       0.3918879
disp          :      -0.9767437
XB            :       0.0000000
fix           :       0.0000000
Gborn         :       0.0000000
Gsasa         :       0.0000000
Ghb           :       0.0000000
Gshift        :       0.0000000
Gsolv         :      -0.7916848     -496.79
Etot ala COSMO:   -1159.1664194
grad norm     :       1.0364552
total E       :   -1144.9091463
atomizationE  :     206.6919121   129701.13
(atE without considering molecular charge,
 total energy contains solvation terms)
H-L gap (eV)  :          1.3117

------------------------------------------------------------------------
 * finished run on 2019/05/07 at 22:48:09.172     
------------------------------------------------------------------------
 total:
 * wall-time:     0 d,  0 h,  1 min, 14.420 sec
 *  cpu-time:     0 d,  0 h,  2 min,  4.165 sec
 * ratio c/w:     1.668 speedup
 SCF:
 * wall-time:     0 d,  0 h,  1 min, 13.773 sec
 *  cpu-time:     0 d,  0 h,  2 min,  3.275 sec
 * ratio c/w:     1.671 speedup

