      -----------------------------------------------------------      
     |                   =====================                   |     
     |                           x T B                           |     
     |                   =====================                   |     
     |                         S. Grimme                         |     
     |          Mulliken Center for Theoretical Chemistry        |     
     |                    University of Bonn                     |     
     |                 Version 6.0.1 (SAW181210)                 |     
      -----------------------------------------------------------      

   This program is distributed in the hope that it will be useful,
   but WITHOUT ANY WARRANTY; without even the implied warranty of
   MERCHANTABILITY or FITNESS FOR A PARTICULAR PURPOSE.
   
   FOR NON-COMMERCIAL, ACADEMIA USE ONLY.
   
   Cite this work as:
   S. Grimme, C. Bannwarth, P. Shushkov, J. Comput. Theory Chem., 2017,
   13, 1989-2009.
   C. Bannwarth, S. Ehlert and S. Grimme., ChemRxiv, 2018, preprint.
   http://doi.org/10.26434/chemrxiv.7246238.v1
   
   for sTDA-xTB:
   S. Grimme and C. Bannwarth, J. Chem. Phys., 2016, 145, 054103.
   
   in the mass-spec context:
   V. Asgeirsson, C. Bauer and S. Grimme, Chem. Sci., 2017, 8, 4879.
   
   if GBSA is used:
   P. Shushkov, F. März and S. Grimme, unpublished.
   
   for ANC optimizer:
   S. Grimme, unpublished.
   Rational Function algorithm used in ANCopt:
   F. Eckert, P. Pulay, H.-J. Werner, J. Comput. Chem., 1997, 18, 1473.
   
   with help from (in alphabetical order)
   C. Bannwarth, F. Bohle, G. Brandenburg, E. Caldeweyher, M. Checinski,
   S. Dohm, S. Ehlert, S. Ehrlich, F. März, H. Neugebauer, J. Pisarek,
   P. Pracht, P. Shushkov, and S. Spicher.
   
 * started run on 2019/05/12 at 13:13:15.433     
========================================================================
 # omp threads = 2
========================================================================
number of atoms            : 447
number of electrons        : 1126
charge                     : 4
spin                       : .0
first test random number   : .3496

########################################################################
# WARNING! Please study the warnings concerning your input carefully
#  - Process number higher than OMP_NUM_THREADS, I hope you know what you are doing.
########################################################################

           ------------------------------------------------- 
          |                 G F N 2 - x T B                 |
          | Geometry, Frequencies, Noncovalent interactions |
          |            JCTC 2018 parametrisation            |
           ------------------------------------------------- 
 
      method parameters     
 k(s)        :  1.8500
 k(p)        :  2.2300
 k(d)        :  2.2300
 k(f)        :  2.0000
 kEN (H0ij)  : -2.0000
 D4 a1       :  0.5200
 D4 a2       :  5.0000
 D4 s6       :  1.0000
 D4 s8       :  2.7000
 D4 s9       :  5.0000
 alphaj      :  2.0000

 Solvent             : h2o
 Using internal parameter file: .param_gbsa2_h2o
 Gsolv ref. state (COSMO-RS): gsolv [1 M gas/solution]
 temperature (mdtemp)       :    298.150000000000     
 dielectric constant        :    80.2000000000000     
 rho                        :    1.00000000000000     
 mass                       :    18.0000000000000     
 surface tension            :    15.5689454083859     
 probe radius               :   0.975313790000000     
 vdW radii scaling          :    1.00000000000000     
 Gshift (Eh)                :   1.857443126794793E-003
 c1                         :    1.55243817000000     
 soset                      :   0.130326360000000     
 HB correction              :  T

            Z     q(EN)     CN     RAES       Cart. coordinates
     1  N   5.0   -0.12    4.10    3.14    74.98174    38.97392   169.81980
     2  C   4.0   -0.00    4.31    4.22    74.18560    37.75050   167.38110
     3  C   4.0    0.15    3.42    3.09    72.62702    39.78430   165.94785
     4  O   6.0   -0.30    1.27    1.80    70.44459    40.17452   166.57908
     5  C   4.0   -0.03    4.32    4.23    72.49709    35.45708   167.98011
     6  C   4.0   -0.02    3.55    3.14    72.63767    33.50144   165.90817
     7  C   4.0   -0.04    3.48    3.11    72.14285    34.18801   163.43453
     8  C   4.0   -0.05    3.48    3.11    73.32840    31.01004   166.42974
     9  C   4.0   -0.04    3.39    3.07    72.34620    32.42190   161.52192
    10  C   4.0   -0.05    3.37    3.07    73.56989    29.24582   164.50975
    11  C   4.0   -0.05    3.38    3.07    73.07515    29.96174   162.05687
    12  H   1.0    0.06    1.02    1.43    75.76215    37.70284   171.06252
    13  H   1.0    0.06    1.01    1.43    76.23015    40.44653   169.50877
    14  H   1.0    0.08    1.02    1.43    73.36841    39.71524   170.66717
    15  H   1.0    0.04    1.04    1.44    75.84179    37.18612   166.29569
    16  H   1.0    0.04    1.03    1.43    73.02942    34.56796   169.75921
    17  H   1.0    0.06    1.04    1.43    70.54059    36.09932   168.14621
    18  H   1.0    0.06    1.03    1.43    71.58003    36.09750   162.99054
    19  H   1.0    0.05    1.03    1.43    73.66608    30.40013   168.35255
    20  H   1.0    0.06    1.03    1.43    71.97578    32.93816   159.58129
    21  H   1.0    0.05    1.03    1.43    74.10700    27.32736   164.94397
    22  H   1.0    0.04    1.03    1.43    73.21638    28.62080   160.52852
    23  N   5.0   -0.14    3.42    2.03    73.95301    41.21848   164.33554
    24  C   4.0    0.04    4.51    4.55    72.85352    43.56176   163.34391
    25  C   4.0    0.16    3.50    3.11    70.21399    43.14925   162.24761
    26  O   6.0   -0.32    1.28    1.80    69.88225    41.77837   160.42019
    27  C   4.0   -0.02    4.29    4.18    74.43109    44.79329   161.24698
    28  C   4.0   -0.07    4.15    3.89    73.66190    47.55750   161.03908
    29  C   4.0   -0.07    4.15    3.89    77.25741    44.65587   161.75840
    30  H   1.0    0.11    1.11    1.44    75.42311    40.47217   163.33657
    31  H   1.0    0.05    1.06    1.44    72.71209    44.85069   164.96559
    32  H   1.0    0.05    1.06    1.44    74.02398    43.82530   159.47396
    33  H   1.0    0.04    1.00    1.43    74.65845    48.40849   159.45861
    34  H   1.0    0.07    1.02    1.43    71.64764    47.77972   160.70573
    35  H   1.0    0.05    1.00    1.43    74.14469    48.55792   162.76838
    36  H   1.0    0.04    1.01    1.43    78.22023    45.91503   160.45881
    37  H   1.0    0.04    1.00    1.43    77.63476    45.23221   163.69115
    38  H   1.0    0.06    1.02    1.43    78.00530    42.77807   161.43904
    39  N   5.0   -0.13    3.48    2.07    68.36827    44.44922   163.39757
    40  C   4.0    0.03    4.49    4.53    65.92104    44.76369   162.21300
    41  C   4.0    0.16    3.42    3.08    66.26430    46.79464   160.17930
    42  O   6.0   -0.29    1.24    1.80    67.76522    48.53066   160.46028
    43  C   4.0   -0.04    4.33    4.25    63.85449    45.48260   164.09155
    44  C   4.0   -0.03    4.06    3.73    62.91151    43.16502   165.52512
    45  S   6.0   -0.05    2.57    3.10    61.20082    41.04213   163.47247
    46  C   4.0   -0.06    3.89    3.45    58.28373    42.80671   163.00576
    47  H   1.0    0.09    1.07    1.44    68.78945    45.67876   164.79361
    48  H   1.0    0.05    1.09    1.44    65.43975    42.96479   161.31091
    49  H   1.0    0.06    1.02    1.43    64.59407    46.87375   165.43235
    50  H   1.0    0.06    1.04    1.43    62.28754    46.36545   163.09138
    51  H   1.0    0.06    1.08    1.44    64.48453    42.07245   166.27574
    52  H   1.0    0.05    1.07    1.44    61.65282    43.69731   167.06516
    53  H   1.0    0.04    1.05    1.44    56.82945    41.41577   162.60661
    54  H   1.0    0.05    1.04    1.43    57.82682    43.78159   164.74802
    55  H   1.0    0.07    1.04    1.43    58.47090    44.15244   161.48167
    56  N   5.0   -0.13    3.54    2.10    64.93435    46.33816   158.09668
    57  C   4.0    0.03    4.49    4.53    65.28239    47.50666   155.63838
    58  C   4.0    0.15    3.44    3.09    63.52840    49.78179   155.26690
    59  O   6.0   -0.30    1.27    1.80    62.32918    50.71820   157.00931
    60  C   4.0   -0.02    4.42    4.42    64.72310    45.36292   153.81013
    61  C   4.0   -0.05    4.16    3.92    65.99681    45.51744   151.21614
    62  C   4.0   -0.06    4.17    3.93    61.84795    44.94463   153.72900
    63  C   4.0   -0.08    4.03    3.67    68.83126    45.99055   151.44411
    64  H   1.0    0.08    1.09    1.44    63.64240    44.94170   158.15254
    65  H   1.0    0.05    1.06    1.44    67.23290    48.19479   155.56820
    66  H   1.0    0.07    1.11    1.44    65.58724    43.69994   154.67472
    67  H   1.0    0.04    1.03    1.43    65.72345    43.67351   150.32150
    68  H   1.0    0.04    1.02    1.43    65.12875    46.88560   149.93771
    69  H   1.0    0.06    1.01    1.43    61.06257    45.62352   151.95743
    70  H   1.0    0.05    1.00    1.43    61.47842    42.92934   153.92048
    71  H   1.0    0.06    1.01    1.43    60.89161    45.91670   155.25321
    72  H   1.0    0.03    1.00    1.43    69.72587    45.68497   149.60755
    73  H   1.0    0.04    1.00    1.43    69.24422    47.91177   152.01916
    74  H   1.0    0.04    1.00    1.43    69.65781    44.67819   152.78066
    75  N   5.0   -0.13    3.41    2.02    63.43018    50.71874   152.91550
    76  C   4.0    0.02    4.16    3.92    61.28587    52.21500   152.11444
    77  C   4.0    0.09    3.13    3.03    59.76796    50.70411   150.17472
    78  O   6.0   -0.31    1.16    1.80    60.49306    48.67954   149.36254
    79  H   1.0    0.08    1.10    1.44    64.22535    49.69195   151.51865
    80  H   1.0    0.06    1.04    1.43    60.13959    52.64354   153.77398
    81  H   1.0    0.06    1.02    1.43    61.92873    53.99035   151.25762
    82  N   5.0   -0.19    3.22    1.96    53.80874    51.98952   160.44105
    83  C   4.0    0.04    4.33    4.26    55.52595    50.14012   159.40023
    84  C   4.0    0.16    3.42    3.08    54.65483    47.37588   159.44417
    85  O   6.0   -0.31    1.28    1.80    55.92161    45.75340   158.38056
    86  C   4.0    0.06    4.25    4.10    58.17387    50.18248   160.70973
    87  O   6.0   -0.26    2.13    1.84    58.21717    48.61673   162.86916
    88  C   4.0   -0.05    4.10    3.80    59.04429    52.86183   161.25391
    89  H   1.0    0.10    1.02    1.43    53.56971    51.96514   162.33661
    90  H   1.0    0.06    1.06    1.44    55.79529    50.67663   157.42044
    91  H   1.0    0.07    1.06    1.44    59.48337    49.30839   159.36795
    92  H   1.0    0.13    1.04    1.43    58.27380    49.68321   164.34756
    93  H   1.0    0.07    1.00    1.43    61.03527    52.82934   161.76483
    94  H   1.0    0.06    1.00    1.43    58.83639    54.03162   159.59065
    95  H   1.0    0.06    1.00    1.43    57.96267    53.71712   162.77682
    96  N   5.0   -0.14    3.44    2.04    52.56081    46.81102   160.71454
    97  C   4.0    0.04    4.34    4.28    51.59839    44.26631   160.86528
    98  C   4.0    0.10    3.23    3.04    49.25722    43.90588   159.21142
    99  O   6.0   -0.26    1.12    1.80    49.00521    42.03131   157.88986
   100  C   4.0   -0.03    4.31    4.22    50.96499    43.53355   163.60217
   101  C   4.0   -0.00    3.56    3.14    49.87033    40.90607   163.78884
   102  C   4.0   -0.03    3.47    3.10    51.22934    38.81389   162.96408
   103  C   4.0   -0.01    3.46    3.10    47.47966    40.51462   164.79702
   104  C   4.0   -0.03    3.38    3.07    50.20877    36.40889   163.09440
   105  C   4.0   -0.01    3.37    3.07    46.48096    38.10435   164.99698
   106  C   4.0   -0.01    3.37    3.07    47.82766    36.04427   164.12301
   107  H   1.0    0.09    1.06    1.44    51.51385    48.15815   161.59448
   108  H   1.0    0.06    1.07    1.44    53.07829    43.01612   160.14392
   109  H   1.0    0.05    1.03    1.43    52.70237    43.64843   164.71632
   110  H   1.0    0.06    1.03    1.43    49.63618    44.91328   164.36772
   111  H   1.0    0.05    1.03    1.43    53.11105    39.06522   162.22051
   112  H   1.0    0.07    1.03    1.43    46.40462    42.11181   165.49073
   113  H   1.0    0.05    1.03    1.43    51.25906    34.80818   162.38739
   114  H   1.0    0.08    1.03    1.43    44.64505    37.84103   165.85254
   115  H   1.0    0.08    1.03    1.43    47.04546    34.16819   164.27627
   116  N   5.0   -0.18    3.20    1.96    75.67609    16.43254   170.35457
   117  C   4.0    0.04    4.21    4.02    74.93104    19.05233   169.95014
   118  C   4.0    0.10    3.20    3.04    73.19300    19.29887   167.65781
   119  O   6.0   -0.30    1.14    1.80    71.39411    20.75282   167.61965
   120  C   4.0   -0.03    4.27    4.14    77.31690    20.67061   169.65583
   121  C   4.0   -0.02    4.16    3.92    76.80318    23.47574   170.00302
   122  C   4.0    0.26    3.08    3.02    79.25287    25.01277   170.64490
   123  O   6.0   -0.30    1.26    1.80    78.86620    27.25668   171.29726
   124  O   6.0   -0.25    1.18    1.80    81.33630    23.96834   170.47114
   125  H   1.0    0.11    1.03    1.43    77.54634    16.08592   170.47545
   126  H   1.0    0.07    1.05    1.44    73.84401    19.68127   171.60856
   127  H   1.0    0.08    1.03    1.43    78.66560    20.08016   171.11151
   128  H   1.0    0.06    1.03    1.43    78.16548    20.28335   167.82304
   129  H   1.0    0.05    1.02    1.43    75.94777    24.27795   168.30664
   130  H   1.0    0.06    1.03    1.43    75.47734    23.77157   171.55775
   131  N   5.0   -0.18    3.20    1.95    65.89993    22.08525   168.42756
   132  C   4.0    0.04    4.30    4.20    64.90766    24.41402   167.36742
   133  C   4.0    0.10    3.22    3.04    62.79250    23.87058   165.47842
   134  O   6.0   -0.28    1.15    1.80    60.93668    25.25707   165.35576
   135  C   4.0   -0.02    4.31    4.22    67.01878    26.11036   166.30046
   136  C   4.0   -0.05    4.18    3.96    66.27402    28.90849   166.48890
   137  C   4.0   -0.07    4.13    3.85    67.66837    25.41076   163.58345
   138  C   4.0   -0.07    4.01    3.63    66.36430    29.93592   169.17673
   139  H   1.0    0.12    1.04    1.43    67.65741    21.50435   167.93853
   140  H   1.0    0.06    1.06    1.44    63.97798    25.40132   168.94293
   141  H   1.0    0.05    1.06    1.44    68.70051    25.78439   167.46895
   142  H   1.0    0.04    1.03    1.43    67.61012    29.98668   165.34543
   143  H   1.0    0.05    1.03    1.43    64.38780    29.12822   165.69563
   144  H   1.0    0.04    1.00    1.43    69.29007    26.51068   162.96265
   145  H   1.0    0.06    1.00    1.43    68.16025    23.41681   163.45358
   146  H   1.0    0.05    1.00    1.43    66.08023    25.78527   162.33783
   147  H   1.0    0.04    1.00    1.43    65.91653    31.93521   169.17637
   148  H   1.0    0.05    1.00    1.43    65.03195    28.94751   170.39256
   149  H   1.0    0.05    1.00    1.43    68.24918    29.67493   169.96231
   150  N   5.0   -0.17    3.24    1.97    56.07484    27.75682   166.59548
   151  C   4.0    0.04    4.21    4.02    55.32797    29.29983   164.45159
   152  C   4.0    0.10    3.23    3.04    55.32099    27.48579   162.18925
   153  O   6.0   -0.27    1.14    1.80    57.24091    27.10631   160.95415
   154  C   4.0   -0.03    4.33    4.26    57.22872    31.43416   163.98813
   155  C   4.0   -0.02    3.53    3.13    57.67581    33.20394   166.17803
   156  C   4.0   -0.04    3.46    3.10    56.06985    35.23624   166.64523
   157  C   4.0   -0.04    3.46    3.10    59.83370    32.95476   167.65615
   158  C   4.0   -0.03    3.38    3.07    56.64792    37.00441   168.47927
   159  C   4.0   -0.03    3.37    3.07    60.41708    34.73400   169.48869
   160  C   4.0   -0.03    3.37    3.07    58.83923    36.77963   169.89308
   161  H   1.0    0.13    1.05    1.44    57.75355    26.83968   166.41422
   162  H   1.0    0.05    1.04    1.44    53.44347    30.03794   164.86872
   163  H   1.0    0.06    1.04    1.43    59.00550    30.54594   163.43480
   164  H   1.0    0.04    1.03    1.43    56.50486    32.51337   162.38689
   165  H   1.0    0.05    1.03    1.43    54.36522    35.44813   165.54709
   166  H   1.0    0.05    1.03    1.43    61.07762    31.37474   167.32488
   167  H   1.0    0.06    1.03    1.43    55.37230    38.56534   168.80290
   168  H   1.0    0.06    1.03    1.43    62.15420    34.53808   170.53800
   169  H   1.0    0.07    1.03    1.43    59.29306    38.19256   171.29172
   170  N   5.0   -0.16    3.25    1.97    56.28368    28.56062   153.94450
   171  C   4.0    0.04    4.20    4.00    58.39448    30.20023   153.34185
   172  C   4.0    0.09    3.19    3.04    60.73266    28.56872   152.71738
   173  O   6.0   -0.25    1.13    1.80    60.98678    26.42106   153.52119
   174  C   4.0   -0.05    4.24    4.07    59.00699    31.88885   155.63780
   175  C   4.0   -0.05    4.17    3.94    56.74932    33.46512   156.52922
   176  C   4.0   -0.05    4.14    3.88    56.42713    36.04473   155.23821
   177  C   4.0   -0.04    4.10    3.80    57.76217    38.20113   156.65028
   178  N   5.0   -0.12    4.02    2.91    56.33709    40.60057   156.26681
   179  H   1.0    0.12    1.03    1.43    56.56177    27.41257   155.44800
   180  H   1.0    0.06    1.05    1.44    57.85629    31.31879   151.68917
   181  H   1.0    0.05    1.03    1.43    59.56385    30.61734   157.16540
   182  H   1.0    0.04    1.02    1.43    60.61138    33.08734   155.15928
   183  H   1.0    0.05    1.04    1.43    55.03673    32.34961   156.22741
   184  H   1.0    0.04    1.03    1.43    56.91088    33.73673   158.56074
   185  H   1.0    0.05    1.02    1.43    57.08693    35.91187   153.29308
   186  H   1.0    0.05    1.03    1.43    54.40226    36.43822   155.19648
   187  H   1.0    0.04    1.02    1.43    57.83916    37.79435   158.66685
   188  H   1.0    0.04    1.02    1.43    59.69011    38.45449   155.96553
   189  H   1.0    0.08    1.03    1.43    56.99399    42.12592   157.31443
   190  H   1.0    0.06    1.02    1.43    56.37466    41.12881   154.39443
   191  H   1.0    0.07    1.02    1.43    54.46097    40.33388   156.74292
   192  N   5.0   -0.14    3.42    2.03    68.49700    27.71502   152.83004
   193  C   4.0    0.03    4.37    4.32    70.75352    28.54805   154.19142
   194  C   4.0    0.09    3.19    3.03    73.08368    28.59307   152.45214
   195  O   6.0   -0.28    1.12    1.80    73.91607    26.68112   151.42000
   196  C   4.0   -0.04    4.33    4.26    71.02080    26.55701   156.27206
   197  C   4.0   -0.03    4.26    4.13    70.12414    24.14102   154.96094
   198  C   4.0    0.02    4.23    4.06    67.97316    25.04410   153.22485
   199  H   1.0    0.05    1.05    1.44    70.44390    30.45673   154.89716
   200  H   1.0    0.04    1.03    1.43    72.94248    26.39252   156.94944
   201  H   1.0    0.04    1.02    1.43    69.74789    27.02407   157.82535
   202  H   1.0    0.06    1.03    1.43    71.63307    23.33434   153.82496
   203  H   1.0    0.05    1.02    1.43    69.47873    22.71763   156.29603
   204  H   1.0    0.07    1.02    1.43    67.98445    24.00556   151.44699
   205  H   1.0    0.06    1.02    1.43    66.13755    24.82998   154.14888
   206  N   5.0   -0.17    3.28    1.97    87.31423    47.06544   162.56289
   207  C   4.0    0.03    4.22    4.04    86.04494    44.70150   163.02709
   208  C   4.0    0.09    3.21    3.04    86.45148    42.91355   160.77631
   209  O   6.0   -0.26    1.15    1.80    87.14020    43.72424   158.77401
   210  C   4.0   -0.05    4.27    4.15    83.18684    45.22194   163.29691
   211  C   4.0   -0.05    4.19    3.98    82.52630    47.38490   165.09777
   212  C   4.0   -0.04    4.16    3.92    83.25947    46.81601   167.84684
   213  C   4.0   -0.03    4.11    3.82    81.96629    48.54022   169.77134
   214  N   5.0   -0.11    4.02    2.91    82.89405    51.19176   169.54543
   215  H   1.0    0.11    1.03    1.43    87.11165    47.78543   160.81937
   216  H   1.0    0.05    1.04    1.44    86.85962    43.91793   164.75974
   217  H   1.0    0.05    1.03    1.43    82.48279    45.67774   161.41983
   218  H   1.0    0.04    1.03    1.43    82.26424    43.48968   163.91998
   219  H   1.0    0.04    1.03    1.43    83.45925    49.08652   164.42777
   220  H   1.0    0.04    1.03    1.43    80.48936    47.66445   164.98850
   221  H   1.0    0.05    1.03    1.43    82.70034    44.88294   168.29071
   222  H   1.0    0.05    1.02    1.43    85.30727    46.92396   168.05427
   223  H   1.0    0.05    1.02    1.43    79.92539    48.52370   169.46771
   224  H   1.0    0.06    1.02    1.43    82.37038    47.86797   171.67294
   225  H   1.0    0.08    1.02    1.43    82.01102    52.35491   170.84026
   226  H   1.0    0.08    1.02    1.43    84.80887    51.24739   169.87508
   227  H   1.0    0.06    1.02    1.43    82.57637    51.87830   167.75436
   228  N   5.0   -0.19    3.26    1.97    82.21947    36.81467   160.25280
   229  C   4.0    0.03    4.30    4.21    79.95532    35.32645   159.84469
   230  C   4.0    0.15    3.40    3.08    77.73062    37.15555   159.58435
   231  O   6.0   -0.33    1.32    1.80    77.48609    38.85041   161.13866
   232  C   4.0   -0.04    4.24    4.08    79.56263    33.43166   162.05407
   233  C   4.0   -0.04    4.20    4.00    80.37358    34.50491   164.59931
   234  C   4.0   -0.05    4.16    3.92    79.55593    32.78377   166.77728
   235  C   4.0   -0.03    4.10    3.80    80.27469    33.88243   169.37297
   236  N   5.0   -0.11    4.02    2.91    79.08495    32.40630   171.44884
   237  H   1.0    0.09    1.03    1.43    82.12880    38.11904   161.63661
   238  H   1.0    0.04    1.05    1.44    80.16865    34.27261   158.07712
   239  H   1.0    0.05    1.03    1.43    77.57272    32.89290   162.08624
   240  H   1.0    0.05    1.02    1.43    80.64532    31.72651   161.64307
   241  H   1.0    0.05    1.03    1.43    82.42586    34.69551   164.62592
   242  H   1.0    0.05    1.03    1.43    79.53187    36.37716   164.81072
   243  H   1.0    0.04    1.04    1.43    77.51751    32.50647   166.67469
   244  H   1.0    0.06    1.03    1.43    80.42678    30.93701   166.54880
   245  H   1.0    0.06    1.02    1.43    82.32329    33.77130   169.59503
   246  H   1.0    0.04    1.02    1.43    79.69772    35.84661   169.51151
   247  H   1.0    0.08    1.02    1.43    79.76686    32.87527   173.18796
   248  H   1.0    0.06    1.02    1.43    77.14555    32.52660   171.40661
   249  H   1.0    0.11    1.07    1.44    79.41429    30.42850   171.21523
   250  N   5.0   -0.14    3.45    2.05    76.16615    36.75671   157.66292
   251  C   4.0    0.04    4.37    4.33    74.00204    38.29762   157.02743
   252  C   4.0    0.14    3.42    3.09    71.69847    36.63046   156.35088
   253  O   6.0   -0.32    1.23    1.80    71.96296    34.72869   155.02380
   254  C   4.0   -0.03    4.35    4.29    74.45026    39.80372   154.54334
   255  C   4.0   -0.01    3.55    3.14    76.69112    41.52984   154.61079
   256  C   4.0   -0.03    3.48    3.11    79.13672    40.54954   154.58779
   257  C   4.0   -0.04    3.46    3.10    76.35860    44.12785   154.65829
   258  C   4.0   -0.02    3.37    3.07    81.20744    42.14192   154.64184
   259  C   4.0   -0.04    3.38    3.07    78.43248    45.71707   154.70372
   260  C   4.0   -0.03    3.37    3.07    80.85875    44.73443   154.70087
   261  H   1.0    0.08    1.07    1.44    76.56424    35.35212   156.41120
   262  H   1.0    0.06    1.05    1.44    73.57353    39.55461   158.60295
   263  H   1.0    0.05    1.03    1.43    74.70532    38.41628   153.03554
   264  H   1.0    0.04    1.03    1.43    72.73619    40.87528   154.14747
   265  H   1.0    0.06    1.03    1.43    79.43969    38.53391   154.47490
   266  H   1.0    0.05    1.03    1.43    74.47902    44.90907   154.65986
   267  H   1.0    0.07    1.03    1.43    83.09459    41.36688   154.66141
   268  H   1.0    0.05    1.03    1.43    78.16364    47.74173   154.73240
   269  H   1.0    0.07    1.03    1.43    82.49052    45.96538   154.75826
   270  N   5.0   -0.14    3.45    2.04    69.45352    37.42507   157.18723
   271  C   4.0    0.03    4.42    4.41    67.09315    36.20944   156.47382
   272  C   4.0    0.14    3.46    3.10    65.88147    37.65940   154.30370
   273  O   6.0   -0.32    1.29    1.80    65.40076    39.90424   154.54836
   274  C   4.0   -0.04    4.39    4.36    65.19597    36.27831   158.65899
   275  C   4.0   -0.02    4.19    3.97    65.86606    34.44899   160.78451
   276  C   4.0   -0.07    4.11    3.82    64.61655    35.29207   163.25262
   277  C   4.0   -0.08    4.11    3.82    65.07282    31.78007   160.06918
   278  H   1.0    0.11    1.10    1.44    69.31636    39.03872   158.21976
   279  H   1.0    0.05    1.06    1.44    67.53166    34.28165   155.87113
   280  H   1.0    0.05    1.03    1.43    65.12914    38.21040   159.37623
   281  H   1.0    0.04    1.04    1.43    63.32963    35.80256   157.93735
   282  H   1.0    0.05    1.07    1.44    67.90928    34.47557   161.05694
   283  H   1.0    0.04    1.00    1.43    65.04195    33.97040   164.76030
   284  H   1.0    0.05    1.01    1.43    65.26647    37.15737   163.79290
   285  H   1.0    0.04    1.00    1.43    62.57327    35.36686   163.04021
   286  H   1.0    0.04    1.00    1.43    65.73041    30.42235   161.46372
   287  H   1.0    0.04    1.00    1.43    63.02136    31.63480   159.98718
   288  H   1.0    0.04    1.00    1.43    65.82915    31.22996   158.24271
   289  N   5.0   -0.14    3.47    2.06    65.20637    36.30580   152.26887
   290  C   4.0    0.03    4.53    4.57    64.46531    37.60178   149.98921
   291  C   4.0    0.14    3.49    3.11    61.88951    36.69571   149.06042
   292  O   6.0   -0.28    1.25    1.80    61.40294    34.42843   148.89749
   293  C   4.0   -0.01    4.26    4.12    66.50622    37.22166   147.90564
   294  C   4.0   -0.07    4.12    3.85    66.11501    39.13909   145.78989
   295  C   4.0   -0.07    4.15    3.89    69.13686    37.61147   149.01361
   296  H   1.0    0.08    1.06    1.44    65.83430    34.49720   152.05358
   297  H   1.0    0.05    1.09    1.44    64.40709    39.60688   150.47912
   298  H   1.0    0.06    1.05    1.44    66.34829    35.30779   147.15881
   299  H   1.0    0.05    1.01    1.43    67.62609    38.94177   144.42479
   300  H   1.0    0.06    1.00    1.43    64.30892    38.84693   144.85373
   301  H   1.0    0.03    1.00    1.43    66.21085    41.04554   146.55477
   302  H   1.0    0.05    1.01    1.43    70.52940    37.60707   147.52013
   303  H   1.0    0.04    1.00    1.43    69.23088    39.43046   149.98216
   304  H   1.0    0.06    1.00    1.43    69.61011    36.12899   150.35774
   305  N   5.0   -0.10    3.63    2.19    60.15194    38.46913   148.49911
   306  C   4.0    0.04    4.48    4.51    57.81037    37.81112   147.19427
   307  C   4.0    0.10    3.24    3.04    58.21831    36.02262   144.96819
   308  O   6.0   -0.27    1.12    1.80    59.97624    36.22291   143.47592
   309  C   4.0   -0.04    4.35    4.29    56.77656    40.34057   146.19014
   310  C   4.0   -0.04    4.26    4.11    57.83495    42.25912   148.04962
   311  C   4.0   -0.02    4.39    4.36    60.45483    41.20165   148.59489
   312  H   1.0    0.05    1.04    1.43    56.50395    36.92667   148.53402
   313  H   1.0    0.05    1.03    1.43    57.53745    40.67300   144.29944
   314  H   1.0    0.06    1.02    1.43    54.73143    40.31518   146.01094
   315  H   1.0    0.05    1.02    1.43    57.90591    44.15672   147.28575
   316  H   1.0    0.05    1.02    1.43    56.68316    42.26216   149.76343
   317  H   1.0    0.04    1.02    1.43    61.76650    41.83001   147.12034
   318  H   1.0    0.04    1.04    1.43    61.18198    41.76245   150.41956
   319  N   5.0   -0.16    3.24    1.96    59.10333    39.58682   137.63305
   320  C   4.0    0.04    4.22    4.05    60.71018    41.81147   137.58017
   321  C   4.0    0.10    3.22    3.04    62.57711    41.43812   135.40221
   322  O   6.0   -0.23    1.14    1.80    63.59519    39.35641   135.08422
   323  C   4.0   -0.04    4.35    4.29    62.17042    42.10772   140.07482
   324  C   4.0   -0.03    4.17    3.94    62.99576    44.82526   140.61108
   325  C   4.0   -0.06    4.10    3.81    60.70729    46.54478   141.02838
   326  C   4.0   -0.08    4.11    3.82    64.70600    44.85663   142.93867
   327  H   1.0    0.12    1.03    1.43    59.99076    37.89960   137.61082
   328  H   1.0    0.05    1.05    1.44    59.47831    43.42374   137.24314
   329  H   1.0    0.05    1.03    1.43    60.94888    41.43199   141.59392
   330  H   1.0    0.06    1.03    1.43    63.81858    40.87107   140.01176
   331  H   1.0    0.05    1.05    1.44    64.07041    45.51340   138.98415
   332  H   1.0    0.05    1.00    1.43    61.29327    48.31781   141.87213
   333  H   1.0    0.06    1.00    1.43    59.76587    46.94787   139.25006
   334  H   1.0    0.05    1.00    1.43    59.34313    45.63578   142.27070
   335  H   1.0    0.04    1.00    1.43    65.37037    46.77074   143.29594
   336  H   1.0    0.04    1.00    1.43    63.66482    44.21522   144.57555
   337  H   1.0    0.04    1.00    1.43    66.33663    43.64453   142.65287
   338  N   5.0   -0.19    3.21    1.96    70.83243    48.13017   137.72326
   339  C   4.0    0.03    4.25    4.10    72.42355    47.24861   139.74900
   340  C   4.0    0.10    3.22    3.04    74.98822    48.56845   139.72819
   341  O   6.0   -0.28    1.12    1.80    75.88607    49.47147   141.69341
   342  C   4.0   -0.03    4.33    4.25    72.74952    44.39414   139.58797
   343  C   4.0   -0.01    3.55    3.14    73.95480    43.31409   141.93173
   344  C   4.0   -0.04    3.47    3.10    73.16319    44.01555   144.36406
   345  C   4.0   -0.02    3.46    3.10    75.86887    41.53857   141.70211
   346  C   4.0   -0.04    3.37    3.07    74.30364    42.99896   146.47013
   347  C   4.0   -0.02    3.37    3.07    76.96701    40.46557   143.85168
   348  C   4.0   -0.03    3.36    3.07    76.21912    41.21579   146.23888
   349  H   1.0    0.10    1.03    1.43    70.03048    46.85633   136.54748
   350  H   1.0    0.04    1.06    1.44    71.54217    47.78492   141.55394
   351  H   1.0    0.05    1.03    1.43    70.86023    43.58912   139.34117
   352  H   1.0    0.06    1.03    1.43    73.88033    43.91871   137.94199
   353  H   1.0    0.04    1.03    1.43    71.63330    45.33356   144.59277
   354  H   1.0    0.07    1.03    1.43    76.52040    40.96909   139.86646
   355  H   1.0    0.05    1.03    1.43    73.68902    43.55959   148.33208
   356  H   1.0    0.07    1.03    1.43    78.43646    39.07607   143.60212
   357  H   1.0    0.06    1.03    1.43    77.06479    40.39043   147.89376
   358  N   5.0   -0.18    3.21    1.96    74.61013    54.82120   142.47330
   359  C   4.0    0.04    4.30    4.19    74.39555    54.89427   145.21016
   360  C   4.0    0.10    3.22    3.04    76.99837    54.42869   146.42596
   361  O   6.0   -0.29    1.12    1.80    77.63775    55.47184   148.37342
   362  C   4.0   -0.02    4.32    4.23    72.43326    53.03881   146.28526
   363  C   4.0   -0.04    4.20    3.99    69.89365    53.26448   144.91626
   364  C   4.0   -0.07    4.15    3.90    72.10338    53.58842   149.08804
   365  C   4.0   -0.07    4.02    3.66    67.96577    51.32732   145.83457
   366  H   1.0    0.10    1.03    1.43    73.62391    53.51245   141.49437
   367  H   1.0    0.06    1.05    1.44    73.84866    56.82854   145.74898
   368  H   1.0    0.05    1.05    1.44    73.17341    51.12126   146.00731
   369  H   1.0    0.05    1.03    1.43    69.14135    55.16682   145.19979
   370  H   1.0    0.05    1.03    1.43    70.14826    53.00022   142.89370
   371  H   1.0    0.04    1.00    1.43    71.14085    52.03103   150.02235
   372  H   1.0    0.06    1.01    1.43    73.92303    53.85713   149.99928
   373  H   1.0    0.05    1.00    1.43    70.99627    55.29667   149.35057
   374  H   1.0    0.05    1.00    1.43    66.28360    51.39012   144.65868
   375  H   1.0    0.03    1.00    1.43    68.75436    49.42959   145.74366
   376  H   1.0    0.04    1.00    1.43    67.40033    51.69934   147.77175
   377  N   5.0   -0.18    3.20    1.96    82.10938    59.85564   150.52991
   378  C   4.0    0.04    4.23    4.05    83.36329    59.47642   152.91025
   379  C   4.0    0.11    3.20    3.04    86.20257    60.06048   152.83130
   380  O   6.0   -0.23    1.12    1.80    87.49690    59.98017   154.76104
   381  C   4.0   -0.04    4.29    4.19    83.00855    56.76977   153.84268
   382  C   4.0   -0.04    4.16    3.93    80.27101    56.18514   154.52872
   383  C   4.0   -0.01    4.19    3.99    80.03334    53.40956   155.34052
   384  N   5.0   -0.14    3.38    2.01    78.46578    53.05221   157.58526
   385  C   4.0    0.10    3.33    3.06    79.22675    53.30839   159.97750
   386  N   5.0   -0.18    3.24    1.97    81.63890    53.61790   160.63147
   387  N   5.0   -0.18    3.25    1.97    77.52005    52.98293   161.79691
   388  H   1.0    0.11    1.02    1.43    81.91169    58.35709   149.35546
   389  H   1.0    0.07    1.05    1.44    82.56662    60.83300   154.26352
   390  H   1.0    0.06    1.03    1.43    83.65274    55.51280   152.33351
   391  H   1.0    0.07    1.03    1.43    84.26272    56.52240   155.46442
   392  H   1.0    0.06    1.03    1.43    79.70164    57.42803   156.07152
   393  H   1.0    0.06    1.03    1.43    79.07370    56.57092   152.90824
   394  H   1.0    0.05    1.03    1.43    79.18243    52.30530   153.82803
   395  H   1.0    0.05    1.03    1.43    81.90380    52.62418   155.72371
   396  H   1.0    0.08    1.07    1.44    76.59587    53.00349   157.26171
   397  H   1.0    0.09    1.02    1.43    83.03035    54.01110   159.37639
   398  H   1.0    0.09    1.04    1.43    82.06667    54.11174   162.41219
   399  H   1.0    0.09    1.03    1.43    75.66341    52.83232   161.38714
   400  H   1.0    0.09    1.03    1.43    77.96785    53.38725   163.61087
   401  N   5.0   -0.16    3.22    1.96    76.55642    18.45584   153.16468
   402  C   4.0    0.04    4.23    4.05    77.29297    20.93390   152.26346
   403  C   4.0    0.11    3.21    3.04    77.74254    20.86928   149.39753
   404  O   6.0   -0.21    1.13    1.80    78.37032    18.96529   148.27530
   405  C   4.0   -0.02    4.33    4.26    79.75650    21.75786   153.52379
   406  C   4.0   -0.01    3.54    3.14    79.47574    22.37020   156.29254
   407  C   4.0   -0.04    3.47    3.10    77.76313    24.18307   157.10439
   408  C   4.0   -0.02    3.46    3.10    81.01633    21.20492   158.07343
   409  C   4.0   -0.04    3.37    3.07    77.58853    24.81261   159.64802
   410  C   4.0   -0.02    3.38    3.07    80.82912    21.82036   160.60499
   411  C   4.0   -0.03    3.37    3.07    79.11930    23.63566   161.40531
   412  H   1.0    0.11    1.02    1.43    77.98924    17.23053   153.53292
   413  H   1.0    0.05    1.05    1.44    75.74891    22.25553   152.65798
   414  H   1.0    0.07    1.04    1.43    81.11424    20.22874   153.29633
   415  H   1.0    0.06    1.03    1.43    80.48076    23.42369   152.53368
   416  H   1.0    0.06    1.03    1.43    76.60173    25.13496   155.72600
   417  H   1.0    0.07    1.03    1.43    82.33763    19.77447   157.45486
   418  H   1.0    0.05    1.03    1.43    76.27325    26.23750   160.25850
   419  H   1.0    0.07    1.03    1.43    82.00130    20.86494   161.97449
   420  H   1.0    0.06    1.03    1.43    78.97792    24.09837   163.38518
   421  H   1.0    0.10    1.07    1.44    75.68869    18.61532   154.61870
   422  H   1.0    0.08    1.05    1.44    77.52037    22.44000   148.37061
   423  H   1.0    0.07    1.05    1.44    58.12183    51.37463   149.53307
   424  H   1.0    0.11    1.08    1.44    54.36237    53.55311   160.06523
   425  H   1.0    0.08    1.05    1.44    47.89784    45.21852   159.19916
   426  H   1.0    0.12    1.07    1.44    75.00637    15.87058   171.81341
   427  H   1.0    0.07    1.05    1.44    73.50678    18.25064   166.11708
   428  H   1.0    0.11    1.07    1.44    65.95606    22.21180   170.12267
   429  H   1.0    0.07    1.04    1.44    62.91319    22.37538   164.32913
   430  H   1.0    0.11    1.08    1.44    56.21286    28.73612   167.97913
   431  H   1.0    0.08    1.04    1.43    53.73023    26.58994   161.70138
   432  H   1.0    0.10    1.08    1.44    54.91393    29.50500   154.29734
   433  H   1.0    0.07    1.04    1.44    62.10449    29.26457   151.61969
   434  H   1.0    0.09    1.10    1.44    67.31967    28.94144   152.87844
   435  H   1.0    0.07    1.04    1.44    73.98524    30.22080   152.12233
   436  H   1.0    0.09    1.10    1.44    86.72394    48.24680   163.63458
   437  H   1.0    0.06    1.05    1.44    86.14186    41.05990   160.97416
   438  H   1.0    0.10    1.08    1.44    83.50950    35.78490   160.66266
   439  H   1.0    0.08    1.05    1.44    57.01504    34.59652   144.66911
   440  H   1.0    0.11    1.08    1.44    58.16259    39.59952   139.04988
   441  H   1.0    0.07    1.04    1.43    62.97213    42.87456   134.23960
   442  H   1.0    0.10    1.07    1.44    69.51858    48.99588   138.36894
   443  H   1.0    0.08    1.04    1.43    75.96394    48.71198   138.11622
   444  H   1.0    0.11    1.07    1.44    74.09855    56.30749   141.82384
   445  H   1.0    0.08    1.05    1.44    78.22133    53.23877   145.61386
   446  H   1.0    0.11    1.08    1.44    80.52337    60.40478   150.80484
   447  H   1.0    0.09    1.04    1.44    87.02852    60.51508   151.19355

  Z AO/shell   Hii/eV     exponent
  1     Wed Apr 25 08:07:45 CEST 2018   EN: 2.200 GM2: 0.406  GM3: 0.0800  RAES: 1.40
     1s    -10.707211    1.230000
  6     Wed Apr 25 08:07:45 CEST 2018   EN: 2.550 GM2: 0.538  GM3: 0.1500  RAES: 3.00
     2s    -13.970922    2.096432
     2p    -10.063292    1.800000
  7     Wed Apr 25 08:07:45 CEST 2018   EN: 3.040 GM2: 0.461  GM3:-0.0640  RAES: 1.90
     2s    -16.686243    2.339881
     2p    -12.523956    2.014332
  8     Wed Apr 25 08:07:45 CEST 2018   EN: 3.440 GM2: 0.452  GM3:-0.0517  RAES: 1.80
     2s    -20.229985    2.439742
     2p    -15.503117    2.137023
 16     Tue Apr 24 11:44:34 CEST 2018   EN: 2.580 GM2: 0.340  GM3:-0.0502  RAES: 3.10
     3s    -20.029654    1.981333
     3p    -11.377694    2.025643
     3d     -0.420282    1.702555
 no old-style atom pair restraining (fixing) potential

molecular fragmentation (1/2 indicates fragments):
111111111111111111111111111111111111111111111111111111111111111111111111
111111111222222222222222222222222222222222222222222222222222222222222222
222222222222222222222222222222222222222222222222222222222222222222222222
222222222222222222222222222222222222222222222222222222222222222222222222
222222222222222222222222222222222222222222222222222222222222222222222222
222222222222222222222222222222222222222222222222222222222222221222222222
222222222222222
# atoms in fragment 1/2:    82   365
 fragment masses (1/2) :      550.74     2282.04
CMA distance (Bohr)    :   6.487
constraining FC (au)   :  0.0500
           ------------------------------------------------- 
          |        Self-Consistent Charge Iterations        |
           ------------------------------------------------- 

 Ncao       : 1053
 Nao        : 1052
 Nshell     : 648
 Nel        : 1126
 T(el)      :   500.0
 intcut     :    35.0
 scfconv/Eh :  0.100E-06
   qconv/e  :  0.100E-04
 intneglect :  0.100E-08
 broydamp   :      0.400
 iter      E             dE          RMSdq      gap      omega  full diag
   1   -633.6557840 -0.633656E+03  0.434E+00    2.57       0.0  T
   2   -634.8756778 -0.121989E+01  0.213E+00    1.40       1.0  T
   3   -634.9440984 -0.684206E-01  0.119E+00    1.59       1.0  T
   4   -635.0568152 -0.112717E+00  0.249E-01    1.27       1.0  T
   5   -635.0624366 -0.562141E-02  0.122E-01    1.40       1.0  T
   6   -635.0640034 -0.156685E-02  0.617E-02    1.37       1.0  T
   7   -635.0643380 -0.334566E-03  0.293E-02    1.35       1.0  T
   8   -635.0644334 -0.954184E-04  0.144E-02    1.34       1.0  T
   9   -635.0644554 -0.220094E-04  0.731E-03    1.34       1.0  T
  10   -635.0644613 -0.588277E-05  0.323E-03    1.33       1.5  T
  11   -635.0644625 -0.117657E-05  0.158E-03    1.33       3.0  T
  12   -635.0644628 -0.283361E-06  0.685E-04    1.33       6.9  T
  13   -635.0644628 -0.620319E-07  0.348E-04    1.33      13.6  T
  14   -635.0644628 -0.833279E-08  0.137E-04    1.33      34.4  T
  15   -635.0644628 -0.238617E-08  0.620E-05    1.33      76.3  T
  16   -635.0644628 -0.306272E-09  0.319E-05    1.33     148.4  T
speedup  1.91
cpu  time for SCC   18.41 s
wall time for SCC    9.62 s

   *** convergence criteria satisfied after 16 iterations ***

          eigenvalues
 #    :         551        552        553        554        555        556        557        558
 occ. :        2.000      2.000      2.000      2.000      2.000      2.000      2.000      2.000
 eps  :       -10.056    -10.014    -10.000     -9.984     -9.943     -9.840     -9.836     -9.832
 #    :         559        560        561        562        563        564        565        566
 occ. :        2.000      2.000      2.000      2.000      2.000      0.000      0.000      0.000
 eps  :        -9.820     -9.770     -9.539     -9.485     -9.321     -7.993     -7.980     -7.916
 #    :         567        568        569        570        571        572        573        574
 occ. :        0.000      0.000      0.000      0.000      0.000      0.000      0.000      0.000
 eps  :        -7.887     -7.866     -7.815     -7.762     -7.700     -7.641     -7.614     -7.598


   #   Z            q   n(s)   n(p)   n(d)      C6AA      α(0)
   1   7 N     -0.151  1.235  3.916  0.000    24.246     7.313
   2   6 C     -0.042  1.090  2.952  0.000    21.346     6.582
   3   6 C      0.262  1.035  2.703  0.000    22.577     7.781
   4   8 O     -0.450  1.753  4.696  0.000    22.699     6.388
   5   6 C     -0.102  1.057  3.045  0.000    22.431     6.742
   6   6 C      0.010  1.076  2.914  0.000    27.785     8.646
   7   6 C     -0.041  1.078  2.963  0.000    29.010     8.833
   8   6 C     -0.044  1.083  2.962  0.000    29.103     8.847
   9   6 C     -0.031  1.080  2.952  0.000    28.782     8.798
  10   6 C     -0.025  1.077  2.948  0.000    28.631     8.774
  11   6 C     -0.034  1.077  2.957  0.000    28.849     8.808
  12   1 H      0.300  0.700  0.000  0.000     0.715     1.324
  13   1 H      0.320  0.680  0.000  0.000     0.658     1.271
  14   1 H      0.306  0.694  0.000  0.000     0.696     1.307
  15   1 H      0.131  0.869  0.000  0.000     1.525     1.931
  16   1 H      0.094  0.906  0.000  0.000     1.844     2.124
  17   1 H      0.114  0.886  0.000  0.000     1.661     2.016
  18   1 H      0.058  0.942  0.000  0.000     2.221     2.331
  19   1 H      0.054  0.946  0.000  0.000     2.276     2.359
  20   1 H      0.025  0.975  0.000  0.000     2.663     2.552
  21   1 H      0.008  0.992  0.000  0.000     2.915     2.670
  22   1 H      0.011  0.989  0.000  0.000     2.881     2.654
  23   7 N     -0.177  1.257  3.920  0.000    24.836     7.402
  24   6 C     -0.004  1.075  2.929  0.000    20.648     6.469
  25   6 C      0.282  1.040  2.678  0.000    22.228     7.721
  26   8 O     -0.489  1.736  4.752  0.000    23.534     6.504
  27   6 C     -0.024  1.058  2.966  0.000    20.965     6.512
  28   6 C     -0.144  1.046  3.098  0.000    23.333     6.886
  29   6 C     -0.155  1.049  3.106  0.000    23.544     6.918
  30   1 H      0.253  0.747  0.000  0.000     0.873     1.463
  31   1 H      0.083  0.917  0.000  0.000     1.953     2.185
  32   1 H      0.043  0.957  0.000  0.000     2.416     2.431
  33   1 H      0.056  0.944  0.000  0.000     2.248     2.345
  34   1 H      0.050  0.950  0.000  0.000     2.324     2.384
  35   1 H      0.069  0.931  0.000  0.000     2.092     2.262
  36   1 H      0.061  0.939  0.000  0.000     2.190     2.314
  37   1 H      0.082  0.918  0.000  0.000     1.956     2.187
  38   1 H      0.066  0.934  0.000  0.000     2.128     2.281
  39   7 N     -0.161  1.248  3.914  0.000    24.487     7.349
  40   6 C      0.010  1.063  2.927  0.000    20.407     6.431
  41   6 C      0.270  1.040  2.690  0.000    22.444     7.758
  42   8 O     -0.481  1.739  4.742  0.000    23.373     6.482
  43   6 C     -0.074  1.053  3.021  0.000    21.887     6.655
  44   6 C     -0.016  1.064  2.952  0.000    20.858     6.503
  45  16 S     -0.213  1.912  4.251  0.050   150.121    20.622
  46   6 C     -0.075  1.059  3.016  0.000    22.006     6.692
  47   1 H      0.214  0.786  0.000  0.000     1.037     1.596
  48   1 H      0.086  0.914  0.000  0.000     1.922     2.168
  49   1 H      0.058  0.942  0.000  0.000     2.218     2.329
  50   1 H      0.070  0.930  0.000  0.000     2.091     2.261
  51   1 H      0.070  0.930  0.000  0.000     2.089     2.260
  52   1 H      0.043  0.957  0.000  0.000     2.405     2.425
  53   1 H      0.059  0.941  0.000  0.000     2.216     2.328
  54   1 H      0.049  0.951  0.000  0.000     2.335     2.390
  55   1 H      0.078  0.922  0.000  0.000     1.998     2.210
  56   7 N     -0.165  1.238  3.926  0.000    24.566     7.361
  57   6 C      0.009  1.065  2.926  0.000    20.426     6.436
  58   6 C      0.273  1.044  2.683  0.000    22.385     7.748
  59   8 O     -0.479  1.751  4.728  0.000    23.331     6.476
  60   6 C     -0.058  1.071  2.987  0.000    21.576     6.605
  61   6 C     -0.072  1.053  3.019  0.000    21.887     6.661
  62   6 C     -0.149  1.046  3.103  0.000    23.438     6.903
  63   6 C     -0.117  1.037  3.080  0.000    22.796     6.809
  64   1 H      0.211  0.789  0.000  0.000     1.051     1.606
  65   1 H      0.089  0.911  0.000  0.000     1.892     2.151
  66   1 H      0.105  0.895  0.000  0.000     1.738     2.062
  67   1 H      0.048  0.952  0.000  0.000     2.346     2.395
  68   1 H      0.047  0.953  0.000  0.000     2.360     2.402
  69   1 H      0.070  0.930  0.000  0.000     2.082     2.257
  70   1 H      0.062  0.938  0.000  0.000     2.171     2.304
  71   1 H      0.052  0.948  0.000  0.000     2.294     2.369
  72   1 H      0.040  0.960  0.000  0.000     2.450     2.448
  73   1 H      0.043  0.957  0.000  0.000     2.407     2.426
  74   1 H      0.046  0.954  0.000  0.000     2.372     2.408
  75   7 N     -0.173  1.249  3.923  0.000    24.739     7.387
  76   6 C     -0.033  1.052  2.981  0.000    21.233     6.573
  77   6 C      0.192  1.083  2.725  0.000    23.902     8.007
  78   8 O     -0.342  1.738  4.604  0.000    20.560     6.079
  79   1 H      0.216  0.784  0.000  0.000     1.026     1.587
  80   1 H      0.111  0.889  0.000  0.000     1.690     2.033
  81   1 H      0.106  0.894  0.000  0.000     1.732     2.058
  82   7 N     -0.395  1.318  4.077  0.000    30.228     8.165
  83   6 C      0.012  1.066  2.922  0.000    20.399     6.434
  84   6 C      0.269  1.048  2.682  0.000    22.455     7.760
  85   8 O     -0.478  1.716  4.762  0.000    23.299     6.472
  86   6 C      0.105  1.049  2.846  0.000    18.953     6.216
  87   8 O     -0.480  1.719  4.762  0.000    22.468     6.399
  88   6 C     -0.125  1.040  3.085  0.000    22.950     6.831
  89   1 H      0.156  0.844  0.000  0.000     1.364     1.829
  90   1 H      0.058  0.942  0.000  0.000     2.225     2.333
  91   1 H      0.066  0.934  0.000  0.000     2.135     2.285
  92   1 H      0.325  0.675  0.000  0.000     0.652     1.268
  93   1 H      0.062  0.938  0.000  0.000     2.175     2.306
  94   1 H      0.047  0.953  0.000  0.000     2.360     2.402
  95   1 H      0.038  0.962  0.000  0.000     2.481     2.463
  96   7 N     -0.155  1.232  3.923  0.000    24.344     7.328
  97   6 C      0.015  1.060  2.925  0.000    20.336     6.421
  98   6 C      0.200  1.085  2.715  0.000    23.750     7.981
  99   8 O     -0.354  1.754  4.600  0.000    20.781     6.112
 100   6 C     -0.080  1.057  3.023  0.000    22.022     6.680
 101   6 C      0.009  1.079  2.912  0.000    27.821     8.652
 102   6 C     -0.043  1.079  2.963  0.000    29.059     8.840
 103   6 C     -0.041  1.082  2.959  0.000    29.009     8.833
 104   6 C     -0.032  1.080  2.952  0.000    28.802     8.801
 105   6 C     -0.030  1.080  2.950  0.000    28.749     8.793
 106   6 C     -0.033  1.080  2.953  0.000    28.833     8.806
 107   1 H      0.207  0.793  0.000  0.000     1.069     1.619
 108   1 H      0.114  0.886  0.000  0.000     1.667     2.019
 109   1 H      0.092  0.908  0.000  0.000     1.863     2.134
 110   1 H      0.058  0.942  0.000  0.000     2.218     2.329
 111   1 H      0.066  0.934  0.000  0.000     2.131     2.283
 112   1 H      0.027  0.973  0.000  0.000     2.635     2.539
 113   1 H      0.047  0.953  0.000  0.000     2.357     2.401
 114   1 H      0.016  0.984  0.000  0.000     2.787     2.611
 115   1 H      0.022  0.978  0.000  0.000     2.699     2.569
 116   7 N     -0.401  1.318  4.083  0.000    30.402     8.189
 117   6 C      0.042  1.059  2.899  0.000    19.896     6.354
 118   6 C      0.201  1.093  2.706  0.000    23.713     7.975
 119   8 O     -0.369  1.741  4.628  0.000    21.081     6.156
 120   6 C     -0.044  1.051  2.992  0.000    21.356     6.579
 121   6 C     -0.096  1.066  3.029  0.000    22.325     6.728
 122   6 C      0.368  1.026  2.606  0.000    20.765     7.457
 123   8 O     -0.605  1.724  4.881  0.000    26.233     6.867
 124   8 O     -0.632  1.785  4.848  0.000    26.922     6.957
 125   1 H      0.161  0.839  0.000  0.000     1.326     1.804
 126   1 H      0.044  0.956  0.000  0.000     2.394     2.420
 127   1 H      0.038  0.962  0.000  0.000     2.471     2.458
 128   1 H      0.031  0.969  0.000  0.000     2.573     2.509
 129   1 H      0.029  0.971  0.000  0.000     2.597     2.520
 130   1 H      0.034  0.966  0.000  0.000     2.527     2.486
 131   7 N     -0.409  1.319  4.090  0.000    30.622     8.218
 132   6 C      0.040  1.059  2.901  0.000    19.920     6.357
 133   6 C      0.207  1.091  2.702  0.000    23.614     7.958
 134   8 O     -0.379  1.748  4.631  0.000    21.271     6.183
 135   6 C     -0.018  1.069  2.949  0.000    20.864     6.497
 136   6 C     -0.062  1.051  3.011  0.000    21.688     6.630
 137   6 C     -0.107  1.036  3.071  0.000    22.594     6.778
 138   6 C     -0.113  1.038  3.075  0.000    22.724     6.798
 139   1 H      0.169  0.831  0.000  0.000     1.279     1.771
 140   1 H      0.058  0.942  0.000  0.000     2.224     2.332
 141   1 H      0.048  0.952  0.000  0.000     2.351     2.398
 142   1 H      0.054  0.946  0.000  0.000     2.275     2.359
 143   1 H      0.037  0.963  0.000  0.000     2.489     2.467
 144   1 H      0.049  0.951  0.000  0.000     2.330     2.387
 145   1 H      0.030  0.970  0.000  0.000     2.580     2.512
 146   1 H      0.028  0.972  0.000  0.000     2.612     2.527
 147   1 H      0.064  0.936  0.000  0.000     2.149     2.292
 148   1 H      0.026  0.974  0.000  0.000     2.650     2.546
 149   1 H      0.049  0.951  0.000  0.000     2.338     2.391
 150   7 N     -0.400  1.326  4.074  0.000    30.363     8.184
 151   6 C      0.044  1.057  2.899  0.000    19.857     6.348
 152   6 C      0.206  1.088  2.706  0.000    23.632     7.962
 153   8 O     -0.365  1.756  4.610  0.000    21.002     6.144
 154   6 C     -0.073  1.053  3.020  0.000    21.884     6.659
 155   6 C      0.011  1.083  2.907  0.000    27.779     8.645
 156   6 C     -0.045  1.081  2.964  0.000    29.119     8.849
 157   6 C     -0.039  1.082  2.957  0.000    28.962     8.825
 158   6 C     -0.032  1.079  2.953  0.000    28.788     8.799
 159   6 C     -0.033  1.081  2.952  0.000    28.822     8.804
 160   6 C     -0.034  1.078  2.956  0.000    28.848     8.808
 161   1 H      0.170  0.830  0.000  0.000     1.272     1.767
 162   1 H      0.050  0.950  0.000  0.000     2.326     2.385
 163   1 H      0.058  0.942  0.000  0.000     2.229     2.335
 164   1 H      0.048  0.952  0.000  0.000     2.344     2.394
 165   1 H      0.040  0.960  0.000  0.000     2.443     2.444
 166   1 H      0.034  0.966  0.000  0.000     2.534     2.489
 167   1 H      0.031  0.969  0.000  0.000     2.573     2.509
 168   1 H      0.040  0.960  0.000  0.000     2.453     2.449
 169   1 H      0.034  0.966  0.000  0.000     2.527     2.486
 170   7 N     -0.392  1.327  4.065  0.000    30.148     8.155
 171   6 C      0.036  1.061  2.904  0.000    19.995     6.370
 172   6 C      0.202  1.086  2.712  0.000    23.698     7.972
 173   8 O     -0.382  1.764  4.618  0.000    21.327     6.192
 174   6 C     -0.070  1.056  3.014  0.000    21.835     6.652
 175   6 C     -0.070  1.051  3.020  0.000    21.847     6.655
 176   6 C     -0.097  1.056  3.041  0.000    22.351     6.731
 177   6 C     -0.050  1.063  2.988  0.000    21.580     6.632
 178   7 N     -0.125  1.222  3.902  0.000    23.701     7.231
 179   1 H      0.151  0.849  0.000  0.000     1.396     1.851
 180   1 H      0.069  0.931  0.000  0.000     2.099     2.266
 181   1 H      0.045  0.955  0.000  0.000     2.379     2.412
 182   1 H      0.055  0.945  0.000  0.000     2.253     2.348
 183   1 H      0.047  0.953  0.000  0.000     2.358     2.401
 184   1 H      0.064  0.936  0.000  0.000     2.152     2.294
 185   1 H      0.072  0.928  0.000  0.000     2.060     2.244
 186   1 H      0.085  0.915  0.000  0.000     1.929     2.172
 187   1 H      0.123  0.877  0.000  0.000     1.587     1.970
 188   1 H      0.118  0.882  0.000  0.000     1.626     1.994
 189   1 H      0.300  0.700  0.000  0.000     0.713     1.323
 190   1 H      0.280  0.720  0.000  0.000     0.776     1.380
 191   1 H      0.275  0.725  0.000  0.000     0.794     1.396
 192   7 N     -0.272  1.238  4.034  0.000    27.031     7.722
 193   6 C      0.033  1.062  2.905  0.000    20.010     6.367
 194   6 C      0.198  1.093  2.709  0.000    23.773     7.985
 195   8 O     -0.382  1.766  4.616  0.000    21.320     6.191
 196   6 C     -0.051  1.051  3.000  0.000    21.459     6.591
 197   6 C     -0.059  1.051  3.009  0.000    21.622     6.617
 198   6 C      0.018  1.045  2.937  0.000    20.333     6.429
 199   1 H      0.059  0.941  0.000  0.000     2.212     2.326
 200   1 H      0.041  0.959  0.000  0.000     2.433     2.439
 201   1 H      0.055  0.945  0.000  0.000     2.264     2.353
 202   1 H      0.039  0.961  0.000  0.000     2.459     2.452
 203   1 H      0.035  0.965  0.000  0.000     2.522     2.483
 204   1 H      0.024  0.976  0.000  0.000     2.671     2.556
 205   1 H      0.029  0.971  0.000  0.000     2.595     2.519
 206   7 N     -0.404  1.326  4.077  0.000    30.473     8.199
 207   6 C      0.026  1.060  2.914  0.000    20.153     6.395
 208   6 C      0.202  1.079  2.719  0.000    23.704     7.973
 209   8 O     -0.383  1.757  4.626  0.000    21.340     6.193
 210   6 C     -0.089  1.059  3.029  0.000    22.182     6.705
 211   6 C     -0.097  1.057  3.040  0.000    22.353     6.731
 212   6 C     -0.104  1.054  3.050  0.000    22.489     6.752
 213   6 C     -0.061  1.063  2.999  0.000    21.781     6.662
 214   7 N     -0.141  1.225  3.917  0.000    24.050     7.284
 215   1 H      0.153  0.847  0.000  0.000     1.384     1.843
 216   1 H      0.068  0.932  0.000  0.000     2.106     2.269
 217   1 H      0.058  0.942  0.000  0.000     2.225     2.333
 218   1 H      0.066  0.934  0.000  0.000     2.127     2.280
 219   1 H      0.061  0.939  0.000  0.000     2.186     2.312
 220   1 H      0.096  0.904  0.000  0.000     1.825     2.113
 221   1 H      0.099  0.901  0.000  0.000     1.791     2.093
 222   1 H      0.068  0.932  0.000  0.000     2.109     2.271
 223   1 H      0.138  0.862  0.000  0.000     1.478     1.901
 224   1 H      0.118  0.882  0.000  0.000     1.633     1.998
 225   1 H      0.297  0.703  0.000  0.000     0.724     1.333
 226   1 H      0.287  0.713  0.000  0.000     0.755     1.361
 227   1 H      0.287  0.713  0.000  0.000     0.753     1.359
 228   7 N     -0.385  1.318  4.067  0.000    29.959     8.129
 229   6 C      0.031  1.059  2.910  0.000    20.070     6.381
 230   6 C      0.265  1.048  2.687  0.000    22.533     7.773
 231   8 O     -0.446  1.700  4.747  0.000    22.631     6.378
 232   6 C     -0.072  1.054  3.018  0.000    21.870     6.658
 233   6 C     -0.076  1.052  3.025  0.000    21.956     6.671
 234   6 C     -0.093  1.053  3.040  0.000    22.267     6.718
 235   6 C     -0.053  1.061  2.992  0.000    21.631     6.639
 236   7 N     -0.157  1.232  3.925  0.000    24.375     7.333
 237   1 H      0.180  0.820  0.000  0.000     1.215     1.727
 238   1 H      0.011  0.989  0.000  0.000     2.875     2.651
 239   1 H      0.035  0.965  0.000  0.000     2.521     2.483
 240   1 H      0.022  0.978  0.000  0.000     2.708     2.574
 241   1 H      0.056  0.944  0.000  0.000     2.241     2.341
 242   1 H      0.084  0.916  0.000  0.000     1.934     2.175
 243   1 H      0.075  0.925  0.000  0.000     2.032     2.229
 244   1 H      0.043  0.957  0.000  0.000     2.413     2.429
 245   1 H      0.111  0.889  0.000  0.000     1.685     2.030
 246   1 H      0.138  0.862  0.000  0.000     1.478     1.901
 247   1 H      0.293  0.707  0.000  0.000     0.736     1.344
 248   1 H      0.276  0.724  0.000  0.000     0.788     1.391
 249   1 H      0.287  0.713  0.000  0.000     0.753     1.360
 250   7 N     -0.151  1.234  3.917  0.000    24.275     7.317
 251   6 C      0.015  1.067  2.918  0.000    20.334     6.422
 252   6 C      0.266  1.046  2.688  0.000    22.518     7.771
 253   8 O     -0.523  1.763  4.760  0.000    24.301     6.609
 254   6 C     -0.067  1.053  3.014  0.000    21.768     6.640
 255   6 C      0.012  1.077  2.911  0.000    27.734     8.638
 256   6 C     -0.035  1.078  2.957  0.000    28.883     8.813
 257   6 C     -0.041  1.080  2.961  0.000    29.010     8.833
 258   6 C     -0.028  1.080  2.948  0.000    28.708     8.786
 259   6 C     -0.035  1.080  2.956  0.000    28.880     8.813
 260   6 C     -0.034  1.080  2.954  0.000    28.857     8.809
 261   1 H      0.181  0.819  0.000  0.000     1.211     1.724
 262   1 H      0.103  0.897  0.000  0.000     1.754     2.071
 263   1 H      0.041  0.959  0.000  0.000     2.436     2.441
 264   1 H      0.057  0.943  0.000  0.000     2.230     2.335
 265   1 H      0.012  0.988  0.000  0.000     2.853     2.641
 266   1 H      0.056  0.944  0.000  0.000     2.249     2.345
 267   1 H      0.021  0.979  0.000  0.000     2.723     2.580
 268   1 H      0.059  0.941  0.000  0.000     2.212     2.326
 269   1 H      0.039  0.961  0.000  0.000     2.464     2.455
 270   7 N     -0.169  1.250  3.920  0.000    24.662     7.376
 271   6 C      0.022  1.058  2.920  0.000    20.212     6.402
 272   6 C      0.260  1.048  2.692  0.000    22.614     7.788
 273   8 O     -0.438  1.719  4.718  0.000    22.449     6.352
 274   6 C     -0.087  1.063  3.024  0.000    22.148     6.698
 275   6 C     -0.016  1.055  2.961  0.000    20.831     6.492
 276   6 C     -0.124  1.043  3.081  0.000    22.938     6.829
 277   6 C     -0.108  1.037  3.071  0.000    22.613     6.780
 278   1 H      0.250  0.750  0.000  0.000     0.883     1.472
 279   1 H      0.045  0.955  0.000  0.000     2.383     2.414
 280   1 H      0.090  0.910  0.000  0.000     1.876     2.142
 281   1 H      0.061  0.939  0.000  0.000     2.191     2.315
 282   1 H      0.046  0.954  0.000  0.000     2.373     2.409
 283   1 H      0.045  0.955  0.000  0.000     2.388     2.417
 284   1 H      0.060  0.940  0.000  0.000     2.197     2.318
 285   1 H      0.048  0.952  0.000  0.000     2.342     2.393
 286   1 H      0.032  0.968  0.000  0.000     2.563     2.503
 287   1 H      0.035  0.965  0.000  0.000     2.519     2.482
 288   1 H      0.014  0.986  0.000  0.000     2.822     2.627
 289   7 N     -0.161  1.245  3.916  0.000    24.476     7.348
 290   6 C      0.005  1.067  2.927  0.000    20.485     6.444
 291   6 C      0.263  1.045  2.692  0.000    22.573     7.780
 292   8 O     -0.509  1.766  4.743  0.000    23.988     6.567
 293   6 C     -0.013  1.061  2.953  0.000    20.776     6.483
 294   6 C     -0.121  1.042  3.079  0.000    22.860     6.816
 295   6 C     -0.114  1.039  3.075  0.000    22.723     6.796
 296   1 H      0.175  0.825  0.000  0.000     1.240     1.745
 297   1 H      0.100  0.900  0.000  0.000     1.784     2.089
 298   1 H      0.023  0.977  0.000  0.000     2.685     2.563
 299   1 H      0.040  0.960  0.000  0.000     2.446     2.446
 300   1 H      0.042  0.958  0.000  0.000     2.427     2.436
 301   1 H      0.067  0.933  0.000  0.000     2.116     2.275
 302   1 H      0.044  0.956  0.000  0.000     2.390     2.418
 303   1 H      0.060  0.940  0.000  0.000     2.198     2.318
 304   1 H      0.034  0.966  0.000  0.000     2.535     2.490
 305   7 N     -0.080  1.232  3.848  0.000    22.786     7.090
 306   6 C      0.022  1.064  2.914  0.000    20.186     6.393
 307   6 C      0.209  1.081  2.709  0.000    23.562     7.950
 308   8 O     -0.381  1.760  4.621  0.000    21.305     6.188
 309   6 C     -0.063  1.053  3.010  0.000    21.690     6.626
 310   6 C     -0.078  1.052  3.026  0.000    21.963     6.668
 311   6 C     -0.033  1.058  2.976  0.000    21.195     6.559
 312   1 H      0.080  0.920  0.000  0.000     1.978     2.199
 313   1 H      0.047  0.953  0.000  0.000     2.359     2.402
 314   1 H      0.072  0.928  0.000  0.000     2.066     2.248
 315   1 H      0.089  0.911  0.000  0.000     1.887     2.148
 316   1 H      0.080  0.920  0.000  0.000     1.977     2.199
 317   1 H      0.071  0.929  0.000  0.000     2.070     2.250
 318   1 H      0.105  0.895  0.000  0.000     1.736     2.061
 319   7 N     -0.389  1.323  4.066  0.000    30.080     8.145
 320   6 C      0.037  1.058  2.905  0.000    19.964     6.365
 321   6 C      0.202  1.088  2.710  0.000    23.702     7.973
 322   8 O     -0.389  1.770  4.618  0.000    21.455     6.210
 323   6 C     -0.065  1.062  3.003  0.000    21.738     6.637
 324   6 C     -0.014  1.057  2.957  0.000    20.794     6.486
 325   6 C     -0.120  1.042  3.078  0.000    22.851     6.816
 326   6 C     -0.120  1.043  3.077  0.000    22.853     6.816
 327   1 H      0.155  0.845  0.000  0.000     1.369     1.833
 328   1 H      0.062  0.938  0.000  0.000     2.172     2.305
 329   1 H      0.057  0.943  0.000  0.000     2.240     2.341
 330   1 H      0.037  0.963  0.000  0.000     2.489     2.467
 331   1 H      0.018  0.982  0.000  0.000     2.766     2.601
 332   1 H      0.055  0.945  0.000  0.000     2.258     2.350
 333   1 H      0.026  0.974  0.000  0.000     2.639     2.540
 334   1 H      0.052  0.948  0.000  0.000     2.293     2.368
 335   1 H      0.053  0.947  0.000  0.000     2.288     2.366
 336   1 H      0.060  0.940  0.000  0.000     2.196     2.317
 337   1 H      0.038  0.962  0.000  0.000     2.473     2.459
 338   7 N     -0.393  1.308  4.085  0.000    30.167     8.157
 339   6 C      0.047  1.052  2.900  0.000    19.796     6.338
 340   6 C      0.192  1.094  2.714  0.000    23.891     8.005
 341   8 O     -0.361  1.758  4.603  0.000    20.913     6.131
 342   6 C     -0.068  1.054  3.014  0.000    21.790     6.644
 343   6 C      0.005  1.086  2.909  0.000    27.908     8.665
 344   6 C     -0.040  1.079  2.961  0.000    28.988     8.829
 345   6 C     -0.043  1.082  2.961  0.000    29.069     8.841
 346   6 C     -0.033  1.080  2.953  0.000    28.823     8.804
 347   6 C     -0.034  1.082  2.952  0.000    28.845     8.807
 348   6 C     -0.036  1.080  2.956  0.000    28.897     8.815
 349   1 H      0.161  0.839  0.000  0.000     1.329     1.806
 350   1 H      0.061  0.939  0.000  0.000     2.189     2.314
 351   1 H      0.061  0.939  0.000  0.000     2.192     2.315
 352   1 H      0.041  0.959  0.000  0.000     2.433     2.439
 353   1 H      0.051  0.949  0.000  0.000     2.310     2.377
 354   1 H      0.016  0.984  0.000  0.000     2.798     2.616
 355   1 H      0.063  0.937  0.000  0.000     2.160     2.298
 356   1 H      0.021  0.979  0.000  0.000     2.719     2.579
 357   1 H      0.041  0.959  0.000  0.000     2.429     2.437
 358   7 N     -0.390  1.311  4.079  0.000    30.100     8.148
 359   6 C      0.037  1.062  2.901  0.000    19.968     6.365
 360   6 C      0.202  1.095  2.703  0.000    23.704     7.973
 361   8 O     -0.366  1.734  4.632  0.000    21.020     6.147
 362   6 C     -0.019  1.064  2.955  0.000    20.873     6.498
 363   6 C     -0.055  1.047  3.008  0.000    21.553     6.609
 364   6 C     -0.126  1.041  3.085  0.000    22.963     6.832
 365   6 C     -0.111  1.038  3.073  0.000    22.678     6.791
 366   1 H      0.148  0.852  0.000  0.000     1.415     1.863
 367   1 H      0.047  0.953  0.000  0.000     2.356     2.401
 368   1 H      0.046  0.954  0.000  0.000     2.370     2.408
 369   1 H      0.033  0.967  0.000  0.000     2.551     2.497
 370   1 H      0.019  0.981  0.000  0.000     2.754     2.595
 371   1 H      0.063  0.937  0.000  0.000     2.162     2.299
 372   1 H      0.053  0.947  0.000  0.000     2.285     2.364
 373   1 H      0.048  0.952  0.000  0.000     2.346     2.395
 374   1 H      0.034  0.966  0.000  0.000     2.527     2.486
 375   1 H      0.043  0.957  0.000  0.000     2.409     2.427
 376   1 H      0.056  0.944  0.000  0.000     2.243     2.342
 377   7 N     -0.398  1.316  4.082  0.000    30.312     8.177
 378   6 C      0.037  1.054  2.909  0.000    19.965     6.365
 379   6 C      0.196  1.094  2.709  0.000    23.817     7.992
 380   8 O     -0.389  1.758  4.631  0.000    21.457     6.210
 381   6 C     -0.071  1.057  3.014  0.000    21.852     6.654
 382   6 C     -0.084  1.053  3.031  0.000    22.096     6.692
 383   6 C     -0.026  1.055  2.971  0.000    21.115     6.557
 384   7 N     -0.141  1.214  3.927  0.000    24.061     7.285
 385   6 C      0.226  1.022  2.752  0.000    23.242     7.893
 386   7 N     -0.231  1.222  4.008  0.000    26.058     7.581
 387   7 N     -0.240  1.232  4.008  0.000    26.259     7.611
 388   1 H      0.162  0.838  0.000  0.000     1.323     1.802
 389   1 H      0.078  0.922  0.000  0.000     2.005     2.214
 390   1 H      0.045  0.955  0.000  0.000     2.381     2.413
 391   1 H      0.060  0.940  0.000  0.000     2.197     2.318
 392   1 H      0.071  0.929  0.000  0.000     2.079     2.255
 393   1 H      0.067  0.933  0.000  0.000     2.117     2.275
 394   1 H      0.082  0.918  0.000  0.000     1.959     2.189
 395   1 H      0.085  0.915  0.000  0.000     1.930     2.172
 396   1 H      0.233  0.767  0.000  0.000     0.952     1.529
 397   1 H      0.227  0.773  0.000  0.000     0.978     1.549
 398   1 H      0.254  0.746  0.000  0.000     0.868     1.460
 399   1 H      0.243  0.757  0.000  0.000     0.909     1.494
 400   1 H      0.265  0.735  0.000  0.000     0.828     1.426
 401   7 N     -0.384  1.319  4.065  0.000    29.922     8.124
 402   6 C      0.044  1.056  2.900  0.000    19.848     6.346
 403   6 C      0.201  1.087  2.712  0.000    23.716     7.976
 404   8 O     -0.374  1.758  4.617  0.000    21.178     6.170
 405   6 C     -0.067  1.054  3.013  0.000    21.767     6.640
 406   6 C      0.014  1.083  2.904  0.000    27.708     8.634
 407   6 C     -0.041  1.078  2.963  0.000    29.029     8.836
 408   6 C     -0.038  1.081  2.957  0.000    28.948     8.823
 409   6 C     -0.034  1.079  2.955  0.000    28.847     8.808
 410   6 C     -0.031  1.080  2.951  0.000    28.766     8.795
 411   6 C     -0.032  1.077  2.955  0.000    28.795     8.800
 412   1 H      0.157  0.843  0.000  0.000     1.354     1.823
 413   1 H      0.068  0.932  0.000  0.000     2.111     2.272
 414   1 H      0.044  0.956  0.000  0.000     2.400     2.422
 415   1 H      0.052  0.948  0.000  0.000     2.296     2.369
 416   1 H      0.037  0.963  0.000  0.000     2.485     2.465
 417   1 H      0.025  0.975  0.000  0.000     2.657     2.549
 418   1 H      0.051  0.949  0.000  0.000     2.304     2.374
 419   1 H      0.026  0.974  0.000  0.000     2.650     2.546
 420   1 H      0.032  0.968  0.000  0.000     2.557     2.501
 421   1 H      0.181  0.819  0.000  0.000     1.207     1.721
 422   1 H      0.066  0.934  0.000  0.000     2.132     2.283
 423   1 H      0.073  0.927  0.000  0.000     2.049     2.239
 424   1 H      0.182  0.818  0.000  0.000     1.200     1.716
 425   1 H      0.072  0.928  0.000  0.000     2.058     2.243
 426   1 H      0.183  0.817  0.000  0.000     1.194     1.712
 427   1 H      0.066  0.934  0.000  0.000     2.125     2.279
 428   1 H      0.179  0.821  0.000  0.000     1.221     1.731
 429   1 H      0.055  0.945  0.000  0.000     2.255     2.348
 430   1 H      0.186  0.814  0.000  0.000     1.179     1.701
 431   1 H      0.058  0.942  0.000  0.000     2.220     2.330
 432   1 H      0.188  0.812  0.000  0.000     1.167     1.692
 433   1 H      0.057  0.943  0.000  0.000     2.228     2.334
 434   1 H      0.161  0.839  0.000  0.000     1.329     1.806
 435   1 H      0.070  0.930  0.000  0.000     2.082     2.256
 436   1 H      0.203  0.797  0.000  0.000     1.089     1.634
 437   1 H      0.051  0.949  0.000  0.000     2.306     2.374
 438   1 H      0.171  0.829  0.000  0.000     1.265     1.762
 439   1 H      0.061  0.939  0.000  0.000     2.183     2.310
 440   1 H      0.182  0.818  0.000  0.000     1.204     1.718
 441   1 H      0.063  0.937  0.000  0.000     2.161     2.298
 442   1 H      0.184  0.816  0.000  0.000     1.191     1.709
 443   1 H      0.063  0.937  0.000  0.000     2.161     2.299
 444   1 H      0.174  0.826  0.000  0.000     1.248     1.750
 445   1 H      0.065  0.935  0.000  0.000     2.144     2.290
 446   1 H      0.186  0.814  0.000  0.000     1.182     1.703
 447   1 H      0.060  0.940  0.000  0.000     2.204     2.321

 Mol. C6AA /au·bohr⁶  :    1759366.764710
 Mol. C8AA /au·bohr⁸  :   39513100.382080
 Mol. α(0) /au        :       2011.300175

 
molecular dipole:
                 x           y           z       tot (Debye)
 q only:      286.131     200.447     661.202
   full:      285.747     199.140     660.990    1899.077
molecular quadrupole (traceless):
                xx          xy          yy          xz          yz          zz
 q only:   -38656.293   21654.514  -55435.171   71310.633   49390.710   94091.464
  q+dip:   -38648.823   21412.529  -55466.121   71176.574   49040.531   94114.943
   full:   -38650.838   21421.155  -55465.533   71178.166   49032.664   94116.371
speedup  1.93
cpu  time for grad   23.32 s
wall time for grad   12.08 s

SCC energy    :    -635.0930457
rep           :       8.7467890
ES            :       2.0404978
AES           :      -0.1093233
AXC           :       0.3059509
disp          :      -0.5343311
XB            :       0.0000000
fix           :       0.0000000
Gborn         :       0.0000000
Gsasa         :       0.0000000
Ghb           :       0.0000000
Gshift        :       0.0000000
Gsolv         :      -1.0062311     -631.42
Etot ala COSMO:    -635.0930457
grad norm     :       0.8138469
total E       :    -626.2929984
atomizationE  :     120.9632410    75905.58
(atE without considering molecular charge,
 total energy contains solvation terms)
H-L gap (eV)  :          1.3279

------------------------------------------------------------------------
 * finished run on 2019/05/12 at 13:13:28.718     
------------------------------------------------------------------------
 total:
 * wall-time:     0 d,  0 h,  0 min, 13.283 sec
 *  cpu-time:     0 d,  0 h,  0 min, 25.270 sec
 * ratio c/w:     1.902 speedup
 SCF:
 * wall-time:     0 d,  0 h,  0 min, 12.814 sec
 *  cpu-time:     0 d,  0 h,  0 min, 24.657 sec
 * ratio c/w:     1.924 speedup

