      -----------------------------------------------------------      
     |                   =====================                   |     
     |                           x T B                           |     
     |                   =====================                   |     
     |                         S. Grimme                         |     
     |          Mulliken Center for Theoretical Chemistry        |     
     |                    University of Bonn                     |     
     |                 Version 6.0.1 (SAW181210)                 |     
      -----------------------------------------------------------      

   This program is distributed in the hope that it will be useful,
   but WITHOUT ANY WARRANTY; without even the implied warranty of
   MERCHANTABILITY or FITNESS FOR A PARTICULAR PURPOSE.
   
   FOR NON-COMMERCIAL, ACADEMIA USE ONLY.
   
   Cite this work as:
   S. Grimme, C. Bannwarth, P. Shushkov, J. Comput. Theory Chem., 2017,
   13, 1989-2009.
   C. Bannwarth, S. Ehlert and S. Grimme., ChemRxiv, 2018, preprint.
   http://doi.org/10.26434/chemrxiv.7246238.v1
   
   for sTDA-xTB:
   S. Grimme and C. Bannwarth, J. Chem. Phys., 2016, 145, 054103.
   
   in the mass-spec context:
   V. Asgeirsson, C. Bauer and S. Grimme, Chem. Sci., 2017, 8, 4879.
   
   if GBSA is used:
   P. Shushkov, F. März and S. Grimme, unpublished.
   
   for ANC optimizer:
   S. Grimme, unpublished.
   Rational Function algorithm used in ANCopt:
   F. Eckert, P. Pulay, H.-J. Werner, J. Comput. Chem., 1997, 18, 1473.
   
   with help from (in alphabetical order)
   C. Bannwarth, F. Bohle, G. Brandenburg, E. Caldeweyher, M. Checinski,
   S. Dohm, S. Ehlert, S. Ehrlich, F. März, H. Neugebauer, J. Pisarek,
   P. Pracht, P. Shushkov, and S. Spicher.
   
 * started run on 2019/05/05 at 23:27:12.972     
========================================================================
 # omp threads = 2
========================================================================
number of atoms            : 777
number of electrons        : 2114
charge                     : 1
spin                       : .0
first test random number   : .2070

########################################################################
# WARNING! Please study the warnings concerning your input carefully
#  - Process number higher than OMP_NUM_THREADS, I hope you know what you are doing.
########################################################################

           ------------------------------------------------- 
          |                 G F N 2 - x T B                 |
          | Geometry, Frequencies, Noncovalent interactions |
          |            JCTC 2018 parametrisation            |
           ------------------------------------------------- 
 
      method parameters     
 k(s)        :  1.8500
 k(p)        :  2.2300
 k(d)        :  2.2300
 k(f)        :  2.0000
 kEN (H0ij)  : -2.0000
 D4 a1       :  0.5200
 D4 a2       :  5.0000
 D4 s6       :  1.0000
 D4 s8       :  2.7000
 D4 s9       :  5.0000
 alphaj      :  2.0000

 Solvent             : h2o
 Using internal parameter file: .param_gbsa2_h2o
 Gsolv ref. state (COSMO-RS): gsolv [1 M gas/solution]
 temperature (mdtemp)       :    298.150000000000     
 dielectric constant        :    80.2000000000000     
 rho                        :    1.00000000000000     
 mass                       :    18.0000000000000     
 surface tension            :    15.5689454083859     
 probe radius               :   0.975313790000000     
 vdW radii scaling          :    1.00000000000000     
 Gshift (Eh)                :   1.857443126794793E-003
 c1                         :    1.55243817000000     
 soset                      :   0.130326360000000     
 HB correction              :  T

            Z     q(EN)     CN     RAES       Cart. coordinates
     1  N   5.0   -0.07    4.34    3.88   -13.67784    39.31386     6.92018
     2  C   4.0    0.01    4.48    4.51   -15.34268    41.53618     6.74065
     3  C   4.0    0.14    3.43    3.09   -14.53577    43.72826     8.47164
     4  O   6.0   -0.29    1.24    1.80   -13.44729    43.22937    10.48042
     5  C   4.0   -0.04    4.37    4.32   -17.94106    40.49305     7.47954
     6  C   4.0   -0.04    4.31    4.22   -17.37414    38.26128     9.07257
     7  C   4.0   -0.03    4.30    4.20   -15.00820    37.11800     7.99165
     8  H   1.0    0.06    1.06    1.44   -13.03344    38.85277     5.12116
     9  H   1.0    0.07    1.07    1.44   -12.14716    39.75605     8.07102
    10  H   1.0    0.05    1.05    1.44   -15.41827    42.22782     4.80179
    11  H   1.0    0.05    1.03    1.43   -18.99553    41.91034     8.53778
    12  H   1.0    0.05    1.03    1.43   -18.98986    39.95070     5.79201
    13  H   1.0    0.05    1.03    1.43   -17.07178    38.85654    11.02088
    14  H   1.0    0.05    1.03    1.43   -18.93883    36.92525     8.97809
    15  H   1.0    0.05    1.02    1.43   -13.88193    36.22605     9.46753
    16  H   1.0    0.05    1.02    1.43   -15.45985    35.74606     6.52333
    17  N   5.0   -0.09    3.64    2.20   -15.02143    46.15278     7.75166
    18  C   4.0    0.04    4.55    4.60   -14.33357    48.26360     9.43351
    19  C   4.0    0.15    3.40    3.08   -16.09291    48.30895    11.71252
    20  O   6.0   -0.30    1.25    1.80   -18.29822    47.59653    11.47064
    21  C   4.0   -0.04    4.35    4.30   -14.71530    50.62009     7.77811
    22  C   4.0   -0.03    4.30    4.21   -15.27277    49.67145     5.17218
    23  C   4.0   -0.00    4.35    4.28   -16.30078    47.08063     5.45942
    24  H   1.0    0.06    1.05    1.44   -12.36259    48.16156    10.02122
    25  H   1.0    0.05    1.03    1.43   -16.29511    51.72558     8.50377
    26  H   1.0    0.03    1.03    1.43   -12.99754    51.75581     7.78756
    27  H   1.0    0.06    1.03    1.43   -16.65793    50.90355     4.27456
    28  H   1.0    0.05    1.03    1.43   -13.53611    49.64121     4.06669
    29  H   1.0    0.05    1.02    1.43   -18.34357    47.12410     5.72398
    30  H   1.0    0.05    1.02    1.43   -15.82645    45.91467     3.82858
    31  N   5.0   -0.14    3.42    2.03   -15.12348    49.04595    13.93484
    32  C   4.0    0.04    4.47    4.50   -16.66171    49.09508    16.23653
    33  C   4.0    0.14    3.42    3.09   -16.60691    51.69912    17.45918
    34  O   6.0   -0.31    1.30    1.80   -14.56979    52.65154    18.05255
    35  C   4.0   -0.01    4.24    4.08   -15.93795    46.92945    18.07901
    36  C   4.0   -0.06    4.11    3.83   -17.05478    47.33008    20.71140
    37  C   4.0   -0.06    4.10    3.79   -16.73541    44.37077    17.01509
    38  H   1.0    0.12    1.09    1.44   -13.29800    49.61098    14.18806
    39  H   1.0    0.05    1.08    1.44   -18.63081    48.83241    15.69606
    40  H   1.0    0.06    1.06    1.44   -13.88760    46.94079    18.28121
    41  H   1.0    0.05    1.00    1.43   -16.49164    45.76349    21.92460
    42  H   1.0    0.06    1.00    1.43   -16.34235    49.10264    21.47863
    43  H   1.0    0.05    1.00    1.43   -19.10891    47.40189    20.56400
    44  H   1.0    0.05    1.00    1.43   -16.20251    42.89489    18.34924
    45  H   1.0    0.05    1.00    1.43   -18.77632    44.36510    16.74108
    46  H   1.0    0.07    1.00    1.43   -15.78299    44.06652    15.21418
    47  N   5.0   -0.14    3.42    2.03   -18.83490    52.86319    17.80878
    48  C   4.0    0.04    4.41    4.39   -18.92183    55.34440    19.00119
    49  C   4.0    0.09    3.22    3.04   -19.17127    55.00803    21.83767
    50  O   6.0   -0.27    1.12    1.80   -21.06478    53.99892    22.74285
    51  C   4.0   -0.02    4.30    4.20   -20.85313    57.22468    17.84468
    52  C   4.0   -0.05    4.22    4.04   -20.50920    57.42310    14.96096
    53  C   4.0   -0.07    4.11    3.82   -20.58478    59.81172    19.11836
    54  C   4.0   -0.06    4.05    3.71   -22.62380    58.57961    13.60792
    55  H   1.0    0.08    1.05    1.44   -20.54699    52.14321    17.29666
    56  H   1.0    0.06    1.08    1.44   -17.10580    56.24958    18.64782
    57  H   1.0    0.06    1.06    1.44   -22.75608    56.51603    18.18861
    58  H   1.0    0.04    1.04    1.43   -18.83679    58.56261    14.58113
    59  H   1.0    0.04    1.04    1.43   -20.25597    55.52393    14.20318
    60  H   1.0    0.05    1.00    1.43   -21.94917    61.11185    18.28877
    61  H   1.0    0.06    1.00    1.43   -20.94572    59.60574    21.13658
    62  H   1.0    0.06    1.00    1.43   -18.67238    60.51280    18.81600
    63  H   1.0    0.06    1.01    1.43   -22.18727    58.62686    11.59536
    64  H   1.0    0.05    1.01    1.43   -24.32077    57.45901    13.93295
    65  H   1.0    0.05    1.01    1.43   -22.90159    60.49580    14.31089
    66  N   5.0   -0.19    3.20    1.96   -22.44239    89.65238    22.50853
    67  C   4.0    0.03    4.36    4.31   -20.59045    87.80423    21.60146
    68  C   4.0    0.15    3.38    3.07   -21.74697    85.14349    21.81878
    69  O   6.0   -0.29    1.22    1.80   -22.83167    84.51232    23.79354
    70  C   4.0   -0.02    4.25    4.09   -18.02232    87.97808    23.00552
    71  C   4.0   -0.07    4.11    3.82   -16.11180    86.12804    21.89625
    72  C   4.0   -0.07    4.11    3.81   -16.95651    90.65771    22.95828
    73  H   1.0    0.10    1.02    1.43   -22.97151    89.35758    24.33778
    74  H   1.0    0.05    1.06    1.44   -20.21818    88.17839    19.60969
    75  H   1.0    0.05    1.06    1.44   -18.35869    87.47163    24.97273
    76  H   1.0    0.04    1.00    1.43   -14.33546    86.30000    22.92427
    77  H   1.0    0.05    1.00    1.43   -16.84691    84.21375    22.08145
    78  H   1.0    0.05    1.00    1.43   -15.81890    86.57779    19.90826
    79  H   1.0    0.04    1.00    1.43   -15.15938    90.68228    23.96550
    80  H   1.0    0.04    1.00    1.43   -16.67305    91.23219    21.00052
    81  H   1.0    0.04    1.00    1.43   -18.29255    91.92761    23.87669
    82  N   5.0   -0.14    3.43    2.04   -21.51642    83.60148    19.80244
    83  C   4.0    0.04    4.39    4.37   -22.41971    80.99932    19.77787
    84  C   4.0    0.15    3.39    3.08   -20.20117    79.23432    19.25064
    85  O   6.0   -0.31    1.26    1.80   -19.29221    79.10771    17.11903
    86  C   4.0   -0.04    4.35    4.30   -24.54376    80.66106    17.83145
    87  C   4.0   -0.02    4.21    4.02   -27.06088    81.90072    18.48719
    88  C   4.0   -0.07    4.11    3.82   -28.79753    81.98954    16.22141
    89  C   4.0   -0.07    4.12    3.84   -28.32132    80.57602    20.68116
    90  H   1.0    0.11    1.10    1.44   -20.69439    84.13438    18.14326
    91  H   1.0    0.05    1.07    1.44   -23.15103    80.53256    21.64681
    92  H   1.0    0.05    1.03    1.43   -23.91259    81.46798    16.04377
    93  H   1.0    0.05    1.03    1.43   -24.89525    78.64472    17.60847
    94  H   1.0    0.05    1.06    1.44   -26.68671    83.84336    19.05789
    95  H   1.0    0.05    1.00    1.43   -30.57010    82.88527    16.76943
    96  H   1.0    0.04    1.00    1.43   -27.89236    83.07802    14.72474
    97  H   1.0    0.04    1.00    1.43   -29.15469    80.06769    15.57323
    98  H   1.0    0.05    1.00    1.43   -30.10900    81.51333    21.09312
    99  H   1.0    0.04    1.00    1.43   -28.65958    78.60882    20.17282
   100  H   1.0    0.05    1.00    1.43   -27.08355    80.67240    22.32333
   101  N   5.0   -0.13    3.44    2.04   -19.25064    77.97009    21.21973
   102  C   4.0    0.04    4.39    4.37   -17.10013    76.25989    20.97974
   103  C   4.0    0.15    3.38    3.07   -17.89570    73.51412    20.70195
   104  O   6.0   -0.29    1.23    1.80   -20.07456    72.85649    21.16115
   105  C   4.0    0.03    4.14    3.88   -15.19529    76.62839    23.11513
   106  O   6.0   -0.24    2.04    1.83   -16.39715    76.86460    25.49996
   107  H   1.0    0.10    1.06    1.44   -19.94039    78.09859    23.01497
   108  H   1.0    0.06    1.08    1.44   -16.11936    76.72476    19.22985
   109  H   1.0    0.04    1.02    1.43   -13.93673    74.99755    23.16804
   110  H   1.0    0.04    1.02    1.43   -14.11247    78.34237    22.74663
   111  H   1.0    0.12    1.01    1.43   -15.12726    77.09893    26.82844
   112  N   5.0   -0.14    3.47    2.06   -16.11936    71.93242    19.86480
   113  C   4.0    0.04    4.48    4.51   -16.51054    69.27357    19.32245
   114  C   4.0    0.14    3.39    3.08   -14.02366    67.81282    19.26765
   115  O   6.0   -0.30    1.22    1.80   -12.24353    68.56871    17.94673
   116  C   4.0   -0.02    4.21    4.02   -17.91649    68.99200    16.83557
   117  S   6.0   -0.03    2.40    3.10   -19.96118    66.27836    16.74108
   118  H   1.0    0.10    1.08    1.44   -14.30145    72.47666    19.53032
   119  H   1.0    0.05    1.08    1.44   -17.60469    68.44209    20.85691
   120  H   1.0    0.06    1.08    1.44   -19.07489    70.66819    16.53321
   121  H   1.0    0.05    1.08    1.44   -16.54266    68.80114    15.31245
   122  N   5.0   -0.14    3.42    2.03   -13.91972    65.69632    20.67927
   123  C   4.0    0.03    4.46    4.47   -11.70685    64.03336    20.83423
   124  C   4.0    0.14    3.42    3.08   -12.40416    61.42743    19.79488
   125  O   6.0   -0.31    1.23    1.80   -14.25231    60.29738    20.66604
   126  C   4.0   -0.02    4.26    4.13   -10.66183    63.87463    23.55732
   127  C   4.0   -0.07    4.13    3.86    -8.64361    61.84695    23.77086
   128  C   4.0   -0.07    4.11    3.82    -9.62815    66.41064    24.42471
   129  H   1.0    0.08    1.05    1.44   -15.38993    65.07838    21.76208
   130  H   1.0    0.06    1.07    1.44   -10.22342    64.78170    19.61725
   131  H   1.0    0.05    1.06    1.44   -12.22086    63.36251    24.80265
   132  H   1.0    0.04    1.00    1.43    -7.95386    61.79026    25.71161
   133  H   1.0    0.05    1.01    1.43    -9.46564    60.02714    23.26253
   134  H   1.0    0.05    1.00    1.43    -7.09781    62.30237    22.48774
   135  H   1.0    0.04    1.00    1.43    -8.91195    66.22167    26.34656
   136  H   1.0    0.06    1.00    1.43    -8.10503    66.98134    23.16048
   137  H   1.0    0.05    1.00    1.43   -11.14371    67.80526    24.37369
   138  N   5.0   -0.14    3.43    2.04   -10.97364    60.49580    17.92405
   139  C   4.0    0.04    4.37    4.32   -11.49709    58.03159    16.82234
   140  C   4.0    0.14    3.39    3.08    -9.15005    56.38753    16.73163
   141  O   6.0   -0.29    1.23    1.80    -7.06002    57.32106    16.24786
   142  C   4.0   -0.07    4.11    3.83   -12.62715    58.31694    14.21263
   143  H   1.0    0.09    1.07    1.44    -9.45997    61.40853    17.15304
   144  H   1.0    0.06    1.08    1.44   -12.83691    57.03571    18.02988
   145  H   1.0    0.04    1.00    1.43   -12.99942    56.44611    13.43406
   146  H   1.0    0.04    1.00    1.43   -14.38459    59.38086    14.35625
   147  H   1.0    0.04    1.00    1.43   -11.29300    59.32417    13.01076
   148  N   5.0   -0.13    3.46    2.06    -9.50910    53.92522    17.20784
   149  C   4.0    0.04    4.45    4.47    -7.48709    52.05817    17.24186
   150  C   4.0    0.15    3.39    3.08    -7.73654    50.16655    15.09702
   151  O   6.0   -0.30    1.28    1.80    -9.84547    49.49003    14.36381
   152  C   4.0    0.05    4.22    4.05    -7.39072    50.71269    19.81378
   153  O   6.0   -0.23    2.09    1.84    -9.68862    49.35964    20.25597
   154  C   4.0   -0.07    4.07    3.74    -6.83703    52.51548    21.99263
   155  H   1.0    0.12    1.11    1.44   -11.23820    53.16177    17.58579
   156  H   1.0    0.05    1.07    1.44    -5.68619    53.01059    16.93950
   157  H   1.0    0.04    1.05    1.44    -5.82791    49.37098    19.76842
   158  H   1.0    0.12    1.01    1.43    -9.61493    48.50738    21.89814
   159  H   1.0    0.05    1.00    1.43    -6.78790    51.47802    23.77086
   160  H   1.0    0.04    1.00    1.43    -5.01533    53.43200    21.70350
   161  H   1.0    0.05    1.00    1.43    -8.30157    53.95923    22.10223
   162  N   5.0   -0.14    3.34    2.00    -5.57280    49.28594    14.16539
   163  C   4.0    0.02    4.25    4.09    -5.42918    47.38488    12.17739
   164  C   4.0    0.15    3.29    3.05    -2.96309    47.32819    10.72419
   165  O   6.0   -0.29    1.22    1.80    -1.44186    49.09508    10.86592
   166  H   1.0    0.09    1.06    1.44    -3.83614    49.86987    14.76632
   167  H   1.0    0.05    1.03    1.43    -5.69752    45.52539    13.02210
   168  H   1.0    0.06    1.03    1.43    -6.94285    47.73070    10.82246
   169  N   5.0   -0.14    3.45    2.05    -2.57003    45.25516     9.31257
   170  C   4.0    0.04    4.37    4.32    -0.41196    44.89611     7.64205
   171  C   4.0    0.15    3.46    3.10    -1.55335    44.43124     5.01533
   172  O   6.0   -0.30    1.25    1.80    -2.89506    42.55096     4.69975
   173  C   4.0    0.04    4.14    3.88     1.22643    42.68513     8.50377
   174  O   6.0   -0.25    2.02    1.83     3.75678    42.98560     7.66851
   175  H   1.0    0.09    1.06    1.44    -3.77000    43.74716     9.29934
   176  H   1.0    0.06    1.06    1.44     0.83337    46.53639     7.61749
   177  H   1.0    0.05    1.02    1.43     1.20565    42.59820    10.56168
   178  H   1.0    0.06    1.02    1.43     0.46487    40.94091     7.71764
   179  H   1.0    0.12    1.01    1.43     4.78479    41.55318     8.23543
   180  N   5.0   -0.09    3.60    2.16    -1.29257    46.18868     3.16718
   181  C   4.0    0.02    4.51    4.55     0.17763    48.56785     3.20309
   182  C   4.0    0.15    3.35    3.06    -1.02045    50.70513     4.75833
   183  O   6.0   -0.29    1.23    1.80    -3.12372    50.40466     5.71075
   184  C   4.0   -0.04    4.36    4.32     0.38361    49.23681     0.38928
   185  C   4.0   -0.05    4.30    4.19    -2.01823    48.23525    -0.71243
   186  C   4.0    0.00    4.37    4.33    -2.46987    45.78239     0.66707
   187  H   1.0    0.04    1.05    1.44     2.05980    48.23903     3.97409
   188  H   1.0    0.05    1.03    1.43     0.52156    51.27771     0.15118
   189  H   1.0    0.04    1.03    1.43     2.02768    48.31840    -0.44409
   190  H   1.0    0.04    1.03    1.43    -3.55646    49.56562    -0.37983
   191  H   1.0    0.04    1.03    1.43    -1.78768    47.91589    -2.73443
   192  H   1.0    0.05    1.02    1.43    -4.48810    45.41956     0.86360
   193  H   1.0    0.05    1.02    1.43    -1.56469    44.21581    -0.31747
   194  N   5.0   -0.14    3.42    2.03     0.34204    52.84997     5.00966
   195  C   4.0    0.04    4.47    4.49    -0.47243    55.06661     6.44963
   196  C   4.0    0.15    3.46    3.10    -2.86105    56.20801     5.26667
   197  O   6.0   -0.27    1.22    1.80    -2.74388    57.10941     3.11427
   198  C   4.0   -0.02    4.26    4.12     1.66674    57.02248     6.76711
   199  C   4.0   -0.06    4.11    3.83     0.85227    59.13519     8.53589
   200  C   4.0   -0.07    4.11    3.83     4.09126    55.76959     7.72142
   201  H   1.0    0.07    1.06    1.44     2.07492    53.09752     4.20275
   202  H   1.0    0.05    1.08    1.44    -0.99589    54.43545     8.33936
   203  H   1.0    0.06    1.06    1.44     2.07114    57.84640     4.92274
   204  H   1.0    0.05    1.00    1.43     2.39617    60.48446     8.72486
   205  H   1.0    0.07    1.00    1.43    -0.80502    60.06872     7.74599
   206  H   1.0    0.06    1.00    1.43     0.39495    58.33017    10.37649
   207  H   1.0    0.05    1.00    1.43     5.55390    57.20578     7.92173
   208  H   1.0    0.05    1.00    1.43     3.71709    54.88898     9.54501
   209  H   1.0    0.04    1.00    1.43     4.68841    54.34285     6.36082
   210  N   5.0   -0.09    3.61    2.17    -5.05502    56.08896     6.61026
   211  C   4.0    0.04    4.57    4.63    -7.42284    56.99980     5.48398
   212  C   4.0    0.16    3.38    3.07    -7.51544    59.80605     4.90006
   213  O   6.0   -0.30    1.26    1.80    -6.49121    61.37074     6.29657
   214  C   4.0   -0.05    4.37    4.33    -9.44107    56.21557     7.40962
   215  C   4.0   -0.04    4.30    4.20    -8.21464    54.23891     9.02344
   216  C   4.0   -0.00    4.36    4.31    -5.51800    55.01937     9.14816
   217  H   1.0    0.06    1.07    1.44    -7.69496    56.01148     3.69819
   218  H   1.0    0.04    1.03    1.43    -9.99665    57.84451     8.53967
   219  H   1.0    0.04    1.02    1.43   -11.08135    55.44834     6.42696
   220  H   1.0    0.05    1.03    1.43    -9.06879    54.22380    10.89805
   221  H   1.0    0.05    1.03    1.43    -8.41117    52.38698     8.14472
   222  H   1.0    0.06    1.02    1.43    -5.23076    56.44233    10.60892
   223  H   1.0    0.06    1.03    1.43    -4.29724    53.39610     9.49587
   224  N   5.0   -0.12    3.51    2.08    -8.70786    60.40131     2.75900
   225  C   4.0    0.04    4.46    4.48    -9.06879    62.97890     1.86516
   226  C   4.0    0.14    3.46    3.10   -11.60292    63.80282     2.88939
   227  O   6.0   -0.31    1.33    1.80   -13.39816    62.32694     2.82136
   228  C   4.0    0.06    4.24    4.07    -9.05935    63.06960    -1.03557
   229  O   6.0   -0.23    2.10    1.84    -7.04490    61.54459    -1.98043
   230  C   4.0   -0.06    4.07    3.74    -8.84014    65.75301    -2.05035
   231  H   1.0    0.11    1.10    1.44    -9.46753    59.08984     1.56847
   232  H   1.0    0.07    1.06    1.44    -7.57024    64.24690     2.48877
   233  H   1.0    0.05    1.05    1.44   -10.85837    62.33639    -1.71965
   234  H   1.0    0.12    1.01    1.43    -7.02789    61.59373    -3.83236
   235  H   1.0    0.05    1.00    1.43    -8.84014    65.73034    -4.11015
   236  H   1.0    0.05    1.00    1.43   -10.43129    66.88685    -1.39462
   237  H   1.0    0.06    1.00    1.43    -7.08836    66.61473    -1.39084
   238  N   5.0   -0.14    3.43    2.04   -11.77110    66.11962     3.85504
   239  C   4.0    0.04    4.47    4.49   -14.15783    67.04559     4.86982
   240  C   4.0    0.15    3.39    3.07   -15.37859    68.89941     3.03868
   241  O   6.0   -0.29    1.23    1.80   -14.15216    70.63229     2.09382
   242  C   4.0   -0.02    4.23    4.07   -13.94996    68.09816     7.63638
   243  C   4.0   -0.04    4.14    3.88   -12.45329    66.29159     9.42784
   244  C   4.0   -0.07    4.06    3.73   -16.55589    68.82760     8.77022
   245  C   4.0   -0.07    3.99    3.60   -13.45296    63.59873     9.74343
   246  H   1.0    0.11    1.08    1.44   -10.31034    67.37251     3.95709
   247  H   1.0    0.07    1.10    1.44   -15.42961    65.42987     4.98510
   248  H   1.0    0.05    1.06    1.44   -12.85392    69.83482     7.48143
   249  H   1.0    0.05    1.03    1.43   -10.53144    66.13096     8.70219
   250  H   1.0    0.04    1.03    1.43   -12.42873    67.14007    11.30434
   251  H   1.0    0.04    1.00    1.43   -16.27999    69.54003    10.68262
   252  H   1.0    0.06    1.00    1.43   -17.41382    70.28458     7.59481
   253  H   1.0    0.05    1.01    1.43   -17.76153    67.15708     8.81179
   254  H   1.0    0.04    1.00    1.43   -12.22275    62.57450    11.03789
   255  H   1.0    0.04    1.00    1.43   -15.36536    63.67810    10.50688
   256  H   1.0    0.05    1.00    1.43   -13.46808    62.66898     7.90472
   257  N   5.0   -0.13    3.48    2.06   -17.79366    68.47422     2.50767
   258  C   4.0    0.03    4.42    4.41   -19.33568    70.13718     0.95998
   259  C   4.0    0.14    3.42    3.08   -21.55421    70.98378     2.58703
   260  O   6.0   -0.31    1.32    1.80   -22.38758    69.60428     4.28401
   261  C   4.0   -0.05    4.34    4.27   -20.28999    68.81437    -1.45509
   262  C   4.0   -0.02    4.19    3.97   -18.52687    68.65941    -3.72843
   263  C   4.0   -0.07    4.12    3.84   -16.82801    70.98378    -3.94386
   264  C   4.0   -0.07    4.10    3.81   -17.06045    66.20655    -3.72843
   265  H   1.0    0.11    1.09    1.44   -18.76498    66.93598     3.14828
   266  H   1.0    0.05    1.07    1.44   -18.25664    71.77557     0.33070
   267  H   1.0    0.05    1.04    1.43   -20.76998    66.87551    -0.95242
   268  H   1.0    0.04    1.04    1.43   -21.97562    69.81593    -2.08626
   269  H   1.0    0.04    1.07    1.44   -19.67205    68.65752    -5.44052
   270  H   1.0    0.05    1.00    1.43   -15.61292    70.77591    -5.59359
   271  H   1.0    0.06    1.00    1.43   -18.00720    72.65996    -4.14795
   272  H   1.0    0.06    1.01    1.43   -15.68095    71.13495    -2.23933
   273  H   1.0    0.04    1.00    1.43   -15.82457    66.16308    -5.37627
   274  H   1.0    0.06    1.00    1.43   -15.93795    66.09694    -2.00500
   275  H   1.0    0.05    1.00    1.43   -18.38703    64.63241    -3.80402
   276  N   5.0   -0.14    3.47    2.06   -22.47640    73.26656     2.09004
   277  C   4.0    0.04    4.48    4.50   -24.58156    74.31914     3.47521
   278  C   4.0    0.14    3.44    3.09   -26.83600    74.65362     1.78579
   279  O   6.0   -0.32    1.26    1.80   -26.61490    75.54557    -0.34771
   280  C   4.0   -0.03    4.30    4.20   -23.82755    76.80602     4.73565
   281  C   4.0   -0.02    3.71    3.24   -21.98507    76.40729     6.82569
   282  C   4.0   -0.01    3.60    3.17   -19.42071    76.48666     6.65373
   283  C   4.0    0.01    3.89    3.44   -22.55766    75.63061     9.35036
   284  N   5.0   -0.12    3.50    2.07   -18.35491    75.92730     8.95163
   285  C   4.0    0.03    3.88    3.44   -20.24085    75.36605    10.63916
   286  C   4.0   -0.04    3.40    3.08   -24.80832    75.24889    10.68640
   287  C   4.0   -0.03    3.39    3.08   -20.11235    74.69709    13.19785
   288  C   4.0   -0.04    3.37    3.07   -24.67982    74.62528    13.22619
   289  C   4.0   -0.03    3.37    3.07   -22.35735    74.34560    14.45451
   290  H   1.0    0.09    1.06    1.44   -21.78476    74.43253     0.71999
   291  H   1.0    0.07    1.08    1.44   -25.15981    73.01145     4.95864
   292  H   1.0    0.05    1.03    1.43   -22.95639    78.04001     3.33348
   293  H   1.0    0.04    1.03    1.43   -25.50752    77.70553     5.51800
   294  H   1.0    0.05    1.01    1.43   -18.37570    76.92507     4.95675
   295  H   1.0    0.09    1.06    1.44   -16.46707    75.92919     9.34092
   296  H   1.0    0.06    1.03    1.43   -26.61301    75.43786     9.75288
   297  H   1.0    0.07    1.02    1.43   -18.31900    74.46654    14.14460
   298  H   1.0    0.05    1.03    1.43   -26.40703    74.34938    14.27688
   299  H   1.0    0.06    1.03    1.43   -22.32711    73.84293    16.43306
   300  N   5.0   -0.14    3.52    2.09   -29.01485    73.95631     2.74766
   301  C   4.0    0.04    4.36    4.31   -31.33544    74.18686     1.33415
   302  C   4.0    0.08    3.25    3.04   -33.14012    75.77234     2.87805
   303  O   6.0   -0.30    1.19    1.80   -33.37823    75.34526     5.15706
   304  C   4.0   -0.04    4.33    4.25   -32.43148    71.54880     0.93352
   305  C   4.0   -0.05    4.19    3.99   -34.11333    71.29180    -1.36249
   306  C   4.0   -0.01    4.24    4.08   -35.11111    68.61784    -1.57792
   307  N   5.0   -0.14    3.42    2.03   -36.71738    67.98478     0.58204
   308  C   4.0    0.09    3.34    3.06   -36.79863    65.72467     1.66674
   309  N   5.0   -0.19    3.27    1.97   -35.38701    63.84628     0.79180
   310  N   5.0   -0.18    3.24    1.97   -38.29152    65.32216     3.63772
   311  H   1.0    0.11    1.09    1.44   -29.23406    73.21932     4.51456
   312  H   1.0    0.05    1.06    1.44   -31.04442    75.10149    -0.48944
   313  H   1.0    0.04    1.04    1.43   -30.87434    70.21844     0.71432
   314  H   1.0    0.06    1.04    1.43   -33.55586    71.04992     2.58515
   315  H   1.0    0.05    1.03    1.43   -35.71393    72.57870    -1.19431
   316  H   1.0    0.04    1.03    1.43   -33.03430    71.72833    -3.06136
   317  H   1.0    0.05    1.03    1.43   -36.22983    68.44020    -3.29757
   318  H   1.0    0.04    1.04    1.43   -33.53130    67.29692    -1.62516
   319  H   1.0    0.08    1.06    1.44   -37.84743    69.36995     1.30013
   320  H   1.0    0.08    1.04    1.43   -34.23050    64.13541    -0.72377
   321  H   1.0    0.08    1.03    1.43   -35.45882    62.11340     1.63461
   322  H   1.0    0.09    1.03    1.43   -39.38378    66.75268     4.32747
   323  H   1.0    0.08    1.03    1.43   -38.34821    63.58172     4.46542
   324  N   5.0   -0.19    3.18    1.95   -31.95338    76.50178    -6.92018
   325  C   4.0    0.03    4.21    4.02   -29.33611    76.87594    -6.08870
   326  C   4.0    0.09    3.21    3.04   -28.74462    79.62171    -5.57091
   327  O   6.0   -0.26    1.13    1.80   -29.28130    81.26011    -7.14127
   328  C   4.0   -0.04    4.35    4.29   -27.39536    75.78746    -7.95764
   329  C   4.0   -0.03    4.19    3.98   -26.73584    72.98689    -7.72898
   330  C   4.0   -0.07    4.10    3.80   -25.32989    72.06659   -10.08169
   331  C   4.0   -0.07    4.12    3.84   -25.15981    72.46721    -5.40840
   332  H   1.0    0.09    1.03    1.43   -32.07432    75.64762    -8.64361
   333  H   1.0    0.04    1.06    1.44   -29.14713    75.82903    -4.32558
   334  H   1.0    0.05    1.04    1.43   -28.12857    76.07092    -9.86059
   335  H   1.0    0.05    1.04    1.43   -25.63791    76.83248    -7.71764
   336  H   1.0    0.04    1.06    1.44   -28.50085    71.93998    -7.55323
   337  H   1.0    0.04    1.00    1.43   -24.88769    70.06726    -9.85870
   338  H   1.0    0.05    1.00    1.43   -26.53175    72.34060   -11.73142
   339  H   1.0    0.05    1.00    1.43   -23.59134    73.15129   -10.29145
   340  H   1.0    0.04    1.00    1.43   -24.73651    70.45276    -5.32336
   341  H   1.0    0.05    1.00    1.43   -23.40993    73.54813    -5.52934
   342  H   1.0    0.06    1.01    1.43   -26.22184    73.03413    -3.73599
   343  N   5.0   -0.20    3.22    1.96   -12.15661    87.74565     4.64873
   344  C   4.0    0.03    4.29    4.17   -11.68229    85.07357     5.17974
   345  C   4.0    0.16    3.34    3.06    -8.92896    84.83925     6.05846
   346  O   6.0   -0.26    1.21    1.80    -7.33025    83.72242     4.74888
   347  C   4.0   -0.03    4.25    4.10   -12.24731    83.42006     2.84215
   348  C   4.0   -0.04    4.20    4.01   -15.04222    83.35014     2.05602
   349  C   4.0    0.15    3.21    3.04   -15.84346    85.35514     0.16063
   350  O   6.0   -0.28    1.22    1.80   -14.43751    87.09180    -0.53857
   351  N   5.0   -0.18    3.18    1.95   -18.15649    85.14727    -0.73321
   352  H   1.0    0.11    1.03    1.43   -11.57457    88.25398     2.88372
   353  H   1.0    0.04    1.05    1.44   -12.94651    84.39516     6.65750
   354  H   1.0    0.07    1.03    1.43   -11.17206    84.15328     1.24533
   355  H   1.0    0.06    1.03    1.43   -11.66906    81.48687     3.25222
   356  H   1.0    0.04    1.03    1.43   -15.43150    81.51522     1.20753
   357  H   1.0    0.04    1.03    1.43   -16.19684    83.60526     3.74166
   358  H   1.0    0.08    1.03    1.43   -19.29032    83.70352    -0.14740
   359  H   1.0    0.10    1.02    1.43   -18.81411    86.43040    -2.01256
   360  N   5.0   -0.13    3.40    2.02    -8.40361    86.02599     8.26755
   361  C   4.0    0.03    4.35    4.29    -6.02067    86.27355     9.65650
   362  C   4.0    0.16    3.41    3.08    -4.14417    84.12682     9.37304
   363  O   6.0   -0.27    1.21    1.80    -2.08059    84.48020     8.33936
   364  C   4.0   -0.05    4.38    4.34    -6.57058    86.57590    12.51754
   365  C   4.0   -0.03    4.18    3.96    -6.42885    89.22530    13.66650
   366  C   4.0   -0.07    4.11    3.81    -8.56424    90.91849    12.71408
   367  C   4.0   -0.08    4.12    3.84    -6.56869    89.07979    16.51809
   368  H   1.0    0.07    1.07    1.44    -9.78311    86.94629     9.25210
   369  H   1.0    0.06    1.06    1.44    -5.11549    87.93084     8.83258
   370  H   1.0    0.04    1.04    1.43    -8.48109    85.88615    12.86147
   371  H   1.0    0.04    1.05    1.44    -5.20808    85.41750    13.53989
   372  H   1.0    0.05    1.06    1.44    -4.63361    90.06056    13.09580
   373  H   1.0    0.05    1.00    1.43    -8.38471    92.77799    13.58335
   374  H   1.0    0.05    1.00    1.43    -8.42629    91.08479    10.66561
   375  H   1.0    0.04    1.00    1.43   -10.37082    90.07379    13.22997
   376  H   1.0    0.04    1.00    1.43    -6.46475    90.98464    17.29288
   377  H   1.0    0.04    1.00    1.43    -8.35070    88.19918    17.05856
   378  H   1.0    0.04    1.00    1.43    -4.98888    87.95351    17.20973
   379  N   5.0   -0.12    3.53    2.10    -4.92463    81.89316    10.21964
   380  C   4.0    0.04    4.37    4.33    -3.48088    79.56502    10.08358
   381  C   4.0    0.15    3.43    3.09    -5.31958    77.47309     9.28422
   382  O   6.0   -0.29    1.28    1.80    -7.60804    77.93986     9.12927
   383  C   4.0   -0.04    4.28    4.15    -2.39428    79.05669    12.73864
   384  C   4.0   -0.02    4.18    3.97    -0.11149    77.31625    12.85392
   385  C   4.0    0.26    3.12    3.03    -0.67652    74.66118    13.77232
   386  O   6.0   -0.27    1.18    1.80    -2.26389    74.35127    15.50520
   387  O   6.0   -0.24    1.18    1.80     0.52723    72.88295    12.78022
   388  H   1.0    0.09    1.08    1.44    -6.64239    81.63049    11.05301
   389  H   1.0    0.06    1.05    1.44    -1.95398    79.62927     8.70219
   390  H   1.0    0.05    1.03    1.43    -1.82736    80.85948    13.55689
   391  H   1.0    0.06    1.05    1.44    -3.87394    78.19686    13.88571
   392  H   1.0    0.07    1.04    1.43     0.68975    77.15940    10.96230
   393  H   1.0    0.06    1.03    1.43     1.27368    78.13450    14.14082
   394  N   5.0   -0.12    3.46    2.05    -4.33881    75.20164     8.72297
   395  C   4.0    0.04    4.41    4.40    -5.93752    73.06247     8.09370
   396  C   4.0    0.15    3.44    3.09    -7.22631    72.38406    10.59758
   397  O   6.0   -0.28    1.25    1.80    -5.95642    71.57715    12.38148
   398  C   4.0   -0.02    4.33    4.25    -4.32558    70.87417     7.10726
   399  C   4.0    0.15    3.22    3.04    -5.77500    68.68209     6.00555
   400  O   6.0   -0.30    1.24    1.80    -6.89183    68.86539     3.96653
   401  N   5.0   -0.17    3.20    1.96    -5.59926    66.49568     7.21875
   402  H   1.0    0.09    1.06    1.44    -2.45286    74.80858     8.69463
   403  H   1.0    0.06    1.05    1.44    -7.30946    73.48766     6.61782
   404  H   1.0    0.07    1.03    1.43    -3.08781    71.59605     5.62760
   405  H   1.0    0.07    1.04    1.43    -3.20120    70.14096     8.67006
   406  H   1.0    0.12    1.06    1.44    -6.54034    64.94799     6.55735
   407  H   1.0    0.10    1.03    1.43    -4.52400    66.36151     8.81179
   408  N   5.0   -0.14    3.36    2.00    -9.66406    72.99822    10.78278
   409  C   4.0    0.02    4.25    4.10   -11.19096    72.50689    13.02777
   410  C   4.0    0.15    3.33    3.06   -12.18306    74.81803    14.38081
   411  O   6.0   -0.31    1.30    1.80   -13.70429    74.58748    16.10613
   412  H   1.0    0.09    1.06    1.44   -10.65427    73.85994     9.37115
   413  H   1.0    0.04    1.03    1.43   -12.81423    71.36739    12.47597
   414  H   1.0    0.07    1.04    1.43   -10.04956    71.44298    14.37326
   415  N   5.0   -0.13    3.50    2.08   -11.33080    77.04413    13.67595
   416  C   4.0    0.04    4.52    4.56   -12.21708    79.31369    14.94395
   417  C   4.0    0.14    3.41    3.08   -13.40383    81.05035    13.02210
   418  O   6.0   -0.30    1.24    1.80   -12.27944    81.59837    11.05112
   419  C   4.0   -0.02    4.24    4.08   -10.20263    80.72909    16.57101
   420  C   4.0   -0.08    4.09    3.79   -11.36292    81.68907    19.02009
   421  C   4.0   -0.07    4.11    3.82    -7.85181    79.13038    17.10958
   422  H   1.0    0.11    1.08    1.44   -10.05334    77.33892    12.26432
   423  H   1.0    0.06    1.10    1.44   -13.66650    78.69953    16.27432
   424  H   1.0    0.04    1.07    1.44    -9.56201    82.34103    15.46174
   425  H   1.0    0.04    1.00    1.43    -9.91350    82.66606    20.11046
   426  H   1.0    0.04    1.00    1.43   -12.89927    82.98543    18.57034
   427  H   1.0    0.04    1.00    1.43   -12.08858    80.08659    20.09157
   428  H   1.0    0.04    1.00    1.43    -6.53656    80.23398    18.24719
   429  H   1.0    0.05    1.00    1.43    -8.41495    77.43341    18.13381
   430  H   1.0    0.05    1.00    1.43    -6.96931    78.61260    15.32190
   431  N   5.0   -0.14    3.47    2.06   -15.67717    81.91206    13.59847
   432  C   4.0    0.03    4.29    4.19   -17.06612    83.66951    12.01110
   433  C   4.0    0.07    3.22    3.04   -17.76342    85.93151    13.64949
   434  O   6.0   -0.32    1.20    1.80   -18.93127    85.58947    15.64504
   435  C   4.0   -0.04    4.32    4.24   -19.44906    82.37126    10.90750
   436  C   4.0   -0.03    4.19    3.97   -21.30099    83.98509     9.34469
   437  C   4.0   -0.08    4.12    3.84   -20.20684    84.65405     6.81246
   438  C   4.0   -0.07    4.09    3.79   -23.85212    82.66228     9.03478
   439  H   1.0    0.11    1.08    1.44   -16.63337    81.41317    15.19718
   440  H   1.0    0.04    1.06    1.44   -15.91527    84.33091    10.43696
   441  H   1.0    0.05    1.03    1.43   -18.81411    80.84626     9.67729
   442  H   1.0    0.06    1.03    1.43   -20.52620    81.60215    12.48542
   443  H   1.0    0.05    1.06    1.44   -21.62791    85.74065    10.37082
   444  H   1.0    0.04    1.00    1.43   -21.57122    85.79167     5.77122
   445  H   1.0    0.04    1.00    1.43   -18.47018    85.72364     7.09403
   446  H   1.0    0.04    1.00    1.43   -19.80433    82.91928     5.77689
   447  H   1.0    0.04    1.00    1.43   -25.10123    83.86415     7.92173
   448  H   1.0    0.04    1.00    1.43   -23.56299    80.86515     8.06913
   449  H   1.0    0.04    1.00    1.43   -24.66848    82.33536    10.89805
   450  N   5.0   -0.19    3.25    1.97   -32.91525    72.11572     9.42595
   451  C   4.0    0.03    4.41    4.41   -32.03085    69.52113     9.42028
   452  C   4.0    0.14    3.40    3.08   -29.22650    69.41152     8.89305
   453  O   6.0   -0.31    1.26    1.80   -28.30432    70.59071     7.11104
   454  C   4.0    0.05    4.25    4.11   -33.57665    67.94321     7.57402
   455  O   6.0   -0.25    2.13    1.84   -36.17313    68.52335     7.91795
   456  C   4.0   -0.07    4.09    3.79   -33.17603    65.14830     7.93118
   457  H   1.0    0.12    1.06    1.44   -32.86233    72.93775     7.68363
   458  H   1.0    0.04    1.07    1.44   -32.26518    68.68965    11.29111
   459  H   1.0    0.05    1.05    1.44   -32.97761    68.38540     5.65406
   460  H   1.0    0.12    1.01    1.43   -36.68525    68.13029     9.65461
   461  H   1.0    0.05    1.00    1.43   -34.31364    64.09384     6.57625
   462  H   1.0    0.04    1.00    1.43   -31.19182    64.67965     7.64394
   463  H   1.0    0.04    1.00    1.43   -33.72594    64.59650     9.83791
   464  N   5.0   -0.14    3.47    2.06   -27.89802    67.96966    10.47097
   465  C   4.0    0.04    4.48    4.50   -25.20705    67.51424    10.31223
   466  C   4.0    0.15    3.48    3.11   -24.83100    65.01602     8.92896
   467  O   6.0   -0.31    1.26    1.80   -25.56232    63.04504     9.91917
   468  C   4.0   -0.03    4.20    4.00   -24.06566    67.44243    12.95407
   469  S   6.0   -0.03    2.48    3.10   -20.96840    66.02513    13.06368
   470  H   1.0    0.07    1.07    1.44   -28.69738    67.04370    11.96197
   471  H   1.0    0.06    1.06    1.44   -24.27353    69.00523     9.24265
   472  H   1.0    0.04    1.07    1.44   -23.90125    69.37184    13.65894
   473  H   1.0    0.05    1.08    1.44   -25.30343    66.34639    14.18239
   474  N   5.0   -0.14    3.42    2.03   -23.70094    65.08027     6.65561
   475  C   4.0    0.03    4.43    4.43   -23.26631    62.81071     5.10982
   476  C   4.0    0.14    3.37    3.07   -20.46951    61.98868     5.06636
   477  O   6.0   -0.31    1.27    1.80   -18.87458    63.33417     4.01000
   478  C   4.0   -0.02    4.32    4.23   -24.35857    63.17165     2.40562
   479  C   4.0   -0.05    4.23    4.06   -27.20449    63.82738     2.47176
   480  C   4.0   -0.06    4.09    3.79   -23.81622    60.86051     0.73888
   481  C   4.0   -0.07    4.08    3.76   -27.85456    65.95522     0.94108
   482  H   1.0    0.11    1.11    1.44   -23.06033    66.69977     5.82980
   483  H   1.0    0.07    1.08    1.44   -24.20550    61.24980     6.06980
   484  H   1.0    0.05    1.07    1.44   -23.39481    64.78358     1.55902
   485  H   1.0    0.04    1.04    1.43   -28.27597    62.20600     1.78768
   486  H   1.0    0.05    1.05    1.44   -27.74307    64.25824     4.41251
   487  H   1.0    0.05    1.00    1.43   -24.60801    61.18366    -1.13573
   488  H   1.0    0.06    1.00    1.43   -21.77720    60.59406     0.60471
   489  H   1.0    0.06    1.00    1.43   -24.68549    59.19944     1.59115
   490  H   1.0    0.04    1.01    1.43   -29.88035    66.29348     1.08848
   491  H   1.0    0.05    1.01    1.43   -26.81710    67.60495     1.60816
   492  H   1.0    0.04    1.01    1.43   -27.35000    65.55270    -1.01478
   493  N   5.0   -0.14    3.42    2.03   -19.89126    59.76069     6.14917
   494  C   4.0    0.04    4.33    4.26   -17.30233    58.76859     6.16240
   495  C   4.0    0.15    3.39    3.08   -16.98675    56.91099     3.97409
   496  O   6.0   -0.32    1.26    1.80   -18.33979    55.02126     3.88528
   497  C   4.0   -0.08    4.11    3.81   -16.72785    57.49869     8.66817
   498  H   1.0    0.10    1.08    1.44   -21.17438    58.61741     7.02222
   499  H   1.0    0.06    1.07    1.44   -15.96629    60.31249     5.88839
   500  H   1.0    0.04    1.00    1.43   -14.79844    56.78060     8.62849
   501  H   1.0    0.04    1.00    1.43   -16.93194    58.88008    10.18184
   502  H   1.0    0.05    1.00    1.43   -18.05066    55.94534     8.95163
   503  N   5.0   -0.14    3.40    2.02   -15.25009    57.46279     2.18830
   504  C   4.0    0.03    4.37    4.32   -14.92695    55.90565    -0.06614
   505  C   4.0    0.14    3.32    3.06   -12.26810    54.76048    -0.47810
   506  O   6.0   -0.31    1.23    1.80   -10.34247    56.04171    -0.15307
   507  C   4.0    0.04    4.14    3.89   -15.73008    57.38909    -2.39995
   508  O   6.0   -0.23    2.03    1.83   -16.39526    55.74692    -4.40873
   509  H   1.0    0.11    1.09    1.44   -14.05767    58.97457     2.27334
   510  H   1.0    0.06    1.08    1.44   -16.10424    54.24080     0.22299
   511  H   1.0    0.05    1.02    1.43   -17.36091    58.55505    -1.92185
   512  H   1.0    0.06    1.02    1.43   -14.16350    58.58339    -3.00466
   513  H   1.0    0.13    1.02    1.43   -17.80311    54.65843    -3.89661
   514  N   5.0   -0.12    3.44    2.04   -12.23975    52.29817    -1.19809
   515  C   4.0    0.04    4.34    4.28   -10.09303    50.64843    -1.87083
   516  C   4.0    0.15    3.48    3.11   -11.12860    48.77005    -3.87583
   517  O   6.0   -0.27    1.31    1.80   -13.43784    48.44879    -3.95898
   518  C   4.0    0.05    4.21    4.01    -9.13305    49.08563     0.42708
   519  O   6.0   -0.24    2.11    1.84   -10.83947    47.06740     0.98833
   520  C   4.0   -0.06    4.07    3.75    -8.59447    50.65599     2.75711
   521  H   1.0    0.12    1.09    1.44   -13.87437    51.28716    -1.34737
   522  H   1.0    0.05    1.04    1.43    -8.53211    51.77849    -2.60026
   523  H   1.0    0.04    1.05    1.44    -7.31135    48.28628    -0.10771
   524  H   1.0    0.12    1.01    1.43   -10.21775    46.09609     2.43775
   525  H   1.0    0.06    1.00    1.43    -7.93118    49.44468     4.28590
   526  H   1.0    0.06    1.00    1.43    -7.14694    52.06006     2.34137
   527  H   1.0    0.05    1.00    1.43   -10.30846    51.62353     3.36560
   528  N   5.0   -0.10    3.62    2.18    -9.57713    47.36976    -5.37249
   529  C   4.0    0.04    4.54    4.59   -10.68829    45.55184    -7.18285
   530  C   4.0    0.15    3.34    3.06   -12.10747    43.31630    -5.97720
   531  O   6.0   -0.27    1.21    1.80   -13.60603    42.08420    -7.26033
   532  C   4.0   -0.04    4.36    4.32    -8.39983    44.65233    -8.71920
   533  C   4.0   -0.04    4.31    4.21    -6.38538    46.58174    -8.25810
   534  C   4.0   -0.02    4.34    4.28    -6.79923    47.42456    -5.61060
   535  H   1.0    0.07    1.05    1.44   -11.99787    46.55151    -8.41873
   536  H   1.0    0.05    1.03    1.43    -7.80268    42.79473    -8.05968
   537  H   1.0    0.05    1.02    1.43    -8.89116    44.56541   -10.71853
   538  H   1.0    0.04    1.03    1.43    -4.52589    45.72570    -8.47731
   539  H   1.0    0.05    1.03    1.43    -6.59892    48.15211    -9.57524
   540  H   1.0    0.04    1.02    1.43    -5.91862    46.12443    -4.27645
   541  H   1.0    0.04    1.02    1.43    -6.07169    49.32941    -5.32147
   542  N   5.0   -0.13    3.45    2.04   -11.67095    42.83064    -3.51489
   543  C   4.0    0.04    4.31    4.22   -12.83502    40.77273    -2.05980
   544  C   4.0    0.15    3.33    3.06   -15.46552    41.42279    -0.87305
   545  O   6.0   -0.30    1.22    1.80   -16.49353    39.89778     0.57070
   546  C   4.0    0.04    4.14    3.88   -10.99254    39.80330    -0.05480
   547  O   6.0   -0.25    2.05    1.83    -9.60170    41.78562     1.10171
   548  H   1.0    0.10    1.08    1.44   -10.46530    43.88133    -2.43964
   549  H   1.0    0.06    1.06    1.44   -13.20163    39.22315    -3.36749
   550  H   1.0    0.05    1.02    1.43   -12.06590    38.81686     1.40029
   551  H   1.0    0.05    1.01    1.43    -9.66595    38.50695    -0.95242
   552  H   1.0    0.12    1.01    1.43    -8.44707    41.09209     2.37161
   553  N   5.0   -0.12    3.33    1.99   -16.53510    43.61299    -1.53635
   554  C   4.0    0.02    4.24    4.08   -19.01064    44.40478    -0.61038
   555  C   4.0    0.14    3.26    3.05   -19.33757    47.19780    -0.03968
   556  O   6.0   -0.28    1.22    1.80   -17.68217    48.74170    -0.61983
   557  H   1.0    0.12    1.07    1.44   -15.71685    44.88855    -2.72687
   558  H   1.0    0.06    1.03    1.43   -20.42227    43.90400    -2.02390
   559  H   1.0    0.05    1.04    1.43   -19.41126    43.37677     1.13006
   560  N   5.0   -0.14    3.39    2.02   -21.51075    47.85164     1.14706
   561  C   4.0    0.03    4.37    4.33   -22.20806    50.41978     1.93886
   562  C   4.0    0.14    3.36    3.07   -23.75008    50.43868     4.38038
   563  O   6.0   -0.28    1.21    1.80   -25.40359    48.83052     4.74510
   564  C   4.0   -0.03    4.25    4.09   -23.60457    51.86542    -0.15685
   565  C   4.0   -0.03    4.20    4.01   -21.83011    53.32807    -1.87272
   566  C   4.0    0.25    3.11    3.02   -23.00741    55.14409    -3.75489
   567  O   6.0   -0.29    1.18    1.80   -25.05777    56.18722    -3.19364
   568  O   6.0   -0.27    1.17    1.80   -21.82822    55.58818    -5.75988
   569  H   1.0    0.09    1.06    1.44   -22.87891    46.57041     1.59871
   570  H   1.0    0.06    1.07    1.44   -20.45439    51.40810     2.37539
   571  H   1.0    0.06    1.03    1.43   -24.64770    50.51993    -1.31714
   572  H   1.0    0.06    1.03    1.43   -24.90470    53.20901     0.70865
   573  H   1.0    0.05    1.04    1.43   -20.57156    54.44111    -0.68030
   574  H   1.0    0.07    1.04    1.43   -20.73974    51.96368    -2.96498
   575  N   5.0   -0.13    3.42    2.03   -23.18883    52.28305     6.04523
   576  C   4.0    0.04    4.32    4.24   -24.45872    52.65532     8.46786
   577  C   4.0    0.14    3.38    3.07   -25.53776    55.32740     8.67573
   578  O   6.0   -0.32    1.27    1.80   -24.46817    57.13019     7.63827
   579  C   4.0   -0.06    4.11    3.82   -22.64837    52.14321    10.62593
   580  H   1.0    0.10    1.07    1.44   -21.80555    53.58885     5.73721
   581  H   1.0    0.06    1.07    1.44   -26.05554    51.36275     8.61526
   582  H   1.0    0.05    1.00    1.43   -23.63480    52.43234    12.41172
   583  H   1.0    0.07    1.00    1.43   -21.98318    50.19868    10.49743
   584  H   1.0    0.04    1.00    1.43   -21.05533    53.43956    10.48609
   585  N   5.0   -0.13    3.41    2.03   -27.68449    55.57306    10.00988
   586  C   4.0    0.04    4.34    4.28   -28.99029    57.98435    10.39160
   587  C   4.0    0.08    3.21    3.04   -29.67248    58.46056    13.13171
   588  O   6.0   -0.27    1.13    1.80   -30.21294    56.70123    14.56034
   589  C   4.0    0.06    4.21    4.02   -31.36000    58.23191     8.71353
   590  O   6.0   -0.23    2.08    1.84   -33.00406    56.11541     9.08013
   591  C   4.0   -0.07    4.06    3.72   -30.73261    58.60418     5.92807
   592  H   1.0    0.10    1.06    1.44   -28.57644    54.09530    10.86592
   593  H   1.0    0.07    1.08    1.44   -27.65992    59.47157     9.87760
   594  H   1.0    0.04    1.05    1.44   -32.36345    59.93833     9.28233
   595  H   1.0    0.12    1.01    1.43   -34.50451    56.28549     8.00866
   596  H   1.0    0.04    1.00    1.43   -32.46738    58.76859     4.83014
   597  H   1.0    0.04    1.00    1.43   -29.61956    60.32005     5.68052
   598  H   1.0    0.06    1.00    1.43   -29.64980    56.99791     5.22887
   599  O   6.0   -0.36    2.03    1.83   -13.44351    77.69608     7.66284
   600  H   1.0    0.18    1.02    1.43   -12.07724    78.50489     7.63449
   601  H   1.0    0.15    1.02    1.43   -14.61136    78.76189     7.50788
   602  O   6.0   -0.38    1.99    1.83   -19.68528    76.77201    -3.08781
   603  H   1.0    0.16    1.02    1.43   -18.41160    77.71876    -3.08781
   604  H   1.0    0.16    1.02    1.43   -20.96084    77.71687    -3.08781
   605  O   6.0   -0.34    1.99    1.83   -10.56546    54.26348    -7.15639
   606  H   1.0    0.16    1.02    1.43    -9.29178    55.21023    -7.15639
   607  H   1.0    0.17    1.02    1.43   -11.84102    55.20834    -7.15639
   608  N   5.0   -0.18    3.22    1.96     7.87414    49.04068    -6.81939
   609  C   4.0    0.03    4.16    3.92     6.27426    46.80775    -7.14064
   610  C   4.0    0.08    3.22    3.04     4.98518    46.99960    -9.71256
   611  O   6.0   -0.27    1.14    1.80     4.44982    49.10606   -10.56483
   612  C   4.0   -0.07    4.12    3.84     4.29351    46.73119    -5.07328
   613  H   1.0    0.09    1.03    1.43     7.00031    50.41057    -5.78193
   614  H   1.0    0.04    1.05    1.44     7.37265    45.06781    -7.03293
   615  H   1.0    0.04    1.00    1.43     3.11702    45.06128    -5.33407
   616  H   1.0    0.04    1.00    1.43     5.23661    46.64725    -3.24403
   617  H   1.0    0.05    1.00    1.43     3.13741    48.43126    -5.19045
   618  N   5.0   -0.19    3.16    1.95    14.56458    67.32905    11.74339
   619  C   4.0    0.03    4.29    4.19    12.63896    68.08296     9.87823
   620  C   4.0    0.15    3.40    3.08    10.91246    70.23053    10.71160
   621  O   6.0   -0.29    1.29    1.80     9.96306    70.30646    12.84888
   622  C   4.0    0.03    4.14    3.88    11.05817    65.82832     8.99762
   623  O   6.0   -0.24    2.04    1.83     9.15900    65.16825    10.76640
   624  H   1.0    0.09    1.03    1.43    14.38317    65.48521    12.27251
   625  H   1.0    0.03    1.07    1.44    13.70665    68.81504     8.27574
   626  H   1.0    0.04    1.01    1.43    10.15522    66.31512     7.21182
   627  H   1.0    0.04    1.02    1.43    12.30672    64.21000     8.73683
   628  H   1.0    0.11    1.01    1.43     8.18755    63.72146    10.14090
   629  N   5.0   -0.15    3.52    2.09    10.47198    71.92699     8.94092
   630  C   4.0    0.04    4.40    4.38     8.83934    74.10474     9.30564
   631  C   4.0    0.16    3.35    3.07     6.07429    73.39862     8.62534
   632  O   6.0   -0.28    1.21    1.80     4.36045    74.96869     8.94281
   633  C   4.0    0.05    4.19    3.98     9.84013    76.33219     7.67103
   634  O   6.0   -0.26    2.09    1.84     9.57251    75.74126     5.03297
   635  C   4.0   -0.07    4.04    3.69    12.60083    77.06852     8.30409
   636  H   1.0    0.08    1.07    1.44    11.24045    71.84696     7.17403
   637  H   1.0    0.07    1.05    1.44     8.86072    74.77825    11.25206
   638  H   1.0    0.05    1.04    1.43     8.71136    78.00003     8.10377
   639  H   1.0    0.12    1.01    1.43    10.20451    77.14481     4.00307
   640  H   1.0    0.05    0.99    1.43    13.20539    78.63298     7.10789
   641  H   1.0    0.05    1.00    1.43    12.74336    77.64178    10.27696
   642  H   1.0    0.05    1.00    1.43    13.84957    75.46122     7.98283
   643  N   5.0   -0.14    3.44    2.04     5.66546    71.04161     7.68237
   644  C   4.0    0.04    4.37    4.33     3.21170    70.22718     6.73750
   645  C   4.0    0.14    3.35    3.06     2.07982    67.85640     7.99228
   646  O   6.0   -0.29    1.24    1.80     0.55482    66.54826     6.79230
   647  C   4.0   -0.03    4.24    4.09     3.32991    69.89393     3.83866
   648  C   4.0   -0.03    4.20    3.99     3.96184    72.31428     2.33066
   649  C   4.0    0.16    3.22    3.04     2.49938    74.64702     3.14135
   650  O   6.0   -0.28    1.20    1.80     0.15698    74.67152     3.26419
   651  N   5.0   -0.16    3.19    1.95     3.88131    76.66029     3.72150
   652  H   1.0    0.08    1.07    1.44     7.02631    69.68232     7.56520
   653  H   1.0    0.08    1.07    1.44     1.89147    71.72775     7.23639
   654  H   1.0    0.05    1.03    1.43     4.78420    68.50131     3.40403
   655  H   1.0    0.07    1.03    1.43     1.49477    69.22500     3.18671
   656  H   1.0    0.05    1.03    1.43     5.96641    72.72754     2.56499
   657  H   1.0    0.05    1.03    1.43     3.53838    71.97815     0.34267
   658  H   1.0    0.10    1.04    1.43     5.80326    76.57415     3.60812
   659  H   1.0    0.11    1.02    1.43     3.02062    78.29089     4.28086
   660  N   5.0   -0.12    3.43    2.03     2.68737    67.38235    10.41491
   661  C   4.0    0.04    4.39    4.36     1.57561    65.28285    11.83220
   662  C   4.0    0.16    3.42    3.08    -0.38393    66.39031    13.62366
   663  O   6.0   -0.24    1.25    1.80     0.24522    68.06716    15.10332
   664  C   4.0   -0.03    4.25    4.11     3.60710    63.80889    13.31753
   665  C   4.0    0.23    3.10    3.02     2.73019    61.45003    14.74616
   666  O   6.0   -0.32    1.29    1.80     0.55954    61.43403    15.69291
   667  O   6.0   -0.30    1.17    1.80     4.25493    59.65948    14.99372
   668  H   1.0    0.11    1.05    1.44     3.94540    68.42725    11.43347
   669  H   1.0    0.05    1.06    1.44     0.67306    63.94349    10.55475
   670  H   1.0    0.05    1.03    1.43     5.05415    63.19981    11.98527
   671  H   1.0    0.06    1.03    1.43     4.42720    65.08319    14.71215
   672  N   5.0   -0.13    3.43    2.03    -2.73597    65.41859    13.53674
   673  C   4.0    0.05    4.36    4.31    -4.82405    66.28382    15.14489
   674  C   4.0    0.17    3.38    3.07    -4.30775    66.08876    17.97759
   675  O   6.0   -0.29    1.22    1.80    -5.36167    67.58161    19.41378
   676  C   4.0    0.03    4.15    3.90    -7.27896    64.93848    14.47026
   677  O   6.0   -0.23    2.07    1.83    -6.91115    62.29451    14.23027
   678  H   1.0    0.09    1.06    1.44    -3.26031    63.99864    12.34432
   679  H   1.0    0.09    1.07    1.44    -5.05965    68.29059    14.74238
   680  H   1.0    0.05    1.02    1.43    -8.66039    65.28650    15.95937
   681  H   1.0    0.04    1.01    1.43    -7.97279    65.67912    12.67880
   682  H   1.0    0.11    1.01    1.43    -8.51166    61.46865    13.79563
   683  N   5.0   -0.13    3.44    2.04    -2.66560    64.30272    18.78073
   684  C   4.0    0.04    4.36    4.31    -2.05915    63.91750    21.45469
   685  C   4.0    0.15    3.35    3.07     0.33008    65.32747    22.31262
   686  O   6.0   -0.30    1.22    1.80     0.55289    65.87507    24.55951
   687  C   4.0   -0.05    4.25    4.10    -1.96312    61.09043    22.16523
   688  C   4.0   -0.04    4.21    4.03     0.22425    59.61482    21.05407
   689  C   4.0   -0.01    4.23    4.07     0.10162    56.83389    21.69279
   690  N   5.0   -0.14    3.40    2.02     2.37796    55.54056    20.81218
   691  C   4.0    0.09    3.35    3.06     4.43320    55.20843    22.21058
   692  N   5.0   -0.18    3.27    1.97     4.50036    56.02185    24.58030
   693  N   5.0   -0.18    3.23    1.96     6.43519    54.04257    21.25627
   694  H   1.0    0.12    1.10    1.44    -1.72969    63.09741    17.60343
   695  H   1.0    0.06    1.07    1.44    -3.61258    64.67682    22.57341
   696  H   1.0    0.05    1.03    1.43    -1.82463    60.94127    24.21558
   697  H   1.0    0.05    1.03    1.43    -3.70023    60.19880    21.50949
   698  H   1.0    0.08    1.06    1.44     0.19108    59.80078    19.00371
   699  H   1.0    0.05    1.03    1.43     1.99106    60.36431    21.80051
   700  H   1.0    0.04    1.04    1.43    -0.03844    56.60028    23.73370
   701  H   1.0    0.04    1.03    1.43    -1.53395    55.98560    20.77250
   702  H   1.0    0.09    1.06    1.44     2.38806    54.85031    19.01316
   703  H   1.0    0.08    1.04    1.43     2.96723    56.90853    25.33808
   704  H   1.0    0.09    1.03    1.43     6.08649    55.76146    25.64421
   705  H   1.0    0.09    1.02    1.43     6.40033    53.39619    19.44024
   706  H   1.0    0.09    1.03    1.43     8.01143    53.79175    22.33719
   707  N   5.0   -0.13    3.42    2.03     2.08705    65.91635    20.56652
   708  C   4.0    0.03    4.44    4.45     4.39789    67.34871    21.15989
   709  C   4.0    0.15    3.38    3.07     3.93407    70.18164    20.58541
   710  O   6.0   -0.25    1.23    1.80     3.67169    70.88553    18.37821
   711  C   4.0   -0.02    4.31    4.22     6.71952    66.35866    19.70291
   712  C   4.0   -0.05    4.14    3.88     7.10151    63.47848    20.02228
   713  C   4.0   -0.06    4.13    3.87     9.02317    67.82614    20.49849
   714  C   4.0   -0.06    3.95    3.54     8.95765    62.27423    18.00783
   715  H   1.0    0.10    1.06    1.44     1.95519    65.41909    18.70892
   716  H   1.0    0.05    1.06    1.44     4.75409    67.15505    23.18001
   717  H   1.0    0.06    1.06    1.44     6.38771    66.65369    17.69224
   718  H   1.0    0.04    1.02    1.43     7.88505    63.11913    21.89311
   719  H   1.0    0.05    1.03    1.43     5.27552    62.54426    19.83141
   720  H   1.0    0.05    1.00    1.43    10.65887    67.12087    19.46481
   721  H   1.0    0.06    1.01    1.43     8.72998    69.81929    20.07141
   722  H   1.0    0.05    1.00    1.43     9.31071    67.57756    22.52238
   723  H   1.0    0.05    0.99    1.43     9.11714    60.25188    18.36877
   724  H   1.0    0.06    0.99    1.43     8.19773    62.59267    16.11999
   725  H   1.0    0.05    0.99    1.43    10.80562    63.16659    18.18168
   726  N   5.0   -0.13    3.39    2.02     3.84157    71.79316    22.55073
   727  C   4.0    0.04    4.37    4.33     3.35859    74.50810    22.24648
   728  C   4.0    0.14    3.35    3.06     5.57261    76.10059    23.19702
   729  O   6.0   -0.29    1.20    1.80     6.47817    75.71131    25.33241
   730  C   4.0   -0.04    4.25    4.09     0.88360    75.30269    23.56362
   731  C   4.0   -0.04    4.18    3.96    -1.51542    74.19692    22.39955
   732  C   4.0   -0.05    4.19    3.98    -3.84258    74.95467    23.91133
   733  C   4.0   -0.03    4.14    3.88    -6.23725    73.81868    22.86253
   734  N   5.0   -0.12    4.00    2.87    -8.48009    74.54000    24.39321
   735  H   1.0    0.09    1.05    1.44     4.09709    71.25988    24.38565
   736  H   1.0    0.07    1.07    1.44     3.18810    74.89409    20.23015
   737  H   1.0    0.05    1.03    1.43     0.96041    74.68588    25.52705
   738  H   1.0    0.04    1.03    1.43     0.72656    77.35482    23.47670
   739  H   1.0    0.06    1.03    1.43    -1.73115    74.89938    20.47581
   740  H   1.0    0.07    1.03    1.43    -1.38696    72.14139    22.38821
   741  H   1.0    0.04    1.03    1.43    -3.62593    74.30730    25.85397
   742  H   1.0    0.04    1.03    1.43    -4.03594    77.00546    23.86976
   743  H   1.0    0.05    1.02    1.43    -6.52316    74.49153    20.93690
   744  H   1.0    0.06    1.02    1.43    -6.07926    71.76492    22.87387
   745  H   1.0    0.05    1.01    1.43   -10.10296    73.73396    23.62976
   746  H   1.0    0.06    1.02    1.43    -8.26445    73.90951    26.24136
   747  H   1.0    0.05    1.02    1.43    -8.68545    76.49440    24.40644
   748  N   5.0   -0.14    3.41    2.03     6.45217    77.86527    21.54917
   749  C   4.0    0.04    4.26    4.12     8.52909    79.61208    22.08019
   750  C   4.0    0.08    3.19    3.03     7.35536    82.11370    22.95891
   751  O   6.0   -0.27    1.13    1.80     7.52321    84.05664    21.64933
   752  C   4.0   -0.03    4.25    4.10    10.24359    79.94951    19.74260
   753  C   4.0   -0.04    4.20    4.01    11.70159    77.56401    18.95647
   754  C   4.0    0.15    3.21    3.04    10.36584    75.86761    17.06108
   755  O   6.0   -0.28    1.22    1.80     8.15887    76.21688    16.36188
   756  N   5.0   -0.18    3.20    1.96    11.70237    73.96841    16.16724
   757  H   1.0    0.10    1.06    1.44     5.72092    78.11516    19.78417
   758  H   1.0    0.06    1.06    1.44     9.74873    78.85644    23.55795
   759  H   1.0    0.07    1.03    1.43     9.07098    80.51410    18.14578
   760  H   1.0    0.05    1.03    1.43    11.62865    81.41689    20.15267
   761  H   1.0    0.04    1.03    1.43    13.48533    78.14434    18.10798
   762  H   1.0    0.05    1.03    1.43    12.05797    76.43652    20.64211
   763  H   1.0    0.08    1.03    1.43    13.51961    73.70836    16.75305
   764  H   1.0    0.13    1.08    1.44    10.91996    72.75733    14.88789
   765  H   1.0    0.09    1.07    1.44     9.30824    48.60099    -6.01777
   766  H   1.0    0.06    1.04    1.43     4.58346    45.43139   -10.68744
   767  H   1.0    0.06    1.04    1.43   -17.79414    55.60677    22.98489
   768  H   1.0    0.09    1.07    1.44   -21.77945    91.21552    22.41028
   769  H   1.0    0.06    1.04    1.43   -34.12897    77.15403     2.05089
   770  H   1.0    0.09    1.07    1.44   -32.77142    75.52163    -5.79649
   771  H   1.0    0.06    1.04    1.44   -27.91373    80.11957    -3.94832
   772  H   1.0    0.10    1.07    1.44   -13.82402    88.06017     4.76433
   773  H   1.0    0.05    1.04    1.43   -17.27707    87.67565    13.10866
   774  H   1.0    0.11    1.08    1.44   -34.52624    72.16521     9.96892
   775  H   1.0    0.06    1.04    1.44   -29.68936    60.22492    13.80832
   776  H   1.0    0.09    1.07    1.44    16.11453    67.53598    11.07449
   777  H   1.0    0.06    1.04    1.43     6.43766    82.19883    24.60865

  Z AO/shell   Hii/eV     exponent
  1     Wed Apr 25 08:07:45 CEST 2018   EN: 2.200 GM2: 0.406  GM3: 0.0800  RAES: 1.40
     1s    -10.707211    1.230000
  6     Wed Apr 25 08:07:45 CEST 2018   EN: 2.550 GM2: 0.538  GM3: 0.1500  RAES: 3.00
     2s    -13.970922    2.096432
     2p    -10.063292    1.800000
  7     Wed Apr 25 08:07:45 CEST 2018   EN: 3.040 GM2: 0.461  GM3:-0.0640  RAES: 1.90
     2s    -16.686243    2.339881
     2p    -12.523956    2.014332
  8     Wed Apr 25 08:07:45 CEST 2018   EN: 3.440 GM2: 0.452  GM3:-0.0517  RAES: 1.80
     2s    -20.229985    2.439742
     2p    -15.503117    2.137023
 16     Tue Apr 24 11:44:34 CEST 2018   EN: 2.580 GM2: 0.340  GM3:-0.0502  RAES: 3.10
     3s    -20.029654    1.981333
     3p    -11.377694    2.025643
     3d     -0.420282    1.702555
 no old-style atom pair restraining (fixing) potential

molecular fragmentation (1/2 indicates fragments):
111111111111111111111111111111111111111111111111111111111111111112222222
222222222222222222222222222222222222222222222222222222222222222222222222
222222222222222222222222222222222222222222222222222222222222222222222222
222222222222222222222222222222222222222222222222222222222222222222222222
222222222222222222222222222222222222222222222222222222222222222222222222
222222222222222222222222222222222222222222222222222222222222222222222222
222222222222222222222222222222222222222222222222222222222222222222222222
222222222222222222222222222222222222222222222222222222222222222222222222
222222222222222222222222222222222222222222222222222222222222222222222222
222222222222222222222222222222222222222222222222222222222222222222222222
222222222222222222222222222222222222222222222212222222222
# atoms in fragment 1/2:    66   711
 fragment masses (1/2) :      409.55     4946.69
CMA distance (Bohr)    :  18.842
constraining FC (au)   :  0.0500
           ------------------------------------------------- 
          |        Self-Consistent Charge Iterations        |
           ------------------------------------------------- 

 Ncao       : 1908
 Nao        : 1906
 Nshell     : 1152
 Nel        : 2114
 T(el)      :   500.0
 intcut     :    35.0
 scfconv/Eh :  0.100E-06
   qconv/e  :  0.100E-04
 intneglect :  0.100E-08
 broydamp   :      0.400
 iter      E             dE          RMSdq      gap      omega  full diag
   1  -1213.6633981 -0.121366E+04  0.467E+00    2.76       0.0  T
   2  -1216.7929014 -0.312950E+01  0.215E+00    1.44       1.0  T
   3  -1216.9973648 -0.204463E+00  0.122E+00    1.61       1.0  T
   4  -1217.1798540 -0.182489E+00  0.273E-01    0.44       1.0  T
   5  -1217.1915919 -0.117379E-01  0.135E-01    0.78       1.0  T
   6  -1217.1941867 -0.259479E-02  0.618E-02    0.78       1.0  T
   7  -1217.1951893 -0.100256E-02  0.287E-02    0.81       1.0  T
   8  -1217.1953262 -0.136979E-03  0.156E-02    0.84       1.0  T
   9  -1217.1953750 -0.487201E-04  0.663E-03    0.85       1.0  T
  10  -1217.1953829 -0.790206E-05  0.344E-03    0.86       1.0  T
  11  -1217.1953847 -0.181744E-05  0.158E-03    0.86       2.3  T
  12  -1217.1953851 -0.408075E-06  0.842E-04    0.87       4.3  T
  13  -1217.1953852 -0.129805E-06  0.388E-04    0.87       9.2  T
  14  -1217.1953852 -0.188804E-07  0.219E-04    0.87      16.4  T
  15  -1217.1953852 -0.620685E-08  0.985E-05    0.87      36.4  T
  16  -1217.1953852 -0.118075E-08  0.529E-05    0.87      67.9  T
speedup  1.91
cpu  time for SCC    1 m 47.5 s
wall time for SCC    0 m 56.2 s

   *** convergence criteria satisfied after 16 iterations ***

          eigenvalues
 #    :        1045       1046       1047       1048       1049       1050       1051       1052
 occ. :        2.000      2.000      2.000      2.000      2.000      2.000      2.000      2.000
 eps  :       -10.321    -10.231    -10.202    -10.195     -9.998     -9.937     -9.922     -9.884
 #    :        1053       1054       1055       1056       1057       1058       1059       1060
 occ. :        2.000      2.000      2.000      2.000      2.000      0.000      0.000      0.000
 eps  :        -9.872     -9.767     -9.677     -9.673     -9.458     -8.592     -8.335     -8.230
 #    :        1061       1062       1063       1064       1065       1066       1067       1068
 occ. :        0.000      0.000      0.000      0.000      0.000      0.000      0.000      0.000
 eps  :        -7.959     -7.874     -7.735     -7.623     -6.914     -6.907     -6.734     -6.722


   #   Z            q   n(s)   n(p)   n(d)      C6AA      α(0)
   1   7 N     -0.033  1.227  3.805  0.000    21.866     6.945
   2   6 C     -0.015  1.068  2.948  0.000    20.843     6.498
   3   6 C      0.251  1.044  2.705  0.000    22.780     7.815
   4   8 O     -0.468  1.749  4.719  0.000    23.089     6.442
   5   6 C     -0.075  1.048  3.027  0.000    21.907     6.659
   6   6 C     -0.083  1.042  3.041  0.000    22.044     6.679
   7   6 C     -0.049  1.058  2.991  0.000    21.492     6.608
   8   1 H      0.262  0.738  0.000  0.000     0.839     1.435
   9   1 H      0.285  0.715  0.000  0.000     0.761     1.367
  10   1 H      0.097  0.903  0.000  0.000     1.812     2.105
  11   1 H      0.079  0.921  0.000  0.000     1.991     2.206
  12   1 H      0.087  0.913  0.000  0.000     1.904     2.158
  13   1 H      0.086  0.914  0.000  0.000     1.920     2.167
  14   1 H      0.095  0.905  0.000  0.000     1.830     2.116
  15   1 H      0.124  0.876  0.000  0.000     1.581     1.966
  16   1 H      0.120  0.880  0.000  0.000     1.611     1.985
  17   7 N     -0.078  1.240  3.838  0.000    22.750     7.084
  18   6 C      0.010  1.070  2.920  0.000    20.399     6.428
  19   6 C      0.273  1.041  2.685  0.000    22.384     7.747
  20   8 O     -0.486  1.744  4.742  0.000    23.487     6.498
  21   6 C     -0.071  1.052  3.019  0.000    21.825     6.647
  22   6 C     -0.069  1.039  3.030  0.000    21.795     6.642
  23   6 C     -0.007  1.051  2.957  0.000    20.748     6.493
  24   1 H      0.079  0.921  0.000  0.000     1.989     2.205
  25   1 H      0.054  0.946  0.000  0.000     2.272     2.357
  26   1 H      0.050  0.950  0.000  0.000     2.315     2.379
  27   1 H      0.056  0.944  0.000  0.000     2.247     2.344
  28   1 H      0.063  0.937  0.000  0.000     2.160     2.298
  29   1 H      0.064  0.936  0.000  0.000     2.153     2.295
  30   1 H      0.069  0.931  0.000  0.000     2.099     2.266
  31   7 N     -0.175  1.251  3.924  0.000    24.800     7.396
  32   6 C      0.010  1.064  2.926  0.000    20.416     6.434
  33   6 C      0.267  1.048  2.686  0.000    22.502     7.768
  34   8 O     -0.469  1.733  4.736  0.000    23.115     6.446
  35   6 C     -0.019  1.062  2.957  0.000    20.881     6.500
  36   6 C     -0.120  1.043  3.076  0.000    22.852     6.817
  37   6 C     -0.121  1.044  3.076  0.000    22.869     6.819
  38   1 H      0.234  0.766  0.000  0.000     0.949     1.526
  39   1 H      0.070  0.930  0.000  0.000     2.086     2.259
  40   1 H      0.064  0.936  0.000  0.000     2.157     2.297
  41   1 H      0.061  0.939  0.000  0.000     2.190     2.314
  42   1 H      0.036  0.964  0.000  0.000     2.503     2.474
  43   1 H      0.042  0.958  0.000  0.000     2.423     2.434
  44   1 H      0.057  0.943  0.000  0.000     2.240     2.341
  45   1 H      0.046  0.954  0.000  0.000     2.366     2.405
  46   1 H      0.052  0.948  0.000  0.000     2.296     2.370
  47   7 N     -0.157  1.244  3.914  0.000    24.407     7.337
  48   6 C      0.013  1.059  2.929  0.000    20.367     6.426
  49   6 C      0.206  1.086  2.709  0.000    23.632     7.961
  50   8 O     -0.361  1.758  4.603  0.000    20.908     6.131
  51   6 C     -0.026  1.070  2.957  0.000    21.008     6.519
  52   6 C     -0.070  1.046  3.024  0.000    21.828     6.651
  53   6 C     -0.126  1.046  3.080  0.000    22.978     6.836
  54   6 C     -0.108  1.032  3.075  0.000    22.615     6.781
  55   1 H      0.211  0.789  0.000  0.000     1.051     1.606
  56   1 H      0.089  0.911  0.000  0.000     1.891     2.150
  57   1 H      0.057  0.943  0.000  0.000     2.232     2.336
  58   1 H      0.041  0.959  0.000  0.000     2.438     2.442
  59   1 H      0.041  0.959  0.000  0.000     2.437     2.441
  60   1 H      0.064  0.936  0.000  0.000     2.153     2.294
  61   1 H      0.045  0.955  0.000  0.000     2.382     2.413
  62   1 H      0.058  0.942  0.000  0.000     2.228     2.334
  63   1 H      0.044  0.956  0.000  0.000     2.398     2.421
  64   1 H      0.032  0.968  0.000  0.000     2.561     2.503
  65   1 H      0.048  0.952  0.000  0.000     2.339     2.392
  66   7 N     -0.391  1.334  4.057  0.000    30.136     8.153
  67   6 C      0.022  1.067  2.911  0.000    20.214     6.404
  68   6 C      0.273  1.053  2.675  0.000    22.393     7.749
  69   8 O     -0.508  1.757  4.751  0.000    23.963     6.563
  70   6 C     -0.022  1.063  2.959  0.000    20.923     6.506
  71   6 C     -0.121  1.045  3.076  0.000    22.869     6.819
  72   6 C     -0.115  1.043  3.072  0.000    22.751     6.801
  73   1 H      0.154  0.846  0.000  0.000     1.372     1.835
  74   1 H      0.045  0.955  0.000  0.000     2.379     2.412
  75   1 H      0.029  0.971  0.000  0.000     2.598     2.521
  76   1 H      0.060  0.940  0.000  0.000     2.200     2.320
  77   1 H      0.032  0.968  0.000  0.000     2.555     2.500
  78   1 H      0.040  0.960  0.000  0.000     2.454     2.450
  79   1 H      0.050  0.950  0.000  0.000     2.318     2.381
  80   1 H      0.043  0.957  0.000  0.000     2.411     2.428
  81   1 H      0.036  0.964  0.000  0.000     2.499     2.472
  82   7 N     -0.191  1.256  3.935  0.000    25.137     7.446
  83   6 C      0.021  1.058  2.920  0.000    20.228     6.405
  84   6 C      0.267  1.047  2.686  0.000    22.490     7.766
  85   8 O     -0.478  1.739  4.739  0.000    23.302     6.472
  86   6 C     -0.067  1.055  3.013  0.000    21.785     6.644
  87   6 C     -0.010  1.049  2.961  0.000    20.722     6.474
  88   6 C     -0.117  1.044  3.073  0.000    22.797     6.807
  89   6 C     -0.116  1.042  3.074  0.000    22.763     6.802
  90   1 H      0.230  0.770  0.000  0.000     0.966     1.540
  91   1 H      0.063  0.937  0.000  0.000     2.163     2.300
  92   1 H      0.052  0.948  0.000  0.000     2.298     2.370
  93   1 H      0.050  0.950  0.000  0.000     2.320     2.382
  94   1 H      0.027  0.973  0.000  0.000     2.623     2.533
  95   1 H      0.047  0.953  0.000  0.000     2.362     2.403
  96   1 H      0.039  0.961  0.000  0.000     2.464     2.455
  97   1 H      0.048  0.952  0.000  0.000     2.345     2.395
  98   1 H      0.042  0.958  0.000  0.000     2.420     2.433
  99   1 H      0.043  0.957  0.000  0.000     2.404     2.425
 100   1 H      0.035  0.965  0.000  0.000     2.519     2.482
 101   7 N     -0.154  1.236  3.918  0.000    24.333     7.326
 102   6 C      0.008  1.055  2.938  0.000    20.456     6.440
 103   6 C      0.278  1.037  2.684  0.000    22.294     7.732
 104   8 O     -0.472  1.747  4.726  0.000    23.182     6.455
 105   6 C      0.060  1.043  2.897  0.000    19.792     6.373
 106   8 O     -0.488  1.735  4.753  0.000    22.639     6.423
 107   1 H      0.221  0.779  0.000  0.000     1.004     1.570
 108   1 H      0.095  0.905  0.000  0.000     1.832     2.117
 109   1 H      0.046  0.954  0.000  0.000     2.369     2.407
 110   1 H      0.060  0.940  0.000  0.000     2.198     2.318
 111   1 H      0.367  0.633  0.000  0.000     0.551     1.166
 112   7 N     -0.167  1.233  3.934  0.000    24.612     7.368
 113   6 C      0.022  1.054  2.925  0.000    20.195     6.395
 114   6 C      0.261  1.044  2.695  0.000    22.594     7.783
 115   8 O     -0.485  1.762  4.722  0.000    23.450     6.493
 116   6 C     -0.019  1.065  2.953  0.000    20.905     6.509
 117  16 S     -0.080  1.917  4.082  0.081   144.398    20.225
 118   1 H      0.214  0.786  0.000  0.000     1.035     1.594
 119   1 H      0.081  0.919  0.000  0.000     1.967     2.193
 120   1 H      0.072  0.928  0.000  0.000     2.069     2.249
 121   1 H      0.048  0.952  0.000  0.000     2.346     2.395
 122   7 N     -0.161  1.247  3.914  0.000    24.481     7.349
 123   6 C      0.010  1.067  2.924  0.000    20.422     6.436
 124   6 C      0.264  1.046  2.690  0.000    22.544     7.775
 125   8 O     -0.467  1.742  4.725  0.000    23.066     6.439
 126   6 C     -0.023  1.061  2.962  0.000    20.955     6.511
 127   6 C     -0.127  1.043  3.083  0.000    22.982     6.835
 128   6 C     -0.135  1.046  3.089  0.000    23.153     6.861
 129   1 H      0.224  0.776  0.000  0.000     0.991     1.560
 130   1 H      0.058  0.942  0.000  0.000     2.228     2.334
 131   1 H      0.064  0.936  0.000  0.000     2.149     2.293
 132   1 H      0.075  0.925  0.000  0.000     2.029     2.228
 133   1 H      0.042  0.958  0.000  0.000     2.420     2.433
 134   1 H      0.038  0.962  0.000  0.000     2.474     2.460
 135   1 H      0.073  0.927  0.000  0.000     2.050     2.239
 136   1 H      0.051  0.949  0.000  0.000     2.303     2.373
 137   1 H      0.049  0.951  0.000  0.000     2.331     2.388
 138   7 N     -0.176  1.245  3.931  0.000    24.816     7.399
 139   6 C      0.012  1.054  2.935  0.000    20.385     6.429
 140   6 C      0.259  1.044  2.697  0.000    22.638     7.791
 141   8 O     -0.494  1.761  4.733  0.000    23.644     6.519
 142   6 C     -0.127  1.045  3.082  0.000    22.993     6.837
 143   1 H      0.201  0.799  0.000  0.000     1.103     1.645
 144   1 H      0.098  0.902  0.000  0.000     1.799     2.098
 145   1 H      0.074  0.926  0.000  0.000     2.043     2.235
 146   1 H      0.074  0.926  0.000  0.000     2.038     2.232
 147   1 H      0.037  0.963  0.000  0.000     2.484     2.465
 148   7 N     -0.172  1.244  3.929  0.000    24.729     7.386
 149   6 C      0.010  1.059  2.931  0.000    20.412     6.433
 150   6 C      0.267  1.042  2.692  0.000    22.497     7.767
 151   8 O     -0.462  1.732  4.730  0.000    22.967     6.425
 152   6 C      0.111  1.047  2.843  0.000    18.856     6.200
 153   8 O     -0.478  1.732  4.746  0.000    22.428     6.393
 154   6 C     -0.141  1.048  3.093  0.000    23.276     6.880
 155   1 H      0.252  0.748  0.000  0.000     0.874     1.465
 156   1 H      0.071  0.929  0.000  0.000     2.074     2.252
 157   1 H      0.040  0.960  0.000  0.000     2.454     2.450
 158   1 H      0.340  0.660  0.000  0.000     0.613     1.230
 159   1 H      0.075  0.925  0.000  0.000     2.031     2.229
 160   1 H      0.056  0.944  0.000  0.000     2.246     2.344
 161   1 H      0.055  0.945  0.000  0.000     2.258     2.350
 162   7 N     -0.153  1.231  3.922  0.000    24.303     7.322
 163   6 C     -0.040  1.048  2.992  0.000    21.364     6.594
 164   6 C      0.276  1.037  2.687  0.000    22.325     7.737
 165   8 O     -0.486  1.756  4.731  0.000    23.485     6.497
 166   1 H      0.214  0.786  0.000  0.000     1.037     1.596
 167   1 H      0.105  0.895  0.000  0.000     1.738     2.061
 168   1 H      0.103  0.897  0.000  0.000     1.754     2.071
 169   7 N     -0.175  1.243  3.932  0.000    24.785     7.394
 170   6 C      0.020  1.055  2.925  0.000    20.250     6.409
 171   6 C      0.254  1.053  2.694  0.000    22.737     7.809
 172   8 O     -0.475  1.739  4.736  0.000    23.229     6.462
 173   6 C      0.070  1.038  2.892  0.000    19.617     6.345
 174   8 O     -0.497  1.732  4.765  0.000    22.832     6.450
 175   1 H      0.227  0.773  0.000  0.000     0.980     1.551
 176   1 H      0.075  0.925  0.000  0.000     2.027     2.226
 177   1 H      0.052  0.948  0.000  0.000     2.299     2.371
 178   1 H      0.055  0.945  0.000  0.000     2.262     2.352
 179   1 H      0.353  0.647  0.000  0.000     0.581     1.198
 180   7 N     -0.075  1.238  3.837  0.000    22.694     7.075
 181   6 C      0.006  1.070  2.924  0.000    20.474     6.440
 182   6 C      0.269  1.045  2.686  0.000    22.461     7.760
 183   8 O     -0.468  1.744  4.724  0.000    23.090     6.442
 184   6 C     -0.074  1.052  3.022  0.000    21.876     6.654
 185   6 C     -0.075  1.045  3.030  0.000    21.897     6.657
 186   6 C     -0.011  1.053  2.958  0.000    20.802     6.499
 187   1 H      0.072  0.928  0.000  0.000     2.063     2.246
 188   1 H      0.054  0.946  0.000  0.000     2.270     2.356
 189   1 H      0.078  0.922  0.000  0.000     2.003     2.213
 190   1 H      0.047  0.953  0.000  0.000     2.358     2.401
 191   1 H      0.073  0.927  0.000  0.000     2.052     2.240
 192   1 H      0.078  0.922  0.000  0.000     2.002     2.213
 193   1 H      0.086  0.914  0.000  0.000     1.922     2.168
 194   7 N     -0.177  1.246  3.931  0.000    24.835     7.401
 195   6 C      0.021  1.063  2.916  0.000    20.232     6.406
 196   6 C      0.264  1.050  2.686  0.000    22.549     7.776
 197   8 O     -0.513  1.764  4.749  0.000    24.064     6.577
 198   6 C     -0.015  1.058  2.956  0.000    20.804     6.488
 199   6 C     -0.099  1.036  3.064  0.000    22.454     6.756
 200   6 C     -0.126  1.047  3.078  0.000    22.971     6.834
[...]
 491   1 H      0.040  0.960  0.000  0.000     2.445     2.445
 492   1 H      0.041  0.959  0.000  0.000     2.440     2.443
 493   7 N     -0.175  1.256  3.920  0.000    24.794     7.395
 494   6 C      0.020  1.056  2.925  0.000    20.255     6.409
 495   6 C      0.270  1.050  2.680  0.000    22.440     7.757
 496   8 O     -0.480  1.734  4.746  0.000    23.340     6.477
 497   6 C     -0.134  1.046  3.088  0.000    23.140     6.859
 498   1 H      0.235  0.765  0.000  0.000     0.946     1.523
 499   1 H      0.072  0.928  0.000  0.000     2.064     2.247
 500   1 H      0.065  0.935  0.000  0.000     2.146     2.291
 501   1 H      0.081  0.919  0.000  0.000     1.974     2.197
 502   1 H      0.072  0.928  0.000  0.000     2.065     2.247
 503   7 N     -0.195  1.258  3.937  0.000    25.229     7.460
 504   6 C      0.013  1.061  2.926  0.000    20.376     6.429
 505   6 C      0.265  1.051  2.684  0.000    22.532     7.772
 506   8 O     -0.485  1.743  4.742  0.000    23.447     6.492
 507   6 C      0.088  1.033  2.879  0.000    19.331     6.297
 508   8 O     -0.461  1.713  4.748  0.000    22.078     6.343
 509   1 H      0.224  0.776  0.000  0.000     0.994     1.562
 510   1 H      0.077  0.923  0.000  0.000     2.015     2.220
 511   1 H      0.029  0.971  0.000  0.000     2.595     2.519
 512   1 H      0.054  0.946  0.000  0.000     2.272     2.357
 513   1 H      0.311  0.689  0.000  0.000     0.689     1.304
 514   7 N     -0.158  1.244  3.914  0.000    24.409     7.338
 515   6 C      0.020  1.069  2.911  0.000    20.269     6.414
 516   6 C      0.265  1.052  2.683  0.000    22.528     7.772
 517   8 O     -0.481  1.758  4.724  0.000    23.372     6.482
 518   6 C      0.108  1.047  2.845  0.000    18.908     6.209
 519   8 O     -0.472  1.730  4.743  0.000    22.307     6.376
 520   6 C     -0.124  1.041  3.083  0.000    22.934     6.830
 521   1 H      0.230  0.770  0.000  0.000     0.964     1.538
 522   1 H      0.073  0.927  0.000  0.000     2.051     2.240
 523   1 H      0.044  0.956  0.000  0.000     2.394     2.420
 524   1 H      0.340  0.660  0.000  0.000     0.612     1.229
 525   1 H      0.078  0.922  0.000  0.000     1.996     2.209
 526   1 H      0.043  0.957  0.000  0.000     2.406     2.426
 527   1 H      0.043  0.957  0.000  0.000     2.409     2.427
 528   7 N     -0.097  1.242  3.854  0.000    23.133     7.143
 529   6 C      0.017  1.071  2.912  0.000    20.286     6.411
 530   6 C      0.276  1.045  2.679  0.000    22.328     7.737
 531   8 O     -0.499  1.758  4.741  0.000    23.752     6.534
 532   6 C     -0.069  1.051  3.018  0.000    21.797     6.642
 533   6 C     -0.074  1.044  3.031  0.000    21.892     6.656
 534   6 C     -0.019  1.055  2.965  0.000    20.948     6.522
 535   1 H      0.070  0.930  0.000  0.000     2.084     2.258
 536   1 H      0.069  0.931  0.000  0.000     2.102     2.267
 537   1 H      0.068  0.932  0.000  0.000     2.113     2.273
 538   1 H      0.083  0.917  0.000  0.000     1.946     2.181
 539   1 H      0.064  0.936  0.000  0.000     2.156     2.296
 540   1 H      0.081  0.919  0.000  0.000     1.968     2.194
 541   1 H      0.070  0.930  0.000  0.000     2.085     2.258
 542   7 N     -0.171  1.238  3.933  0.000    24.706     7.382
 543   6 C      0.008  1.066  2.926  0.000    20.465     6.444
 544   6 C      0.260  1.051  2.689  0.000    22.621     7.788
 545   8 O     -0.472  1.734  4.737  0.000    23.166     6.453
 546   6 C      0.063  1.041  2.896  0.000    19.733     6.364
 547   8 O     -0.475  1.720  4.754  0.000    22.359     6.383
 548   1 H      0.225  0.775  0.000  0.000     0.987     1.556
 549   1 H      0.095  0.905  0.000  0.000     1.832     2.117
 550   1 H      0.065  0.935  0.000  0.000     2.139     2.287
 551   1 H      0.066  0.934  0.000  0.000     2.135     2.285
 552   1 H      0.348  0.652  0.000  0.000     0.592     1.209
 553   7 N     -0.142  1.228  3.914  0.000    24.074     7.287
 554   6 C     -0.036  1.047  2.989  0.000    21.291     6.583
 555   6 C      0.268  1.043  2.689  0.000    22.465     7.761
 556   8 O     -0.476  1.757  4.719  0.000    23.262     6.467
 557   1 H      0.206  0.794  0.000  0.000     1.077     1.626
 558   1 H      0.089  0.911  0.000  0.000     1.890     2.150
 559   1 H      0.110  0.890  0.000  0.000     1.698     2.038
 560   7 N     -0.184  1.246  3.938  0.000    24.990     7.424
 561   6 C      0.016  1.064  2.921  0.000    20.321     6.420
 562   6 C      0.267  1.046  2.687  0.000    22.487     7.765
 563   8 O     -0.483  1.747  4.737  0.000    23.421     6.489
 564   6 C     -0.047  1.048  2.998  0.000    21.407     6.587
 565   6 C     -0.083  1.060  3.023  0.000    22.084     6.690
 566   6 C      0.364  1.024  2.613  0.000    20.834     7.470
 567   8 O     -0.640  1.765  4.875  0.000    27.114     6.981
 568   8 O     -0.660  1.781  4.879  0.000    27.639     7.049
 569   1 H      0.217  0.783  0.000  0.000     1.024     1.585
 570   1 H      0.077  0.923  0.000  0.000     2.006     2.215
 571   1 H      0.043  0.957  0.000  0.000     2.407     2.426
 572   1 H      0.044  0.956  0.000  0.000     2.390     2.418
 573   1 H      0.023  0.977  0.000  0.000     2.681     2.561
 574   1 H      0.017  0.983  0.000  0.000     2.775     2.605
 575   7 N     -0.165  1.241  3.924  0.000    24.567     7.361
 576   6 C      0.019  1.055  2.926  0.000    20.266     6.411
 577   6 C      0.266  1.048  2.686  0.000    22.511     7.769
 578   8 O     -0.483  1.745  4.737  0.000    23.408     6.487
 579   6 C     -0.127  1.043  3.084  0.000    22.992     6.837
 580   1 H      0.212  0.788  0.000  0.000     1.048     1.604
 581   1 H      0.081  0.919  0.000  0.000     1.965     2.192
 582   1 H      0.071  0.929  0.000  0.000     2.075     2.252
 583   1 H      0.088  0.912  0.000  0.000     1.900     2.155
 584   1 H      0.055  0.945  0.000  0.000     2.263     2.352
 585   7 N     -0.148  1.234  3.914  0.000    24.208     7.307
 586   6 C      0.008  1.059  2.933  0.000    20.454     6.441
 587   6 C      0.199  1.085  2.716  0.000    23.760     7.983
 588   8 O     -0.357  1.758  4.599  0.000    20.835     6.120
 589   6 C      0.115  1.046  2.839  0.000    18.797     6.190
 590   8 O     -0.492  1.738  4.754  0.000    22.718     6.434
 591   6 C     -0.138  1.047  3.091  0.000    23.222     6.872
 592   1 H      0.220  0.780  0.000  0.000     1.009     1.574
 593   1 H      0.123  0.877  0.000  0.000     1.590     1.972
 594   1 H      0.051  0.949  0.000  0.000     2.313     2.378
 595   1 H      0.349  0.651  0.000  0.000     0.591     1.207
 596   1 H      0.072  0.928  0.000  0.000     2.059     2.244
 597   1 H      0.063  0.937  0.000  0.000     2.164     2.301
 598   1 H      0.045  0.955  0.000  0.000     2.388     2.416
 599   8 O     -0.623  1.656  4.967  0.000    25.739     6.848
 600   1 H      0.307  0.693  0.000  0.000     0.701     1.315
 601   1 H      0.323  0.677  0.000  0.000     0.655     1.271
 602   8 O     -0.645  1.675  4.971  0.000    26.294     6.921
 603   1 H      0.324  0.676  0.000  0.000     0.653     1.269
 604   1 H      0.326  0.674  0.000  0.000     0.646     1.263
 605   8 O     -0.650  1.673  4.976  0.000    26.396     6.935
 606   1 H      0.337  0.663  0.000  0.000     0.619     1.236
 607   1 H      0.313  0.687  0.000  0.000     0.683     1.298
 608   7 N     -0.392  1.336  4.056  0.000    30.158     8.156
 609   6 C      0.040  1.051  2.909  0.000    19.927     6.359
 610   6 C      0.195  1.090  2.715  0.000    23.832     7.995
 611   8 O     -0.372  1.768  4.604  0.000    21.131     6.163
 612   6 C     -0.123  1.046  3.077  0.000    22.913     6.825
 613   1 H      0.165  0.835  0.000  0.000     1.304     1.789
 614   1 H      0.054  0.946  0.000  0.000     2.269     2.356
 615   1 H      0.061  0.939  0.000  0.000     2.190     2.314
 616   1 H      0.066  0.934  0.000  0.000     2.131     2.283
 617   1 H      0.055  0.945  0.000  0.000     2.253     2.347
 618   7 N     -0.388  1.329  4.058  0.000    30.031     8.139
 619   6 C      0.024  1.058  2.918  0.000    20.184     6.399
 620   6 C      0.274  1.040  2.686  0.000    22.367     7.744
 621   8 O     -0.477  1.759  4.718  0.000    23.286     6.470
 622   6 C      0.079  1.039  2.882  0.000    19.470     6.321
 623   8 O     -0.479  1.734  4.745  0.000    22.447     6.396
 624   1 H      0.176  0.824  0.000  0.000     1.240     1.744
 625   1 H      0.048  0.952  0.000  0.000     2.344     2.394
 626   1 H      0.021  0.979  0.000  0.000     2.713     2.576
 627   1 H      0.061  0.939  0.000  0.000     2.189     2.314
 628   1 H      0.311  0.689  0.000  0.000     0.689     1.304
 629   7 N     -0.176  1.243  3.933  0.000    24.816     7.399
 630   6 C      0.021  1.065  2.914  0.000    20.231     6.406
 631   6 C      0.282  1.049  2.669  0.000    22.225     7.719
 632   8 O     -0.488  1.771  4.718  0.000    23.532     6.504
 633   6 C      0.106  1.053  2.841  0.000    18.946     6.217
 634   8 O     -0.491  1.731  4.760  0.000    22.699     6.431
 635   6 C     -0.144  1.051  3.093  0.000    23.342     6.891
 636   1 H      0.230  0.770  0.000  0.000     0.966     1.540
 637   1 H      0.086  0.914  0.000  0.000     1.918     2.166
 638   1 H      0.040  0.960  0.000  0.000     2.451     2.448
 639   1 H      0.353  0.647  0.000  0.000     0.581     1.197
 640   1 H      0.081  0.919  0.000  0.000     1.964     2.192
 641   1 H      0.060  0.940  0.000  0.000     2.194     2.316
 642   1 H      0.073  0.927  0.000  0.000     2.048     2.238
 643   7 N     -0.181  1.242  3.939  0.000    24.926     7.415
 644   6 C      0.033  1.055  2.911  0.000    20.028     6.374
 645   6 C      0.265  1.048  2.686  0.000    22.521     7.771
 646   8 O     -0.498  1.750  4.749  0.000    23.749     6.534
 647   6 C     -0.066  1.054  3.012  0.000    21.773     6.643
 648   6 C     -0.107  1.063  3.044  0.000    22.539     6.759
 649   6 C      0.289  1.040  2.671  0.000    22.101     7.697
 650   8 O     -0.545  1.768  4.777  0.000    24.803     6.677
 651   7 N     -0.271  1.268  4.003  0.000    27.015     7.719
 652   1 H      0.198  0.802  0.000  0.000     1.114     1.653
 653   1 H      0.061  0.939  0.000  0.000     2.182     2.310
 654   1 H      0.073  0.927  0.000  0.000     2.053     2.240
 655   1 H      0.069  0.931  0.000  0.000     2.096     2.264
 656   1 H      0.077  0.923  0.000  0.000     2.006     2.215
 657   1 H      0.095  0.905  0.000  0.000     1.829     2.115
 658   1 H      0.235  0.765  0.000  0.000     0.945     1.522
 659   1 H      0.215  0.785  0.000  0.000     1.032     1.592
 660   7 N     -0.168  1.247  3.921  0.000    24.625     7.370
 661   6 C      0.043  1.054  2.903  0.000    19.860     6.347
 662   6 C      0.290  1.036  2.674  0.000    22.081     7.695
 663   8 O     -0.476  1.768  4.709  0.000    23.269     6.467
 664   6 C     -0.088  1.065  3.024  0.000    22.181     6.705
 665   6 C      0.363  1.021  2.616  0.000    20.847     7.472
 666   8 O     -0.614  1.756  4.858  0.000    26.475     6.899
 667   8 O     -0.583  1.752  4.831  0.000    25.704     6.797
 668   1 H      0.194  0.806  0.000  0.000     1.137     1.670
 669   1 H      0.051  0.949  0.000  0.000     2.309     2.376
 670   1 H      0.038  0.962  0.000  0.000     2.474     2.460
 671   1 H      0.035  0.965  0.000  0.000     2.514     2.479
 672   7 N     -0.197  1.250  3.946  0.000    25.269     7.466
 673   6 C      0.031  1.055  2.914  0.000    20.063     6.379
 674   6 C      0.278  1.044  2.678  0.000    22.299     7.732
 675   8 O     -0.485  1.732  4.753  0.000    23.445     6.492
 676   6 C      0.076  1.036  2.888  0.000    19.527     6.330
 677   8 O     -0.459  1.725  4.733  0.000    22.023     6.335
 678   1 H      0.199  0.801  0.000  0.000     1.110     1.650
 679   1 H      0.078  0.922  0.000  0.000     1.996     2.209
 680   1 H      0.057  0.943  0.000  0.000     2.232     2.336
 681   1 H      0.032  0.968  0.000  0.000     2.559     2.501
 682   1 H      0.326  0.674  0.000  0.000     0.647     1.264
 683   7 N     -0.198  1.257  3.941  0.000    25.291     7.469
 684   6 C      0.019  1.064  2.917  0.000    20.265     6.412
 685   6 C      0.271  1.047  2.682  0.000    22.416     7.752
 686   8 O     -0.471  1.732  4.739  0.000    23.153     6.451
 687   6 C     -0.083  1.058  3.026  0.000    22.083     6.690
 688   6 C     -0.089  1.047  3.041  0.000    22.185     6.705
 689   6 C     -0.022  1.055  2.967  0.000    21.035     6.543
 690   7 N     -0.141  1.209  3.932  0.000    24.054     7.284
 691   6 C      0.233  1.016  2.751  0.000    23.114     7.872
 692   7 N     -0.249  1.230  4.018  0.000    26.478     7.642
 693   7 N     -0.257  1.237  4.020  0.000    26.664     7.669
 694   1 H      0.227  0.773  0.000  0.000     0.979     1.550
 695   1 H      0.095  0.905  0.000  0.000     1.829     2.115
 696   1 H      0.086  0.914  0.000  0.000     1.921     2.167
 697   1 H      0.071  0.929  0.000  0.000     2.072     2.251
 698   1 H      0.078  0.922  0.000  0.000     2.004     2.214
 699   1 H      0.041  0.959  0.000  0.000     2.429     2.437
 700   1 H      0.092  0.908  0.000  0.000     1.855     2.130
 701   1 H      0.082  0.918  0.000  0.000     1.962     2.190
 702   1 H      0.222  0.778  0.000  0.000     0.998     1.565
 703   1 H      0.245  0.755  0.000  0.000     0.903     1.489
 704   1 H      0.260  0.740  0.000  0.000     0.845     1.440
 705   1 H      0.245  0.755  0.000  0.000     0.905     1.490
 706   1 H      0.263  0.737  0.000  0.000     0.835     1.431
 707   7 N     -0.168  1.244  3.924  0.000    24.644     7.373
 708   6 C      0.021  1.071  2.908  0.000    20.226     6.405
 709   6 C      0.281  1.044  2.675  0.000    22.245     7.723
 710   8 O     -0.500  1.785  4.715  0.000    23.779     6.538
 711   6 C     -0.007  1.055  2.952  0.000    20.676     6.467
 712   6 C     -0.071  1.061  3.010  0.000    21.867     6.659
 713   6 C     -0.116  1.040  3.077  0.000    22.777     6.804
 714   6 C     -0.111  1.048  3.063  0.000    22.699     6.797
 715   1 H      0.175  0.825  0.000  0.000     1.241     1.745
 716   1 H      0.076  0.924  0.000  0.000     2.026     2.226
 717   1 H      0.016  0.984  0.000  0.000     2.794     2.614
 718   1 H      0.061  0.939  0.000  0.000     2.182     2.310
 719   1 H      0.030  0.970  0.000  0.000     2.586     2.515
 720   1 H      0.069  0.931  0.000  0.000     2.095     2.264
 721   1 H      0.020  0.980  0.000  0.000     2.739     2.588
 722   1 H      0.061  0.939  0.000  0.000     2.188     2.313
 723   1 H      0.064  0.936  0.000  0.000     2.151     2.294
 724   1 H      0.026  0.974  0.000  0.000     2.650     2.546
 725   1 H      0.047  0.953  0.000  0.000     2.363     2.404
 726   7 N     -0.181  1.250  3.931  0.000    24.914     7.413
 727   6 C      0.027  1.057  2.916  0.000    20.126     6.389
 728   6 C      0.263  1.052  2.685  0.000    22.565     7.778
 729   8 O     -0.465  1.746  4.718  0.000    23.017     6.432
 730   6 C     -0.077  1.059  3.019  0.000    21.970     6.673
 731   6 C     -0.058  1.043  3.015  0.000    21.617     6.619
 732   6 C     -0.096  1.054  3.041  0.000    22.321     6.726
 733   6 C     -0.044  1.056  2.988  0.000    21.455     6.611
 734   7 N     -0.133  1.232  3.901  0.000    23.881     7.258
 735   1 H      0.224  0.776  0.000  0.000     0.990     1.558
 736   1 H      0.047  0.953  0.000  0.000     2.355     2.400
 737   1 H      0.083  0.917  0.000  0.000     1.953     2.186
 738   1 H      0.062  0.938  0.000  0.000     2.178     2.308
 739   1 H      0.038  0.962  0.000  0.000     2.474     2.460
 740   1 H      0.034  0.966  0.000  0.000     2.526     2.486
 741   1 H      0.094  0.906  0.000  0.000     1.837     2.120
 742   1 H      0.085  0.915  0.000  0.000     1.929     2.172
 743   1 H      0.096  0.904  0.000  0.000     1.819     2.109
 744   1 H      0.113  0.887  0.000  0.000     1.669     2.021
 745   1 H      0.273  0.727  0.000  0.000     0.799     1.401
 746   1 H      0.317  0.683  0.000  0.000     0.665     1.277
 747   1 H      0.299  0.701  0.000  0.000     0.716     1.326
 748   7 N     -0.163  1.248  3.915  0.000    24.525     7.355
 749   6 C      0.022  1.062  2.916  0.000    20.215     6.405
 750   6 C      0.193  1.093  2.714  0.000    23.869     8.001
 751   8 O     -0.357  1.766  4.591  0.000    20.832     6.119
 752   6 C     -0.070  1.050  3.020  0.000    21.831     6.652
 753   6 C     -0.109  1.062  3.047  0.000    22.573     6.764
 754   6 C      0.287  1.037  2.676  0.000    22.142     7.705
 755   8 O     -0.552  1.776  4.776  0.000    24.955     6.698
 756   7 N     -0.289  1.275  4.014  0.000    27.467     7.784
 757   1 H      0.197  0.803  0.000  0.000     1.123     1.660
 758   1 H      0.109  0.891  0.000  0.000     1.709     2.044
 759   1 H      0.063  0.937  0.000  0.000     2.166     2.302
 760   1 H      0.084  0.916  0.000  0.000     1.943     2.180
 761   1 H      0.088  0.912  0.000  0.000     1.899     2.155
 762   1 H      0.081  0.919  0.000  0.000     1.973     2.197
 763   1 H      0.233  0.767  0.000  0.000     0.951     1.527
 764   1 H      0.227  0.773  0.000  0.000     0.979     1.550
 765   1 H      0.183  0.817  0.000  0.000     1.196     1.713
 766   1 H      0.070  0.930  0.000  0.000     2.085     2.258
 767   1 H      0.082  0.918  0.000  0.000     1.956     2.187
 768   1 H      0.185  0.815  0.000  0.000     1.187     1.706
 769   1 H      0.090  0.910  0.000  0.000     1.875     2.141
 770   1 H      0.185  0.815  0.000  0.000     1.185     1.705
 771   1 H      0.071  0.929  0.000  0.000     2.078     2.254
 772   1 H      0.190  0.810  0.000  0.000     1.156     1.684
 773   1 H      0.093  0.907  0.000  0.000     1.848     2.126
 774   1 H      0.192  0.808  0.000  0.000     1.146     1.677
 775   1 H      0.090  0.910  0.000  0.000     1.874     2.141
 776   1 H      0.203  0.797  0.000  0.000     1.092     1.637
 777   1 H      0.096  0.904  0.000  0.000     1.823     2.111

 Mol. C6AA /au·bohr⁶  :    5472687.815672
 Mol. C8AA /au·bohr⁸  :  121762418.919322
 Mol. α(0) /au        :       3483.163093

 
molecular dipole:
                 x           y           z       tot (Debye)
 q only:      -25.184      38.985      33.065
   full:      -21.399      40.768      30.047     139.747
molecular quadrupole (traceless):
                xx          xy          yy          xz          yz          zz
 q only:      228.769   -2622.632     516.440    -476.794    2769.330    -745.210
  q+dip:       82.554   -2283.512     806.607    -408.653    2496.335    -889.161
   full:       85.543   -2285.944     806.236    -403.453    2499.138    -891.779
speedup  1.93
cpu  time for grad    2 m 16.7 s
wall time for grad    1 m 10.9 s

SCC energy    :   -1217.2199244
rep           :      13.8804855
ES            :       3.8642366
AES           :      -0.1027760
AXC           :       0.3332473
disp          :      -1.0553854
XB            :       0.0000000
fix           :       0.0000000
Gborn         :       0.0000000
Gsasa         :       0.0000000
Ghb           :       0.0000000
Gshift        :       0.0000000
Gsolv         :      -0.9102618     -571.20
Etot ala COSMO:   -1217.2199244
grad norm     :       0.8890393
total E       :   -1203.2134223
atomizationE  :     215.8161969   135426.71
(atE without considering molecular charge,
 total energy contains solvation terms)
H-L gap (eV)  :          0.8656

------------------------------------------------------------------------
 * finished run on 2019/05/05 at 23:28:27.736     
------------------------------------------------------------------------
 total:
 * wall-time:     0 d,  0 h,  1 min, 14.762 sec
 *  cpu-time:     0 d,  0 h,  2 min, 22.653 sec
 * ratio c/w:     1.908 speedup
 SCF:
 * wall-time:     0 d,  0 h,  1 min, 13.869 sec
 *  cpu-time:     0 d,  0 h,  2 min, 21.599 sec
 * ratio c/w:     1.917 speedup

