      -----------------------------------------------------------      
     |                   =====================                   |     
     |                           x T B                           |     
     |                   =====================                   |     
     |                         S. Grimme                         |     
     |          Mulliken Center for Theoretical Chemistry        |     
     |                    University of Bonn                     |     
     |                 Version 6.0.1 (SAW181210)                 |     
      -----------------------------------------------------------      

   This program is distributed in the hope that it will be useful,
   but WITHOUT ANY WARRANTY; without even the implied warranty of
   MERCHANTABILITY or FITNESS FOR A PARTICULAR PURPOSE.
   
   FOR NON-COMMERCIAL, ACADEMIA USE ONLY.
   
   Cite this work as:
   S. Grimme, C. Bannwarth, P. Shushkov, J. Comput. Theory Chem., 2017,
   13, 1989-2009.
   C. Bannwarth, S. Ehlert and S. Grimme., ChemRxiv, 2018, preprint.
   http://doi.org/10.26434/chemrxiv.7246238.v1
   
   for sTDA-xTB:
   S. Grimme and C. Bannwarth, J. Chem. Phys., 2016, 145, 054103.
   
   in the mass-spec context:
   V. Asgeirsson, C. Bauer and S. Grimme, Chem. Sci., 2017, 8, 4879.
   
   if GBSA is used:
   P. Shushkov, F. März and S. Grimme, unpublished.
   
   for ANC optimizer:
   S. Grimme, unpublished.
   Rational Function algorithm used in ANCopt:
   F. Eckert, P. Pulay, H.-J. Werner, J. Comput. Chem., 1997, 18, 1473.
   
   with help from (in alphabetical order)
   C. Bannwarth, F. Bohle, G. Brandenburg, E. Caldeweyher, M. Checinski,
   S. Dohm, S. Ehlert, S. Ehrlich, F. März, H. Neugebauer, J. Pisarek,
   P. Pracht, P. Shushkov, and S. Spicher.
   
 * started run on 2019/05/12 at 13:12:35.346     
========================================================================
 # omp threads = 2
========================================================================
number of atoms            : 309
number of electrons        : 840
charge                     : 0
spin                       : .0
first test random number   : .9771

########################################################################
# WARNING! Please study the warnings concerning your input carefully
#  - Process number higher than OMP_NUM_THREADS, I hope you know what you are doing.
########################################################################

           ------------------------------------------------- 
          |                 G F N 2 - x T B                 |
          | Geometry, Frequencies, Noncovalent interactions |
          |            JCTC 2018 parametrisation            |
           ------------------------------------------------- 
 
      method parameters     
 k(s)        :  1.8500
 k(p)        :  2.2300
 k(d)        :  2.2300
 k(f)        :  2.0000
 kEN (H0ij)  : -2.0000
 D4 a1       :  0.5200
 D4 a2       :  5.0000
 D4 s6       :  1.0000
 D4 s8       :  2.7000
 D4 s9       :  5.0000
 alphaj      :  2.0000

 Solvent             : h2o
 Using internal parameter file: .param_gbsa2_h2o
 Gsolv ref. state (COSMO-RS): gsolv [1 M gas/solution]
 temperature (mdtemp)       :    298.150000000000     
 dielectric constant        :    80.2000000000000     
 rho                        :    1.00000000000000     
 mass                       :    18.0000000000000     
 surface tension            :    15.5689454083859     
 probe radius               :   0.975313790000000     
 vdW radii scaling          :    1.00000000000000     
 Gshift (Eh)                :   1.857443126794793E-003
 c1                         :    1.55243817000000     
 soset                      :   0.130326360000000     
 HB correction              :  T

            Z     q(EN)     CN     RAES       Cart. coordinates
     1  N   5.0   -0.21    3.19    1.95     4.79619    79.20782   137.93847
     2  C   4.0    0.03    4.21    4.03     2.83028    80.04299   139.64398
     3  C   4.0    0.08    3.21    3.04     0.45551    80.84841   138.20384
     4  O   6.0   -0.28    1.12    1.80    -1.60097    80.90251   139.25970
     5  C   4.0   -0.05    4.25    4.10     3.71502    82.22480   141.34082
     6  C   4.0   -0.05    4.17    3.93     4.50066    81.43495   144.01079
     7  C   4.0   -0.01    4.19    3.99     2.28298    80.50110   145.62151
     8  N   5.0   -0.14    3.40    2.02     2.92718    80.72605   148.28510
     9  C   4.0    0.09    3.33    3.06     1.37138    80.32411   150.21287
    10  N   5.0   -0.18    3.25    1.97    -1.02010    79.66463   149.88272
    11  N   5.0   -0.19    3.25    1.97     2.25918    80.56328   152.57022
    12  H   1.0    0.08    1.03    1.43     6.31628    80.34425   137.70356
    13  H   1.0    0.05    1.06    1.44     2.23766    78.41493   140.78536
    14  H   1.0    0.04    1.03    1.43     5.30634    83.14213   140.40326
    15  H   1.0    0.05    1.04    1.43     2.19209    83.60992   141.47585
    16  H   1.0    0.04    1.02    1.43     5.95728    79.98437   143.89237
    17  H   1.0    0.04    1.03    1.43     5.31034    83.10714   144.90517
    18  H   1.0    0.05    1.02    1.43     0.60354    81.63532   145.20941
    19  H   1.0    0.04    1.02    1.43     1.84421    78.52509   145.20169
    20  H   1.0    0.08    1.07    1.44     4.72572    81.23068   148.68045
    21  H   1.0    0.09    1.02    1.43    -1.83269    79.44716   148.15834
    22  H   1.0    0.08    1.04    1.43    -2.15228    79.46181   151.39621
    23  H   1.0    0.08    1.04    1.43     4.03570    81.16833   152.90859
    24  H   1.0    0.08    1.03    1.43     1.08225    80.45240   154.05781
    25  N   5.0   -0.20    3.22    1.96     4.14517    71.21257   150.63501
    26  C   4.0    0.03    4.43    4.43     6.33498    72.54933   151.60210
    27  C   4.0    0.14    3.54    3.13     8.73325    71.60052   150.30587
    28  O   6.0   -0.29    1.25    1.80     9.31664    69.34777   150.32714
    29  C   4.0   -0.02    4.35    4.28     6.57484    72.16902   154.47995
    30  C   4.0   -0.05    4.19    3.98     4.45072    73.60728   155.82115
    31  C   4.0   -0.07    4.14    3.89     9.16485    73.03061   155.40829
    32  C   4.0   -0.08    4.02    3.65     3.94151    72.61527   158.47303
    33  H   1.0    0.09    1.02    1.43     3.80944    69.47038   151.38576
    34  H   1.0    0.03    1.07    1.44     6.03690    74.55041   151.20503
    35  H   1.0    0.05    1.06    1.44     6.36293    70.14781   154.86787
    36  H   1.0    0.04    1.03    1.43     4.94084    75.60895   155.92551
    37  H   1.0    0.04    1.03    1.43     2.72304    73.41773   154.70756
    38  H   1.0    0.04    1.00    1.43     9.29033    72.79235   157.44506
    39  H   1.0    0.06    1.01    1.43    10.67581    71.92666   154.56022
    40  H   1.0    0.04    1.01    1.43     9.47045    75.01656   154.97991
    41  H   1.0    0.04    1.00    1.43     2.30163    73.55975   159.26986
    42  H   1.0    0.04    1.00    1.43     3.59878    70.58771   158.43561
    43  H   1.0    0.05    1.00    1.43     5.52947    72.96175   159.72615
    44  N   5.0   -0.10    3.67    2.23    10.16540    73.30369   149.14089
    45  C   4.0    0.04    4.49    4.53    12.42778    72.51513   147.77862
    46  C   4.0    0.08    3.20    3.04    14.73522    72.45019   149.54250
    47  O   6.0   -0.30    1.14    1.80    15.53571    74.34849   150.61503
    48  C   4.0   -0.04    4.34    4.27    12.70085    74.55254   145.75003
    49  C   4.0   -0.03    4.27    4.14    11.76736    76.92819   147.09559
    50  C   4.0   -0.01    4.36    4.31     9.61640    75.97458   148.78070
    51  H   1.0    0.05    1.05    1.44    12.12911    70.61880   147.01879
    52  H   1.0    0.05    1.02    1.43    14.63748    74.74940   145.10465
    53  H   1.0    0.04    1.03    1.43    11.46209    74.10316   144.16653
    54  H   1.0    0.07    1.03    1.43    13.25789    77.72658   148.26672
    55  H   1.0    0.04    1.02    1.43    11.12636    78.37062   145.78187
    56  H   1.0    0.04    1.02    1.43     9.58450    76.97967   150.58273
    57  H   1.0    0.04    1.02    1.43     7.78394    76.17107   147.84189
    58  N   5.0   -0.20    3.25    1.97    -1.85661    66.60727   157.37982
    59  C   4.0    0.02    4.30    4.21    -1.94045    68.43131   159.41480
    60  C   4.0    0.15    3.39    3.07    -1.70600    67.13585   161.99175
    61  O   6.0   -0.33    1.28    1.80    -0.34193    68.01838   163.65865
    62  C   4.0   -0.04    4.29    4.17    -4.37731    69.96320   159.08746
    63  C   4.0   -0.04    4.21    4.01    -4.43040    72.43485   160.58263
    64  C   4.0    0.15    3.22    3.04    -6.58359    74.08748   159.62626
    65  O   6.0   -0.28    1.20    1.80    -8.78909    73.41200   159.69809
    66  N   5.0   -0.19    3.18    1.95    -5.88303    76.32754   158.67001
    67  H   1.0    0.09    1.04    1.43    -3.35335    66.59594   156.20079
    68  H   1.0    0.04    1.05    1.44    -0.29720    69.68917   159.25891
    69  H   1.0    0.05    1.04    1.43    -4.53235    70.43277   157.07933
    70  H   1.0    0.06    1.02    1.43    -6.00398    68.79956   159.59400
    71  H   1.0    0.05    1.03    1.43    -4.77073    72.04396   162.57780
    72  H   1.0    0.03    1.03    1.43    -2.63193    73.41545   160.38231
    73  H   1.0    0.08    1.03    1.43    -4.06961    76.88926   158.62018
    74  H   1.0    0.10    1.03    1.43    -7.22707    77.50726   158.01271
    75  N   5.0   -0.14    3.52    2.10    -3.02996    65.03218   162.30407
    76  C   4.0    0.04    4.32    4.24    -3.17036    63.78270   164.72373
    77  C   4.0    0.09    3.20    3.04    -1.91202    61.17042   164.63191
    78  O   6.0   -0.27    1.14    1.80    -2.93869    59.22375   165.31672
    79  C   4.0   -0.03    4.24    4.09    -5.89511    63.61318   165.72682
    80  C   4.0   -0.03    4.20    3.99    -7.93892    63.79548   163.69169
    81  C   4.0    0.26    3.14    3.03    -7.65482    61.72480   161.62878
    82  O   6.0   -0.29    1.31    1.80    -6.18426    62.21477   159.81872
    83  O   6.0   -0.26    1.16    1.80    -8.91908    59.77147   161.85977
    84  H   1.0    0.12    1.18    1.46    -4.19799    64.20769   160.93834
    85  H   1.0    0.05    1.07    1.44    -2.02073    64.90078   166.04966
    86  H   1.0    0.07    1.04    1.43    -6.09047    61.79688   166.68719
    87  H   1.0    0.04    1.02    1.43    -6.20856    65.12211   167.09930
    88  H   1.0    0.06    1.03    1.43    -9.77579    63.53648   164.59147
    89  H   1.0    0.05    1.02    1.43    -7.89661    65.65559   162.79392
    90  N   5.0   -0.18    3.21    1.96     8.67061    63.11087   178.16782
    91  C   4.0    0.03    4.26    4.11     7.61463    65.29279   176.89122
    92  C   4.0    0.15    3.42    3.09     6.66567    64.58116   174.26122
    93  O   6.0   -0.28    1.22    1.80     7.56745    62.80213   173.08224
    94  C   4.0   -0.07    4.12    3.85     9.61916    67.33675   176.55059
    95  H   1.0    0.09    1.03    1.43    10.58214    62.98407   178.22172
    96  H   1.0    0.05    1.05    1.44     6.00110    65.99728   177.98329
    97  H   1.0    0.05    1.00    1.43     9.03447    68.67924   175.11063
    98  H   1.0    0.05    1.00    1.43     9.89913    68.37675   178.29992
    99  H   1.0    0.05    1.00    1.43    11.39555    66.47335   175.98277
   100  N   5.0   -0.14    3.49    2.07     4.85714    66.10700   173.40543
   101  C   4.0    0.04    4.47    4.49     3.95864    66.06760   170.83507
   102  C   4.0    0.16    3.48    3.11     5.61572    67.70609   169.13435
   103  O   6.0   -0.32    1.31    1.80     6.82542    69.51800   169.93502
   104  C   4.0    0.05    4.26    4.11     1.25199    67.17067   170.63239
   105  O   6.0   -0.26    2.15    1.85     1.26373    69.77307   171.19873
   106  C   4.0   -0.06    4.07    3.75    -0.60117    65.71531   172.29305
   107  H   1.0    0.11    1.11    1.44     4.23707    67.55772   174.51175
   108  H   1.0    0.05    1.06    1.44     3.99776    64.12369   170.13463
   109  H   1.0    0.05    1.04    1.43     0.68407    67.05173   168.63983
   110  H   1.0    0.14    1.08    1.44     1.58392    69.93863   173.03279
   111  H   1.0    0.05    1.00    1.43    -2.49739    66.44814   172.01044
   112  H   1.0    0.05    1.00    1.43    -0.56851    63.71888   171.82149
   113  H   1.0    0.06    1.00    1.43    -0.09159    65.96174   174.26975
   114  N   5.0   -0.15    3.52    2.09     5.50104    67.06587   166.70652
   115  C   4.0    0.04    4.51    4.55     6.83604    68.47114   164.78764
   116  C   4.0    0.15    3.47    3.10     5.87238    71.17213   164.62610
   117  O   6.0   -0.33    1.32    1.80     7.31526    72.90542   164.08537
   118  C   4.0   -0.05    4.37    4.33     6.61071    67.13080   162.25206
   119  C   4.0   -0.04    4.09    3.79     8.21149    64.75794   162.27787
   120  S   6.0   -0.04    2.56    3.10    11.55732    65.60557   162.31639
   121  C   4.0   -0.06    3.89    3.45    12.78473    62.43345   162.63127
   122  H   1.0    0.07    1.07    1.44     4.77981    65.35109   166.24148
   123  H   1.0    0.05    1.09    1.44     8.85109    68.61169   165.28208
   124  H   1.0    0.05    1.02    1.43     4.63800    66.66197   161.86532
   125  H   1.0    0.04    1.04    1.43     7.27483    68.39334   160.76284
   126  H   1.0    0.04    1.07    1.44     7.82640    63.62711   163.95832
   127  H   1.0    0.04    1.07    1.44     7.85515    63.65280   160.58829
   128  H   1.0    0.05    1.05    1.44    14.76180    62.58657   163.13962
   129  H   1.0    0.05    1.04    1.43    11.74508    61.48438   164.12596
   130  H   1.0    0.05    1.04    1.43    12.58915    61.45141   160.84330
   131  N   5.0   -0.14    3.54    2.10     3.42470    71.49567   165.07095
   132  C   4.0    0.03    4.35    4.30     2.31040    73.99342   165.23741
   133  C   4.0    0.16    3.50    3.12     3.80664    75.53822   167.16239
   134  O   6.0   -0.32    1.30    1.80     4.64640    77.63409   166.66779
   135  C   4.0   -0.07    4.12    3.85    -0.44028    73.76945   166.05373
   136  H   1.0    0.11    1.11    1.44     2.21308    70.00962   165.10669
   137  H   1.0    0.05    1.05    1.44     2.47912    74.95354   163.40794
   138  H   1.0    0.04    1.00    1.43    -1.37385    75.59246   165.95186
   139  H   1.0    0.05    1.01    1.43    -1.39287    72.43170   164.82640
   140  H   1.0    0.06    1.00    1.43    -0.55991    73.05007   167.97431
   141  N   5.0   -0.14    3.53    2.10     4.03738    74.45370   169.42464
   142  C   4.0    0.04    4.43    4.43     5.47116    75.68169   171.39305
   143  C   4.0    0.16    3.50    3.11     8.17168    76.17625   170.47541
   144  O   6.0   -0.30    1.30    1.80     9.09856    78.30226   170.58750
   145  C   4.0   -0.04    4.24    4.08     5.35767    74.11222   173.82284
   146  C   4.0   -0.03    4.18    3.96     2.73516    74.29059   175.03173
   147  C   4.0    0.25    3.09    3.02     2.14744    72.19686   177.01676
   148  O   6.0   -0.32    1.28    1.80     2.36941    69.94070   176.29555
   149  O   6.0   -0.28    1.16    1.80     1.40776    72.89036   179.12475
   150  H   1.0    0.10    1.09    1.44     3.35544    72.69518   169.77137
   151  H   1.0    0.06    1.06    1.44     4.65934    77.56121   171.75111
   152  H   1.0    0.07    1.03    1.43     5.80903    72.15030   173.36912
   153  H   1.0    0.05    1.02    1.43     6.78889    74.79346   175.14774
   154  H   1.0    0.05    1.04    1.43     2.51915    76.10353   175.97121
   155  H   1.0    0.05    1.03    1.43     1.28894    74.10953   173.56967
   156  N   5.0   -0.14    3.52    2.09     9.41627    74.21629   169.48880
   157  C   4.0    0.04    4.54    4.59    12.03239    74.58181   168.76939
   158  C   4.0    0.16    3.51    3.12    12.24592    76.80195   166.91836
   159  O   6.0   -0.32    1.28    1.80    14.05501    78.25074   166.93694
   160  C   4.0   -0.02    4.33    4.26    13.21086    72.20778   167.59905
   161  C   4.0   -0.04    4.19    3.98    12.88765    69.84228   169.24392
   162  C   4.0   -0.07    4.14    3.89    16.01293    72.67816   167.09651
   163  C   4.0   -0.07    4.02    3.66    13.85938    70.13436   171.93870
   164  H   1.0    0.11    1.10    1.44     8.62922    72.47199   169.47066
   165  H   1.0    0.05    1.05    1.44    13.10434    75.14729   170.45901
   166  H   1.0    0.05    1.05    1.44    12.24840    71.86511   165.79560
   167  H   1.0    0.06    1.04    1.43    10.90328    69.30314   169.31353
   168  H   1.0    0.04    1.03    1.43    13.91515    68.31281   168.31275
   169  H   1.0    0.04    1.00    1.43    16.85485    70.99595   166.27622
   170  H   1.0    0.05    1.00    1.43    16.27525    74.25346   165.80697
   171  H   1.0    0.04    1.00    1.43    16.98810    73.13883   168.84214
   172  H   1.0    0.04    1.00    1.43    13.73183    68.33233   172.91227
   173  H   1.0    0.04    1.00    1.43    15.81894    70.74256   171.96084
   174  H   1.0    0.05    1.00    1.43    12.73983    71.50675   172.98519
   175  N   5.0   -0.13    3.55    2.11    10.44544    76.91570   165.16831
   176  C   4.0    0.04    4.44    4.45    10.51925    78.73525   163.11548
   177  C   4.0    0.16    3.48    3.11    10.10406    81.38849   164.16783
   178  O   6.0   -0.31    1.30    1.80    11.50060    83.17078   163.67551
   179  C   4.0   -0.03    4.34    4.28     8.48210    78.04904   161.16962
   180  C   4.0   -0.02    3.55    3.14     8.76218    79.50104   158.74536
   181  C   4.0   -0.05    3.48    3.11    10.82559    79.03590   157.18463
   182  C   4.0   -0.05    3.45    3.10     6.99376    81.28859   158.00071
   183  C   4.0   -0.05    3.43    3.09    11.10076    80.27639   154.90590
   184  C   4.0   -0.04    3.45    3.09     7.25832    82.56050   155.73269
   185  C   4.0    0.07    3.45    3.09     9.30713    82.05313   154.15267
   186  O   6.0   -0.25    2.12    1.84     9.45670    83.28534   151.91717
   187  H   1.0    0.12    1.13    1.45     9.08685    75.56683   165.09600
   188  H   1.0    0.05    1.05    1.44    12.41086    78.70107   162.26163
   189  H   1.0    0.05    1.03    1.43     8.67585    76.03032   160.79234
   190  H   1.0    0.05    1.03    1.43     6.63124    78.36770   162.01619
   191  H   1.0    0.04    1.03    1.43    12.22440    77.67065   157.76702
   192  H   1.0    0.05    1.03    1.43     5.41456    81.69318   159.22309
   193  H   1.0    0.07    1.03    1.43    12.70746    79.87878   153.71412
   194  H   1.0    0.05    1.03    1.43     5.94890    84.02761   155.19471
   195  H   1.0    0.15    1.09    1.44    11.07132    82.88106   151.10751
   196  N   5.0   -0.14    3.53    2.10     8.02451    81.60672   165.56594
   197  C   4.0    0.03    4.43    4.43     7.40032    83.89937   166.91782
   198  C   4.0    0.17    3.50    3.11     9.75860    85.08771   168.10516
   199  O   6.0   -0.31    1.28    1.80    10.19651    87.34874   167.84950
   200  C   4.0   -0.04    4.30    4.20     5.42259    83.29718   168.94268
   201  C   4.0   -0.04    4.19    3.98     4.88358    85.58327   170.61300
   202  C   4.0   -0.01    4.19    3.98     2.38070    85.34040   172.03739
   203  N   5.0   -0.14    3.40    2.02     1.85038    82.86249   173.12126
   204  C   4.0    0.10    3.34    3.06     2.63079    82.04494   175.37546
   205  N   5.0   -0.19    3.25    1.97     1.20525    80.31906   176.56922
   206  N   5.0   -0.17    3.25    1.97     4.65267    82.99098   176.50123
   207  H   1.0    0.12    1.12    1.45     7.02920    80.04078   166.04776
   208  H   1.0    0.05    1.05    1.44     6.61566    85.27468   165.57642
   209  H   1.0    0.05    1.03    1.43     3.70894    82.65841   167.99299
   210  H   1.0    0.07    1.03    1.43     6.13132    81.74844   170.10336
   211  H   1.0    0.07    1.04    1.43     6.44771    85.82865   171.92411
   212  H   1.0    0.05    1.03    1.43     4.75706    87.28888   169.46571
   213  H   1.0    0.05    1.03    1.43     2.35161    86.74157   173.55223
   214  H   1.0    0.04    1.03    1.43     0.82796    85.72267   170.73961
   215  H   1.0    0.08    1.07    1.44     0.36210    81.93792   172.36816
   216  H   1.0    0.09    1.03    1.43    -0.48305    79.76248   175.89196
   217  H   1.0    0.09    1.03    1.43     1.75995    79.57800   178.23080
   218  H   1.0    0.13    1.10    1.44     6.24188    83.61306   175.50383
   219  H   1.0    0.10    1.04    1.43     5.14327    82.23148   178.17956
   220  N   5.0   -0.12    3.53    2.10    11.22456    83.48142   169.37568
   221  C   4.0    0.05    4.43    4.43    13.16370    84.32163   171.09797
   222  C   4.0    0.15    3.42    3.09    15.79988    84.58453   169.95173
   223  O   6.0   -0.28    1.23    1.80    17.35568    85.98192   170.94222
   224  C   4.0   -0.02    4.28    4.16    13.32117    82.50873   173.33401
   225  C   4.0    0.26    3.10    3.02    10.87460    82.45249   174.97810
   226  O   6.0   -0.32    1.33    1.80     9.12578    83.91156   174.35003
   227  O   6.0   -0.28    1.16    1.80    10.84230    80.96941   176.79402
   228  H   1.0    0.11    1.10    1.44    10.59640    81.69500   169.65383
   229  H   1.0    0.08    1.06    1.44    12.64435    86.21144   171.78783
   230  H   1.0    0.06    1.03    1.43    13.66059    80.58320   172.67044
   231  H   1.0    0.06    1.03    1.43    14.89506    83.02511   174.56536
   232  N   5.0   -0.13    3.50    2.08    16.24032    83.29050   167.80996
   233  C   4.0    0.04    4.42    4.42    18.77978    83.14608   166.82447
   234  C   4.0    0.16    3.46    3.10    18.94907    83.50758   163.96262
   235  O   6.0   -0.29    1.29    1.80    20.94378    83.09382   162.84616
   236  C   4.0   -0.02    4.35    4.29    20.06993    80.60924   167.44967
   237  C   4.0   -0.01    3.56    3.14    19.93287    79.92632   170.19434
   238  C   4.0   -0.04    3.49    3.11    18.10709    78.22782   171.01605
   239  C   4.0   -0.03    3.46    3.10    21.59216    80.92174   171.96087
   240  C   4.0   -0.03    3.44    3.09    17.89650    77.56188   173.52383
   241  C   4.0   -0.04    3.43    3.09    21.39417    80.27769   174.49091
   242  C   4.0    0.07    3.44    3.09    19.51355    78.62810   175.29899
   243  O   6.0   -0.23    2.11    1.84    19.17190    77.99654   177.77384
   244  H   1.0    0.11    1.09    1.44    15.05069    81.84599   167.38676
   245  H   1.0    0.07    1.07    1.44    19.84128    84.68394   167.72613
   246  H   1.0    0.05    1.04    1.43    19.11956    79.15348   166.33916
   247  H   1.0    0.06    1.03    1.43    22.03047    80.75554   166.82778
   248  H   1.0    0.07    1.05    1.44    16.80663    77.46737   169.65127
   249  H   1.0    0.06    1.03    1.43    23.04461    82.22090   171.35298
   250  H   1.0    0.06    1.03    1.43    16.45377    76.27687   174.18031
   251  H   1.0    0.06    1.03    1.43    22.64066    81.13026   175.87075
   252  H   1.0    0.12    1.03    1.43    20.33064    78.92600   178.83683
   253  N   5.0   -0.12    3.47    2.06    16.85678    84.20292   162.72019
   254  C   4.0    0.04    4.32    4.23    17.03634    84.60558   160.00488
   255  C   4.0    0.09    3.32    3.06    19.21955    86.46130   159.53320
   256  O   6.0   -0.27    1.15    1.80    19.75552    88.16893   160.98567
   257  C   4.0   -0.05    4.22    4.05    14.54196    85.50354   158.81737
   258  C   4.0   -0.04    4.20    4.01    14.21072    88.38483   158.69701
   259  C   4.0   -0.05    4.16    3.91    11.62255    89.27117   159.62339
   260  C   4.0   -0.02    4.16    3.91    11.50885    89.03116   162.49232
   261  N   5.0   -0.12    4.02    2.91     9.14922    90.11075   163.58028
   262  H   1.0    0.11    1.08    1.44    15.18005    84.43109   163.61143
   263  H   1.0    0.04    1.05    1.44    17.59594    82.79860   159.14304
   264  H   1.0    0.04    1.03    1.43    14.43908    84.72095   156.91354
   265  H   1.0    0.06    1.04    1.43    13.02060    84.63679   159.90199
   266  H   1.0    0.06    1.05    1.44    15.65825    89.30096   159.83905
   267  H   1.0    0.04    1.02    1.43    14.51850    89.03863   156.76853
   268  H   1.0    0.04    1.03    1.43    11.39604    91.23928   159.05742
   269  H   1.0    0.04    1.02    1.43    10.14747    88.14528   158.72691
   270  H   1.0    0.07    1.04    1.43    11.60571    87.04596   163.02844
   271  H   1.0    0.06    1.02    1.43    13.12574    89.99753   163.32435
   272  H   1.0    0.09    1.06    1.44     9.10498    89.53992   165.47921
   273  H   1.0    0.06    1.02    1.43     9.15668    92.04905   163.44782
   274  H   1.0    0.06    1.02    1.43     7.60192    89.43036   162.62102
   275  N   5.0   -0.21    3.10    1.94    17.28095    87.62116   147.67053
   276  C   4.0    0.01    4.06    3.73    15.32539    86.22445   148.94569
   277  C   4.0    0.08    3.11    3.02    15.87732    83.45100   149.44128
   278  O   6.0   -0.32    1.20    1.80    14.20651    82.09825   150.32923
   279  H   1.0    0.09    1.02    1.43    17.23038    87.75526   145.77269
   280  H   1.0    0.05    1.03    1.43    15.07884    87.08007   150.81869
   281  H   1.0    0.05    1.02    1.43    13.54581    86.39089   147.91662
   282  N   5.0   -0.19    3.24    1.97    19.17072    77.87917   153.71341
   283  C   4.0    0.03    4.32    4.23    20.18065    77.45678   156.22356
   284  C   4.0    0.08    3.26    3.04    22.31214    75.52871   155.93521
   285  O   6.0   -0.28    1.13    1.80    21.96286    73.45313   154.96961
   286  C   4.0   -0.02    4.25    4.11    18.18057    76.60802   158.13955
   287  C   4.0   -0.06    4.12    3.84    16.70269    74.31614   157.23334
   288  C   4.0   -0.07    4.14    3.88    19.51681    76.07828   160.63498
   289  H   1.0    0.12    1.03    1.43    18.46677    76.37099   152.76546
   290  H   1.0    0.04    1.05    1.44    20.96109    79.26906   156.85583
   291  H   1.0    0.04    1.05    1.44    16.88601    78.20530   158.40156
   292  H   1.0    0.04    1.00    1.43    15.35390    73.74252   158.67392
   293  H   1.0    0.06    1.00    1.43    15.67820    74.73250   155.50092
   294  H   1.0    0.07    1.01    1.43    17.99816    72.76073   156.89429
   295  H   1.0    0.04    1.00    1.43    18.15441    75.54747   162.07868
   296  H   1.0    0.05    1.00    1.43    20.87059    74.54329   160.43220
   297  H   1.0    0.05    1.00    1.43    20.51692    77.75056   161.30013
   298  H   1.0    0.09    1.07    1.44     5.42938    77.72654   138.48385
   299  H   1.0    0.06    1.05    1.44     0.57529    81.33696   136.38229
   300  H   1.0    0.09    1.07    1.44     2.74345    72.12833   150.93358
   301  H   1.0    0.06    1.04    1.44    15.64261    70.82166   149.85173
   302  H   1.0    0.09    1.07    1.44    -0.49418    66.90500   156.40631
   303  H   1.0    0.06    1.05    1.44    -0.14659    60.99440   163.98129
   304  H   1.0    0.10    1.07    1.44     8.16293    63.10203   179.79101
   305  H   1.0    0.06    1.05    1.44    20.27740    86.29945   157.97570
   306  H   1.0    0.09    1.07    1.44    17.27240    89.23336   148.21210
   307  H   1.0    0.06    1.04    1.43    17.58393    82.74201   149.04648
   308  H   1.0    0.10    1.07    1.44    17.88456    78.98875   153.79823
   309  H   1.0    0.06    1.05    1.44    24.05214    75.94582   156.54306

  Z AO/shell   Hii/eV     exponent
  1     Wed Apr 25 08:07:45 CEST 2018   EN: 2.200 GM2: 0.406  GM3: 0.0800  RAES: 1.40
     1s    -10.707211    1.230000
  6     Wed Apr 25 08:07:45 CEST 2018   EN: 2.550 GM2: 0.538  GM3: 0.1500  RAES: 3.00
     2s    -13.970922    2.096432
     2p    -10.063292    1.800000
  7     Wed Apr 25 08:07:45 CEST 2018   EN: 3.040 GM2: 0.461  GM3:-0.0640  RAES: 1.90
     2s    -16.686243    2.339881
     2p    -12.523956    2.014332
  8     Wed Apr 25 08:07:45 CEST 2018   EN: 3.440 GM2: 0.452  GM3:-0.0517  RAES: 1.80
     2s    -20.229985    2.439742
     2p    -15.503117    2.137023
 16     Tue Apr 24 11:44:34 CEST 2018   EN: 2.580 GM2: 0.340  GM3:-0.0502  RAES: 3.10
     3s    -20.029654    1.981333
     3p    -11.377694    2.025643
     3d     -0.420282    1.702555
 no old-style atom pair restraining (fixing) potential

molecular fragmentation (1/2 indicates fragments):
111111111111111111111111222222222222222222222222222222222222222222222222
222222222222222222222222222222222222222222222222222222222222222222222222
222222222222222222222222222222222222222222222222222222222222222222222222
222222222222222222222222222222222222222222222222222222222222222222222222
222222222112222222222
# atoms in fragment 1/2:    26   283
 fragment masses (1/2) :      159.21     1975.30
CMA distance (Bohr)    :  21.496
constraining FC (au)   :  0.0500
           ------------------------------------------------- 
          |        Self-Consistent Charge Iterations        |
           ------------------------------------------------- 

 Ncao       : 762
 Nao        : 761
 Nshell     : 459
 Nel        : 840
 T(el)      :   500.0
 intcut     :    35.0
 scfconv/Eh :  0.100E-06
   qconv/e  :  0.100E-04
 intneglect :  0.100E-08
 broydamp   :      0.400
 iter      E             dE          RMSdq      gap      omega  full diag
   1   -480.8126497 -0.480813E+03  0.469E+00    3.03       0.0  T
   2   -481.9571978 -0.114455E+01  0.220E+00    1.74       1.0  T
   3   -482.0292341 -0.720364E-01  0.124E+00    2.12       1.0  T
   4   -482.1090242 -0.797900E-01  0.265E-01    1.69       1.0  T
   5   -482.1130326 -0.400844E-02  0.138E-01    1.84       1.0  T
   6   -482.1139518 -0.919217E-03  0.613E-02    1.79       1.0  T
   7   -482.1142205 -0.268664E-03  0.285E-02    1.75       1.0  T
   8   -482.1142631 -0.426408E-04  0.142E-02    1.73       1.0  T
   9   -482.1142777 -0.146081E-04  0.616E-03    1.72       1.0  T
  10   -482.1142802 -0.245921E-05  0.245E-03    1.72       2.3  T
  11   -482.1142806 -0.413664E-06  0.105E-03    1.72       5.4  T
  12   -482.1142807 -0.594256E-07  0.459E-04    1.72      12.4  T
  13   -482.1142807 -0.171774E-07  0.212E-04    1.72      26.8  T
  14   -482.1142807 -0.248241E-08  0.911E-05    1.72      62.5  T
  15   -482.1142807 -0.636589E-09  0.385E-05    1.72     147.8  T
speedup  1.74
cpu  time for SCC    4.95 s
wall time for SCC    2.85 s

   *** convergence criteria satisfied after 15 iterations ***

          eigenvalues
 #    :         408        409        410        411        412        413        414        415
 occ. :        2.000      2.000      2.000      2.000      2.000      2.000      2.000      2.000
 eps  :       -10.487    -10.326    -10.276    -10.108    -10.088    -10.063    -10.026     -9.971
 #    :         416        417        418        419        420        421        422        423
 occ. :        2.000      2.000      2.000      2.000      2.000      0.000      0.000      0.000
 eps  :        -9.955     -9.887     -9.884     -9.852     -9.780     -8.056     -7.929     -7.688
 #    :         424        425        426        427        428        429        430        431
 occ. :        0.000      0.000      0.000      0.000      0.000      0.000      0.000      0.000
 eps  :        -7.587     -7.515     -7.472     -6.885     -6.645     -6.502     -6.382     -6.287


   #   Z            q   n(s)   n(p)   n(d)      C6AA      α(0)
   1   7 N     -0.402  1.322  4.079  0.000    30.420     8.191
   2   6 C      0.032  1.057  2.910  0.000    20.047     6.378
   3   6 C      0.199  1.093  2.708  0.000    23.769     7.984
   4   8 O     -0.387  1.757  4.630  0.000    21.430     6.207
   5   6 C     -0.073  1.058  3.015  0.000    21.895     6.661
   6   6 C     -0.086  1.055  3.030  0.000    22.130     6.698
   7   6 C     -0.026  1.053  2.972  0.000    21.117     6.558
   8   7 N     -0.136  1.207  3.929  0.000    23.946     7.268
   9   6 C      0.227  1.018  2.755  0.000    23.224     7.890
  10   7 N     -0.245  1.224  4.021  0.000    26.390     7.630
  11   7 N     -0.250  1.228  4.022  0.000    26.511     7.647
  12   1 H      0.167  0.833  0.000  0.000     1.290     1.779
  13   1 H      0.074  0.926  0.000  0.000     2.046     2.237
  14   1 H      0.065  0.935  0.000  0.000     2.139     2.287
  15   1 H      0.053  0.947  0.000  0.000     2.281     2.362
  16   1 H      0.070  0.930  0.000  0.000     2.087     2.259
  17   1 H      0.086  0.914  0.000  0.000     1.917     2.165
  18   1 H      0.083  0.917  0.000  0.000     1.949     2.183
  19   1 H      0.076  0.924  0.000  0.000     2.024     2.225
  20   1 H      0.232  0.768  0.000  0.000     0.956     1.531
  21   1 H      0.243  0.757  0.000  0.000     0.912     1.496
  22   1 H      0.252  0.748  0.000  0.000     0.875     1.465
  23   1 H      0.234  0.766  0.000  0.000     0.949     1.526
  24   1 H      0.248  0.752  0.000  0.000     0.890     1.478
  25   7 N     -0.385  1.320  4.065  0.000    29.956     8.129
  26   6 C      0.020  1.065  2.915  0.000    20.244     6.408
  27   6 C      0.266  1.047  2.687  0.000    22.510     7.770
  28   8 O     -0.534  1.767  4.767  0.000    24.547     6.643
  29   6 C     -0.023  1.066  2.957  0.000    20.946     6.509
  30   6 C     -0.076  1.056  3.020  0.000    21.946     6.669
  31   6 C     -0.109  1.036  3.072  0.000    22.631     6.783
  32   6 C     -0.107  1.036  3.071  0.000    22.615     6.782
  33   1 H      0.140  0.860  0.000  0.000     1.474     1.902
  34   1 H      0.062  0.938  0.000  0.000     2.178     2.308
  35   1 H      0.022  0.978  0.000  0.000     2.705     2.572
  36   1 H      0.067  0.933  0.000  0.000     2.122     2.278
  37   1 H      0.052  0.948  0.000  0.000     2.294     2.369
  38   1 H      0.034  0.966  0.000  0.000     2.529     2.487
  39   1 H      0.015  0.985  0.000  0.000     2.804     2.618
  40   1 H      0.056  0.944  0.000  0.000     2.249     2.345
  41   1 H      0.043  0.957  0.000  0.000     2.407     2.426
  42   1 H      0.016  0.984  0.000  0.000     2.789     2.611
  43   1 H      0.034  0.966  0.000  0.000     2.535     2.490
  44   7 N     -0.077  1.232  3.845  0.000    22.735     7.082
  45   6 C      0.027  1.060  2.913  0.000    20.094     6.379
  46   6 C      0.202  1.088  2.710  0.000    23.696     7.972
  47   8 O     -0.346  1.745  4.601  0.000    20.630     6.090
  48   6 C     -0.067  1.053  3.014  0.000    21.763     6.638
  49   6 C     -0.076  1.052  3.024  0.000    21.930     6.663
  50   6 C     -0.021  1.057  2.964  0.000    20.995     6.532
  51   1 H      0.062  0.938  0.000  0.000     2.181     2.310
  52   1 H      0.059  0.941  0.000  0.000     2.206     2.323
  53   1 H      0.073  0.927  0.000  0.000     2.058     2.243
  54   1 H      0.081  0.919  0.000  0.000     1.969     2.194
  55   1 H      0.082  0.918  0.000  0.000     1.959     2.189
  56   1 H      0.079  0.921  0.000  0.000     1.986     2.204
  57   1 H      0.082  0.918  0.000  0.000     1.956     2.187
  58   7 N     -0.403  1.325  4.078  0.000    30.463     8.197
  59   6 C      0.028  1.061  2.911  0.000    20.121     6.389
  60   6 C      0.265  1.051  2.684  0.000    22.522     7.771
  61   8 O     -0.514  1.732  4.782  0.000    24.086     6.580
  62   6 C     -0.055  1.056  2.999  0.000    21.552     6.608
  63   6 C     -0.101  1.060  3.041  0.000    22.422     6.741
  64   6 C      0.291  1.036  2.673  0.000    22.060     7.691
  65   8 O     -0.520  1.766  4.754  0.000    24.229     6.599
  66   7 N     -0.292  1.269  4.023  0.000    27.537     7.794
  67   1 H      0.160  0.840  0.000  0.000     1.332     1.808
  68   1 H      0.061  0.939  0.000  0.000     2.191     2.315
  69   1 H      0.059  0.941  0.000  0.000     2.208     2.324
  70   1 H      0.030  0.970  0.000  0.000     2.581     2.512
  71   1 H      0.056  0.944  0.000  0.000     2.251     2.346
  72   1 H      0.074  0.926  0.000  0.000     2.039     2.233
  73   1 H      0.249  0.751  0.000  0.000     0.885     1.474
  74   1 H      0.240  0.760  0.000  0.000     0.924     1.506
  75   7 N     -0.193  1.271  3.922  0.000    25.188     7.454
  76   6 C      0.031  1.057  2.912  0.000    20.060     6.378
  77   6 C      0.198  1.087  2.715  0.000    23.783     7.987
  78   8 O     -0.377  1.763  4.613  0.000    21.223     6.176
  79   6 C     -0.061  1.050  3.010  0.000    21.663     6.626
  80   6 C     -0.092  1.065  3.027  0.000    22.262     6.718
  81   6 C      0.372  1.024  2.604  0.000    20.695     7.445
  82   8 O     -0.615  1.766  4.849  0.000    26.485     6.900
  83   8 O     -0.625  1.776  4.849  0.000    26.739     6.933
  84   1 H      0.247  0.753  0.000  0.000     0.896     1.483
  85   1 H      0.085  0.915  0.000  0.000     1.928     2.172
  86   1 H      0.051  0.949  0.000  0.000     2.307     2.375
  87   1 H      0.051  0.949  0.000  0.000     2.308     2.376
  88   1 H      0.028  0.972  0.000  0.000     2.610     2.527
  89   1 H      0.030  0.970  0.000  0.000     2.591     2.517
  90   7 N     -0.391  1.320  4.071  0.000    30.133     8.153
  91   6 C      0.041  1.052  2.907  0.000    19.901     6.354
  92   6 C      0.274  1.046  2.681  0.000    22.370     7.745
  93   8 O     -0.497  1.746  4.751  0.000    23.728     6.531
  94   6 C     -0.108  1.042  3.066  0.000    22.606     6.778
  95   1 H      0.167  0.833  0.000  0.000     1.290     1.779
  96   1 H      0.025  0.975  0.000  0.000     2.660     2.550
  97   1 H      0.034  0.966  0.000  0.000     2.536     2.490
  98   1 H      0.046  0.954  0.000  0.000     2.377     2.411
  99   1 H      0.053  0.947  0.000  0.000     2.287     2.365
 100   7 N     -0.190  1.246  3.945  0.000    25.123     7.444
 101   6 C      0.015  1.062  2.923  0.000    20.330     6.420
 102   6 C      0.276  1.042  2.682  0.000    22.330     7.739
 103   8 O     -0.482  1.735  4.747  0.000    23.386     6.484
 104   6 C      0.114  1.050  2.836  0.000    18.796     6.189
 105   8 O     -0.481  1.711  4.769  0.000    22.483     6.401
 106   6 C     -0.134  1.043  3.091  0.000    23.133     6.859
 107   1 H      0.221  0.779  0.000  0.000     1.006     1.572
 108   1 H      0.057  0.943  0.000  0.000     2.240     2.341
 109   1 H      0.048  0.952  0.000  0.000     2.342     2.393
 110   1 H      0.326  0.674  0.000  0.000     0.649     1.266
 111   1 H      0.067  0.933  0.000  0.000     2.118     2.276
 112   1 H      0.049  0.951  0.000  0.000     2.326     2.385
 113   1 H      0.058  0.942  0.000  0.000     2.221     2.331
 114   7 N     -0.175  1.246  3.929  0.000    24.788     7.394
 115   6 C      0.023  1.056  2.921  0.000    20.192     6.397
 116   6 C      0.271  1.039  2.690  0.000    22.414     7.753
 117   8 O     -0.482  1.727  4.755  0.000    23.397     6.485
 118   6 C     -0.069  1.050  3.019  0.000    21.792     6.640
 119   6 C     -0.016  1.065  2.950  0.000    20.854     6.502
 120  16 S     -0.216  1.916  4.252  0.048   150.282    20.633
 121   6 C     -0.060  1.053  3.006  0.000    21.718     6.648
 122   1 H      0.201  0.799  0.000  0.000     1.102     1.644
 123   1 H      0.082  0.918  0.000  0.000     1.958     2.188
 124   1 H      0.065  0.935  0.000  0.000     2.136     2.285
 125   1 H      0.085  0.915  0.000  0.000     1.929     2.172
 126   1 H      0.039  0.961  0.000  0.000     2.460     2.453
 127   1 H      0.065  0.935  0.000  0.000     2.137     2.286
 128   1 H      0.067  0.933  0.000  0.000     2.123     2.279
 129   1 H      0.052  0.948  0.000  0.000     2.294     2.368
 130   1 H      0.062  0.938  0.000  0.000     2.175     2.306
 131   7 N     -0.179  1.250  3.929  0.000    24.886     7.409
 132   6 C      0.018  1.062  2.921  0.000    20.281     6.412
 133   6 C      0.274  1.041  2.685  0.000    22.376     7.747
 134   8 O     -0.464  1.719  4.744  0.000    22.992     6.429
 135   6 C     -0.145  1.044  3.100  0.000    23.340     6.888
 136   1 H      0.233  0.767  0.000  0.000     0.953     1.529
 137   1 H      0.098  0.902  0.000  0.000     1.805     2.101
 138   1 H      0.089  0.911  0.000  0.000     1.885     2.147
 139   1 H      0.079  0.921  0.000  0.000     1.988     2.205
 140   1 H      0.057  0.943  0.000  0.000     2.231     2.336
 141   7 N     -0.182  1.246  3.936  0.000    24.935     7.416
 142   6 C      0.028  1.061  2.911  0.000    20.102     6.383
 143   6 C      0.278  1.043  2.680  0.000    22.303     7.734
 144   8 O     -0.500  1.741  4.758  0.000    23.775     6.537
 145   6 C     -0.053  1.049  3.005  0.000    21.531     6.606
 146   6 C     -0.113  1.070  3.042  0.000    22.655     6.777
 147   6 C      0.369  1.026  2.605  0.000    20.741     7.453
 148   8 O     -0.636  1.765  4.871  0.000    27.018     6.969
 149   8 O     -0.613  1.772  4.841  0.000    26.447     6.895
 150   1 H      0.213  0.787  0.000  0.000     1.041     1.598
 151   1 H      0.072  0.928  0.000  0.000     2.063     2.246
 152   1 H      0.048  0.952  0.000  0.000     2.351     2.398
 153   1 H      0.023  0.977  0.000  0.000     2.690     2.565
 154   1 H      0.044  0.956  0.000  0.000     2.390     2.417
 155   1 H      0.053  0.947  0.000  0.000     2.288     2.366
 156   7 N     -0.197  1.255  3.942  0.000    25.280     7.467
 157   6 C      0.039  1.058  2.903  0.000    19.919     6.353
 158   6 C      0.282  1.041  2.677  0.000    22.230     7.721
 159   8 O     -0.501  1.737  4.764  0.000    23.814     6.543
 160   6 C     -0.019  1.063  2.955  0.000    20.868     6.497
 161   6 C     -0.063  1.050  3.013  0.000    21.709     6.633
 162   6 C     -0.111  1.038  3.074  0.000    22.684     6.790
 163   6 C     -0.102  1.033  3.069  0.000    22.506     6.765
 164   1 H      0.224  0.776  0.000  0.000     0.993     1.561
 165   1 H      0.041  0.959  0.000  0.000     2.431     2.438
 166   1 H      0.045  0.955  0.000  0.000     2.388     2.416
 167   1 H      0.036  0.964  0.000  0.000     2.498     2.471
 168   1 H      0.049  0.951  0.000  0.000     2.329     2.387
 169   1 H      0.057  0.943  0.000  0.000     2.230     2.335
 170   1 H      0.041  0.959  0.000  0.000     2.432     2.439
 171   1 H      0.044  0.956  0.000  0.000     2.390     2.418
 172   1 H      0.035  0.965  0.000  0.000     2.513     2.479
 173   1 H      0.045  0.955  0.000  0.000     2.385     2.415
 174   1 H      0.018  0.982  0.000  0.000     2.761     2.599
 175   7 N     -0.195  1.255  3.940  0.000    25.227     7.460
 176   6 C      0.026  1.062  2.911  0.000    20.132     6.388
 177   6 C      0.268  1.044  2.688  0.000    22.470     7.762
 178   8 O     -0.478  1.725  4.752  0.000    23.299     6.472
 179   6 C     -0.084  1.056  3.028  0.000    22.091     6.690
 180   6 C     -0.005  1.075  2.930  0.000    28.152     8.703
 181   6 C     -0.041  1.082  2.959  0.000    29.014     8.833
 182   6 C     -0.050  1.085  2.965  0.000    29.248     8.869
 183   6 C     -0.080  1.080  3.000  0.000    29.990     8.980
 184   6 C     -0.081  1.075  3.006  0.000    30.026     8.986
 185   6 C      0.141  1.046  2.813  0.000    24.924     8.182
 186   8 O     -0.421  1.701  4.720  0.000    21.263     6.225
 187   1 H      0.229  0.771  0.000  0.000     0.969     1.542
 188   1 H      0.066  0.934  0.000  0.000     2.130     2.282
 189   1 H      0.065  0.935  0.000  0.000     2.137     2.286
 190   1 H      0.069  0.931  0.000  0.000     2.098     2.265
 191   1 H      0.025  0.975  0.000  0.000     2.659     2.550
 192   1 H      0.064  0.936  0.000  0.000     2.147     2.291
 193   1 H      0.052  0.948  0.000  0.000     2.294     2.368
 194   1 H      0.085  0.915  0.000  0.000     1.926     2.170
 195   1 H      0.343  0.657  0.000  0.000     0.605     1.222
 196   7 N     -0.176  1.247  3.929  0.000    24.810     7.398
 197   6 C      0.004  1.069  2.926  0.000    20.510     6.448
 198   6 C      0.278  1.041  2.681  0.000    22.288     7.731
 199   8 O     -0.462  1.718  4.744  0.000    22.959     6.424
 200   6 C     -0.084  1.057  3.028  0.000    22.105     6.693
 201   6 C     -0.090  1.052  3.038  0.000    22.210     6.710
 202   6 C     -0.029  1.057  2.972  0.000    21.176     6.567
 203   7 N     -0.152  1.219  3.933  0.000    24.289     7.320
 204   6 C      0.238  1.022  2.741  0.000    23.022     7.856
 205   7 N     -0.269  1.238  4.032  0.000    26.965     7.712
 206   7 N     -0.263  1.271  3.992  0.000    26.826     7.692
 207   1 H      0.231  0.769  0.000  0.000     0.963     1.537
 208   1 H      0.106  0.894  0.000  0.000     1.736     2.060
 209   1 H      0.089  0.911  0.000  0.000     1.891     2.150
 210   1 H      0.047  0.953  0.000  0.000     2.358     2.401
 211   1 H      0.066  0.934  0.000  0.000     2.126     2.280
 212   1 H      0.087  0.913  0.000  0.000     1.909     2.161
 213   1 H      0.085  0.915  0.000  0.000     1.925     2.170
 214   1 H      0.107  0.893  0.000  0.000     1.721     2.052
 215   1 H      0.230  0.770  0.000  0.000     0.964     1.538
 216   1 H      0.242  0.758  0.000  0.000     0.913     1.497
 217   1 H      0.218  0.782  0.000  0.000     1.020     1.582
 218   1 H      0.270  0.730  0.000  0.000     0.812     1.412
 219   1 H      0.205  0.795  0.000  0.000     1.082     1.629
 220   7 N     -0.171  1.246  3.925  0.000    24.692     7.380
 221   6 C      0.036  1.054  2.910  0.000    19.966     6.363
 222   6 C      0.275  1.045  2.680  0.000    22.349     7.742
 223   8 O     -0.500  1.751  4.750  0.000    23.793     6.540
 224   6 C     -0.082  1.063  3.019  0.000    22.068     6.688
 225   6 C      0.372  1.023  2.604  0.000    20.690     7.444
 226   8 O     -0.571  1.737  4.834  0.000    25.429     6.761
 227   8 O     -0.632  1.777  4.855  0.000    26.920     6.956
 228   1 H      0.208  0.792  0.000  0.000     1.068     1.619
 229   1 H      0.076  0.924  0.000  0.000     2.022     2.224
 230   1 H      0.023  0.977  0.000  0.000     2.687     2.563
 231   1 H      0.021  0.979  0.000  0.000     2.721     2.580
 232   7 N     -0.185  1.255  3.930  0.000    25.016     7.428
 233   6 C      0.026  1.059  2.915  0.000    20.139     6.390
 234   6 C      0.272  1.044  2.685  0.000    22.411     7.753
 235   8 O     -0.504  1.750  4.754  0.000    23.883     6.552
 236   6 C     -0.070  1.053  3.017  0.000    21.820     6.649
 237   6 C      0.003  1.078  2.919  0.000    27.958     8.673
 238   6 C     -0.051  1.087  2.964  0.000    29.265     8.872
 239   6 C     -0.040  1.084  2.956  0.000    28.989     8.829
 240   6 C     -0.056  1.070  2.986  0.000    29.404     8.892
 241   6 C     -0.076  1.078  2.998  0.000    29.900     8.967
 242   6 C      0.140  1.047  2.813  0.000    24.946     8.186
 243   8 O     -0.450  1.727  4.723  0.000    21.843     6.309
 244   1 H      0.219  0.781  0.000  0.000     1.013     1.577
 245   1 H      0.079  0.921  0.000  0.000     1.990     2.206
 246   1 H      0.055  0.945  0.000  0.000     2.255     2.348
 247   1 H      0.068  0.932  0.000  0.000     2.106     2.270
 248   1 H      0.060  0.940  0.000  0.000     2.200     2.319
 249   1 H      0.046  0.954  0.000  0.000     2.376     2.411
 250   1 H      0.018  0.982  0.000  0.000     2.766     2.601
 251   1 H      0.040  0.960  0.000  0.000     2.444     2.445
 252   1 H      0.348  0.652  0.000  0.000     0.592     1.209
 253   7 N     -0.162  1.240  3.922  0.000    24.501     7.351
 254   6 C      0.029  1.062  2.909  0.000    20.088     6.382
 255   6 C      0.214  1.082  2.704  0.000    23.471     7.934
 256   8 O     -0.376  1.757  4.619  0.000    21.214     6.175
 257   6 C     -0.089  1.059  3.030  0.000    22.201     6.708
 258   6 C     -0.079  1.049  3.030  0.000    22.007     6.679
 259   6 C     -0.095  1.055  3.039  0.000    22.308     6.725
 260   6 C     -0.054  1.058  2.995  0.000    21.633     6.638
 261   7 N     -0.159  1.237  3.922  0.000    24.437     7.342
 262   1 H      0.227  0.773  0.000  0.000     0.977     1.548
 263   1 H      0.069  0.931  0.000  0.000     2.101     2.267
 264   1 H      0.075  0.925  0.000  0.000     2.027     2.226
 265   1 H      0.100  0.900  0.000  0.000     1.783     2.088
 266   1 H      0.052  0.948  0.000  0.000     2.297     2.370
 267   1 H      0.065  0.935  0.000  0.000     2.137     2.286
 268   1 H      0.086  0.914  0.000  0.000     1.916     2.165
 269   1 H      0.089  0.911  0.000  0.000     1.885     2.147
 270   1 H      0.113  0.887  0.000  0.000     1.675     2.024
 271   1 H      0.097  0.903  0.000  0.000     1.816     2.107
 272   1 H      0.295  0.705  0.000  0.000     0.727     1.336
 273   1 H      0.293  0.707  0.000  0.000     0.734     1.343
 274   1 H      0.291  0.709  0.000  0.000     0.740     1.348
 275   7 N     -0.395  1.307  4.088  0.000    30.228     8.166
 276   6 C     -0.013  1.045  2.969  0.000    20.905     6.526
 277   6 C      0.195  1.094  2.711  0.000    23.837     7.996
 278   8 O     -0.371  1.740  4.631  0.000    21.107     6.160
 279   1 H      0.164  0.836  0.000  0.000     1.308     1.792
 280   1 H      0.103  0.897  0.000  0.000     1.762     2.076
 281   1 H      0.088  0.912  0.000  0.000     1.900     2.155
 282   7 N     -0.380  1.313  4.067  0.000    29.821     8.110
 283   6 C      0.036  1.058  2.907  0.000    19.985     6.367
 284   6 C      0.209  1.086  2.705  0.000    23.566     7.950
 285   8 O     -0.374  1.757  4.617  0.000    21.171     6.169
 286   6 C     -0.011  1.061  2.950  0.000    20.738     6.477
 287   6 C     -0.105  1.033  3.072  0.000    22.569     6.774
 288   6 C     -0.108  1.038  3.071  0.000    22.624     6.781
 289   1 H      0.175  0.825  0.000  0.000     1.244     1.747
 290   1 H      0.046  0.954  0.000  0.000     2.371     2.408
 291   1 H      0.039  0.961  0.000  0.000     2.458     2.452
 292   1 H      0.034  0.966  0.000  0.000     2.529     2.487
 293   1 H      0.057  0.943  0.000  0.000     2.240     2.340
 294   1 H      0.040  0.960  0.000  0.000     2.453     2.449
 295   1 H      0.033  0.967  0.000  0.000     2.545     2.495
 296   1 H      0.027  0.973  0.000  0.000     2.630     2.536
 297   1 H      0.037  0.963  0.000  0.000     2.484     2.465
 298   1 H      0.186  0.814  0.000  0.000     1.181     1.702
 299   1 H      0.066  0.934  0.000  0.000     2.133     2.284
 300   1 H      0.197  0.803  0.000  0.000     1.121     1.658
 301   1 H      0.054  0.946  0.000  0.000     2.271     2.357
 302   1 H      0.190  0.810  0.000  0.000     1.158     1.686
 303   1 H      0.072  0.928  0.000  0.000     2.060     2.244
 304   1 H      0.183  0.817  0.000  0.000     1.198     1.714
 305   1 H      0.078  0.922  0.000  0.000     2.004     2.214
 306   1 H      0.186  0.814  0.000  0.000     1.180     1.701
 307   1 H      0.081  0.919  0.000  0.000     1.967     2.193
 308   1 H      0.184  0.816  0.000  0.000     1.192     1.710
 309   1 H      0.057  0.943  0.000  0.000     2.229     2.334

 Mol. C6AA /au·bohr⁶  :     889390.766720
 Mol. C8AA /au·bohr⁸  :   19962276.325250
 Mol. α(0) /au        :       1415.297516

 
molecular dipole:
                 x           y           z       tot (Debye)
 q only:        0.079      34.043     -29.717
   full:       -0.042      30.772     -26.929     103.936
molecular quadrupole (traceless):
                xx          xy          yy          xz          yz          zz
 q only:     2029.599     -57.788   10024.695    -356.318    4780.597  -12054.294
  q+dip:     1823.742    -108.478    9052.271    -344.348    4295.978  -10876.014
   full:     1822.268    -110.864    9051.799    -344.665    4297.000  -10874.067
speedup  1.78
cpu  time for grad    6.08 s
wall time for grad    3.42 s

SCC energy    :    -482.1280361
rep           :       5.8368268
ES            :       1.6078365
AES           :      -0.1120525
AXC           :       0.1599482
disp          :      -0.4019939
XB            :       0.0000000
fix           :       0.0000000
Gborn         :       0.0000000
Gsasa         :       0.0000000
Ghb           :       0.0000000
Gshift        :       0.0000000
Gsolv         :      -0.4692833     -294.48
Etot ala COSMO:    -482.1280361
grad norm     :       0.5406655
total E       :    -476.2524805
atomizationE  :      86.3601404    54191.81
(atE without considering molecular charge,
 total energy contains solvation terms)
H-L gap (eV)  :          1.7234

------------------------------------------------------------------------
 * finished run on 2019/05/12 at 13:12:39.411     
------------------------------------------------------------------------
 total:
 * wall-time:     0 d,  0 h,  0 min,  4.063 sec
 *  cpu-time:     0 d,  0 h,  0 min,  6.902 sec
 * ratio c/w:     1.699 speedup
 SCF:
 * wall-time:     0 d,  0 h,  0 min,  3.681 sec
 *  cpu-time:     0 d,  0 h,  0 min,  6.602 sec
 * ratio c/w:     1.793 speedup

