      -----------------------------------------------------------      
     |                   =====================                   |     
     |                           x T B                           |     
     |                   =====================                   |     
     |                         S. Grimme                         |     
     |          Mulliken Center for Theoretical Chemistry        |     
     |                    University of Bonn                     |     
     |                 Version 6.0.1 (SAW181210)                 |     
      -----------------------------------------------------------      

   This program is distributed in the hope that it will be useful,
   but WITHOUT ANY WARRANTY; without even the implied warranty of
   MERCHANTABILITY or FITNESS FOR A PARTICULAR PURPOSE.
   
   FOR NON-COMMERCIAL, ACADEMIA USE ONLY.
   
   Cite this work as:
   S. Grimme, C. Bannwarth, P. Shushkov, J. Comput. Theory Chem., 2017,
   13, 1989-2009.
   C. Bannwarth, S. Ehlert and S. Grimme., ChemRxiv, 2018, preprint.
   http://doi.org/10.26434/chemrxiv.7246238.v1
   
   for sTDA-xTB:
   S. Grimme and C. Bannwarth, J. Chem. Phys., 2016, 145, 054103.
   
   in the mass-spec context:
   V. Asgeirsson, C. Bauer and S. Grimme, Chem. Sci., 2017, 8, 4879.
   
   if GBSA is used:
   P. Shushkov, F. März and S. Grimme, unpublished.
   
   for ANC optimizer:
   S. Grimme, unpublished.
   Rational Function algorithm used in ANCopt:
   F. Eckert, P. Pulay, H.-J. Werner, J. Comput. Chem., 1997, 18, 1473.
   
   with help from (in alphabetical order)
   C. Bannwarth, F. Bohle, G. Brandenburg, E. Caldeweyher, M. Checinski,
   S. Dohm, S. Ehlert, S. Ehrlich, F. März, H. Neugebauer, J. Pisarek,
   P. Pracht, P. Shushkov, and S. Spicher.
   
 * started run on 2019/05/11 at 08:36:40.726     
========================================================================
 # omp threads = 2
========================================================================
number of atoms            : 497
number of electrons        : 1252
charge                     : 1
spin                       : .0
first test random number   : .4630

########################################################################
# WARNING! Please study the warnings concerning your input carefully
#  - Process number higher than OMP_NUM_THREADS, I hope you know what you are doing.
########################################################################

           ------------------------------------------------- 
          |                 G F N 2 - x T B                 |
          | Geometry, Frequencies, Noncovalent interactions |
          |            JCTC 2018 parametrisation            |
           ------------------------------------------------- 
 
      method parameters     
 k(s)        :  1.8500
 k(p)        :  2.2300
 k(d)        :  2.2300
 k(f)        :  2.0000
 kEN (H0ij)  : -2.0000
 D4 a1       :  0.5200
 D4 a2       :  5.0000
 D4 s6       :  1.0000
 D4 s8       :  2.7000
 D4 s9       :  5.0000
 alphaj      :  2.0000

 Solvent             : h2o
 Using internal parameter file: .param_gbsa2_h2o
 Gsolv ref. state (COSMO-RS): gsolv [1 M gas/solution]
 temperature (mdtemp)       :    298.150000000000     
 dielectric constant        :    80.2000000000000     
 rho                        :    1.00000000000000     
 mass                       :    18.0000000000000     
 surface tension            :    15.5689454083859     
 probe radius               :   0.975313790000000     
 vdW radii scaling          :    1.00000000000000     
 Gshift (Eh)                :   1.857443126794793E-003
 c1                         :    1.55243817000000     
 soset                      :   0.130326360000000     
 HB correction              :  T

            Z     q(EN)     CN     RAES       Cart. coordinates
     1  N   5.0   -0.21    3.21    1.96    90.88583    19.32724    -5.37923
     2  C   4.0    0.03    4.23    4.07    90.14145    20.98860    -3.33583
     3  C   4.0    0.08    3.21    3.04    91.70689    20.38215    -0.97999
     4  O   6.0   -0.32    1.17    1.80    92.84822    22.00432     0.21865
     5  C   4.0   -0.04    4.33    4.26    87.30722    20.67238    -2.83453
     6  C   4.0   -0.01    3.57    3.15    86.36036    22.64909    -1.03624
     7  C   4.0   -0.04    3.47    3.10    86.16562    25.14955    -1.81416
     8  C   4.0   -0.04    3.46    3.10    85.68775    22.01475     1.41457
     9  C   4.0   -0.04    3.37    3.07    85.34661    26.99063    -0.15242
    10  C   4.0   -0.05    3.38    3.07    84.84095    23.85299     3.06943
    11  C   4.0   -0.04    3.37    3.07    84.68375    26.34681     2.29616
    12  H   1.0    0.08    1.03    1.43    89.48661    18.31335    -6.21242
    13  H   1.0    0.04    1.05    1.44    90.54757    22.95589    -3.86086
    14  H   1.0    0.04    1.03    1.43    86.32451    20.83837    -4.64166
    15  H   1.0    0.04    1.03    1.43    86.96898    18.78048    -2.08936
    16  H   1.0    0.05    1.03    1.43    86.65226    25.63678    -3.73666
    17  H   1.0    0.05    1.03    1.43    85.82821    20.06894     2.01071
    18  H   1.0    0.05    1.03    1.43    85.21676    28.93347    -0.76156
    19  H   1.0    0.04    1.03    1.43    84.31044    23.34012     4.97022
    20  H   1.0    0.04    1.03    1.43    84.04359    27.78579     3.59041
    21  N   5.0   -0.20    3.25    1.97    97.88088    23.64720    -1.18049
    22  C   4.0    0.03    4.39    4.37    98.03551    26.35453    -0.73233
    23  C   4.0    0.15    3.44    3.09    97.80421    26.90149     2.09671
    24  O   6.0   -0.31    1.26    1.80    99.12583    28.50768     3.12104
    25  C   4.0   -0.02    4.32    4.23    96.20352    27.94185    -2.32966
    26  C   4.0   -0.04    4.19    3.98    93.42489    27.54950    -1.64055
    27  C   4.0   -0.07    4.14    3.89    96.69665    27.41844    -5.11786
    28  C   4.0   -0.08    4.03    3.67    91.62847    29.01934    -3.35247
    29  H   1.0    0.09    1.02    1.43    96.57662    22.89595    -2.35822
    30  H   1.0    0.05    1.06    1.44    99.95591    26.96765    -1.23949
    31  H   1.0    0.05    1.06    1.44    96.70751    29.91169    -1.93515
    32  H   1.0    0.06    1.04    1.43    92.97535    25.54654    -1.73802
    33  H   1.0    0.04    1.03    1.43    93.12360    28.14942     0.30935
    34  H   1.0    0.04    1.01    1.43    95.56422    28.67888    -6.26958
    35  H   1.0    0.05    1.00    1.43    98.67144    27.74285    -5.55379
    36  H   1.0    0.04    1.00    1.43    96.22135    25.48050    -5.60896
    37  H   1.0    0.04    1.00    1.43    89.74810    29.00435    -2.53362
    38  H   1.0    0.04    1.00    1.43    92.24104    30.97187    -3.53430
    39  H   1.0    0.04    1.00    1.43    91.51793    28.18040    -5.22561
    40  N   5.0   -0.15    3.49    2.07    96.06832    25.54258     3.32371
    41  C   4.0    0.03    4.42    4.41    95.79152    25.73042     6.04121
    42  C   4.0    0.09    3.31    3.06    98.35938    25.26314     7.25794
    43  O   6.0   -0.32    1.16    1.80    99.35594    26.78569     8.69594
    44  C   4.0   -0.03    4.33    4.25    93.84492    23.83285     7.04916
    45  C   4.0   -0.05    4.18    3.96    91.17106    24.38855     6.07269
    46  C   4.0   -0.08    4.15    3.90    93.92123    23.81639     9.93688
    47  C   4.0   -0.08    4.02    3.66    90.10632    26.93485     6.89368
    48  H   1.0    0.10    1.09    1.44    94.99895    24.26121     2.38958
    49  H   1.0    0.05    1.05    1.44    95.24206    27.66464     6.55170
    50  H   1.0    0.04    1.06    1.44    94.39346    21.95763     6.36608
    51  H   1.0    0.05    1.03    1.43    91.13548    24.27428     4.01377
    52  H   1.0    0.03    1.03    1.43    89.94925    22.88742     6.78001
    53  H   1.0    0.04    1.00    1.43    92.39784    22.65837    10.67603
    54  H   1.0    0.04    1.00    1.43    95.69488    23.03431    10.61880
    55  H   1.0    0.04    1.00    1.43    93.73354    25.72230    10.67549
    56  H   1.0    0.04    1.00    1.43    88.21828    27.16782     6.12568
    57  H   1.0    0.04    1.00    1.43    90.00306    27.06365     8.93904
    58  H   1.0    0.04    1.00    1.43    91.25142    28.48865     6.19510
    59  N   5.0   -0.19    3.23    1.96   103.42472    30.33622     6.36663
    60  C   4.0    0.03    4.30    4.19   102.96050    32.39825     8.11873
    61  C   4.0    0.15    3.45    3.09   104.03487    31.77591    10.72477
    62  O   6.0   -0.31    1.27    1.80   105.38788    33.29002    11.86356
    63  C   4.0   -0.04    4.36    4.30   100.10595    32.89389     8.21571
    64  C   4.0   -0.03    4.18    3.96    99.20883    34.77238    10.23280
    65  C   4.0   -0.08    4.10    3.80   100.03684    37.47714     9.66875
    66  C   4.0   -0.08    4.11    3.83    96.32734    34.68109    10.38670
    67  H   1.0    0.12    1.05    1.44   101.89969    29.52803     5.52349
    68  H   1.0    0.05    1.05    1.44   103.97622    34.08193     7.45733
    69  H   1.0    0.05    1.03    1.43    99.53080    33.58602     6.36117
    70  H   1.0    0.06    1.04    1.43    99.18125    31.07840     8.53666
    71  H   1.0    0.04    1.06    1.44    99.97906    34.19844    12.06094
    72  H   1.0    0.04    1.00    1.43    99.30885    38.74554    11.11204
    73  H   1.0    0.05    1.00    1.43   102.08018    37.64271     9.63776
    74  H   1.0    0.04    1.00    1.43    99.29845    38.08260     7.84825
    75  H   1.0    0.04    1.00    1.43    95.63754    35.87050    11.91334
    76  H   1.0    0.04    1.00    1.43    95.52231    35.36131     8.62332
    77  H   1.0    0.04    1.00    1.43    95.65620    32.76613    10.70693
    78  N   5.0   -0.15    3.47    2.06   103.35612    29.58069    11.74579
    79  C   4.0    0.04    4.43    4.43   104.05499    29.06371    14.34021
    80  C   4.0    0.09    3.26    3.05   106.90173    28.72238    14.68352
    81  O   6.0   -0.28    1.12    1.80   107.97754    29.57470    16.55245
    82  C   4.0   -0.03    4.25    4.10   102.63246    26.80940    15.51986
    83  C   4.0   -0.08    4.16    3.91    99.90529    26.78546    14.59667
    84  C   4.0   -0.07    4.13    3.86   103.89477    24.27769    14.98347
    85  H   1.0    0.10    1.08    1.44   102.24062    28.35655    10.79106
    86  H   1.0    0.05    1.07    1.44   103.56254    30.76121    15.42238
    87  H   1.0    0.04    1.05    1.44   102.66172    27.11621    17.56710
    88  H   1.0    0.04    1.00    1.43    98.74970    25.60604    15.81167
    89  H   1.0    0.04    1.01    1.43    99.14381    28.68442    14.56740
    90  H   1.0    0.06    1.02    1.43    99.78306    26.03185    12.69425
    91  H   1.0    0.04    1.00    1.43   102.72429    22.74883    15.69552
    92  H   1.0    0.05    1.00    1.43   104.14467    24.02159    12.96162
    93  H   1.0    0.05    1.00    1.43   105.73494    24.14937    15.89207
    94  N   5.0   -0.19    3.21    1.96   106.66346    36.20590    16.51002
    95  C   4.0    0.04    4.29    4.19   105.52919    36.04623    19.00391
    96  C   4.0    0.09    3.22    3.04   107.47069    35.20688    20.98456
    97  O   6.0   -0.28    1.11    1.80   107.88303    36.50216    22.86219
    98  C   4.0   -0.02    4.31    4.22   103.19762    34.31833    19.04283
    99  C   4.0   -0.05    4.18    3.97   101.24386    35.05291    17.01772
   100  C   4.0   -0.07    4.14    3.88   101.99389    34.32531    21.66371
   101  C   4.0   -0.08    4.02    3.66    99.80885    37.49764    17.53486
   102  H   1.0    0.11    1.05    1.44   105.85539    35.27277    15.04781
   103  H   1.0    0.05    1.06    1.44   104.95836    37.95828    19.58367
   104  H   1.0    0.05    1.06    1.44   103.86254    32.39633    18.65434
   105  H   1.0    0.05    1.03    1.43   102.18074    35.22553    15.19031
   106  H   1.0    0.03    1.03    1.43    99.87768    33.51285    16.86687
   107  H   1.0    0.04    1.00    1.43   100.20730    33.31436    21.60340
   108  H   1.0    0.05    1.00    1.43   103.21581    33.41696    23.03929
   109  H   1.0    0.04    1.00    1.43   101.65078    36.25006    22.28830
   110  H   1.0    0.03    1.00    1.43    98.59325    37.92299    15.93489
   111  H   1.0    0.04    1.00    1.43    98.61764    37.32303    19.19600
   112  H   1.0    0.04    1.00    1.43   101.09079    39.07847    17.79782
   113  N   5.0   -0.22    3.24    1.96    97.60989    14.43911    27.02270
   114  C   4.0    0.02    4.32    4.24    94.97533    14.17171    26.29906
   115  C   4.0    0.14    3.46    3.10    93.48900    16.53183    27.06552
   116  O   6.0   -0.32    1.27    1.80    91.89744    17.49174    25.67791
   117  C   4.0   -0.04    4.34    4.27    93.87532    11.81173    27.57653
   118  C   4.0   -0.01    3.57    3.15    91.12881    11.43293    26.97097
   119  C   4.0   -0.04    3.46    3.10    90.41595     9.93020    24.94081
   120  C   4.0   -0.03    3.47    3.10    89.26503    12.56229    28.43755
   121  C   4.0   -0.03    3.37    3.07    87.89115     9.58293    24.36543
   122  C   4.0   -0.04    3.37    3.07    86.73975    12.20925    27.87170
   123  C   4.0   -0.04    3.37    3.07    86.04445    10.72093    25.83300
   124  H   1.0    0.08    1.02    1.43    98.46571    12.94420    27.86552
   125  H   1.0    0.04    1.05    1.44    94.81685    13.98893    24.23651
   126  H   1.0    0.04    1.03    1.43    94.98365    10.19943    26.92008
   127  H   1.0    0.04    1.03    1.43    94.13725    12.02984    29.60869
   128  H   1.0    0.06    1.03    1.43    91.86718     9.01960    23.82558
   129  H   1.0    0.05    1.03    1.43    89.82001    13.70523    30.03701
   130  H   1.0    0.07    1.03    1.43    87.37545     8.43451    22.76047
   131  H   1.0    0.05    1.03    1.43    85.31076    13.09399    29.02762
   132  H   1.0    0.05    1.03    1.43    84.07424    10.44082    25.39790
   133  N   5.0   -0.15    3.51    2.09    93.96976    17.40029    29.37424
   134  C   4.0    0.03    4.51    4.55    92.70599    19.62633    30.33950
   135  C   4.0    0.15    3.48    3.11    93.37182    21.95647    28.76214
   136  O   6.0   -0.32    1.27    1.80    91.72097    23.37968    27.96967
   137  C   4.0   -0.03    4.33    4.25    93.31866    19.97838    33.15893
   138  C   4.0   -0.05    4.19    3.98    92.10499    17.81468    34.66568
   139  C   4.0   -0.07    4.14    3.87    92.42260    22.56159    34.07671
   140  C   4.0   -0.07    4.01    3.64    92.66170    17.92293    37.49116
   141  H   1.0    0.07    1.07    1.44    95.33960    16.58275    30.42880
   142  H   1.0    0.05    1.06    1.44    90.65931    19.36327    30.08873
   143  H   1.0    0.04    1.05    1.44    95.37667    19.87378    33.35126
   144  H   1.0    0.04    1.03    1.43    90.06312    17.86123    34.37077
   145  H   1.0    0.04    1.03    1.43    92.82192    16.02851    33.92224
   146  H   1.0    0.04    1.00    1.43    92.95562    22.83233    36.03754
   147  H   1.0    0.05    1.01    1.43    93.29324    24.05790    32.97015
   148  H   1.0    0.05    1.00    1.43    90.38280    22.72397    33.89727
   149  H   1.0    0.04    1.00    1.43    91.95267    16.22437    38.40149
   150  H   1.0    0.04    1.00    1.43    94.68858    18.03738    37.81457
   151  H   1.0    0.04    1.00    1.43    91.76194    19.54629    38.36515
   152  N   5.0   -0.15    3.49    2.07    95.82599    22.38041    28.32485
   153  C   4.0    0.03    4.52    4.56    96.54782    24.67158    27.02065
   154  C   4.0    0.15    3.46    3.10    95.99477    24.60454    24.17901
   155  O   6.0   -0.33    1.28    1.80    95.74605    26.60366    23.01866
   156  C   4.0   -0.03    4.33    4.25    99.29495    25.50521    27.48874
   157  C   4.0   -0.05    4.20    4.00   101.16816    24.01193    25.87002
   158  C   4.0   -0.08    4.13    3.87    99.90794    25.35828    30.30268
   159  C   4.0   -0.07    4.02    3.66   103.88816    24.86186    26.27127
   160  H   1.0    0.07    1.06    1.44    97.16506    21.21277    29.02408
   161  H   1.0    0.05    1.07    1.44    95.31674    26.17580    27.76679
   162  H   1.0    0.04    1.06    1.44    99.39634    27.48234    26.87912
   163  H   1.0    0.04    1.03    1.43   101.01403    21.99683    26.28097
   164  H   1.0    0.04    1.03    1.43   100.68913    24.26034    23.87537
   165  H   1.0    0.04    1.00    1.43   101.66011    26.34545    30.70353
   166  H   1.0    0.04    1.00    1.43    98.40349    26.21904    31.40416
   167  H   1.0    0.04    1.00    1.43   100.12854    23.40285    30.89663
   168  H   1.0    0.04    1.00    1.43   105.11611    23.93283    24.90966
   169  H   1.0    0.04    1.00    1.43   104.04633    26.89868    26.03835
   170  H   1.0    0.04    1.00    1.43   104.56544    24.34266    28.14113
   171  N   5.0   -0.14    3.52    2.09    95.74950    22.34975    23.09970
   172  C   4.0    0.03    4.48    4.51    95.09210    22.09513    20.44963
   173  C   4.0    0.16    3.45    3.10    92.28869    22.80738    20.18195
   174  O   6.0   -0.31    1.24    1.80    91.53372    24.11360    18.42595
   175  C   4.0   -0.03    4.31    4.21    95.86433    19.47301    19.43633
   176  C   4.0   -0.05    4.18    3.95    96.22469    19.51737    16.56169
   177  C   4.0   -0.07    4.14    3.89    93.99276    17.41673    20.17129
   178  C   4.0   -0.08    4.01    3.64    97.50773    17.14220    15.54510
   179  H   1.0    0.08    1.07    1.44    96.23816    20.76676    24.05157
   180  H   1.0    0.05    1.06    1.44    96.13603    23.54749    19.38929
   181  H   1.0    0.04    1.06    1.44    97.68962    19.04682    20.32735
   182  H   1.0    0.04    1.03    1.43    94.37938    19.74496    15.66945
   183  H   1.0    0.04    1.03    1.43    97.37889    21.15064    16.05629
   184  H   1.0    0.04    1.00    1.43    94.81244    15.57502    19.79138
   185  H   1.0    0.06    1.03    1.43    93.55533    17.50432    22.16763
   186  H   1.0    0.05    1.01    1.43    92.24796    17.60423    19.10268
   187  H   1.0    0.04    1.00    1.43    97.81452    17.33014    13.52375
   188  H   1.0    0.04    1.00    1.43    99.32949    16.85681    16.45898
   189  H   1.0    0.05    1.00    1.43    96.36159    15.47015    15.86349
   190  N   5.0   -0.14    3.52    2.09    90.79336    22.06364    22.07653
   191  C   4.0    0.04    4.35    4.29    88.16701    22.84904    22.20164
   192  C   4.0    0.16    3.47    3.10    88.05052    25.74577    22.22191
   193  O   6.0   -0.31    1.26    1.80    86.72201    26.95029    20.75802
   194  C   4.0   -0.07    4.12    3.83    86.93237    21.74011    24.55172
   195  H   1.0    0.10    1.08    1.44    91.38114    20.82061    23.40468
   196  H   1.0    0.05    1.06    1.44    87.18280    22.20432    20.49278
   197  H   1.0    0.04    1.00    1.43    84.91634    22.11577    24.52031
   198  H   1.0    0.05    1.01    1.43    87.23889    19.71280    24.58837
   199  H   1.0    0.06    1.01    1.43    87.75421    22.53911    26.25469
   200  N   5.0   -0.14    3.49    2.07    89.51694    26.84295    23.96384
   201  C   4.0    0.04    4.43    4.43    89.70381    29.56880    24.20101
   202  C   4.0    0.17    3.56    3.14    90.22957    30.79683    21.63521
   203  O   6.0   -0.32    1.34    1.80    88.94937    32.55944    20.84543
   204  C   4.0   -0.04    4.34    4.27    91.82156    30.27725    26.05325
   205  C   4.0   -0.01    3.61    3.17    92.53567    33.01383    25.75689
   206  C   4.0   -0.04    3.47    3.10    90.80750    34.92434    26.26155
   207  C   4.0   -0.04    3.47    3.10    94.92464    33.65303    24.87991
   208  C   4.0   -0.04    3.38    3.07    91.43813    37.42199    25.82847
   209  C   4.0   -0.04    3.37    3.07    95.56416    36.15359    24.47132
   210  C   4.0   -0.04    3.37    3.07    93.81011    38.04243    24.91207
   211  H   1.0    0.10    1.09    1.44    90.42191    25.76098    25.26305
   212  H   1.0    0.05    1.05    1.44    87.89182    30.34382    24.85459
   213  H   1.0    0.04    1.02    1.43    91.19449    29.87637    27.97728
   214  H   1.0    0.06    1.05    1.44    93.47080    29.12059    25.62376
   215  H   1.0    0.05    1.03    1.43    88.96251    34.43636    26.98548
   216  H   1.0    0.05    1.03    1.43    96.28205    32.17165    24.50986
   217  H   1.0    0.05    1.03    1.43    90.08445    38.89471    26.21832
   218  H   1.0    0.04    1.03    1.43    97.43286    36.62574    23.80583
   219  H   1.0    0.05    1.03    1.43    94.30279    39.98518    24.54313
   220  N   5.0   -0.14    3.51    2.08    92.19450    29.90495    20.34737
   221  C   4.0    0.04    4.37    4.33    92.88096    31.05311    17.95663
   222  C   4.0    0.16    3.50    3.12    90.61323    31.23478    16.17744
   223  O   6.0   -0.32    1.30    1.80    90.24758    33.11543    14.87529
   224  C   4.0   -0.08    4.14    3.88    94.96604    29.53211    16.71538
   225  H   1.0    0.11    1.09    1.44    93.37404    28.59576    21.09545
   226  H   1.0    0.04    1.05    1.44    93.53464    32.99545    18.27944
   227  H   1.0    0.04    1.00    1.43    95.52728    30.45635    14.97032
   228  H   1.0    0.04    1.00    1.43    96.56804    29.43464    17.99615
   229  H   1.0    0.05    1.00    1.43    94.30909    27.62995    16.30073
   230  N   5.0   -0.14    3.51    2.08    89.13253    29.20034    16.04779
   231  C   4.0    0.03    4.45    4.46    86.88358    29.25635    14.48614
   232  C   4.0    0.16    3.49    3.11    85.14116    31.41058    15.32569
   233  O   6.0   -0.32    1.31    1.80    84.20982    32.88447    13.79379
   234  C   4.0   -0.05    4.36    4.31    85.53641    26.71422    14.60298
   235  C   4.0   -0.03    4.19    3.99    83.28117    26.55780    12.79719
   236  C   4.0   -0.08    4.11    3.81    84.13605    26.49633    10.04216
   237  C   4.0   -0.08    4.11    3.82    81.72725    24.21304    13.41323
   238  H   1.0    0.11    1.07    1.44    89.51187    27.62049    17.05613
   239  H   1.0    0.05    1.06    1.44    87.43760    29.69315    12.53484
   240  H   1.0    0.04    1.03    1.43    86.90329    25.24341    14.12708
   241  H   1.0    0.06    1.03    1.43    84.91710    26.38871    16.54374
   242  H   1.0    0.04    1.06    1.44    82.08180    28.22203    13.06586
   243  H   1.0    0.04    1.00    1.43    82.51392    26.29579     8.79804
   244  H   1.0    0.04    1.00    1.43    85.10385    28.23293     9.52972
   245  H   1.0    0.03    1.00    1.43    85.41471    24.91972     9.72349
   246  H   1.0    0.03    1.00    1.43    80.17097    24.06502    12.08547
   247  H   1.0    0.04    1.00    1.43    82.89233    22.52452    13.27800
   248  H   1.0    0.04    1.00    1.43    80.97132    24.32978    15.32086
   249  N   5.0   -0.13    3.50    2.08    84.69506    31.54154    17.79474
   250  C   4.0    0.04    4.41    4.39    83.13042    33.51397    18.89412
   251  C   4.0    0.17    3.49    3.11    83.85914    36.12386    17.84983
   252  O   6.0   -0.31    1.24    1.80    82.30186    37.50691    16.83629
   253  C   4.0   -0.03    4.35    4.28    83.39699    33.40049    21.77982
   254  C   4.0   -0.01    3.56    3.14    81.97810    35.42329    23.17409
   255  C   4.0   -0.04    3.46    3.10    79.35347    35.41339    23.26112
   256  C   4.0   -0.04    3.46    3.10    83.28709    37.25722    24.52079
   257  C   4.0   -0.04    3.37    3.07    78.06097    37.19163    24.67523
   258  C   4.0   -0.04    3.38    3.07    81.99673    39.01846    25.96355
   259  C   4.0   -0.04    3.37    3.07    79.37895    38.98971    26.04832
   260  H   1.0    0.11    1.09    1.44    85.46146    30.22440    18.95708
   261  H   1.0    0.05    1.05    1.44    81.15616    33.20590    18.32756
   262  H   1.0    0.05    1.03    1.43    82.72145    31.54412    22.38668
   263  H   1.0    0.06    1.05    1.44    85.39986    33.53777    22.23512
   264  H   1.0    0.05    1.03    1.43    78.32516    33.97337    22.24307
   265  H   1.0    0.05    1.03    1.43    85.32769    37.25300    24.46821
   266  H   1.0    0.05    1.03    1.43    76.02209    37.14634    24.73964
   267  H   1.0    0.05    1.03    1.43    83.04102    40.33595    27.12200
   268  H   1.0    0.05    1.03    1.43    78.36095    40.32714    27.20190
   269  N   5.0   -0.14    3.49    2.07    86.25439    36.82090    18.26281
   270  C   4.0    0.03    4.48    4.51    87.13856    39.26260    17.38151
   271  C   4.0    0.16    3.50    3.11    86.82656    39.49842    14.50590
   272  O   6.0   -0.31    1.28    1.80    85.93735    41.42460    13.56415
   273  C   4.0   -0.03    4.29    4.18    89.82961    39.94892    18.31371
   274  C   4.0   -0.05    4.21    4.02    90.82521    42.24068    16.83313
   275  C   4.0   -0.07    4.13    3.86    91.68149    37.75106    18.16473
   276  C   4.0   -0.08    4.01    3.64    93.30338    43.30208    17.86188
   277  H   1.0    0.10    1.09    1.44    87.49440    35.55636    18.98336
   278  H   1.0    0.05    1.06    1.44    85.80737    40.67242    18.12416
   279  H   1.0    0.04    1.06    1.44    89.66893    40.47812    20.30730
   280  H   1.0    0.04    1.03    1.43    91.09961    41.69855    14.86142
   281  H   1.0    0.04    1.03    1.43    89.40138    43.73012    16.85503
   282  H   1.0    0.04    1.00    1.43    93.51556    38.35404    18.85946
   283  H   1.0    0.06    1.01    1.43    91.07181    36.18854    19.34804
   284  H   1.0    0.05    1.00    1.43    91.89340    37.08028    16.23568
   285  H   1.0    0.04    1.00    1.43    93.74243    45.07088    16.91467
   286  H   1.0    0.04    1.00    1.43    93.17611    43.65886    19.87930
   287  H   1.0    0.04    1.00    1.43    94.87196    42.02197    17.52043
   288  N   5.0   -0.14    3.49    2.07    87.52583    37.50588    13.13888
   289  C   4.0    0.04    4.45    4.46    87.31755    37.55922    10.40977
   290  C   4.0    0.17    3.51    3.12    84.66641    38.40463     9.60603
   291  O   6.0   -0.30    1.26    1.80    84.32937    40.11572     8.07788
   292  C   4.0   -0.04    4.34    4.28    87.91176    34.93503     9.33413
   293  C   4.0   -0.02    3.57    3.15    87.77328    34.90927     6.50043
   294  C   4.0   -0.04    3.47    3.10    89.84415    35.65179     5.06829
   295  C   4.0   -0.04    3.47    3.10    85.58229    34.16041     5.26538
   296  C   4.0   -0.04    3.37    3.07    89.73475    35.63126     2.45874
   297  C   4.0   -0.04    3.37    3.07    85.46409    34.14827     2.65433
   298  C   4.0   -0.04    3.37    3.07    87.54368    34.87633     1.24324
   299  H   1.0    0.11    1.10    1.44    88.22961    35.91633    13.95114
   300  H   1.0    0.05    1.05    1.44    88.63689    38.96787     9.63927
   301  H   1.0    0.05    1.03    1.43    89.80644    34.40834     9.95836
   302  H   1.0    0.06    1.04    1.43    86.56021    33.59489    10.12350
   303  H   1.0    0.04    1.03    1.43    91.55618    36.23640     6.01677
   304  H   1.0    0.05    1.03    1.43    83.96269    33.57727     6.36441
   305  H   1.0    0.05    1.03    1.43    91.35964    36.19960     1.36064
   306  H   1.0    0.05    1.03    1.43    83.74637    33.57492     1.71210
   307  H   1.0    0.05    1.03    1.43    87.46228    34.85947    -0.79478
   308  N   5.0   -0.14    3.52    2.09    82.79396    37.07284    10.64200
   309  C   4.0    0.04    4.50    4.54    80.19126    37.42134     9.87732
   310  C   4.0    0.16    3.52    3.12    79.42268    40.17868    10.18701
   311  O   6.0   -0.31    1.31    1.80    78.40357    41.35892     8.46937
   312  C   4.0   -0.02    4.27    4.14    78.42766    35.66688    11.38031
   313  C   4.0   -0.07    4.13    3.87    75.66356    36.32719    10.87193
   314  C   4.0   -0.08    4.12    3.83    78.91978    32.91707    10.65861
   315  H   1.0    0.11    1.11    1.44    83.18498    35.70999    11.93120
   316  H   1.0    0.05    1.05    1.44    80.01025    37.01185     7.84590
   317  H   1.0    0.06    1.05    1.44    78.84491    35.92857    13.39032
   318  H   1.0    0.04    1.00    1.43    74.44098    34.97289    11.81344
   319  H   1.0    0.05    1.00    1.43    75.20568    38.21122    11.54661
   320  H   1.0    0.05    1.00    1.43    75.28526    36.26992     8.85166
   321  H   1.0    0.04    1.00    1.43    77.64308    31.68761    11.69519
   322  H   1.0    0.04    1.00    1.43    78.59579    32.64252     8.64794
   323  H   1.0    0.06    1.01    1.43    80.84695    32.37089    11.10211
   324  N   5.0   -0.14    3.49    2.07    79.80905    41.19584    12.46603
   325  C   4.0    0.04    4.42    4.42    78.77348    43.68108    12.99317
   326  C   4.0    0.16    3.46    3.10    80.00883    45.70512    11.32553
   327  O   6.0   -0.28    1.24    1.80    78.73875    47.32379    10.26551
   328  C   4.0   -0.05    4.26    4.11    78.85682    44.28217    15.81817
   329  C   4.0   -0.04    4.18    3.95    81.49113    44.58215    16.96573
   330  C   4.0   -0.05    4.18    3.95    81.27441    44.68712    19.85150
   331  C   4.0   -0.04    4.12    3.83    83.81136    45.27076    21.08985
   332  N   5.0   -0.12    4.01    2.89    83.56898    45.23682    23.89445
   333  H   1.0    0.10    1.07    1.44    80.59181    40.18264    13.88866
   334  H   1.0    0.06    1.06    1.44    76.78108    43.67452    12.39560
   335  H   1.0    0.05    1.03    1.43    77.77789    46.01549    16.10375
   336  H   1.0    0.04    1.03    1.43    77.86668    42.74596    16.77672
   337  H   1.0    0.06    1.03    1.43    82.68137    42.99624    16.41006
   338  H   1.0    0.04    1.03    1.43    82.35916    46.30962    16.25462
   339  H   1.0    0.04    1.03    1.43    79.89895    46.14167    20.34343
   340  H   1.0    0.05    1.03    1.43    80.56626    42.86705    20.51803
   341  H   1.0    0.04    1.02    1.43    85.20858    43.86228    20.53380
   342  H   1.0    0.04    1.02    1.43    84.47775    47.12879    20.49780
   343  H   1.0    0.05    1.02    1.43    85.28282    45.61699    24.73956
   344  H   1.0    0.06    1.02    1.43    82.27954    46.58067    24.46946
   345  H   1.0    0.05    1.02    1.43    82.93502    43.48697    24.49761
   346  N   5.0   -0.14    3.50    2.08    82.53022    45.60481    11.16212
   347  C   4.0    0.04    4.51    4.55    83.87140    47.40462     9.58786
   348  C   4.0    0.16    3.49    3.11    82.85619    47.31685     6.87515
   349  O   6.0   -0.27    1.23    1.80    82.30529    49.24013     5.70604
   350  C   4.0   -0.02    4.32    4.24    86.73787    46.93602     9.72803
   351  C   4.0   -0.05    4.19    3.97    87.69307    47.65698    12.37402
   352  C   4.0   -0.07    4.15    3.89    88.10099    48.41820     7.66346
   353  C   4.0   -0.08    4.02    3.66    90.55934    47.52505    12.64083
   354  H   1.0    0.10    1.08    1.44    83.51167    44.13214    11.89331
   355  H   1.0    0.06    1.06    1.44    83.44270    49.32094    10.26409
   356  H   1.0    0.06    1.05    1.44    87.05678    44.91395     9.41961
   357  H   1.0    0.04    1.03    1.43    87.07319    49.57676    12.80729
   358  H   1.0    0.05    1.03    1.43    86.83604    46.37325    13.73907
   359  H   1.0    0.04    1.00    1.43    90.09745    47.95154     7.64497
   360  H   1.0    0.06    1.01    1.43    87.32838    47.97052     5.81337
   361  H   1.0    0.05    1.00    1.43    87.89038    50.43900     7.97333
   362  H   1.0    0.04    1.00    1.43    91.09305    47.87933    14.59114
   363  H   1.0    0.04    1.00    1.43    91.25468    45.67252    12.09282
   364  H   1.0    0.04    1.00    1.43    91.47970    48.94169    11.47643
   365  N   5.0   -0.14    3.49    2.07    82.66948    45.00912     5.86282
   366  C   4.0    0.04    4.36    4.30    81.91535    44.69488     3.25069
   367  C   4.0    0.17    3.45    3.09    79.19998    45.59521     2.79054
   368  O   6.0   -0.26    1.24    1.80    78.67236    46.99803     1.02642
   369  C   4.0   -0.06    4.12    3.85    82.13677    41.93594     2.47196
   370  H   1.0    0.11    1.09    1.44    83.06092    43.42555     6.86629
   371  H   1.0    0.06    1.05    1.44    83.12247    45.89835     2.06340
   372  H   1.0    0.05    1.00    1.43    81.57134    41.73503     0.51028
   373  H   1.0    0.05    1.00    1.43    84.07257    41.29214     2.70096
   374  H   1.0    0.06    1.00    1.43    80.90730    40.78822     3.65063
   375  N   5.0   -0.13    3.47    2.06    77.49028    44.66755     4.39817
   376  C   4.0    0.06    4.34    4.28    74.80963    44.99627     3.97626
   377  C   4.0    0.11    3.26    3.05    74.12780    47.73595     3.38031
   378  O   6.0   -0.25    1.12    1.80    72.47961    48.24374     1.84172
   379  C   4.0   -0.03    4.31    4.21    73.27607    44.08365     6.24693
   380  C   4.0    0.16    3.21    3.04    72.55901    41.29811     6.00857
   381  O   6.0   -0.28    1.22    1.80    73.02668    40.01507     4.15435
   382  N   5.0   -0.19    3.18    1.95    71.34635    40.37143     8.03494
   383  H   1.0    0.12    1.11    1.45    78.01726    43.49522     5.82168
   384  H   1.0    0.08    1.06    1.44    74.22691    43.88746     2.31229
   385  H   1.0    0.06    1.03    1.43    74.35926    44.37799     7.97509
   386  H   1.0    0.06    1.03    1.43    71.53250    45.18160     6.36518
   387  H   1.0    0.09    1.03    1.43    70.67323    38.58872     7.96331
   388  H   1.0    0.08    1.03    1.43    70.83635    41.47973     9.48810
   389  N   5.0   -0.20    3.20    1.95    69.26418    24.42028     2.73359
   390  C   4.0    0.03    4.22    4.03    70.49243    24.73547     5.16879
   391  C   4.0    0.08    3.22    3.04    70.97633    22.17618     6.41482
   392  O   6.0   -0.32    1.15    1.80    73.09688    21.53386     7.07500
   393  C   4.0   -0.05    4.35    4.30    68.82765    26.39227     6.86191
   394  C   4.0   -0.02    4.18    3.96    69.90811    26.88665     9.50722
   395  C   4.0   -0.08    4.10    3.80    72.31403    28.47748     9.39169
   396  C   4.0   -0.08    4.10    3.81    67.88970    28.21962    11.08774
   397  H   1.0    0.08    1.03    1.43    67.99052    25.79515     2.27479
   398  H   1.0    0.05    1.05    1.44    72.34710    25.61886     4.88491
   399  H   1.0    0.04    1.03    1.43    68.53060    28.20052     5.91138
   400  H   1.0    0.04    1.03    1.43    66.99258    25.46496     7.06702
   401  H   1.0    0.04    1.05    1.44    70.34871    25.07171    10.40546
   402  H   1.0    0.04    1.00    1.43    72.89006    29.01177    11.28969
   403  H   1.0    0.04    1.00    1.43    73.85096    27.41230     8.54439
   404  H   1.0    0.04    1.00    1.43    71.98634    30.18438     8.29697
   405  H   1.0    0.04    1.00    1.43    68.58278    28.59103    12.98478
   406  H   1.0    0.04    1.00    1.43    67.36540    30.00251    10.21170
   407  H   1.0    0.04    1.00    1.43    66.20901    27.04492    11.24493
   408  N   5.0   -0.21    3.22    1.96    77.45236    18.12177     7.95821
   409  C   4.0    0.03    4.30    4.20    78.12272    17.37094    10.50531
   410  C   4.0    0.08    3.24    3.04    78.70707    14.54151    10.55558
   411  O   6.0   -0.32    1.17    1.80    80.55592    13.69424    11.68281
   412  C   4.0   -0.02    4.33    4.25    76.00387    18.03855    12.38221
   413  C   4.0   -0.05    4.19    3.99    75.78781    20.91637    12.63726
   414  C   4.0   -0.07    4.15    3.89    76.52118    16.83083    14.94943
   415  C   4.0   -0.08    4.01    3.64    73.58164    21.77406    14.27900
   416  H   1.0    0.11    1.05    1.44    75.79672    19.04537     7.68401
   417  H   1.0    0.04    1.05    1.44    79.87583    18.34237    11.06271
   418  H   1.0    0.05    1.05    1.44    74.23799    17.27109    11.62138
   419  H   1.0    0.03    1.03    1.43    77.53534    21.62175    13.46153
   420  H   1.0    0.05    1.03    1.43    75.56533    21.74768    10.76435
   421  H   1.0    0.04    1.00    1.43    74.99472    17.27369    16.24496
   422  H   1.0    0.05    1.01    1.43    76.63452    14.78573    14.79290
   423  H   1.0    0.04    1.00    1.43    78.29090    17.53487    15.72156
   424  H   1.0    0.04    1.00    1.43    73.38974    23.81569    14.16387
   425  H   1.0    0.04    1.00    1.43    71.82251    20.90942    13.65203
   426  H   1.0    0.04    1.00    1.43    73.87323    21.27189    16.24698
   427  N   5.0   -0.20    3.23    1.96    85.28046    12.94128     7.73161
   428  C   4.0    0.03    4.41    4.40    87.36158    14.12382     9.08055
   429  C   4.0    0.15    3.46    3.10    87.74550    12.90412    11.66611
   430  O   6.0   -0.29    1.22    1.80    89.76384    12.03501    12.38607
   431  C   4.0   -0.03    4.29    4.19    86.84131    16.95776     9.42363
   432  C   4.0   -0.08    4.14    3.87    88.80211    18.14405    11.17511
   433  C   4.0   -0.08    4.12    3.84    86.83552    18.28771     6.87013
   434  H   1.0    0.09    1.03    1.43    83.71383    13.98709     7.39459
   435  H   1.0    0.05    1.05    1.44    89.12038    13.84305     8.01213
   436  H   1.0    0.04    1.05    1.44    84.96229    17.15394    10.27567
   437  H   1.0    0.03    1.00    1.43    88.44548    20.15847    11.36714
   438  H   1.0    0.05    1.01    1.43    88.73945    17.31332    13.05337
   439  H   1.0    0.04    1.00    1.43    90.69089    17.87152    10.41150
   440  H   1.0    0.03    1.00    1.43    86.61406    20.30956     7.14739
   441  H   1.0    0.04    1.00    1.43    88.61171    17.95667     5.89051
   442  H   1.0    0.04    1.00    1.43    85.28084    17.62311     5.70763
   443  N   5.0   -0.15    3.51    2.09    85.67778    12.96541    13.11845
   444  C   4.0    0.04    4.40    4.39    85.71459    12.09101    15.69651
   445  C   4.0    0.09    3.21    3.04    85.72097     9.21503    15.83874
   446  O   6.0   -0.28    1.12    1.80    86.67839     8.10834    17.63648
   447  C   4.0   -0.04    4.32    4.24    83.50895    13.21593    17.17860
   448  C   4.0   -0.04    4.06    3.72    83.78866    16.06430    17.53832
   449  S   6.0   -0.05    2.59    3.10    86.90720    17.05357    18.62192
   450  C   4.0   -0.06    3.89    3.45    86.92124    15.57572    21.71892
   451  H   1.0    0.11    1.11    1.44    83.98240    13.47715    12.39060
   452  H   1.0    0.06    1.10    1.44    87.49875    12.72874    16.55345
   453  H   1.0    0.06    1.03    1.43    81.76388    12.86119    16.13729
   454  H   1.0    0.05    1.03    1.43    83.39657    12.27018    19.00561
   455  H   1.0    0.04    1.08    1.44    83.52037    17.04885    15.75164
   456  H   1.0    0.04    1.06    1.44    82.40707    16.75022    18.90248
   457  H   1.0    0.06    1.05    1.44    88.63562    16.17550    22.66846
   458  H   1.0    0.04    1.04    1.43    85.26178    16.18908    22.75689
   459  H   1.0    0.05    1.04    1.43    86.93615    13.53655    21.51808
   460  N   5.0   -0.20    3.19    1.95   109.33937    36.05257    -0.62176
   461  C   4.0    0.03    4.23    4.07   106.61654    35.81135    -0.33173
   462  C   4.0    0.09    3.23    3.04   105.30517    36.28529    -2.87365
   463  O   6.0   -0.28    1.11    1.80   103.96981    34.68384    -3.89260
   464  C   4.0   -0.04    4.32    4.23   105.65415    37.62189     1.70582
   465  C   4.0   -0.01    3.58    3.15   102.81135    37.76481     1.75813
   466  C   4.0   -0.03    3.48    3.11   101.34083    35.58948     1.79485
   467  C   4.0   -0.04    3.46    3.10   101.61858    40.10253     1.79510
   468  C   4.0   -0.04    3.38    3.07    98.73203    35.74970     1.85232
   469  C   4.0   -0.04    3.37    3.07    99.01028    40.26647     1.87701
   470  C   4.0   -0.04    3.37    3.07    97.55995    38.08892     1.90615
   471  H   1.0    0.09    1.02    1.43   110.23656    37.33304     0.49646
   472  H   1.0    0.05    1.05    1.44   106.19520    33.85688     0.20457
   473  H   1.0    0.04    1.03    1.43   106.35866    36.95893     3.52972
   474  H   1.0    0.04    1.03    1.43   106.43771    39.50171     1.38915
   475  H   1.0    0.06    1.03    1.43   102.22433    33.75297     1.77103
   476  H   1.0    0.05    1.03    1.43   102.74451    41.80444     1.76884
   477  H   1.0    0.05    1.03    1.43    97.61949    34.04009     1.84621
   478  H   1.0    0.05    1.03    1.43    98.11029    42.09723     1.89809
   479  H   1.0    0.05    1.03    1.43    95.52654    38.22271     1.96794
   480  H   1.0    0.09    1.07    1.44    91.59940    20.24167    -6.62310
   481  H   1.0    0.05    1.05    1.44    91.82955    18.60136    -0.35967
   482  H   1.0    0.09    1.07    1.44    99.35064    23.09514    -1.83440
   483  H   1.0    0.05    1.05    1.44    99.30019    23.66497     6.89489
   484  H   1.0    0.10    1.07    1.44   104.40458    30.88586     5.08979
   485  H   1.0    0.06    1.04    1.44   107.90663    27.79685    13.37791
   486  H   1.0    0.10    1.07    1.44   106.69643    37.82936    16.00421
   487  H   1.0    0.07    1.04    1.43   108.41690    33.58755    20.75318
   488  H   1.0    0.09    1.07    1.44    98.54767    14.76506    25.64180
   489  H   1.0    0.08    1.05    1.44    75.03358    49.14633     4.25293
   490  H   1.0    0.10    1.07    1.44    70.43744    24.41580     1.50232
   491  H   1.0    0.06    1.05    1.44    69.54169    20.98160     6.70781
   492  H   1.0    0.09    1.07    1.44    78.64150    19.17127     7.34416
   493  H   1.0    0.06    1.05    1.44    77.57280    13.32633     9.65678
   494  H   1.0    0.09    1.07    1.44    85.81181    12.43857     6.19619
   495  H   1.0    0.07    1.05    1.44    84.93610     8.19870    14.45232
   496  H   1.0    0.10    1.07    1.44   110.08084    34.55991    -0.28301
   497  H   1.0    0.06    1.05    1.44   105.52466    37.94208    -3.75567

  Z AO/shell   Hii/eV     exponent
  1     Wed Apr 25 08:07:45 CEST 2018   EN: 2.200 GM2: 0.406  GM3: 0.0800  RAES: 1.40
     1s    -10.707211    1.230000
  6     Wed Apr 25 08:07:45 CEST 2018   EN: 2.550 GM2: 0.538  GM3: 0.1500  RAES: 3.00
     2s    -13.970922    2.096432
     2p    -10.063292    1.800000
  7     Wed Apr 25 08:07:45 CEST 2018   EN: 3.040 GM2: 0.461  GM3:-0.0640  RAES: 1.90
     2s    -16.686243    2.339881
     2p    -12.523956    2.014332
  8     Wed Apr 25 08:07:45 CEST 2018   EN: 3.440 GM2: 0.452  GM3:-0.0517  RAES: 1.80
     2s    -20.229985    2.439742
     2p    -15.503117    2.137023
 16     Tue Apr 24 11:44:34 CEST 2018   EN: 2.580 GM2: 0.340  GM3:-0.0502  RAES: 3.10
     3s    -20.029654    1.981333
     3p    -11.377694    2.025643
     3d     -0.420282    1.702555
 no old-style atom pair restraining (fixing) potential

molecular fragmentation (1/2 indicates fragments):
111111111111111111112222222222222222222222222222222222222222222222222222
222222222222222222222222222222222222222222222222222222222222222222222222
222222222222222222222222222222222222222222222222222222222222222222222222
222222222222222222222222222222222222222222222222222222222222222222222222
222222222222222222222222222222222222222222222222222222222222222222222222
222222222222222222222222222222222222222222222222222222222222222222222222
22222222222222222222222222222222222222222222222112222222222222222
# atoms in fragment 1/2:    22   475
 fragment masses (1/2) :      149.19     2995.03
CMA distance (Bohr)    :  16.889
constraining FC (au)   :  0.0500
           ------------------------------------------------- 
          |        Self-Consistent Charge Iterations        |
           ------------------------------------------------- 

 Ncao       : 1172
 Nao        : 1171
 Nshell     : 721
 Nel        : 1252
 T(el)      :   500.0
 intcut     :    35.0
 scfconv/Eh :  0.100E-06
   qconv/e  :  0.100E-04
 intneglect :  0.100E-08
 broydamp   :      0.400
 iter      E             dE          RMSdq      gap      omega  full diag
   1   -702.9441429 -0.702944E+03  0.418E+00    2.71       0.0  T
   2   -704.2272343 -0.128309E+01  0.205E+00    1.75       1.0  T
   3   -704.2892638 -0.620295E-01  0.114E+00    2.09       1.0  T
   4   -704.4024746 -0.113211E+00  0.215E-01    1.54       1.0  T
   5   -704.4083562 -0.588152E-02  0.102E-01    1.70       1.0  T
   6   -704.4095203 -0.116416E-02  0.466E-02    1.68       1.0  T
   7   -704.4098115 -0.291223E-03  0.192E-02    1.66       1.0  T
   8   -704.4098416 -0.300967E-04  0.897E-03    1.65       1.0  T
   9   -704.4098497 -0.804315E-05  0.409E-03    1.65       1.1  T
  10   -704.4098514 -0.174328E-05  0.175E-03    1.65       2.6  T
  11   -704.4098517 -0.293420E-06  0.827E-04    1.65       5.4  T
  12   -704.4098518 -0.603683E-07  0.361E-04    1.65      12.4  T
  13   -704.4098518 -0.248068E-07  0.167E-04    1.65      26.8  T
  14   -704.4098518 -0.178943E-08  0.834E-05    1.65      53.8  T
  15   -704.4098518 -0.700993E-09  0.323E-05    1.65     138.7  T
speedup  2.00
cpu  time for SCC   29.01 s
wall time for SCC   14.51 s

   *** convergence criteria satisfied after 15 iterations ***

          eigenvalues
 #    :         614        615        616        617        618        619        620        621
 occ. :        2.000      2.000      2.000      2.000      2.000      2.000      2.000      2.000
 eps  :       -10.589    -10.565    -10.466    -10.459    -10.222    -10.213    -10.108     -9.945
 #    :         622        623        624        625        626        627        628        629
 occ. :        2.000      2.000      2.000      2.000      2.000      0.000      0.000      0.000
 eps  :        -9.875     -9.871     -9.777     -9.709     -9.598     -7.951     -7.895     -7.887
 #    :         630        631        632        633        634        635        636        637
 occ. :        0.000      0.000      0.000      0.000      0.000      0.000      0.000      0.000
 eps  :        -7.871     -7.841     -7.831     -7.667     -7.628     -7.534     -6.711     -6.554


   #   Z            q   n(s)   n(p)   n(d)      C6AA      α(0)
   1   7 N     -0.392  1.315  4.076  0.000    30.141     8.154
   2   6 C      0.045  1.055  2.900  0.000    19.828     6.343
   3   6 C      0.197  1.094  2.709  0.000    23.805     7.990
   4   8 O     -0.359  1.747  4.612  0.000    20.881     6.127
   5   6 C     -0.074  1.058  3.016  0.000    21.897     6.660
   6   6 C      0.006  1.081  2.913  0.000    27.880     8.661
   7   6 C     -0.039  1.079  2.960  0.000    28.977     8.828
   8   6 C     -0.044  1.082  2.962  0.000    29.096     8.846
   9   6 C     -0.031  1.079  2.951  0.000    28.768     8.796
  10   6 C     -0.033  1.080  2.952  0.000    28.815     8.803
  11   6 C     -0.034  1.079  2.955  0.000    28.846     8.807
  12   1 H      0.171  0.829  0.000  0.000     1.266     1.762
  13   1 H      0.046  0.954  0.000  0.000     2.376     2.410
  14   1 H      0.060  0.940  0.000  0.000     2.197     2.318
  15   1 H      0.057  0.943  0.000  0.000     2.238     2.340
  16   1 H      0.033  0.967  0.000  0.000     2.542     2.493
  17   1 H      0.040  0.960  0.000  0.000     2.444     2.445
  18   1 H      0.028  0.972  0.000  0.000     2.612     2.527
  19   1 H      0.046  0.954  0.000  0.000     2.373     2.409
  20   1 H      0.037  0.963  0.000  0.000     2.494     2.469
  21   7 N     -0.389  1.302  4.086  0.000    30.058     8.143
  22   6 C      0.032  1.062  2.906  0.000    20.041     6.376
  23   6 C      0.268  1.049  2.683  0.000    22.479     7.764
  24   8 O     -0.509  1.748  4.762  0.000    23.993     6.567
  25   6 C     -0.014  1.061  2.953  0.000    20.788     6.485
  26   6 C     -0.068  1.049  3.019  0.000    21.796     6.647
  27   6 C     -0.108  1.036  3.072  0.000    22.621     6.781
  28   6 C     -0.105  1.035  3.069  0.000    22.558     6.773
  29   1 H      0.157  0.843  0.000  0.000     1.357     1.825
  30   1 H      0.026  0.974  0.000  0.000     2.645     2.543
  31   1 H      0.020  0.980  0.000  0.000     2.729     2.583
  32   1 H      0.057  0.943  0.000  0.000     2.229     2.335
  33   1 H      0.028  0.972  0.000  0.000     2.616     2.529
  34   1 H      0.048  0.952  0.000  0.000     2.344     2.394
  35   1 H      0.031  0.969  0.000  0.000     2.570     2.507
  36   1 H      0.039  0.961  0.000  0.000     2.456     2.451
  37   1 H      0.044  0.956  0.000  0.000     2.391     2.418
  38   1 H      0.030  0.970  0.000  0.000     2.592     2.518
  39   1 H      0.035  0.965  0.000  0.000     2.511     2.478
  40   7 N     -0.172  1.247  3.925  0.000    24.733     7.386
  41   6 C      0.028  1.059  2.913  0.000    20.104     6.384
  42   6 C      0.205  1.086  2.709  0.000    23.638     7.963
  43   8 O     -0.358  1.741  4.616  0.000    20.856     6.123
  44   6 C     -0.025  1.067  2.958  0.000    20.990     6.516
  45   6 C     -0.066  1.050  3.016  0.000    21.762     6.642
  46   6 C     -0.118  1.038  3.080  0.000    22.821     6.811
  47   6 C     -0.113  1.034  3.078  0.000    22.715     6.797
  48   1 H      0.238  0.762  0.000  0.000     0.933     1.513
  49   1 H      0.078  0.922  0.000  0.000     1.996     2.209
  50   1 H      0.053  0.947  0.000  0.000     2.280     2.361
  51   1 H      0.042  0.958  0.000  0.000     2.420     2.433
  52   1 H      0.057  0.943  0.000  0.000     2.237     2.339
  53   1 H      0.064  0.936  0.000  0.000     2.158     2.297
  54   1 H      0.040  0.960  0.000  0.000     2.451     2.448
  55   1 H      0.053  0.947  0.000  0.000     2.280     2.361
  56   1 H      0.046  0.954  0.000  0.000     2.366     2.405
  57   1 H      0.049  0.951  0.000  0.000     2.333     2.388
  58   1 H      0.029  0.971  0.000  0.000     2.604     2.524
  59   7 N     -0.401  1.315  4.086  0.000    30.399     8.189
  60   6 C      0.043  1.056  2.901  0.000    19.867     6.349
  61   6 C      0.269  1.051  2.680  0.000    22.455     7.760
  62   8 O     -0.520  1.753  4.768  0.000    24.241     6.601
  63   6 C     -0.076  1.062  3.014  0.000    21.935     6.667
  64   6 C     -0.011  1.056  2.955  0.000    20.746     6.479
  65   6 C     -0.107  1.037  3.069  0.000    22.594     6.777
  66   6 C     -0.107  1.041  3.066  0.000    22.595     6.777
  67   1 H      0.175  0.825  0.000  0.000     1.242     1.746
  68   1 H      0.017  0.983  0.000  0.000     2.774     2.605
  69   1 H      0.040  0.960  0.000  0.000     2.451     2.448
  70   1 H      0.062  0.938  0.000  0.000     2.179     2.309
  71   1 H      0.027  0.973  0.000  0.000     2.623     2.533
  72   1 H      0.044  0.956  0.000  0.000     2.391     2.418
  73   1 H      0.027  0.973  0.000  0.000     2.629     2.536
  74   1 H      0.032  0.968  0.000  0.000     2.557     2.501
  75   1 H      0.044  0.956  0.000  0.000     2.396     2.420
  76   1 H      0.034  0.966  0.000  0.000     2.537     2.491
  77   1 H      0.035  0.965  0.000  0.000     2.513     2.479
  78   7 N     -0.168  1.242  3.927  0.000    24.645     7.373
  79   6 C      0.022  1.060  2.917  0.000    20.195     6.398
  80   6 C      0.209  1.083  2.708  0.000    23.561     7.949
  81   8 O     -0.372  1.757  4.615  0.000    21.137     6.164
  82   6 C     -0.016  1.062  2.954  0.000    20.827     6.491
  83   6 C     -0.132  1.042  3.090  0.000    23.094     6.851
  84   6 C     -0.124  1.040  3.084  0.000    22.929     6.828
  85   1 H      0.235  0.765  0.000  0.000     0.942     1.521
  86   1 H      0.083  0.917  0.000  0.000     1.949     2.183
  87   1 H      0.056  0.944  0.000  0.000     2.244     2.343
  88   1 H      0.056  0.944  0.000  0.000     2.247     2.344
  89   1 H      0.057  0.943  0.000  0.000     2.236     2.338
  90   1 H      0.065  0.935  0.000  0.000     2.139     2.287
  91   1 H      0.064  0.936  0.000  0.000     2.148     2.292
  92   1 H      0.050  0.950  0.000  0.000     2.317     2.380
  93   1 H      0.036  0.964  0.000  0.000     2.498     2.472
  94   7 N     -0.400  1.313  4.087  0.000    30.364     8.184
  95   6 C      0.043  1.058  2.899  0.000    19.869     6.349
  96   6 C      0.205  1.093  2.702  0.000    23.644     7.963
  97   8 O     -0.385  1.757  4.628  0.000    21.376     6.199
  98   6 C     -0.020  1.066  2.954  0.000    20.893     6.501
  99   6 C     -0.056  1.049  3.007  0.000    21.581     6.614
 100   6 C     -0.112  1.039  3.074  0.000    22.704     6.794
 101   6 C     -0.107  1.034  3.073  0.000    22.606     6.781
 102   1 H      0.176  0.824  0.000  0.000     1.234     1.740
 103   1 H      0.040  0.960  0.000  0.000     2.450     2.448
 104   1 H      0.036  0.964  0.000  0.000     2.499     2.472
 105   1 H      0.034  0.966  0.000  0.000     2.534     2.489
 106   1 H      0.039  0.961  0.000  0.000     2.464     2.455
 107   1 H      0.058  0.942  0.000  0.000     2.219     2.329
 108   1 H      0.029  0.971  0.000  0.000     2.595     2.519
 109   1 H      0.049  0.951  0.000  0.000     2.337     2.391
 110   1 H      0.039  0.961  0.000  0.000     2.460     2.453
 111   1 H      0.050  0.950  0.000  0.000     2.320     2.382
 112   1 H      0.035  0.965  0.000  0.000     2.523     2.484
 113   7 N     -0.396  1.310  4.086  0.000    30.274     8.172
 114   6 C      0.031  1.059  2.909  0.000    20.060     6.379
 115   6 C      0.265  1.048  2.687  0.000    22.529     7.773
 116   8 O     -0.496  1.745  4.751  0.000    23.691     6.526
 117   6 C     -0.073  1.058  3.015  0.000    21.892     6.660
 118   6 C      0.007  1.082  2.911  0.000    27.850     8.656
 119   6 C     -0.038  1.081  2.958  0.000    28.952     8.824
 120   6 C     -0.040  1.080  2.960  0.000    28.990     8.830
 121   6 C     -0.031  1.081  2.951  0.000    28.779     8.797
 122   6 C     -0.034  1.080  2.953  0.000    28.846     8.807
 123   6 C     -0.036  1.079  2.956  0.000    28.884     8.813
 124   1 H      0.169  0.831  0.000  0.000     1.279     1.771
 125   1 H      0.036  0.964  0.000  0.000     2.501     2.473
 126   1 H      0.053  0.947  0.000  0.000     2.281     2.362
 127   1 H      0.055  0.945  0.000  0.000     2.254     2.348
 128   1 H      0.030  0.970  0.000  0.000     2.582     2.513
 129   1 H      0.035  0.965  0.000  0.000     2.511     2.478
 130   1 H      0.034  0.966  0.000  0.000     2.533     2.489
 131   1 H      0.040  0.960  0.000  0.000     2.446     2.446
 132   1 H      0.032  0.968  0.000  0.000     2.557     2.501
 133   7 N     -0.171  1.243  3.928  0.000    24.708     7.383
 134   6 C      0.013  1.067  2.921  0.000    20.364     6.425
 135   6 C      0.273  1.045  2.682  0.000    22.389     7.749
 136   8 O     -0.477  1.739  4.739  0.000    23.292     6.471
 137   6 C     -0.027  1.069  2.958  0.000    21.020     6.521
 138   6 C     -0.062  1.052  3.011  0.000    21.696     6.631
 139   6 C     -0.117  1.037  3.080  0.000    22.801     6.809
 140   6 C     -0.114  1.037  3.077  0.000    22.736     6.800
 141   1 H      0.217  0.783  0.000  0.000     1.024     1.585
 142   1 H      0.082  0.918  0.000  0.000     1.954     2.186
 143   1 H      0.051  0.949  0.000  0.000     2.308     2.376
 144   1 H      0.043  0.957  0.000  0.000     2.404     2.425
 145   1 H      0.038  0.962  0.000  0.000     2.477     2.461
 146   1 H      0.063  0.937  0.000  0.000     2.168     2.302
 147   1 H      0.039  0.961  0.000  0.000     2.462     2.454
 148   1 H      0.051  0.949  0.000  0.000     2.304     2.374
 149   1 H      0.041  0.959  0.000  0.000     2.434     2.439
 150   1 H      0.043  0.957  0.000  0.000     2.406     2.426
 151   1 H      0.046  0.954  0.000  0.000     2.368     2.407
 152   7 N     -0.178  1.239  3.938  0.000    24.846     7.403
 153   6 C      0.013  1.065  2.922  0.000    20.347     6.422
 154   6 C      0.269  1.044  2.687  0.000    22.452     7.759
 155   8 O     -0.485  1.737  4.747  0.000    23.445     6.492
 156   6 C     -0.025  1.065  2.960  0.000    20.975     6.514
 157   6 C     -0.062  1.049  3.013  0.000    21.694     6.631
 158   6 C     -0.124  1.040  3.084  0.000    22.928     6.828
 159   6 C     -0.113  1.037  3.076  0.000    22.722     6.798
 160   1 H      0.210  0.790  0.000  0.000     1.056     1.609
 161   1 H      0.083  0.917  0.000  0.000     1.948     2.183
 162   1 H      0.060  0.940  0.000  0.000     2.204     2.322
 163   1 H      0.040  0.960  0.000  0.000     2.451     2.448
 164   1 H      0.031  0.969  0.000  0.000     2.565     2.505
 165   1 H      0.062  0.938  0.000  0.000     2.175     2.306
 166   1 H      0.051  0.949  0.000  0.000     2.303     2.373
 167   1 H      0.051  0.949  0.000  0.000     2.312     2.378
 168   1 H      0.041  0.959  0.000  0.000     2.438     2.442
 169   1 H      0.040  0.960  0.000  0.000     2.445     2.445
 170   1 H      0.049  0.951  0.000  0.000     2.337     2.391
 171   7 N     -0.173  1.242  3.931  0.000    24.746     7.388
 172   6 C      0.013  1.071  2.916  0.000    20.365     6.426
 173   6 C      0.275  1.042  2.683  0.000    22.350     7.742
 174   8 O     -0.485  1.741  4.744  0.000    23.459     6.494
 175   6 C     -0.025  1.069  2.957  0.000    20.988     6.516
 176   6 C     -0.061  1.051  3.010  0.000    21.669     6.627
 177   6 C     -0.123  1.037  3.086  0.000    22.905     6.824
 178   6 C     -0.112  1.037  3.074  0.000    22.699     6.794
 179   1 H      0.196  0.804  0.000  0.000     1.127     1.663
 180   1 H      0.077  0.923  0.000  0.000     2.008     2.216
 181   1 H      0.050  0.950  0.000  0.000     2.324     2.384
 182   1 H      0.044  0.956  0.000  0.000     2.394     2.420
 183   1 H      0.041  0.959  0.000  0.000     2.439     2.442
 184   1 H      0.046  0.954  0.000  0.000     2.374     2.409
 185   1 H      0.056  0.944  0.000  0.000     2.246     2.344
 186   1 H      0.044  0.956  0.000  0.000     2.400     2.423
 187   1 H      0.044  0.956  0.000  0.000     2.402     2.424
 188   1 H      0.041  0.959  0.000  0.000     2.433     2.439
 189   1 H      0.040  0.960  0.000  0.000     2.443     2.444
 190   7 N     -0.176  1.247  3.929  0.000    24.804     7.397
 191   6 C      0.024  1.060  2.916  0.000    20.181     6.397
 192   6 C      0.278  1.044  2.678  0.000    22.301     7.733
 193   8 O     -0.489  1.736  4.753  0.000    23.544     6.506
 194   6 C     -0.137  1.042  3.095  0.000    23.183     6.865
 195   1 H      0.216  0.784  0.000  0.000     1.027     1.587
 196   1 H      0.078  0.922  0.000  0.000     1.997     2.210
 197   1 H      0.065  0.935  0.000  0.000     2.143     2.289
 198   1 H      0.075  0.925  0.000  0.000     2.037     2.232
 199   1 H      0.073  0.927  0.000  0.000     2.056     2.242
 200   7 N     -0.187  1.250  3.937  0.000    25.048     7.433
 201   6 C      0.027  1.062  2.912  0.000    20.130     6.388
 202   6 C      0.280  1.041  2.679  0.000    22.257     7.726
 203   8 O     -0.491  1.731  4.760  0.000    23.586     6.511
 204   6 C     -0.083  1.056  3.027  0.000    22.081     6.688
 205   6 C      0.004  1.081  2.914  0.000    27.920     8.667
 206   6 C     -0.041  1.080  2.961  0.000    29.020     8.834
 207   6 C     -0.042  1.082  2.961  0.000    29.055     8.840
 208   6 C     -0.036  1.081  2.955  0.000    28.892     8.815
 209   6 C     -0.034  1.081  2.954  0.000    28.855     8.809
 210   6 C     -0.036  1.081  2.955  0.000    28.902     8.816
 211   1 H      0.221  0.779  0.000  0.000     1.006     1.571
 212   1 H      0.070  0.930  0.000  0.000     2.080     2.256
 213   1 H      0.066  0.934  0.000  0.000     2.135     2.285
 214   1 H      0.063  0.937  0.000  0.000     2.161     2.299
 215   1 H      0.042  0.958  0.000  0.000     2.418     2.432
 216   1 H      0.031  0.969  0.000  0.000     2.577     2.510
 217   1 H      0.058  0.942  0.000  0.000     2.222     2.331
 218   1 H      0.035  0.965  0.000  0.000     2.521     2.483
 219   1 H      0.047  0.953  0.000  0.000     2.354     2.399
 220   7 N     -0.180  1.250  3.929  0.000    24.892     7.410
 221   6 C      0.026  1.055  2.918  0.000    20.131     6.388
 222   6 C      0.279  1.041  2.680  0.000    22.276     7.729
 223   8 O     -0.489  1.733  4.756  0.000    23.546     6.506
 224   6 C     -0.130  1.044  3.087  0.000    23.055     6.845
 225   1 H      0.226  0.774  0.000  0.000     0.983     1.553
 226   1 H      0.075  0.925  0.000  0.000     2.033     2.230
 227   1 H      0.064  0.936  0.000  0.000     2.157     2.297
 228   1 H      0.073  0.927  0.000  0.000     2.050     2.239
 229   1 H      0.069  0.931  0.000  0.000     2.100     2.266
 230   7 N     -0.174  1.243  3.931  0.000    24.763     7.391
 231   6 C      0.025  1.060  2.915  0.000    20.148     6.391
 232   6 C      0.278  1.042  2.680  0.000    22.302     7.733
 233   8 O     -0.498  1.735  4.764  0.000    23.747     6.534
 234   6 C     -0.081  1.059  3.022  0.000    22.031     6.681
 235   6 C     -0.011  1.054  2.957  0.000    20.735     6.477
 236   6 C     -0.115  1.040  3.074  0.000    22.750     6.801
 237   6 C     -0.117  1.042  3.075  0.000    22.790     6.806
 238   1 H      0.215  0.785  0.000  0.000     1.030     1.590
 239   1 H      0.068  0.932  0.000  0.000     2.109     2.271
 240   1 H      0.060  0.940  0.000  0.000     2.201     2.320
 241   1 H      0.063  0.937  0.000  0.000     2.168     2.303
 242   1 H      0.031  0.969  0.000  0.000     2.568     2.506
 243   1 H      0.045  0.955  0.000  0.000     2.384     2.415
 244   1 H      0.034  0.966  0.000  0.000     2.525     2.485
 245   1 H      0.046  0.954  0.000  0.000     2.374     2.409
 246   1 H      0.052  0.948  0.000  0.000     2.299     2.371
 247   1 H      0.041  0.959  0.000  0.000     2.439     2.442
 248   1 H      0.041  0.959  0.000  0.000     2.434     2.440
 249   7 N     -0.174  1.248  3.927  0.000    24.770     7.392
 250   6 C      0.028  1.063  2.909  0.000    20.112     6.386
 251   6 C      0.278  1.042  2.680  0.000    22.303     7.734
 252   8 O     -0.491  1.738  4.753  0.000    23.584     6.511
 253   6 C     -0.088  1.056  3.032  0.000    22.173     6.702
 254   6 C      0.009  1.082  2.909  0.000    27.816     8.651
 255   6 C     -0.036  1.081  2.956  0.000    28.903     8.816
 256   6 C     -0.047  1.084  2.963  0.000    29.156     8.855
 257   6 C     -0.032  1.081  2.951  0.000    28.796     8.800
 258   6 C     -0.050  1.080  2.970  0.000    29.245     8.868
 259   6 C     -0.042  1.082  2.960  0.000    29.034     8.836
 260   1 H      0.223  0.777  0.000  0.000     0.997     1.564
 261   1 H      0.064  0.936  0.000  0.000     2.157     2.297
 262   1 H      0.056  0.944  0.000  0.000     2.245     2.343
 263   1 H      0.080  0.920  0.000  0.000     1.974     2.197
 264   1 H      0.027  0.973  0.000  0.000     2.631     2.537
 265   1 H      0.051  0.949  0.000  0.000     2.303     2.373
 266   1 H      0.035  0.965  0.000  0.000     2.520     2.482
 267   1 H      0.064  0.936  0.000  0.000     2.148     2.292
 268   1 H      0.053  0.947  0.000  0.000     2.279     2.361
 269   7 N     -0.180  1.245  3.935  0.000    24.890     7.410
 270   6 C      0.010  1.070  2.920  0.000    20.416     6.433
 271   6 C      0.277  1.042  2.681  0.000    22.314     7.736
 272   8 O     -0.499  1.741  4.758  0.000    23.762     6.536
 273   6 C     -0.032  1.070  2.961  0.000    21.104     6.534
 274   6 C     -0.063  1.050  3.013  0.000    21.703     6.632
 275   6 C     -0.122  1.036  3.086  0.000    22.903     6.824
 276   6 C     -0.116  1.038  3.078  0.000    22.783     6.807
 277   1 H      0.225  0.775  0.000  0.000     0.989     1.557
 278   1 H      0.083  0.917  0.000  0.000     1.948     2.183
 279   1 H      0.070  0.930  0.000  0.000     2.087     2.259
 280   1 H      0.025  0.975  0.000  0.000     2.658     2.550
 281   1 H      0.054  0.946  0.000  0.000     2.275     2.359
 282   1 H      0.057  0.943  0.000  0.000     2.234     2.337
 283   1 H      0.046  0.954  0.000  0.000     2.373     2.409
 284   1 H      0.044  0.956  0.000  0.000     2.396     2.421
 285   1 H      0.043  0.957  0.000  0.000     2.407     2.426
 286   1 H      0.055  0.945  0.000  0.000     2.261     2.351
 287   1 H      0.037  0.963  0.000  0.000     2.484     2.465
 288   7 N     -0.185  1.251  3.935  0.000    25.016     7.428
 289   6 C      0.035  1.059  2.906  0.000    19.986     6.365
 290   6 C      0.285  1.040  2.676  0.000    22.181     7.712
 291   8 O     -0.509  1.746  4.762  0.000    23.974     6.565
 292   6 C     -0.080  1.055  3.025  0.000    22.024     6.680
 293   6 C      0.011  1.081  2.908  0.000    27.771     8.644
 294   6 C     -0.039  1.079  2.960  0.000    28.971     8.827
 295   6 C     -0.040  1.080  2.959  0.000    28.982     8.829
 296   6 C     -0.031  1.079  2.952  0.000    28.766     8.795
 297   6 C     -0.032  1.079  2.952  0.000    28.788     8.799
 298   6 C     -0.035  1.080  2.955  0.000    28.867     8.811
 299   1 H      0.231  0.769  0.000  0.000     0.960     1.534
 300   1 H      0.053  0.947  0.000  0.000     2.278     2.361
 301   1 H      0.069  0.931  0.000  0.000     2.094     2.263
 302   1 H      0.068  0.932  0.000  0.000     2.112     2.273
 303   1 H      0.034  0.966  0.000  0.000     2.531     2.488
 304   1 H      0.035  0.965  0.000  0.000     2.522     2.483
 305   1 H      0.029  0.971  0.000  0.000     2.605     2.524
 306   1 H      0.036  0.964  0.000  0.000     2.497     2.471
 307   1 H      0.033  0.967  0.000  0.000     2.548     2.496
 308   7 N     -0.187  1.249  3.939  0.000    25.063     7.435
 309   6 C      0.026  1.061  2.912  0.000    20.132     6.388
 310   6 C      0.281  1.042  2.677  0.000    22.246     7.724
 311   8 O     -0.506  1.743  4.763  0.000    23.923     6.558
 312   6 C     -0.021  1.063  2.958  0.000    20.920     6.505
 313   6 C     -0.121  1.041  3.081  0.000    22.874     6.819
 314   6 C     -0.120  1.040  3.080  0.000    22.856     6.816
 315   1 H      0.238  0.762  0.000  0.000     0.932     1.512
 316   1 H      0.054  0.946  0.000  0.000     2.273     2.358
 317   1 H      0.058  0.942  0.000  0.000     2.223     2.331
 318   1 H      0.067  0.933  0.000  0.000     2.116     2.275
 319   1 H      0.038  0.962  0.000  0.000     2.481     2.463
 320   1 H      0.043  0.957  0.000  0.000     2.411     2.428
 321   1 H      0.058  0.942  0.000  0.000     2.228     2.334
 322   1 H      0.043  0.957  0.000  0.000     2.412     2.429
 323   1 H      0.055  0.945  0.000  0.000     2.256     2.349
 324   7 N     -0.179  1.247  3.932  0.000    24.870     7.407
 325   6 C      0.020  1.063  2.917  0.000    20.239     6.405
 326   6 C      0.279  1.039  2.681  0.000    22.273     7.728
 327   8 O     -0.507  1.760  4.747  0.000    23.938     6.560
 328   6 C     -0.086  1.058  3.028  0.000    22.135     6.698
 329   6 C     -0.080  1.050  3.030  0.000    22.034     6.683
 330   6 C     -0.096  1.056  3.040  0.000    22.321     6.726
 331   6 C     -0.051  1.059  2.991  0.000    21.582     6.631
 332   7 N     -0.140  1.227  3.913  0.000    24.019     7.279
 333   1 H      0.228  0.772  0.000  0.000     0.973     1.545
 334   1 H      0.063  0.937  0.000  0.000     2.160     2.298
 335   1 H      0.071  0.929  0.000  0.000     2.078     2.254
 336   1 H      0.080  0.920  0.000  0.000     1.976     2.198
 337   1 H      0.062  0.938  0.000  0.000     2.180     2.309
 338   1 H      0.054  0.946  0.000  0.000     2.272     2.357
 339   1 H      0.085  0.915  0.000  0.000     1.929     2.172
 340   1 H      0.078  0.922  0.000  0.000     1.995     2.209
 341   1 H      0.106  0.894  0.000  0.000     1.728     2.056
 342   1 H      0.125  0.875  0.000  0.000     1.576     1.963
 343   1 H      0.308  0.692  0.000  0.000     0.691     1.302
 344   1 H      0.302  0.698  0.000  0.000     0.708     1.318
 345   1 H      0.278  0.722  0.000  0.000     0.784     1.387
 346   7 N     -0.183  1.249  3.934  0.000    24.969     7.421
 347   6 C      0.020  1.067  2.913  0.000    20.239     6.405
 348   6 C      0.287  1.041  2.673  0.000    22.145     7.706
 349   8 O     -0.514  1.759  4.755  0.000    24.098     6.582
 350   6 C     -0.022  1.066  2.956  0.000    20.934     6.508
 351   6 C     -0.069  1.054  3.015  0.000    21.815     6.649
 352   6 C     -0.111  1.036  3.075  0.000    22.685     6.791
 353   6 C     -0.114  1.037  3.076  0.000    22.733     6.800
 354   1 H      0.228  0.772  0.000  0.000     0.973     1.545
 355   1 H      0.067  0.933  0.000  0.000     2.114     2.274
 356   1 H      0.047  0.953  0.000  0.000     2.364     2.404
 357   1 H      0.044  0.956  0.000  0.000     2.395     2.420
 358   1 H      0.060  0.940  0.000  0.000     2.198     2.318
 359   1 H      0.061  0.939  0.000  0.000     2.186     2.312
 360   1 H      0.019  0.981  0.000  0.000     2.754     2.595
 361   1 H      0.045  0.955  0.000  0.000     2.385     2.415
 362   1 H      0.058  0.942  0.000  0.000     2.227     2.334
 363   1 H      0.040  0.960  0.000  0.000     2.453     2.449
 364   1 H      0.040  0.960  0.000  0.000     2.455     2.450
 365   7 N     -0.191  1.249  3.942  0.000    25.149     7.448
 366   6 C      0.034  1.056  2.911  0.000    20.012     6.370
 367   6 C      0.282  1.041  2.677  0.000    22.233     7.721
 368   8 O     -0.509  1.756  4.753  0.000    23.993     6.567
 369   6 C     -0.125  1.042  3.083  0.000    22.949     6.830
 370   1 H      0.226  0.774  0.000  0.000     0.982     1.552
 371   1 H      0.057  0.943  0.000  0.000     2.239     2.340
 372   1 H      0.061  0.939  0.000  0.000     2.186     2.312
 373   1 H      0.075  0.925  0.000  0.000     2.036     2.232
 374   1 H      0.064  0.936  0.000  0.000     2.149     2.292
 375   7 N     -0.183  1.250  3.933  0.000    24.967     7.421
 376   6 C      0.040  1.051  2.909  0.000    19.907     6.353
 377   6 C      0.214  1.081  2.705  0.000    23.474     7.935
 378   8 O     -0.377  1.751  4.626  0.000    21.223     6.176
 379   6 C     -0.104  1.063  3.041  0.000    22.473     6.748
 380   6 C      0.296  1.033  2.671  0.000    21.975     7.675
 381   8 O     -0.486  1.751  4.736  0.000    23.484     6.497
 382   7 N     -0.282  1.262  4.021  0.000    27.290     7.759
 383   1 H      0.239  0.761  0.000  0.000     0.925     1.507
 384   1 H      0.087  0.913  0.000  0.000     1.907     2.159
 385   1 H      0.097  0.903  0.000  0.000     1.815     2.107
 386   1 H      0.086  0.914  0.000  0.000     1.918     2.166
 387   1 H      0.238  0.762  0.000  0.000     0.930     1.511
 388   1 H      0.232  0.768  0.000  0.000     0.957     1.532
 389   7 N     -0.393  1.321  4.072  0.000    30.188     8.160
 390   6 C      0.042  1.054  2.904  0.000    19.885     6.352
 391   6 C      0.204  1.093  2.704  0.000    23.674     7.968
 392   8 O     -0.369  1.744  4.624  0.000    21.067     6.154
 393   6 C     -0.073  1.064  3.010  0.000    21.894     6.660
 394   6 C     -0.011  1.057  2.954  0.000    20.738     6.477
 395   6 C     -0.114  1.040  3.074  0.000    22.743     6.800
 396   6 C     -0.117  1.043  3.074  0.000    22.798     6.808
 397   1 H      0.168  0.832  0.000  0.000     1.285     1.776
 398   1 H      0.039  0.961  0.000  0.000     2.464     2.455
 399   1 H      0.053  0.947  0.000  0.000     2.286     2.364
 400   1 H      0.052  0.948  0.000  0.000     2.296     2.370
 401   1 H      0.027  0.973  0.000  0.000     2.631     2.536
 402   1 H      0.045  0.955  0.000  0.000     2.388     2.416
 403   1 H      0.038  0.962  0.000  0.000     2.476     2.461
 404   1 H      0.044  0.956  0.000  0.000     2.399     2.422
 405   1 H      0.046  0.954  0.000  0.000     2.370     2.408
 406   1 H      0.044  0.956  0.000  0.000     2.395     2.420
 407   1 H      0.036  0.964  0.000  0.000     2.503     2.474
 408   7 N     -0.400  1.312  4.087  0.000    30.367     8.184
 409   6 C      0.039  1.059  2.901  0.000    19.927     6.358
 410   6 C      0.199  1.097  2.704  0.000    23.763     7.983
 411   8 O     -0.379  1.745  4.634  0.000    21.266     6.183
 412   6 C     -0.019  1.068  2.951  0.000    20.873     6.498
 413   6 C     -0.066  1.050  3.016  0.000    21.764     6.641
 414   6 C     -0.116  1.039  3.077  0.000    22.774     6.804
 415   6 C     -0.107  1.037  3.070  0.000    22.608     6.781
 416   1 H      0.183  0.817  0.000  0.000     1.199     1.715
 417   1 H      0.045  0.955  0.000  0.000     2.386     2.415
 418   1 H      0.041  0.959  0.000  0.000     2.435     2.440
 419   1 H      0.050  0.950  0.000  0.000     2.314     2.379
 420   1 H      0.047  0.953  0.000  0.000     2.354     2.399
 421   1 H      0.054  0.946  0.000  0.000     2.267     2.354
 422   1 H      0.026  0.974  0.000  0.000     2.641     2.541
 423   1 H      0.048  0.952  0.000  0.000     2.347     2.396
 424   1 H      0.042  0.958  0.000  0.000     2.418     2.432
 425   1 H      0.030  0.970  0.000  0.000     2.592     2.517
 426   1 H      0.041  0.959  0.000  0.000     2.430     2.438
 427   7 N     -0.396  1.317  4.079  0.000    30.260     8.170
 428   6 C      0.028  1.062  2.910  0.000    20.112     6.386
 429   6 C      0.277  1.046  2.678  0.000    22.320     7.737
 430   8 O     -0.515  1.756  4.759  0.000    24.115     6.584
 431   6 C     -0.019  1.064  2.955  0.000    20.877     6.498
 432   6 C     -0.111  1.039  3.072  0.000    22.682     6.791
 433   6 C     -0.110  1.039  3.071  0.000    22.652     6.786
 434   1 H      0.156  0.844  0.000  0.000     1.361     1.828
 435   1 H      0.035  0.965  0.000  0.000     2.521     2.483
 436   1 H      0.035  0.965  0.000  0.000     2.518     2.482
 437   1 H      0.049  0.951  0.000  0.000     2.334     2.389
 438   1 H      0.034  0.966  0.000  0.000     2.532     2.488
 439   1 H      0.043  0.957  0.000  0.000     2.413     2.429
 440   1 H      0.053  0.947  0.000  0.000     2.287     2.365
 441   1 H      0.041  0.959  0.000  0.000     2.438     2.442
 442   1 H      0.040  0.960  0.000  0.000     2.455     2.450
 443   7 N     -0.184  1.245  3.939  0.000    24.984     7.424
 444   6 C      0.035  1.053  2.913  0.000    19.997     6.368
 445   6 C      0.203  1.087  2.710  0.000    23.685     7.970
 446   8 O     -0.379  1.755  4.624  0.000    21.268     6.183
 447   6 C     -0.066  1.053  3.013  0.000    21.740     6.635
 448   6 C     -0.016  1.066  2.950  0.000    20.867     6.505
 449  16 S     -0.212  1.917  4.243  0.052   150.086    20.619
 450   6 C     -0.059  1.054  3.006  0.000    21.713     6.647
 451   1 H      0.235  0.765  0.000  0.000     0.944     1.522
 452   1 H      0.094  0.906  0.000  0.000     1.845     2.124
 453   1 H      0.074  0.926  0.000  0.000     2.043     2.235
 454   1 H      0.061  0.939  0.000  0.000     2.193     2.316
 455   1 H      0.066  0.934  0.000  0.000     2.126     2.280
 456   1 H      0.067  0.933  0.000  0.000     2.115     2.274
 457   1 H      0.070  0.930  0.000  0.000     2.082     2.256
 458   1 H      0.058  0.942  0.000  0.000     2.227     2.334
 459   1 H      0.047  0.953  0.000  0.000     2.362     2.403
 460   7 N     -0.393  1.318  4.075  0.000    30.166     8.157
 461   6 C      0.047  1.054  2.899  0.000    19.805     6.339
 462   6 C      0.205  1.093  2.703  0.000    23.651     7.964
 463   8 O     -0.380  1.762  4.618  0.000    21.289     6.186
 464   6 C     -0.072  1.056  3.016  0.000    21.873     6.657
 465   6 C      0.005  1.084  2.911  0.000    27.906     8.665
 466   6 C     -0.034  1.078  2.956  0.000    28.840     8.807
 467   6 C     -0.043  1.082  2.961  0.000    29.065     8.841
 468   6 C     -0.027  1.077  2.949  0.000    28.672     8.781
 469   6 C     -0.034  1.081  2.953  0.000    28.846     8.807
 470   6 C     -0.035  1.078  2.957  0.000    28.865     8.810
 471   1 H      0.174  0.826  0.000  0.000     1.248     1.750
 472   1 H      0.040  0.960  0.000  0.000     2.444     2.445
 473   1 H      0.057  0.943  0.000  0.000     2.235     2.338
 474   1 H      0.060  0.940  0.000  0.000     2.204     2.321
 475   1 H      0.027  0.973  0.000  0.000     2.627     2.535
 476   1 H      0.039  0.961  0.000  0.000     2.459     2.452
 477   1 H      0.030  0.970  0.000  0.000     2.588     2.516
 478   1 H      0.041  0.959  0.000  0.000     2.440     2.443
 479   1 H      0.034  0.966  0.000  0.000     2.527     2.486
 480   1 H      0.181  0.819  0.000  0.000     1.206     1.720
 481   1 H      0.079  0.921  0.000  0.000     1.990     2.206
 482   1 H      0.176  0.824  0.000  0.000     1.236     1.741
 483   1 H      0.067  0.933  0.000  0.000     2.117     2.275
 484   1 H      0.161  0.839  0.000  0.000     1.327     1.805
 485   1 H      0.067  0.933  0.000  0.000     2.121     2.277
 486   1 H      0.175  0.825  0.000  0.000     1.241     1.745
 487   1 H      0.066  0.934  0.000  0.000     2.135     2.285
 488   1 H      0.180  0.820  0.000  0.000     1.213     1.725
 489   1 H      0.067  0.933  0.000  0.000     2.120     2.277
 490   1 H      0.180  0.820  0.000  0.000     1.213     1.725
 491   1 H      0.071  0.929  0.000  0.000     2.078     2.254
 492   1 H      0.178  0.822  0.000  0.000     1.225     1.733
 493   1 H      0.071  0.929  0.000  0.000     2.075     2.252
 494   1 H      0.182  0.818  0.000  0.000     1.205     1.719
 495   1 H      0.068  0.932  0.000  0.000     2.106     2.269
 496   1 H      0.186  0.814  0.000  0.000     1.181     1.702
 497   1 H      0.075  0.925  0.000  0.000     2.026     2.226

 Mol. C6AA /au·bohr⁶  :    2203933.522333
 Mol. C8AA /au·bohr⁸  :   49437722.136214
 Mol. α(0) /au        :       2245.891683

 
molecular dipole:
                 x           y           z       tot (Debye)
 q only:       83.223      26.781      37.832
   full:       84.225      23.689      37.024     241.482
molecular quadrupole (traceless):
                xx          xy          yy          xz          yz          zz
 q only:     5995.986    3311.707   -3236.093    4808.346    2035.742   -2759.894
  q+dip:     6272.179    2949.556   -3516.091    4702.774    1922.618   -2756.088
   full:     6271.981    2950.551   -3522.747    4699.330    1922.356   -2749.233
speedup  2.00
cpu  time for grad   39.76 s
wall time for grad   19.89 s

SCC energy    :    -704.4379427
rep           :       9.5450120
ES            :       1.4086204
AES           :      -0.0293651
AXC           :       0.3095367
disp          :      -0.6517943
XB            :       0.0000000
fix           :       0.0000000
Gborn         :       0.0000000
Gsasa         :       0.0000000
Ghb           :       0.0000000
Gshift        :       0.0000000
Gsolv         :      -0.3067376     -192.48
Etot ala COSMO:    -704.4379427
grad norm     :       0.6633192
total E       :    -694.8280432
atomizationE  :     137.2621968    86133.33
(atE without considering molecular charge,
 total energy contains solvation terms)
H-L gap (eV)  :          1.6465

------------------------------------------------------------------------
 * finished run on 2019/05/11 at 08:37:02.110     
------------------------------------------------------------------------
 total:
 * wall-time:     0 d,  0 h,  0 min, 21.382 sec
 *  cpu-time:     0 d,  0 h,  0 min, 42.531 sec
 * ratio c/w:     1.989 speedup
 SCF:
 * wall-time:     0 d,  0 h,  0 min, 21.026 sec
 *  cpu-time:     0 d,  0 h,  0 min, 42.020 sec
 * ratio c/w:     1.998 speedup

