      -----------------------------------------------------------      
     |                   =====================                   |     
     |                           x T B                           |     
     |                   =====================                   |     
     |                         S. Grimme                         |     
     |          Mulliken Center for Theoretical Chemistry        |     
     |                    University of Bonn                     |     
     |                 Version 6.0.1 (SAW181210)                 |     
      -----------------------------------------------------------      

   This program is distributed in the hope that it will be useful,
   but WITHOUT ANY WARRANTY; without even the implied warranty of
   MERCHANTABILITY or FITNESS FOR A PARTICULAR PURPOSE.
   
   FOR NON-COMMERCIAL, ACADEMIA USE ONLY.
   
   Cite this work as:
   S. Grimme, C. Bannwarth, P. Shushkov, J. Comput. Theory Chem., 2017,
   13, 1989-2009.
   C. Bannwarth, S. Ehlert and S. Grimme., ChemRxiv, 2018, preprint.
   http://doi.org/10.26434/chemrxiv.7246238.v1
   
   for sTDA-xTB:
   S. Grimme and C. Bannwarth, J. Chem. Phys., 2016, 145, 054103.
   
   in the mass-spec context:
   V. Asgeirsson, C. Bauer and S. Grimme, Chem. Sci., 2017, 8, 4879.
   
   if GBSA is used:
   P. Shushkov, F. März and S. Grimme, unpublished.
   
   for ANC optimizer:
   S. Grimme, unpublished.
   Rational Function algorithm used in ANCopt:
   F. Eckert, P. Pulay, H.-J. Werner, J. Comput. Chem., 1997, 18, 1473.
   
   with help from (in alphabetical order)
   C. Bannwarth, F. Bohle, G. Brandenburg, E. Caldeweyher, M. Checinski,
   S. Dohm, S. Ehlert, S. Ehrlich, F. März, H. Neugebauer, J. Pisarek,
   P. Pracht, P. Shushkov, and S. Spicher.
   
 * started run on 2019/05/12 at 13:11:50.414     
========================================================================
 # omp threads = 2
========================================================================
number of atoms            : 538
number of electrons        : 1394
charge                     : 2
spin                       : .0
first test random number   : .5464

########################################################################
# WARNING! Please study the warnings concerning your input carefully
#  - Process number higher than OMP_NUM_THREADS, I hope you know what you are doing.
########################################################################

           ------------------------------------------------- 
          |                 G F N 2 - x T B                 |
          | Geometry, Frequencies, Noncovalent interactions |
          |            JCTC 2018 parametrisation            |
           ------------------------------------------------- 
 
      method parameters     
 k(s)        :  1.8500
 k(p)        :  2.2300
 k(d)        :  2.2300
 k(f)        :  2.0000
 kEN (H0ij)  : -2.0000
 D4 a1       :  0.5200
 D4 a2       :  5.0000
 D4 s6       :  1.0000
 D4 s8       :  2.7000
 D4 s9       :  5.0000
 alphaj      :  2.0000

 Solvent             : h2o
 Using internal parameter file: .param_gbsa2_h2o
 Gsolv ref. state (COSMO-RS): gsolv [1 M gas/solution]
 temperature (mdtemp)       :    298.150000000000     
 dielectric constant        :    80.2000000000000     
 rho                        :    1.00000000000000     
 mass                       :    18.0000000000000     
 surface tension            :    15.5689454083859     
 probe radius               :   0.975313790000000     
 vdW radii scaling          :    1.00000000000000     
 Gshift (Eh)                :   1.857443126794793E-003
 c1                         :    1.55243817000000     
 soset                      :   0.130326360000000     
 HB correction              :  T

            Z     q(EN)     CN     RAES       Cart. coordinates
     1  N   5.0   -0.18    3.22    1.96    27.09099    65.79737   150.78499
     2  C   4.0    0.03    4.30    4.20    28.58665    64.16905   152.40763
     3  C   4.0    0.08    3.25    3.04    31.22130    63.89266   151.23296
     4  O   6.0   -0.27    1.13    1.80    31.49567    63.05777   149.09139
     5  C   4.0   -0.02    4.28    4.15    27.41095    61.51510   152.64337
     6  C   4.0   -0.08    4.14    3.89    29.11054    59.85482   154.25544
     7  C   4.0   -0.08    4.11    3.83    24.76843    61.60965   153.77588
     8  H   1.0    0.10    1.02    1.43    26.86450    65.22880   148.96208
     9  H   1.0    0.04    1.05    1.44    28.72609    65.08563   154.25393
    10  H   1.0    0.05    1.06    1.44    27.30755    60.72929   150.73310
    11  H   1.0    0.03    1.00    1.43    28.27377    57.99433   154.46698
    12  H   1.0    0.04    1.01    1.43    30.96110    59.66343   153.39440
    13  H   1.0    0.03    1.00    1.43    29.33980    60.68753   156.12302
    14  H   1.0    0.03    1.00    1.43    23.96870    59.72172   153.81936
    15  H   1.0    0.04    1.00    1.43    24.82561    62.34577   155.69474
    16  H   1.0    0.04    1.00    1.43    23.54374    62.81766   152.65095
    17  N   5.0   -0.18    3.22    1.96    47.53443    45.71180   159.31113
    18  C   4.0    0.03    4.34    4.28    45.18427    45.52069   157.94222
    19  C   4.0    0.15    3.51    3.12    45.55010    46.03003   155.11476
    20  O   6.0   -0.25    1.24    1.80    47.05428    47.60477   154.30514
    21  C   4.0   -0.04    4.38    4.34    43.30571    47.48408   158.92363
    22  C   4.0   -0.02    4.18    3.96    42.42656    46.97731   161.63526
    23  C   4.0   -0.07    4.11    3.81    41.68410    49.45149   162.91174
    24  C   4.0   -0.08    4.10    3.81    40.21522    45.13058   161.65565
    25  H   1.0    0.09    1.02    1.43    47.85614    47.23431   160.44194
    26  H   1.0    0.03    1.06    1.44    44.48114    43.59341   158.21003
    27  H   1.0    0.06    1.04    1.43    44.25003    49.31222   158.81924
    28  H   1.0    0.05    1.03    1.43    41.67891    47.55785   157.65768
    29  H   1.0    0.05    1.06    1.44    44.00609    46.16622   162.70365
    30  H   1.0    0.04    1.00    1.43    41.02155    49.09908   164.82085
    31  H   1.0    0.05    1.00    1.43    43.30409    50.70912   163.03389
    32  H   1.0    0.04    1.00    1.43    40.20049    50.39687   161.85401
    33  H   1.0    0.04    1.00    1.43    39.62792    44.72114   163.58235
    34  H   1.0    0.04    1.00    1.43    38.61908    45.92765   160.63467
    35  H   1.0    0.04    1.00    1.43    40.73768    43.34952   160.77393
    36  N   5.0   -0.09    3.69    2.26    44.01451    44.75843   153.57245
    37  C   4.0    0.04    4.49    4.53    43.83667    45.48590   150.92299
    38  C   4.0    0.09    3.22    3.04    42.37796    47.99241   150.69560
    39  O   6.0   -0.27    1.14    1.80    41.36800    49.00423   152.50645
    40  C   4.0   -0.04    4.31    4.22    42.36821    43.32453   149.67513
    41  C   4.0   -0.04    4.26    4.13    40.65391    42.41967   151.81771
    42  C   4.0   -0.02    4.35    4.30    42.25099    42.75761   154.21512
    43  H   1.0    0.06    1.05    1.44    45.75528    45.72468   150.19687
    44  H   1.0    0.05    1.02    1.43    41.29890    43.95388   148.03669
    45  H   1.0    0.05    1.02    1.43    43.66537    41.82594   149.11791
    46  H   1.0    0.05    1.02    1.43    38.98559    43.62173   151.94441
    47  H   1.0    0.04    1.02    1.43    40.06369    40.46841   151.57260
    48  H   1.0    0.04    1.02    1.43    41.06416    43.28274   155.81698
    49  H   1.0    0.04    1.02    1.43    43.31071    41.04274   154.68568
    50  N   5.0   -0.18    3.22    1.96    36.40370    52.04810   146.35313
    51  C   4.0    0.03    4.22    4.04    33.92380    51.43388   145.38567
    52  C   4.0    0.09    3.21    3.04    33.76506    51.84252   142.54519
    53  O   6.0   -0.25    1.12    1.80    35.09931    53.32961   141.37482
    54  C   4.0   -0.05    4.36    4.31    31.86402    52.99381   146.68540
    55  C   4.0   -0.03    4.17    3.95    31.22650    52.08603   149.36101
    56  C   4.0   -0.08    4.12    3.83    29.92384    54.23485   150.76860
    57  C   4.0   -0.08    4.10    3.81    29.51430    49.76616   149.28530
    58  H   1.0    0.10    1.03    1.43    36.90143    53.88662   146.35768
    59  H   1.0    0.04    1.06    1.44    33.65849    49.41413   145.75375
    60  H   1.0    0.05    1.03    1.43    32.48299    54.96258   146.72467
    61  H   1.0    0.04    1.03    1.43    30.15670    52.93455   145.53566
    62  H   1.0    0.04    1.05    1.44    32.98611    51.59402   150.33378
    63  H   1.0    0.03    1.00    1.43    29.53768    53.68771   152.70917
    64  H   1.0    0.04    1.00    1.43    31.12148    55.90102   150.79934
    65  H   1.0    0.04    1.00    1.43    28.16282    54.73503   149.83985
    66  H   1.0    0.04    1.00    1.43    29.17736    49.04517   151.17914
    67  H   1.0    0.04    1.00    1.43    27.70985    50.26966   148.44324
    68  H   1.0    0.04    1.00    1.43    30.34521    48.24517   148.17801
    69  N   5.0   -0.18    3.22    1.96    17.77701    64.30551   144.28759
    70  C   4.0    0.03    4.21    4.01    15.63609    62.74271   144.96138
    71  C   4.0    0.08    3.22    3.04    13.33693    64.41040   145.60849
    72  O   6.0   -0.26    1.13    1.80    13.60142    66.34660   146.86829
    73  C   4.0   -0.04    4.34    4.28    16.12554    61.25969   147.44259
    74  C   4.0   -0.02    3.55    3.14    18.36944    59.53215   147.34601
    75  C   4.0   -0.04    3.48    3.11    20.80943    60.51286   147.38441
    76  C   4.0   -0.04    3.46    3.10    18.03549    56.93091   147.28497
    77  C   4.0   -0.04    3.37    3.07    22.87679    58.91561   147.31490
    78  C   4.0   -0.04    3.37    3.07    20.10535    55.33582   147.23658
    79  C   4.0   -0.04    3.37    3.07    22.52828    56.32314   147.24102
    80  H   1.0    0.10    1.03    1.43    18.18345    65.70849   145.53682
    81  H   1.0    0.05    1.04    1.43    15.21928    61.45554   143.40411
    82  H   1.0    0.05    1.03    1.43    16.40728    62.65073   148.94448
    83  H   1.0    0.04    1.03    1.43    14.42190    60.18290   147.87606
    84  H   1.0    0.05    1.03    1.43    21.10309    62.52859   147.52900
    85  H   1.0    0.04    1.03    1.43    16.14734    56.15952   147.30779
    86  H   1.0    0.05    1.03    1.43    24.76477    59.69304   147.32165
    87  H   1.0    0.05    1.03    1.43    19.83169    53.31677   147.21827
    88  H   1.0    0.05    1.03    1.43    24.15752    55.09629   147.20689
    89  N   5.0   -0.18    3.23    1.96     0.50798    61.25618   163.87490
    90  C   4.0    0.04    4.23    4.06     2.21463    59.12645   164.12934
    91  C   4.0    0.09    3.21    3.04     4.00578    59.64435   166.34208
    92  O   6.0   -0.27    1.13    1.80     4.84930    61.79244   166.68806
    93  C   4.0   -0.04    4.36    4.30     3.75488    58.78371   161.69892
    94  C   4.0   -0.02    4.18    3.96     4.65128    56.06732   161.29875
    95  C   4.0   -0.06    4.11    3.82     2.41666    54.30484   160.81077
    96  C   4.0   -0.08    4.11    3.81     6.50091    55.97130   159.08777
    97  H   1.0    0.11    1.03    1.43     1.28864    62.92527   163.38162
    98  H   1.0    0.06    1.05    1.44     1.04041    57.48222   164.53957
    99  H   1.0    0.05    1.03    1.43     2.57728    59.37968   160.11247
   100  H   1.0    0.05    1.03    1.43     5.37936    60.05556   161.76706
   101  H   1.0    0.05    1.05    1.44     5.64120    55.46634   163.01084
   102  H   1.0    0.05    1.00    1.43     3.08752    52.47881   160.15399
   103  H   1.0    0.06    1.00    1.43     1.32763    54.02284   162.52526
   104  H   1.0    0.05    1.00    1.43     1.17191    55.10510   159.38487
   105  H   1.0    0.04    1.00    1.43     7.25607    54.07409   158.87932
   106  H   1.0    0.05    1.00    1.43     5.54106    56.48045   157.34641
   107  H   1.0    0.04    1.00    1.43     8.06159    57.27032   159.39359
   108  N   5.0   -0.20    3.23    1.96    10.76153    58.93475   170.39694
   109  C   4.0    0.03    4.35    4.30    13.44364    58.69362   169.90178
   110  C   4.0    0.15    3.46    3.10    14.30199    55.94393   170.07067
   111  O   6.0   -0.33    1.31    1.80    15.98265    55.14950   168.69622
   112  C   4.0   -0.04    4.38    4.34    14.95688    60.22611   171.81101
   113  C   4.0   -0.04    4.06    3.73    15.33651    62.93339   170.95626
   114  S   6.0   -0.03    2.53    3.10    17.48425    63.17505   168.30688
   115  C   4.0   -0.06    3.89    3.45    20.24371    61.56325   169.55009
   116  H   1.0    0.10    1.02    1.43    10.17080    60.24941   171.65493
   117  H   1.0    0.04    1.07    1.44    13.89292    59.35723   167.98399
   118  H   1.0    0.05    1.03    1.43    13.94051    60.24279   173.60970
   119  H   1.0    0.05    1.05    1.44    16.78989    59.34061   172.13626
   120  H   1.0    0.05    1.07    1.44    13.56906    63.78157   170.32282
   121  H   1.0    0.05    1.07    1.44    16.09132    64.05981   172.50884
   122  H   1.0    0.05    1.05    1.44    21.82139    62.16318   168.38747
   123  H   1.0    0.05    1.04    1.43    20.54850    62.14109   171.49217
   124  H   1.0    0.04    1.03    1.43    19.99775    59.53053   169.41126
   125  N   5.0   -0.14    3.49    2.07    13.20226    54.49749   171.82314
   126  C   4.0    0.04    4.49    4.52    13.99843    51.87554   172.03457
   127  C   4.0    0.15    3.53    3.13    13.30751    50.51212   169.58690
   128  O   6.0   -0.31    1.29    1.80    14.79464    49.13687   168.47503
   129  C   4.0    0.06    4.22    4.03    12.80400    50.53368   174.34886
   130  O   6.0   -0.25    2.12    1.84    13.78503    51.49313   176.62296
   131  C   4.0   -0.06    4.10    3.81    13.35946    47.70247   174.27473
   132  H   1.0    0.10    1.06    1.44    11.98387    55.22126   173.10259
   133  H   1.0    0.06    1.05    1.44    16.06307    51.81661   172.22225
   134  H   1.0    0.05    1.04    1.43    10.75167    50.84630   174.26079
   135  H   1.0    0.15    1.07    1.44    13.07701    53.16003   176.94659
   136  H   1.0    0.06    1.00    1.43    12.61066    46.83050   175.97422
   137  H   1.0    0.05    1.00    1.43    12.50943    46.83928   172.62172
   138  H   1.0    0.06    1.00    1.43    15.38875    47.40176   174.22220
   139  N   5.0   -0.15    3.52    2.09    10.91666    50.85444   168.83996
   140  C   4.0    0.03    4.42    4.42    10.01848    49.72219   166.51057
   141  C   4.0    0.16    3.50    3.11    11.85395    50.38403   164.37100
   142  O   6.0   -0.32    1.30    1.80    12.63825    48.79437   162.87929
   143  C   4.0   -0.04    4.28    4.15     7.35769    50.66802   165.89092
   144  C   4.0   -0.03    4.21    4.02     5.32221    49.40170   167.50744
   145  C   4.0    0.15    3.21    3.04     2.77878    50.74301   167.34137
   146  O   6.0   -0.30    1.21    1.80     2.51996    52.98085   166.78754
   147  N   5.0   -0.18    3.19    1.95     0.78268    49.30216   167.91599
   148  H   1.0    0.08    1.07    1.44     9.80911    52.18216   169.66729
   149  H   1.0    0.05    1.05    1.44    10.04379    47.65823   166.70791
   150  H   1.0    0.05    1.03    1.43     7.31123    52.70944   166.18062
   151  H   1.0    0.04    1.03    1.43     6.96263    50.31253   163.89855
   152  H   1.0    0.04    1.03    1.43     5.09664    47.43574   166.93877
   153  H   1.0    0.05    1.03    1.43     5.89959    49.44789   169.48744
   154  H   1.0    0.09    1.03    1.43     0.95726    47.46323   168.36710
   155  H   1.0    0.11    1.03    1.43    -0.95194    50.09050   167.89027
   156  N   5.0   -0.14    3.51    2.09    12.49843    52.81813   164.24932
   157  C   4.0    0.03    4.47    4.49    14.07226    53.71264   162.20360
   158  C   4.0    0.16    3.49    3.11    16.66194    52.43044   162.22918
   159  O   6.0   -0.32    1.29    1.80    17.57623    51.54618   160.29116
   160  C   4.0   -0.04    4.34    4.27    14.36062    56.57347   162.35520
   161  C   4.0   -0.01    3.56    3.14    15.59264    57.66411   160.03382
   162  C   4.0   -0.04    3.47    3.10    14.77951    57.01480   157.61534
   163  C   4.0   -0.04    3.47    3.10    17.53086    59.41305   160.28172
   164  C   4.0   -0.04    3.38    3.07    15.90616    58.06511   155.50795
   165  C   4.0   -0.04    3.38    3.07    18.60819    60.52155   158.16573
   166  C   4.0   -0.04    3.37    3.07    17.81474    59.83789   155.76891
   167  H   1.0    0.08    1.07    1.44    11.70405    54.10848   165.42228
   168  H   1.0    0.05    1.06    1.44    13.18259    53.16211   160.41230
   169  H   1.0    0.04    1.03    1.43    12.46529    57.36653   162.57424
   170  H   1.0    0.05    1.03    1.43    15.46115    57.05855   164.02893
   171  H   1.0    0.04    1.03    1.43    13.24092    55.69898   157.37085
   172  H   1.0    0.05    1.03    1.43    18.19654    59.93615   162.13752
   173  H   1.0    0.04    1.03    1.43    15.28505    57.52145   153.64279
   174  H   1.0    0.05    1.03    1.43    20.09741    61.89348   158.41290
   175  H   1.0    0.05    1.03    1.43    18.66383    60.68702   154.11983
   176  N   5.0   -0.14    3.53    2.10    17.79775    52.39370   164.47737
   177  C   4.0    0.03    4.42    4.41    20.21235    51.14279   164.84195
   178  C   4.0    0.16    3.51    3.12    19.99937    48.46363   163.76878
   179  O   6.0   -0.33    1.33    1.80    21.57977    47.61615   162.30375
   180  C   4.0   -0.05    4.34    4.27    20.94991    51.18335   167.62735
   181  C   4.0   -0.03    4.17    3.94    23.81310    51.06958   168.09255
   182  C   4.0   -0.07    4.10    3.80    24.34047    51.33987   170.92681
   183  C   4.0   -0.07    4.11    3.82    25.02206    48.63483   167.11906
   184  H   1.0    0.11    1.11    1.45    16.99771    53.22528   166.00942
   185  H   1.0    0.04    1.05    1.44    21.65251    52.12766   163.71324
   186  H   1.0    0.05    1.04    1.43    20.23723    52.94572   168.42924
   187  H   1.0    0.05    1.03    1.43    20.01084    49.63094   168.60897
   188  H   1.0    0.03    1.05    1.44    24.67681    52.67473   167.11470
   189  H   1.0    0.05    1.00    1.43    26.36409    51.32885   171.28098
   190  H   1.0    0.04    1.00    1.43    23.55660    53.10286   171.63467
   191  H   1.0    0.05    1.00    1.43    23.48091    49.79039   171.96586
   192  H   1.0    0.05    1.00    1.43    27.04031    48.68930   167.50674
   193  H   1.0    0.05    1.00    1.43    24.17805    47.01295   168.05785
   194  H   1.0    0.05    1.01    1.43    24.75937    48.43982   165.09671
   195  N   5.0   -0.14    3.50    2.08    17.99290    47.13549   164.51912
   196  C   4.0    0.05    4.42    4.41    17.58351    44.58948   163.61388
   197  C   4.0    0.18    3.52    3.12    17.69313    44.46049   160.72601
   198  O   6.0   -0.31    1.30    1.80    18.96677    42.85957   159.63907
   199  C   4.0    0.04    4.17    3.93    15.01488    43.58281   164.48480
   200  O   6.0   -0.24    2.07    1.84    14.67214    41.19637   163.35081
   201  H   1.0    0.12    1.10    1.44    16.75097    47.86078   165.78638
   202  H   1.0    0.06    1.05    1.44    19.07642    43.32645   164.31043
   203  H   1.0    0.05    1.01    1.43    15.00985    43.43735   166.55434
   204  H   1.0    0.06    1.02    1.43    13.53855    44.90660   163.88690
   205  H   1.0    0.13    1.02    1.43    13.11359    40.46673   163.95187
   206  N   5.0   -0.14    3.53    2.10    16.27929    46.15520   159.52053
   207  C   4.0    0.04    4.51    4.55    16.09174    46.10079   156.79032
   208  C   4.0    0.15    3.48    3.11    18.70669    46.54242   155.61062
   209  O   6.0   -0.32    1.26    1.80    19.38829    45.43877   153.68683
   210  C   4.0   -0.02    4.33    4.25    14.16498    48.01165   155.75212
   211  C   4.0   -0.04    4.20    4.00    11.59192    47.72915   157.04675
   212  C   4.0   -0.07    4.15    3.90    13.89322    47.59114   152.90992
   213  C   4.0   -0.08    4.02    3.66     9.69376    49.69730   156.13811
   214  H   1.0    0.11    1.09    1.44    15.26917    47.44880   160.50014
   215  H   1.0    0.05    1.06    1.44    15.50671    44.18827   156.22539
   216  H   1.0    0.05    1.05    1.44    14.90125    49.91114   156.12048
   217  H   1.0    0.05    1.03    1.43    10.84590    45.84172   156.67407
   218  H   1.0    0.07    1.05    1.44    11.80060    47.92022   159.08197
   219  H   1.0    0.04    1.00    1.43    12.93711    49.18330   152.04094
   220  H   1.0    0.06    1.01    1.43    15.73274    47.37525   152.02956
   221  H   1.0    0.05    1.00    1.43    12.80387    45.88637   152.55006
   222  H   1.0    0.04    1.00    1.43     7.97685    49.58423   157.26187
   223  H   1.0    0.04    1.00    1.43    10.46804    51.59358   156.31341
   224  H   1.0    0.04    1.00    1.43     9.18528    49.38768   154.17443
   225  N   5.0   -0.14    3.53    2.10    20.17355    48.22110   156.77134
   226  C   4.0    0.04    4.53    4.58    22.70085    48.72685   155.85566
   227  C   4.0    0.15    3.48    3.11    24.39839    46.40969   156.19634
   228  O   6.0   -0.32    1.26    1.80    25.68459    45.59493   154.44768
   229  C   4.0   -0.02    4.36    4.31    23.68807    51.11243   157.16341
   230  C   4.0   -0.05    4.21    4.02    22.47197    53.40958   155.89345
   231  C   4.0   -0.08    4.14    3.88    26.55698    51.27246   157.08148
   232  C   4.0   -0.08    4.03    3.67    22.51476    55.70765   157.60822
   233  H   1.0    0.11    1.10    1.44    19.52588    49.21715   158.27447
   234  H   1.0    0.05    1.06    1.44    22.62210    49.03585   153.80420
   235  H   1.0    0.05    1.06    1.44    23.07682    51.03645   159.13722
   236  H   1.0    0.03    1.03    1.43    23.46487    53.82749   154.13493
   237  H   1.0    0.05    1.03    1.43    20.50851    52.97780   155.43889
   238  H   1.0    0.03    1.00    1.43    27.19345    53.11125   157.73092
   239  H   1.0    0.04    1.00    1.43    27.40294    49.84336   158.28038
   240  H   1.0    0.04    1.00    1.43    27.22524    50.98739   155.16028
   241  H   1.0    0.04    1.01    1.43    21.74272    57.33019   156.62696
   242  H   1.0    0.05    1.00    1.43    21.36148    55.37504   159.27597
   243  H   1.0    0.03    1.00    1.43    24.42632    56.16195   158.20520
   244  N   5.0   -0.14    3.51    2.08    24.40162    45.38220   158.49601
   245  C   4.0    0.03    4.43    4.43    25.81917    43.10570   159.04448
   246  C   4.0    0.16    3.48    3.11    25.19611    40.99520   157.16100
   247  O   6.0   -0.30    1.29    1.80    26.85757    39.65338   156.26633
   248  C   4.0   -0.05    4.28    4.16    25.25990    42.21184   161.72960
   249  C   4.0   -0.04    4.21    4.03    27.00374    40.02943   162.47150
   250  C   4.0   -0.00    4.22    4.04    26.86642    39.34554   165.26537
   251  N   5.0   -0.14    3.43    2.03    27.74380    41.45512   166.77711
   252  C   4.0    0.10    3.35    3.06    28.08811    41.38267   169.24564
   253  N   5.0   -0.17    3.26    1.97    27.64058    39.28698   170.56084
   254  N   5.0   -0.19    3.24    1.96    28.76735    43.50974   170.45111
   255  H   1.0    0.12    1.12    1.45    23.20359    46.04603   159.83954
   256  H   1.0    0.05    1.05    1.44    27.84727    43.49786   158.82196
   257  H   1.0    0.05    1.03    1.43    25.49304    43.82749   162.99008
   258  H   1.0    0.06    1.03    1.43    23.28636    41.61904   161.82311
   259  H   1.0    0.06    1.03    1.43    26.53045    38.35749   161.36845
   260  H   1.0    0.05    1.03    1.43    28.96190    40.48426   162.01694
   261  H   1.0    0.05    1.02    1.43    24.92639    38.87815   165.80264
   262  H   1.0    0.07    1.05    1.44    28.10598    37.72354   165.55755
   263  H   1.0    0.07    1.08    1.44    28.23364    43.04899   165.84065
   264  H   1.0    0.10    1.03    1.43    27.51344    37.59738   169.69121
   265  H   1.0    0.10    1.03    1.43    28.05858    39.21242   172.41784
   266  H   1.0    0.09    1.03    1.43    28.74353    45.17599   169.52559
   267  H   1.0    0.09    1.03    1.43    28.70535    43.56035   172.35539
   268  N   5.0   -0.14    3.52    2.09    22.74536    40.75586   156.60354
   269  C   4.0    0.05    4.38    4.35    21.77540    38.89360   154.84832
   270  C   4.0    0.18    3.50    3.11    23.24983    38.87651   152.34342
   271  O   6.0   -0.25    1.21    1.80    23.76322    36.93479   151.21173
   272  C   4.0    0.04    4.18    3.95    19.01235    39.56412   154.25084
   273  O   6.0   -0.23    2.08    1.84    18.29023    38.40202   151.96111
   274  H   1.0    0.12    1.12    1.45    21.43447    41.75219   157.59408
   275  H   1.0    0.07    1.05    1.44    21.91483    36.97660   155.62721
   276  H   1.0    0.06    1.01    1.43    17.80520    38.95329   155.82245
   277  H   1.0    0.07    1.04    1.43    18.89741    41.62241   154.05046
   278  H   1.0    0.13    1.02    1.43    16.53573    38.78428   151.63653
   279  N   5.0   -0.14    3.55    2.11    23.77388    41.19261   151.47447
   280  C   4.0    0.04    4.42    4.41    25.02992    41.58888   149.09622
   281  C   4.0    0.16    3.40    3.08    27.85851    40.96227   149.13889
   282  O   6.0   -0.29    1.23    1.80    29.13046    41.06023   147.21139
   283  C   4.0   -0.04    4.29    4.18    24.69602    44.31495   148.21344
   284  C   4.0   -0.04    4.16    3.92    21.97231    44.91220   147.46519
   285  C   4.0   -0.01    4.20    3.99    21.75986    47.69659   146.63831
   286  N   5.0   -0.14    3.38    2.01    20.19320    48.04595   144.41754
   287  C   4.0    0.10    3.34    3.06    20.93565    47.73655   142.03079
   288  N   5.0   -0.18    3.24    1.97    23.34713    47.45901   141.37620
   289  N   5.0   -0.17    3.25    1.97    19.21359    47.98113   140.20243
   290  H   1.0    0.11    1.09    1.44    23.47775    42.68970   152.62444
   291  H   1.0    0.07    1.06    1.44    24.21472    40.26183   147.72272
   292  H   1.0    0.06    1.03    1.43    25.30382    45.54433   149.75375
   293  H   1.0    0.05    1.03    1.43    25.97632    44.59620   146.61740
   294  H   1.0    0.05    1.03    1.43    21.43057    43.66581   145.91592
   295  H   1.0    0.06    1.03    1.43    20.73021    44.52834   149.06103
   296  H   1.0    0.04    1.03    1.43    20.93514    48.81528   148.15768
   297  H   1.0    0.04    1.03    1.43    23.64484    48.43802   146.25218
   298  H   1.0    0.08    1.07    1.44    18.31078    48.07453   144.74888
   299  H   1.0    0.08    1.02    1.43    24.76148    47.11540   142.61844
   300  H   1.0    0.09    1.03    1.43    23.78023    46.94749   139.59561
   301  H   1.0    0.09    1.03    1.43    17.35944    48.10254   140.62382
   302  H   1.0    0.10    1.03    1.43    19.65926    47.53481   138.40562
   303  N   5.0   -0.12    3.53    2.10    28.84345    40.40767   151.40114
   304  C   4.0    0.04    4.41    4.40    31.43546    39.63535   151.75846
   305  C   4.0    0.15    3.39    3.07    31.59651    36.76895   152.21289
   306  O   6.0   -0.26    1.23    1.80    29.79037    35.41918   152.67070
   307  C   4.0   -0.04    4.34    4.27    32.62256    41.13024   153.93438
   308  C   4.0   -0.04    4.06    3.73    32.56364    43.96057   153.40117
   309  S   6.0   -0.05    2.47    3.10    34.41738    45.65149   155.80150
   310  C   4.0   -0.07    3.88    3.44    32.29554    48.22233   156.56334
   311  H   1.0    0.13    1.13    1.45    27.71972    40.10829   152.92597
   312  H   1.0    0.06    1.06    1.44    32.42340    40.04428   149.97972
   313  H   1.0    0.06    1.03    1.43    31.55545    40.72991   155.65339
   314  H   1.0    0.04    1.04    1.43    34.57085    40.52207   154.22040
   315  H   1.0    0.04    1.06    1.44    33.38754    44.37941   151.55926
   316  H   1.0    0.06    1.06    1.44    30.63269    44.66635   153.45961
   317  H   1.0    0.04    1.05    1.44    32.94745    49.04634   158.32311
   318  H   1.0    0.04    1.04    1.43    32.35099    49.63759   155.07782
   319  H   1.0    0.04    1.04    1.44    30.41211    47.44570   156.77132
   320  N   5.0   -0.15    3.45    2.04    33.95671    35.81512   151.97365
   321  C   4.0    0.03    4.48    4.51    34.34537    33.19175   151.25523
   322  C   4.0    0.15    3.41    3.08    34.95260    31.52208   153.54214
   323  O   6.0   -0.33    1.32    1.80    37.03471    31.50412   154.54160
   324  C   4.0   -0.02    4.26    4.12    36.39185    33.03453   149.18120
   325  C   4.0   -0.06    4.12    3.84    38.99685    33.93485   150.04086
   326  C   4.0   -0.07    4.12    3.84    36.55924    30.33334   148.18417
   327  H   1.0    0.07    1.07    1.44    35.39625    37.00545   151.59355
   328  H   1.0    0.06    1.07    1.44    32.54336    32.53930   150.45830
   329  H   1.0    0.05    1.06    1.44    35.74694    34.26543   147.64466
   330  H   1.0    0.05    1.00    1.43    40.25329    33.96238   148.41726
   331  H   1.0    0.04    1.00    1.43    38.94272    35.82766   150.83820
   332  H   1.0    0.06    1.01    1.43    39.76025    32.66426   151.45587
   333  H   1.0    0.05    1.00    1.43    37.87293    30.25108   146.60855
   334  H   1.0    0.05    1.00    1.43    37.23397    29.07295   149.65733
   335  H   1.0    0.05    1.00    1.43    34.72490    29.67679   147.53355
   336  N   5.0   -0.15    3.44    2.04    33.01783    30.09735   154.36126
   337  C   4.0    0.03    4.35    4.28    33.18979    28.19387   156.35022
   338  C   4.0    0.15    3.39    3.08    33.82990    29.34583   158.96351
   339  O   6.0   -0.29    1.26    1.80    34.87247    28.09939   160.60382
   340  C   4.0   -0.03    4.35    4.30    35.11111    26.08237   155.75996
   341  C   4.0   -0.02    4.15    3.91    34.14793    23.87224   154.14777
   342  C   4.0   -0.07    4.10    3.79    33.93879    24.56161   151.35339
   343  C   4.0   -0.06    4.11    3.82    35.94119    21.62334   154.45001
   344  H   1.0    0.09    1.06    1.44    31.32111    30.32323   153.51989
   345  H   1.0    0.05    1.05    1.44    31.30908    27.35204   156.53431
   346  H   1.0    0.06    1.03    1.43    36.74978    26.93313   154.84894
   347  H   1.0    0.06    1.05    1.44    35.69892    25.32738   157.58736
   348  H   1.0    0.05    1.05    1.44    32.28292    23.30706   154.84554
   349  H   1.0    0.05    1.00    1.43    33.16569    22.98287   150.29007
   350  H   1.0    0.05    1.00    1.43    32.71515    26.18623   151.07157
   351  H   1.0    0.05    1.00    1.43    35.79785    24.99362   150.59445
   352  H   1.0    0.06    1.00    1.43    35.29022    20.03700   153.31817
   353  H   1.0    0.05    1.00    1.43    37.83563    22.11848   153.82687
   354  H   1.0    0.05    1.00    1.43    36.02834    21.01965   156.41183
   355  N   5.0   -0.14    3.46    2.06    33.12181    31.75270   159.33468
   356  C   4.0    0.04    4.41    4.40    33.99831    33.19229   161.49931
   357  C   4.0    0.16    3.40    3.08    31.90402    33.68432   163.44893
   358  O   6.0   -0.31    1.28    1.80    31.09211    35.79941   163.85838
   359  C   4.0   -0.03    4.28    4.15    35.13784    35.72167   160.66565
   360  C   4.0   -0.05    4.16    3.93    37.25593    35.49537   158.72142
   361  C   4.0   -0.01    4.17    3.94    39.85941    34.74338   159.76054
   362  N   5.0   -0.13    3.42    2.03    39.90614    32.48436   161.31369
   363  C   4.0    0.12    3.35    3.06    40.24026    30.09228   160.60829
   364  N   5.0   -0.17    3.25    1.97    40.39297    29.46633   158.16969
   365  N   5.0   -0.16    3.26    1.97    40.59183    28.37005   162.39628
   366  H   1.0    0.09    1.07    1.44    32.19013    32.71267   157.97205
   367  H   1.0    0.08    1.08    1.44    35.40436    32.02011   162.45848
   368  H   1.0    0.05    1.03    1.43    33.61228    36.86355   159.87321
   369  H   1.0    0.05    1.03    1.43    35.81520    36.68279   162.35720
   370  H   1.0    0.07    1.06    1.44    36.70929    34.15689   157.26771
   371  H   1.0    0.04    1.03    1.43    37.50030    37.33388   157.82545
   372  H   1.0    0.05    1.03    1.43    41.13789    34.48443   158.16285
   373  H   1.0    0.04    1.03    1.43    40.59458    36.27069   160.93580
   374  H   1.0    0.09    1.12    1.45    39.82862    32.74686   163.19778
   375  H   1.0    0.11    1.07    1.44    39.51032    30.55488   156.85921
   376  H   1.0    0.09    1.04    1.43    40.54908    27.61634   157.74840
   377  H   1.0    0.13    1.09    1.44    40.55276    28.91630   164.25387
   378  H   1.0    0.10    1.03    1.43    40.62710    26.51673   161.98558
   379  N   5.0   -0.13    3.41    2.03    31.02414    31.62875   164.65945
   380  C   4.0    0.04    4.24    4.08    29.13969    31.85815   166.63177
   381  C   4.0    0.09    3.19    3.03    30.14753    31.78767   169.36417
   382  O   6.0   -0.27    1.12    1.80    28.98566    32.84873   171.05703
   383  C   4.0   -0.06    4.10    3.80    27.09632    29.82692   166.37017
   384  H   1.0    0.10    1.06    1.44    31.86481    29.94369   164.36279
   385  H   1.0    0.06    1.07    1.44    28.28865    33.72748   166.38432
   386  H   1.0    0.06    1.00    1.43    25.68677    30.07994   167.84189
   387  H   1.0    0.05    1.00    1.43    26.18283    29.96815   164.53745
   388  H   1.0    0.06    1.00    1.43    27.92311    27.95741   166.56955
   389  N   5.0   -0.18    3.28    1.98    35.47803    33.90975   171.64910
   390  C   4.0    0.03    4.31    4.22    37.29429    35.91662   172.06351
   391  C   4.0    0.15    3.45    3.09    35.88008    38.37194   171.47287
   392  O   6.0   -0.29    1.25    1.80    34.65773    38.64082   169.53138
   393  C   4.0   -0.03    4.23    4.06    39.66124    35.66635   170.38556
   394  C   4.0   -0.03    4.19    3.97    39.02049    35.24853   167.59527
   395  C   4.0    0.24    3.16    3.03    38.39278    32.44007   167.01584
   396  O   6.0   -0.30    1.26    1.80    40.23454    30.96343   166.84287
   397  O   6.0   -0.30    1.21    1.80    36.14296    31.84742   166.64625
   398  H   1.0    0.12    1.04    1.43    34.48508    34.05374   170.01877
   399  H   1.0    0.05    1.05    1.44    37.85365    35.82755   174.05296
   400  H   1.0    0.05    1.02    1.43    40.77981    37.38928   170.59704
   401  H   1.0    0.06    1.02    1.43    40.79674    34.07933   171.06841
   402  H   1.0    0.07    1.03    1.43    37.42601    36.43175   167.03987
   403  H   1.0    0.05    1.03    1.43    40.67066    35.74353   166.45652
   404  N   5.0   -0.13    3.45    2.05    35.93577    40.10536   173.32334
   405  C   4.0    0.04    4.37    4.32    34.62447    42.47749   173.04391
   406  C   4.0    0.15    3.40    3.08    36.32981    44.53985   171.94588
   407  O   6.0   -0.28    1.21    1.80    38.63590    44.46524   171.95679
   408  C   4.0   -0.06    4.11    3.82    33.59313    43.37122   175.59170
   409  H   1.0    0.09    1.06    1.44    37.21000    39.94643   174.72879
   410  H   1.0    0.06    1.07    1.44    33.11917    42.10430   171.67284
   411  H   1.0    0.05    1.00    1.43    32.49305    45.09130   175.38477
   412  H   1.0    0.05    1.00    1.43    32.43726    41.89992   176.43614
   413  H   1.0    0.06    1.00    1.43    35.15711    43.77345   176.86465
   414  N   5.0   -0.14    3.55    2.11    34.96645    46.46494   171.01949
   415  C   4.0    0.04    4.33    4.25    36.01018    48.90978   170.46831
   416  C   4.0    0.08    3.25    3.04    34.02966    50.85356   171.28263
   417  O   6.0   -0.30    1.17    1.80    31.81539    50.24314   171.53186
   418  C   4.0   -0.03    4.32    4.23    36.63522    49.11945   167.63220
   419  C   4.0   -0.01    3.59    3.16    34.31943    48.82152   166.02646
   420  C   4.0   -0.04    3.47    3.10    33.52026    46.44394   165.26129
   421  C   4.0   -0.04    3.48    3.10    32.94378    50.93059   165.28959
   422  C   4.0   -0.04    3.38    3.07    31.40865    46.19524   163.73900
   423  C   4.0   -0.05    3.37    3.07    30.82570    50.68022   163.77993
   424  C   4.0   -0.05    3.38    3.07    30.05720    48.30760   162.99515
   425  H   1.0    0.09    1.10    1.44    33.05627    46.48627   171.19527
   426  H   1.0    0.06    1.05    1.44    37.74517    49.18635   171.56621
   427  H   1.0    0.04    1.03    1.43    37.52531    50.94650   167.28005
   428  H   1.0    0.05    1.03    1.43    37.98947    47.62266   167.20365
   429  H   1.0    0.06    1.03    1.43    34.58793    44.79527   165.81577
   430  H   1.0    0.04    1.03    1.43    33.55463    52.77500   165.92321
   431  H   1.0    0.05    1.03    1.43    30.89445    44.34492   163.05655
   432  H   1.0    0.04    1.03    1.43    29.80118    52.34406   163.19918
   433  H   1.0    0.04    1.03    1.43    28.41776    48.11038   161.80092
   434  N   5.0   -0.19    3.25    1.97    30.46139    57.90531   170.06989
   435  C   4.0    0.03    4.23    4.06    29.53338    59.65890   168.16484
   436  C   4.0    0.09    3.21    3.04    29.27566    62.20636   169.52756
   437  O   6.0   -0.28    1.13    1.80    27.86999    62.43509   171.34295
   438  C   4.0   -0.05    4.35    4.29    27.01917    58.63740   167.17567
   439  C   4.0   -0.03    4.17    3.94    25.93588    60.05161   164.89699
   440  C   4.0   -0.08    4.11    3.82    27.79197    60.19221   162.68792
   441  C   4.0   -0.08    4.12    3.83    23.54137    58.70561   164.00434
   442  H   1.0    0.10    1.03    1.43    29.34737    57.73554   171.61178
   443  H   1.0    0.03    1.05    1.44    30.95646    59.77919   166.68064
   444  H   1.0    0.03    1.03    1.43    27.32542    56.66385   166.65518
   445  H   1.0    0.05    1.03    1.43    25.65785    58.70811   168.72445
   446  H   1.0    0.05    1.05    1.44    25.47309    61.98574   165.47166
   447  H   1.0    0.04    1.00    1.43    26.85198    60.99990   161.04802
   448  H   1.0    0.04    1.00    1.43    29.42269    61.35932   163.12710
   449  H   1.0    0.03    1.00    1.43    28.43955    58.30599   162.18659
   450  H   1.0    0.04    1.00    1.43    22.64833    59.78626   162.50690
   451  H   1.0    0.03    1.00    1.43    24.02338    56.85084   163.26695
   452  H   1.0    0.04    1.00    1.43    22.20251    58.47192   165.53908
   453  N   5.0   -0.20    3.20    1.96    16.02390    60.52332   180.84933
   454  C   4.0    0.03    4.26    4.13    15.50122    58.48326   179.10618
   455  C   4.0    0.09    3.17    3.03    12.66602    57.85963   178.98904
   456  O   6.0   -0.30    1.18    1.80    11.86647    56.30847   177.46490
   457  C   4.0   -0.04    4.30    4.20    17.20343    56.19304   179.60525
   458  C   4.0   -0.04    4.04    3.69    19.97829    56.78927   179.08968
   459  S   6.0   -0.05    2.53    3.10    20.49630    57.67576   175.75743
   460  C   4.0   -0.06    3.87    3.42    23.92213    57.86403   175.63696
   461  H   1.0    0.09    1.02    1.43    16.87389    60.11467   182.50816
   462  H   1.0    0.04    1.09    1.44    15.94978    59.17987   177.19733
   463  H   1.0    0.05    1.03    1.43    17.00098    55.60687   181.57170
   464  H   1.0    0.06    1.04    1.43    16.60036    54.64340   178.38942
   465  H   1.0    0.05    1.06    1.44    20.64465    58.37072   180.22694
   466  H   1.0    0.05    1.06    1.44    21.13781    55.12910   179.45090
   467  H   1.0    0.05    1.04    1.44    24.39665    58.84236   173.89684
   468  H   1.0    0.05    1.04    1.43    24.57338    58.94579   177.24654
   469  H   1.0    0.05    1.04    1.43    24.70613    55.96687   175.63545
   470  N   5.0   -0.18    3.23    1.96    36.00111    61.26056   161.33088
   471  C   4.0    0.03    4.23    4.06    36.10925    58.94886   162.78355
   472  C   4.0    0.09    3.21    3.04    38.84295    58.13530   163.17739
   473  O   6.0   -0.26    1.13    1.80    40.44783    58.36056   161.52388
   474  C   4.0   -0.04    4.33    4.25    34.45216    56.85699   161.64998
   475  C   4.0   -0.01    3.59    3.16    35.35137    55.96458   159.13515
   476  C   4.0   -0.04    3.49    3.11    34.82619    57.39806   157.00660
   477  C   4.0   -0.04    3.47    3.10    36.67432    53.71322   158.88332
   478  C   4.0   -0.04    3.44    3.09    35.54854    56.56555   154.64710
   479  C   4.0   -0.03    3.43    3.09    37.42884    52.86917   156.53476
   480  C   4.0    0.08    3.47    3.10    36.80971    54.27665   154.40502
   481  O   6.0   -0.23    2.12    1.84    37.41499    53.36255   152.07882
   482  H   1.0    0.10    1.02    1.43    37.00974    61.45705   159.71801
   483  H   1.0    0.04    1.06    1.44    35.31666    59.41398   164.64016
   484  H   1.0    0.03    1.04    1.43    34.41842    55.29691   162.99185
   485  H   1.0    0.03    1.03    1.43    32.54919    57.63159   161.48225
   486  H   1.0    0.05    1.03    1.43    33.81163    59.15717   157.18844
   487  H   1.0    0.05    1.03    1.43    37.07450    52.59550   160.54308
   488  H   1.0    0.06    1.03    1.43    35.09129    57.67531   152.99362
   489  H   1.0    0.07    1.03    1.43    38.43417    51.11352   156.29227
   490  H   1.0    0.11    1.04    1.44    36.58985    54.39901   150.81541
   491  N   5.0   -0.18    3.28    1.98     6.44880    54.58216   143.88128
   492  C   4.0    0.03    4.42    4.41     6.82508    53.46298   146.35372
   493  C   4.0    0.15    3.45    3.09     5.05182    51.22511   146.78711
   494  O   6.0   -0.27    1.25    1.80     3.70755    50.37277   145.12452
   495  C   4.0   -0.02    4.39    4.36     6.32226    55.65461   148.18348
   496  C   4.0   -0.05    4.16    3.91     7.64676    55.49541   150.75147
   497  C   4.0   -0.06    4.15    3.90     3.45240    56.07736   148.33749
   498  C   4.0   -0.08    4.02    3.66    10.46719    54.95770   150.48071
   499  H   1.0    0.09    1.04    1.43     5.14353    55.97138   143.80693
   500  H   1.0    0.04    1.05    1.44     8.77203    52.77739   146.42972
   501  H   1.0    0.04    1.08    1.44     7.16012    57.30528   147.26849
   502  H   1.0    0.04    1.03    1.43     7.43737    57.34185   151.64823
   503  H   1.0    0.05    1.02    1.43     6.76498    54.14547   152.03655
   504  H   1.0    0.07    1.01    1.43     2.69470    55.30952   150.08288
   505  H   1.0    0.05    1.00    1.43     3.06790    58.08955   148.22628
   506  H   1.0    0.06    1.01    1.43     2.47709    55.15848   146.77770
   507  H   1.0    0.04    1.00    1.43    11.40379    55.25174   152.28658
   508  H   1.0    0.04    1.00    1.43    10.82794    53.02334   149.89511
   509  H   1.0    0.04    1.00    1.43    11.29527    56.23933   149.10511
   510  N   5.0   -0.14    3.40    2.02     5.10103    50.22215   149.13215
   511  C   4.0    0.02    4.17    3.93     2.97159    48.75796   150.00967
   512  C   4.0    0.08    3.13    3.03     1.49153    50.29056   151.95295
   513  O   6.0   -0.30    1.16    1.80     2.28252    52.27138   152.82567
   514  H   1.0    0.08    1.09    1.44     5.99462    51.21506   150.49569
   515  H   1.0    0.07    1.04    1.43     1.78613    48.31881   148.37642
   516  H   1.0    0.05    1.02    1.43     3.61614    46.99453   150.87815
   517  H   1.0    0.09    1.08    1.44    25.52025    65.94406   151.42047
   518  H   1.0    0.06    1.04    1.43    32.75277    64.39785   152.21807
   519  H   1.0    0.10    1.07    1.44    47.69387    44.37807   160.35436
   520  H   1.0    0.06    1.05    1.44    42.23169    48.85175   149.01893
   521  H   1.0    0.10    1.08    1.44    36.52355    51.53982   147.97172
   522  H   1.0    0.06    1.05    1.44    32.51457    50.86611   141.51855
   523  H   1.0    0.10    1.09    1.44    19.17134    63.33865   144.17104
   524  H   1.0    0.06    1.04    1.43    11.61477    63.92141   145.00340
   525  H   1.0    0.10    1.07    1.44    -0.64952    60.91608   162.67611
   526  H   1.0    0.06    1.04    1.43     4.49456    58.24171   167.51030
   527  H   1.0    0.10    1.07    1.44     9.95088    59.32707   168.95420
   528  H   1.0    0.07    1.04    1.43    31.75428    30.87310   169.75532
   529  H   1.0    0.11    1.08    1.44    36.28584    32.41384   171.60162
   530  H   1.0    0.05    1.04    1.43    34.54200    52.64167   171.61615
   531  H   1.0    0.09    1.08    1.44    30.59980    56.35165   169.39201
   532  H   1.0    0.06    1.04    1.43    30.26505    63.70161   168.93057
   533  H   1.0    0.10    1.07    1.44    17.05183    61.65605   180.10580
   534  H   1.0    0.07    1.04    1.44    11.45982    58.72129   180.16108
   535  H   1.0    0.09    1.08    1.44    34.39978    61.54364   160.83272
   536  H   1.0    0.06    1.05    1.44    39.37805    57.38889   164.82894
   537  H   1.0    0.09    1.07    1.44     7.90968    55.26267   143.33785
   538  H   1.0    0.06    1.05    1.44    -0.19178    49.67869   152.55558

  Z AO/shell   Hii/eV     exponent
  1     Wed Apr 25 08:07:45 CEST 2018   EN: 2.200 GM2: 0.406  GM3: 0.0800  RAES: 1.40
     1s    -10.707211    1.230000
  6     Wed Apr 25 08:07:45 CEST 2018   EN: 2.550 GM2: 0.538  GM3: 0.1500  RAES: 3.00
     2s    -13.970922    2.096432
     2p    -10.063292    1.800000
  7     Wed Apr 25 08:07:45 CEST 2018   EN: 3.040 GM2: 0.461  GM3:-0.0640  RAES: 1.90
     2s    -16.686243    2.339881
     2p    -12.523956    2.014332
  8     Wed Apr 25 08:07:45 CEST 2018   EN: 3.440 GM2: 0.452  GM3:-0.0517  RAES: 1.80
     2s    -20.229985    2.439742
     2p    -15.503117    2.137023
 16     Tue Apr 24 11:44:34 CEST 2018   EN: 2.580 GM2: 0.340  GM3:-0.0502  RAES: 3.10
     3s    -20.029654    1.981333
     3p    -11.377694    2.025643
     3d     -0.420282    1.702555
 no old-style atom pair restraining (fixing) potential

molecular fragmentation (1/2 indicates fragments):
111111111111111122222222222222222222222222222222222222222222222222222222
222222222222222222222222222222222222222222222222222222222222222222222222
222222222222222222222222222222222222222222222222222222222222222222222222
222222222222222222222222222222222222222222222222222222222222222222222222
222222222222222222222222222222222222222222222222222222222222222222222222
222222222222222222222222222222222222222222222222222222222222222222222222
222222222222222222222222222222222222222222222222222222222222222222222222
2222222222221122222222222222222222
# atoms in fragment 1/2:    18   520
 fragment masses (1/2) :      101.15     3435.41
CMA distance (Bohr)    :  17.520
constraining FC (au)   :  0.0500
           ------------------------------------------------- 
          |        Self-Consistent Charge Iterations        |
           ------------------------------------------------- 

 Ncao       : 1294
 Nao        : 1291
 Nshell     : 787
 Nel        : 1394
 T(el)      :   500.0
 intcut     :    35.0
 scfconv/Eh :  0.100E-06
   qconv/e  :  0.100E-04
 intneglect :  0.100E-08
 broydamp   :      0.400
 iter      E             dE          RMSdq      gap      omega  full diag
   1   -789.3087844 -0.789309E+03  0.445E+00    2.88       0.0  T
   2   -790.9699156 -0.166113E+01  0.212E+00    1.55       1.0  T
   3   -791.0640761 -0.941605E-01  0.118E+00    1.69       1.0  T
   4   -791.1908542 -0.126778E+00  0.239E-01    1.15       1.0  T
   5   -791.1965711 -0.571690E-02  0.112E-01    1.21       1.0  T
   6   -791.1977422 -0.117114E-02  0.464E-02    1.16       1.0  T
   7   -791.1980251 -0.282838E-03  0.211E-02    1.14       1.0  T
   8   -791.1980676 -0.425504E-04  0.101E-02    1.13       1.0  T
   9   -791.1980811 -0.135042E-04  0.476E-03    1.12       1.0  T
  10   -791.1980837 -0.258675E-05  0.219E-03    1.12       2.0  T
  11   -791.1980842 -0.517421E-06  0.110E-03    1.12       3.9  T
  12   -791.1980843 -0.125191E-06  0.530E-04    1.11       8.1  T
  13   -791.1980844 -0.438001E-07  0.261E-04    1.11      16.5  T
  14   -791.1980844 -0.650925E-08  0.113E-04    1.11      38.3  T
  15   -791.1980844 -0.168791E-08  0.430E-05    1.11     100.3  T
  16   -791.1980844 -0.162231E-09  0.189E-05    1.11     228.6  T
speedup  1.54
cpu  time for SCC   18.55 s
wall time for SCC   12.05 s

   *** convergence criteria satisfied after 16 iterations ***

          eigenvalues
 #    :         685        686        687        688        689        690        691        692
 occ. :        2.000      2.000      2.000      2.000      2.000      2.000      2.000      2.000
 eps  :       -10.096    -10.057    -10.056    -10.026     -9.986     -9.938     -9.931     -9.920
 #    :         693        694        695        696        697        698        699        700
 occ. :        2.000      2.000      2.000      2.000      2.000      0.000      0.000      0.000
 eps  :        -9.895     -9.836     -9.755     -9.534     -9.367     -8.254     -8.138     -7.890
 #    :         701        702        703        704        705        706        707        708
 occ. :        0.000      0.000      0.000      0.000      0.000      0.000      0.000      0.000
 eps  :        -7.844     -7.841     -7.823     -7.800     -7.792     -7.664     -7.491     -7.460


   #   Z            q   n(s)   n(p)   n(d)      C6AA      α(0)
   1   7 N     -0.388  1.325  4.063  0.000    30.049     8.141
   2   6 C      0.035  1.060  2.905  0.000    19.997     6.369
   3   6 C      0.207  1.087  2.706  0.000    23.608     7.958
   4   8 O     -0.378  1.758  4.620  0.000    21.251     6.181
   5   6 C     -0.016  1.062  2.954  0.000    20.819     6.489
   6   6 C     -0.117  1.041  3.076  0.000    22.796     6.807
   7   6 C     -0.111  1.038  3.073  0.000    22.674     6.789
   8   1 H      0.154  0.846  0.000  0.000     1.375     1.837
   9   1 H      0.051  0.949  0.000  0.000     2.308     2.376
  10   1 H      0.042  0.958  0.000  0.000     2.426     2.436
  11   1 H      0.066  0.934  0.000  0.000     2.130     2.282
  12   1 H      0.027  0.973  0.000  0.000     2.624     2.533
  13   1 H      0.043  0.957  0.000  0.000     2.406     2.426
  14   1 H      0.062  0.938  0.000  0.000     2.180     2.309
  15   1 H      0.042  0.958  0.000  0.000     2.422     2.434
  16   1 H      0.032  0.968  0.000  0.000     2.552     2.498
  17   7 N     -0.392  1.313  4.079  0.000    30.162     8.157
  18   6 C      0.038  1.056  2.906  0.000    19.950     6.362
  19   6 C      0.263  1.050  2.687  0.000    22.557     7.778
  20   8 O     -0.528  1.763  4.766  0.000    24.419     6.625
  21   6 C     -0.062  1.056  3.006  0.000    21.687     6.628
  22   6 C     -0.008  1.056  2.952  0.000    20.692     6.470
  23   6 C     -0.112  1.040  3.071  0.000    22.686     6.791
  24   6 C     -0.115  1.041  3.074  0.000    22.760     6.802
  25   1 H      0.151  0.849  0.000  0.000     1.395     1.850
  26   1 H      0.034  0.966  0.000  0.000     2.532     2.488
  27   1 H      0.030  0.970  0.000  0.000     2.579     2.512
  28   1 H      0.043  0.957  0.000  0.000     2.403     2.424
  29   1 H      0.023  0.977  0.000  0.000     2.693     2.566
  30   1 H      0.046  0.954  0.000  0.000     2.368     2.406
  31   1 H      0.024  0.976  0.000  0.000     2.674     2.557
  32   1 H      0.042  0.958  0.000  0.000     2.425     2.435
  33   1 H      0.041  0.959  0.000  0.000     2.439     2.442
  34   1 H      0.053  0.947  0.000  0.000     2.280     2.361
  35   1 H      0.037  0.963  0.000  0.000     2.488     2.467
  36   7 N     -0.081  1.224  3.857  0.000    22.820     7.095
  37   6 C      0.023  1.065  2.912  0.000    20.163     6.389
  38   6 C      0.203  1.084  2.713  0.000    23.691     7.971
  39   8 O     -0.351  1.753  4.598  0.000    20.727     6.104
  40   6 C     -0.075  1.056  3.020  0.000    21.920     6.662
  41   6 C     -0.070  1.052  3.017  0.000    21.807     6.644
  42   6 C     -0.016  1.055  2.962  0.000    20.915     6.520
  43   1 H      0.081  0.919  0.000  0.000     1.970     2.195
  44   1 H      0.073  0.927  0.000  0.000     2.051     2.239
  45   1 H      0.078  0.922  0.000  0.000     1.997     2.210
  46   1 H      0.065  0.935  0.000  0.000     2.137     2.286
  47   1 H      0.071  0.929  0.000  0.000     2.072     2.251
  48   1 H      0.072  0.928  0.000  0.000     2.068     2.249
  49   1 H      0.067  0.933  0.000  0.000     2.114     2.274
  50   7 N     -0.383  1.316  4.067  0.000    29.911     8.123
  51   6 C      0.037  1.055  2.908  0.000    19.972     6.366
  52   6 C      0.196  1.087  2.717  0.000    23.821     7.993
  53   8 O     -0.390  1.766  4.623  0.000    21.473     6.213
  54   6 C     -0.072  1.060  3.012  0.000    21.859     6.655
  55   6 C     -0.011  1.055  2.955  0.000    20.732     6.476
  56   6 C     -0.112  1.041  3.072  0.000    22.700     6.792
  57   6 C     -0.116  1.041  3.076  0.000    22.783     6.806
  58   1 H      0.148  0.852  0.000  0.000     1.413     1.862
  59   1 H      0.070  0.930  0.000  0.000     2.084     2.258
  60   1 H      0.039  0.961  0.000  0.000     2.468     2.457
  61   1 H      0.051  0.949  0.000  0.000     2.304     2.374
  62   1 H      0.030  0.970  0.000  0.000     2.590     2.517
  63   1 H      0.048  0.952  0.000  0.000     2.346     2.395
  64   1 H      0.030  0.970  0.000  0.000     2.593     2.518
  65   1 H      0.049  0.951  0.000  0.000     2.332     2.388
  66   1 H      0.044  0.956  0.000  0.000     2.397     2.421
  67   1 H      0.051  0.949  0.000  0.000     2.309     2.376
  68   1 H      0.036  0.964  0.000  0.000     2.501     2.473
  69   7 N     -0.384  1.324  4.060  0.000    29.937     8.126
  70   6 C      0.040  1.060  2.900  0.000    19.925     6.359
  71   6 C      0.199  1.089  2.712  0.000    23.771     7.985
  72   8 O     -0.382  1.765  4.618  0.000    21.334     6.193
  73   6 C     -0.065  1.055  3.010  0.000    21.741     6.636
  74   6 C      0.011  1.080  2.909  0.000    27.763     8.643
  75   6 C     -0.040  1.078  2.963  0.000    29.003     8.832
  76   6 C     -0.041  1.082  2.959  0.000    29.028     8.835
  77   6 C     -0.031  1.080  2.951  0.000    28.777     8.797
  78   6 C     -0.036  1.082  2.954  0.000    28.885     8.813
  79   6 C     -0.035  1.080  2.955  0.000    28.874     8.812
  80   1 H      0.158  0.842  0.000  0.000     1.350     1.820
  81   1 H      0.062  0.938  0.000  0.000     2.173     2.305
  82   1 H      0.046  0.954  0.000  0.000     2.369     2.407
  83   1 H      0.043  0.957  0.000  0.000     2.409     2.427
  84   1 H      0.023  0.977  0.000  0.000     2.694     2.567
  85   1 H      0.046  0.954  0.000  0.000     2.375     2.410
  86   1 H      0.027  0.973  0.000  0.000     2.623     2.533
  87   1 H      0.060  0.940  0.000  0.000     2.204     2.322
  88   1 H      0.044  0.956  0.000  0.000     2.393     2.419
  89   7 N     -0.393  1.322  4.070  0.000    30.175     8.158
  90   6 C      0.038  1.057  2.905  0.000    19.958     6.364
  91   6 C      0.202  1.090  2.708  0.000    23.699     7.973
  92   8 O     -0.384  1.762  4.621  0.000    21.359     6.196
  93   6 C     -0.066  1.062  3.005  0.000    21.765     6.641
  94   6 C     -0.013  1.057  2.956  0.000    20.772     6.483
  95   6 C     -0.115  1.040  3.075  0.000    22.754     6.801
  96   6 C     -0.115  1.041  3.074  0.000    22.755     6.801
  97   1 H      0.158  0.842  0.000  0.000     1.350     1.820
  98   1 H      0.069  0.931  0.000  0.000     2.092     2.262
  99   1 H      0.048  0.952  0.000  0.000     2.351     2.398
 100   1 H      0.035  0.965  0.000  0.000     2.511     2.478
 101   1 H      0.031  0.969  0.000  0.000     2.578     2.511
 102   1 H      0.042  0.958  0.000  0.000     2.421     2.433
 103   1 H      0.045  0.955  0.000  0.000     2.384     2.415
 104   1 H      0.036  0.964  0.000  0.000     2.497     2.471
 105   1 H      0.046  0.954  0.000  0.000     2.367     2.406
 106   1 H      0.045  0.955  0.000  0.000     2.381     2.413
 107   1 H      0.036  0.964  0.000  0.000     2.506     2.476
 108   7 N     -0.388  1.303  4.085  0.000    30.036     8.140
 109   6 C      0.031  1.055  2.914  0.000    20.065     6.380
 110   6 C      0.263  1.050  2.687  0.000    22.560     7.779
 111   8 O     -0.482  1.729  4.752  0.000    23.381     6.483
 112   6 C     -0.062  1.051  3.011  0.000    21.659     6.620
 113   6 C     -0.005  1.060  2.945  0.000    20.680     6.475
 114  16 S     -0.228  1.916  4.262  0.050   150.815    20.669
 115   6 C     -0.052  1.050  3.001  0.000    21.573     6.626
 116   1 H      0.161  0.839  0.000  0.000     1.331     1.807
 117   1 H      0.051  0.949  0.000  0.000     2.314     2.379
 118   1 H      0.045  0.955  0.000  0.000     2.381     2.413
 119   1 H      0.061  0.939  0.000  0.000     2.183     2.311
 120   1 H      0.051  0.949  0.000  0.000     2.305     2.374
 121   1 H      0.042  0.958  0.000  0.000     2.423     2.434
 122   1 H      0.067  0.933  0.000  0.000     2.122     2.278
 123   1 H      0.053  0.947  0.000  0.000     2.280     2.361
 124   1 H      0.061  0.939  0.000  0.000     2.191     2.315
 125   7 N     -0.175  1.243  3.932  0.000    24.789     7.395
 126   6 C     -0.000  1.072  2.929  0.000    20.585     6.459
 127   6 C      0.273  1.042  2.684  0.000    22.384     7.748
 128   8 O     -0.462  1.730  4.732  0.000    22.965     6.425
 129   6 C      0.117  1.046  2.837  0.000    18.773     6.187
 130   8 O     -0.471  1.717  4.754  0.000    22.282     6.372
 131   6 C     -0.132  1.042  3.089  0.000    23.086     6.852
 132   1 H      0.217  0.783  0.000  0.000     1.023     1.585
 133   1 H      0.096  0.904  0.000  0.000     1.824     2.112
 134   1 H      0.027  0.973  0.000  0.000     2.623     2.533
 135   1 H      0.325  0.675  0.000  0.000     0.650     1.266
 136   1 H      0.072  0.928  0.000  0.000     2.066     2.248
 137   1 H      0.053  0.947  0.000  0.000     2.286     2.364
 138   1 H      0.072  0.928  0.000  0.000     2.069     2.249
 139   7 N     -0.184  1.247  3.937  0.000    24.980     7.423
 140   6 C      0.011  1.065  2.924  0.000    20.401     6.431
 141   6 C      0.274  1.041  2.685  0.000    22.367     7.745
 142   8 O     -0.471  1.735  4.736  0.000    23.154     6.451
 143   6 C     -0.067  1.051  3.016  0.000    21.770     6.642
 144   6 C     -0.108  1.060  3.048  0.000    22.559     6.762
 145   6 C      0.286  1.038  2.676  0.000    22.146     7.705
 146   8 O     -0.499  1.754  4.745  0.000    23.759     6.535
 147   7 N     -0.289  1.266  4.023  0.000    27.462     7.783
 148   1 H      0.209  0.791  0.000  0.000     1.061     1.613
 149   1 H      0.091  0.909  0.000  0.000     1.872     2.140
 150   1 H      0.065  0.935  0.000  0.000     2.144     2.290
 151   1 H      0.070  0.930  0.000  0.000     2.083     2.257
 152   1 H      0.080  0.920  0.000  0.000     1.984     2.203
 153   1 H      0.084  0.916  0.000  0.000     1.936     2.176
 154   1 H      0.229  0.771  0.000  0.000     0.968     1.541
 155   1 H      0.227  0.773  0.000  0.000     0.978     1.549
 156   7 N     -0.173  1.242  3.930  0.000    24.735     7.387
 157   6 C      0.023  1.060  2.917  0.000    20.186     6.396
 158   6 C      0.275  1.039  2.687  0.000    22.357     7.743
 159   8 O     -0.482  1.735  4.747  0.000    23.385     6.484
 160   6 C     -0.077  1.054  3.023  0.000    21.953     6.669
 161   6 C      0.011  1.079  2.911  0.000    27.779     8.645
 162   6 C     -0.038  1.078  2.961  0.000    28.949     8.823
 163   6 C     -0.040  1.082  2.958  0.000    28.991     8.830
 164   6 C     -0.032  1.079  2.952  0.000    28.786     8.798
 165   6 C     -0.029  1.081  2.949  0.000    28.728     8.789
 166   6 C     -0.033  1.080  2.953  0.000    28.811     8.802
 167   1 H      0.194  0.806  0.000  0.000     1.135     1.669
 168   1 H      0.079  0.921  0.000  0.000     1.986     2.204
 169   1 H      0.058  0.942  0.000  0.000     2.223     2.332
 170   1 H      0.062  0.938  0.000  0.000     2.170     2.304
 171   1 H      0.035  0.965  0.000  0.000     2.514     2.480
 172   1 H      0.042  0.958  0.000  0.000     2.420     2.433
 173   1 H      0.044  0.956  0.000  0.000     2.392     2.419
 174   1 H      0.037  0.963  0.000  0.000     2.493     2.469
 175   1 H      0.036  0.964  0.000  0.000     2.500     2.473
 176   7 N     -0.186  1.253  3.933  0.000    25.033     7.431
 177   6 C      0.022  1.063  2.915  0.000    20.203     6.400
 178   6 C      0.280  1.042  2.678  0.000    22.260     7.726
 179   8 O     -0.479  1.726  4.754  0.000    23.330     6.476
 180   6 C     -0.083  1.059  3.023  0.000    22.073     6.688
 181   6 C     -0.016  1.059  2.956  0.000    20.819     6.490
 182   6 C     -0.122  1.043  3.079  0.000    22.892     6.822
 183   6 C     -0.132  1.044  3.089  0.000    23.102     6.853
 184   1 H      0.232  0.768  0.000  0.000     0.958     1.533
 185   1 H      0.076  0.924  0.000  0.000     2.016     2.221
 186   1 H      0.067  0.933  0.000  0.000     2.117     2.275
 187   1 H      0.058  0.942  0.000  0.000     2.222     2.331
 188   1 H      0.041  0.959  0.000  0.000     2.436     2.441
 189   1 H      0.055  0.945  0.000  0.000     2.256     2.349
 190   1 H      0.033  0.967  0.000  0.000     2.537     2.491
 191   1 H      0.047  0.953  0.000  0.000     2.363     2.404
 192   1 H      0.049  0.951  0.000  0.000     2.338     2.391
 193   1 H      0.047  0.953  0.000  0.000     2.362     2.403
 194   1 H      0.051  0.949  0.000  0.000     2.311     2.377
 195   7 N     -0.184  1.247  3.937  0.000    24.993     7.425
 196   6 C      0.019  1.061  2.920  0.000    20.260     6.409
 197   6 C      0.287  1.037  2.676  0.000    22.136     7.705
 198   8 O     -0.494  1.734  4.760  0.000    23.646     6.520
 199   6 C      0.067  1.041  2.892  0.000    19.672     6.353
 200   8 O     -0.490  1.730  4.760  0.000    22.668     6.427
 201   1 H      0.228  0.772  0.000  0.000     0.974     1.546
 202   1 H      0.084  0.916  0.000  0.000     1.941     2.179
 203   1 H      0.048  0.952  0.000  0.000     2.341     2.393
 204   1 H      0.056  0.944  0.000  0.000     2.246     2.344
 205   1 H      0.352  0.648  0.000  0.000     0.584     1.200
 206   7 N     -0.177  1.244  3.933  0.000    24.843     7.403
 207   6 C      0.018  1.066  2.917  0.000    20.275     6.410
 208   6 C      0.271  1.043  2.686  0.000    22.423     7.755
 209   8 O     -0.496  1.740  4.756  0.000    23.694     6.526
 210   6 C     -0.024  1.065  2.959  0.000    20.958     6.511
 211   6 C     -0.072  1.051  3.021  0.000    21.878     6.659
 212   6 C     -0.126  1.040  3.086  0.000    22.968     6.833
 213   6 C     -0.106  1.036  3.070  0.000    22.589     6.778
 214   1 H      0.224  0.776  0.000  0.000     0.990     1.559
 215   1 H      0.063  0.937  0.000  0.000     2.164     2.300
 216   1 H      0.050  0.950  0.000  0.000     2.320     2.382
 217   1 H      0.039  0.961  0.000  0.000     2.460     2.453
 218   1 H      0.053  0.947  0.000  0.000     2.280     2.361
 219   1 H      0.060  0.940  0.000  0.000     2.202     2.320
 220   1 H      0.054  0.946  0.000  0.000     2.275     2.359
 221   1 H      0.049  0.951  0.000  0.000     2.330     2.387
 222   1 H      0.033  0.967  0.000  0.000     2.551     2.498
 223   1 H      0.037  0.963  0.000  0.000     2.493     2.469
 224   1 H      0.047  0.953  0.000  0.000     2.358     2.401
 225   7 N     -0.181  1.249  3.932  0.000    24.924     7.415
 226   6 C      0.017  1.066  2.917  0.000    20.288     6.412
 227   6 C      0.274  1.043  2.683  0.000    22.375     7.746
 228   8 O     -0.497  1.744  4.753  0.000    23.723     6.530
 229   6 C     -0.028  1.066  2.962  0.000    21.027     6.521
 230   6 C     -0.067  1.051  3.015  0.000    21.771     6.642
 231   6 C     -0.118  1.039  3.079  0.000    22.812     6.810
 232   6 C     -0.112  1.036  3.076  0.000    22.700     6.794
 233   1 H      0.228  0.772  0.000  0.000     0.975     1.547
 234   1 H      0.077  0.923  0.000  0.000     2.007     2.216
 235   1 H      0.057  0.943  0.000  0.000     2.236     2.339
 236   1 H      0.048  0.952  0.000  0.000     2.340     2.392
 237   1 H      0.041  0.959  0.000  0.000     2.439     2.442
 238   1 H      0.060  0.940  0.000  0.000     2.194     2.317
 239   1 H      0.040  0.960  0.000  0.000     2.449     2.447
 240   1 H      0.044  0.956  0.000  0.000     2.400     2.423
 241   1 H      0.042  0.958  0.000  0.000     2.417     2.431
 242   1 H      0.032  0.968  0.000  0.000     2.559     2.502
 243   1 H      0.047  0.953  0.000  0.000     2.362     2.403
 244   7 N     -0.196  1.253  3.942  0.000    25.245     7.462
 245   6 C      0.022  1.061  2.916  0.000    20.201     6.399
 246   6 C      0.280  1.040  2.680  0.000    22.261     7.726
 247   8 O     -0.491  1.747  4.744  0.000    23.586     6.511
 248   6 C     -0.091  1.059  3.032  0.000    22.221     6.710
 249   6 C     -0.076  1.049  3.027  0.000    21.942     6.668
 250   6 C     -0.036  1.054  2.981  0.000    21.288     6.583
 251   7 N     -0.126  1.207  3.919  0.000    23.729     7.235
 252   6 C      0.226  1.020  2.754  0.000    23.247     7.894
 253   7 N     -0.232  1.228  4.004  0.000    26.080     7.585
 254   7 N     -0.256  1.235  4.021  0.000    26.656     7.668
 255   1 H      0.241  0.759  0.000  0.000     0.919     1.502
 256   1 H      0.076  0.924  0.000  0.000     2.022     2.224
 257   1 H      0.082  0.918  0.000  0.000     1.954     2.186
 258   1 H      0.067  0.933  0.000  0.000     2.116     2.275
 259   1 H      0.060  0.940  0.000  0.000     2.200     2.320
 260   1 H      0.072  0.928  0.000  0.000     2.061     2.245
 261   1 H      0.088  0.912  0.000  0.000     1.895     2.153
 262   1 H      0.100  0.900  0.000  0.000     1.784     2.089
 263   1 H      0.228  0.772  0.000  0.000     0.975     1.547
 264   1 H      0.230  0.770  0.000  0.000     0.964     1.538
 265   1 H      0.245  0.755  0.000  0.000     0.903     1.488
 266   1 H      0.233  0.767  0.000  0.000     0.954     1.530
 267   1 H      0.245  0.755  0.000  0.000     0.901     1.487
 268   7 N     -0.200  1.255  3.945  0.000    25.349     7.478
 269   6 C      0.023  1.061  2.916  0.000    20.201     6.400
 270   6 C      0.294  1.034  2.672  0.000    22.020     7.684
 271   8 O     -0.495  1.753  4.741  0.000    23.668     6.523
 272   6 C      0.068  1.043  2.889  0.000    19.647     6.348
 273   8 O     -0.495  1.735  4.760  0.000    22.782     6.443
 274   1 H      0.236  0.764  0.000  0.000     0.942     1.520
 275   1 H      0.057  0.943  0.000  0.000     2.229     2.335
 276   1 H      0.038  0.962  0.000  0.000     2.471     2.458
 277   1 H      0.068  0.932  0.000  0.000     2.112     2.273
 278   1 H      0.355  0.645  0.000  0.000     0.576     1.192
 279   7 N     -0.177  1.238  3.939  0.000    24.832     7.401
 280   6 C      0.023  1.057  2.920  0.000    20.192     6.398
 281   6 C      0.273  1.045  2.682  0.000    22.386     7.748
 282   8 O     -0.502  1.741  4.760  0.000    23.819     6.543
 283   6 C     -0.080  1.057  3.023  0.000    22.025     6.680
 284   6 C     -0.089  1.057  3.032  0.000    22.193     6.707
 285   6 C     -0.026  1.054  2.972  0.000    21.120     6.558
 286   7 N     -0.138  1.214  3.925  0.000    23.995     7.275
 287   6 C      0.234  1.020  2.746  0.000    23.103     7.870
 288   7 N     -0.240  1.229  4.010  0.000    26.262     7.611
 289   7 N     -0.259  1.242  4.017  0.000    26.715     7.676
 290   1 H      0.216  0.784  0.000  0.000     1.028     1.588
 291   1 H      0.074  0.926  0.000  0.000     2.043     2.235
 292   1 H      0.074  0.926  0.000  0.000     2.042     2.235
 293   1 H      0.070  0.930  0.000  0.000     2.085     2.258
 294   1 H      0.066  0.934  0.000  0.000     2.125     2.280
 295   1 H      0.075  0.925  0.000  0.000     2.033     2.229
 296   1 H      0.090  0.910  0.000  0.000     1.878     2.143
 297   1 H      0.085  0.915  0.000  0.000     1.925     2.170
 298   1 H      0.237  0.763  0.000  0.000     0.933     1.513
 299   1 H      0.240  0.760  0.000  0.000     0.923     1.505
 300   1 H      0.248  0.752  0.000  0.000     0.889     1.477
 301   1 H      0.250  0.750  0.000  0.000     0.884     1.473
 302   1 H      0.251  0.749  0.000  0.000     0.879     1.469
 303   7 N     -0.175  1.243  3.932  0.000    24.793     7.395
 304   6 C      0.017  1.062  2.920  0.000    20.287     6.414
 305   6 C      0.271  1.047  2.682  0.000    22.417     7.753
 306   8 O     -0.468  1.752  4.716  0.000    23.083     6.441
 307   6 C     -0.075  1.055  3.019  0.000    21.894     6.656
 308   6 C     -0.013  1.068  2.945  0.000    20.818     6.497
 309  16 S     -0.216  1.916  4.254  0.046   150.259    20.631
 310   6 C     -0.057  1.053  3.004  0.000    21.665     6.640
 311   1 H      0.218  0.782  0.000  0.000     1.018     1.581
 312   1 H      0.077  0.923  0.000  0.000     2.010     2.217
 313   1 H      0.070  0.930  0.000  0.000     2.082     2.256
 314   1 H      0.064  0.936  0.000  0.000     2.153     2.294
 315   1 H      0.046  0.954  0.000  0.000     2.369     2.407
 316   1 H      0.063  0.937  0.000  0.000     2.167     2.302
 317   1 H      0.066  0.934  0.000  0.000     2.127     2.280
 318   1 H      0.051  0.949  0.000  0.000     2.303     2.373
 319   1 H      0.061  0.939  0.000  0.000     2.190     2.314
 320   7 N     -0.189  1.253  3.937  0.000    25.108     7.442
 321   6 C      0.016  1.068  2.916  0.000    20.310     6.417
 322   6 C      0.273  1.044  2.683  0.000    22.392     7.748
 323   8 O     -0.447  1.723  4.725  0.000    22.652     6.381
 324   6 C     -0.018  1.063  2.955  0.000    20.864     6.497
 325   6 C     -0.127  1.040  3.087  0.000    22.998     6.838
 326   6 C     -0.119  1.040  3.079  0.000    22.841     6.814
 327   1 H      0.206  0.794  0.000  0.000     1.077     1.626
 328   1 H      0.055  0.945  0.000  0.000     2.262     2.352
 329   1 H      0.046  0.954  0.000  0.000     2.369     2.407
 330   1 H      0.055  0.945  0.000  0.000     2.255     2.348
 331   1 H      0.044  0.956  0.000  0.000     2.391     2.418
 332   1 H      0.074  0.926  0.000  0.000     2.042     2.235
 333   1 H      0.057  0.943  0.000  0.000     2.240     2.340
 334   1 H      0.049  0.951  0.000  0.000     2.335     2.390
 335   1 H      0.039  0.961  0.000  0.000     2.461     2.453
 336   7 N     -0.174  1.246  3.928  0.000    24.766     7.391
 337   6 C      0.012  1.069  2.919  0.000    20.384     6.431
 338   6 C      0.271  1.044  2.685  0.000    22.419     7.753
 339   8 O     -0.480  1.749  4.731  0.000    23.340     6.477
 340   6 C     -0.081  1.057  3.024  0.000    22.038     6.683
 341   6 C     -0.013  1.059  2.954  0.000    20.781     6.484
 342   6 C     -0.116  1.041  3.075  0.000    22.779     6.805
 343   6 C     -0.118  1.043  3.075  0.000    22.817     6.810
 344   1 H      0.203  0.797  0.000  0.000     1.090     1.635
 345   1 H      0.079  0.921  0.000  0.000     1.994     2.208
 346   1 H      0.066  0.934  0.000  0.000     2.129     2.282
 347   1 H      0.072  0.928  0.000  0.000     2.059     2.244
 348   1 H      0.033  0.967  0.000  0.000     2.548     2.496
 349   1 H      0.039  0.961  0.000  0.000     2.456     2.451
 350   1 H      0.037  0.963  0.000  0.000     2.492     2.469
 351   1 H      0.045  0.955  0.000  0.000     2.383     2.414
 352   1 H      0.041  0.959  0.000  0.000     2.436     2.441
 353   1 H      0.045  0.955  0.000  0.000     2.383     2.414
 354   1 H      0.037  0.963  0.000  0.000     2.484     2.465
 355   7 N     -0.175  1.243  3.932  0.000    24.791     7.395
 356   6 C      0.013  1.061  2.926  0.000    20.367     6.426
 357   6 C      0.271  1.047  2.682  0.000    22.428     7.755
 358   8 O     -0.452  1.726  4.726  0.000    22.752     6.395
 359   6 C     -0.074  1.051  3.023  0.000    21.906     6.663
 360   6 C     -0.092  1.054  3.038  0.000    22.252     6.716
 361   6 C     -0.020  1.052  2.968  0.000    21.025     6.544
 362   7 N     -0.150  1.206  3.944  0.000    24.248     7.313
 363   6 C      0.244  1.020  2.736  0.000    22.902     7.835
 364   7 N     -0.264  1.252  4.012  0.000    26.854     7.696
 365   7 N     -0.274  1.253  4.021  0.000    27.073     7.728
 366   1 H      0.200  0.800  0.000  0.000     1.104     1.646
 367   1 H      0.086  0.914  0.000  0.000     1.916     2.165
 368   1 H      0.069  0.931  0.000  0.000     2.095     2.263
 369   1 H      0.062  0.938  0.000  0.000     2.181     2.310
 370   1 H      0.075  0.925  0.000  0.000     2.037     2.232
 371   1 H      0.076  0.924  0.000  0.000     2.021     2.223
 372   1 H      0.091  0.909  0.000  0.000     1.867     2.137
 373   1 H      0.071  0.929  0.000  0.000     2.070     2.250
 374   1 H      0.194  0.806  0.000  0.000     1.137     1.670
 375   1 H      0.261  0.739  0.000  0.000     0.842     1.438
 376   1 H      0.228  0.772  0.000  0.000     0.974     1.546
 377   1 H      0.246  0.754  0.000  0.000     0.900     1.486
 378   1 H      0.236  0.764  0.000  0.000     0.940     1.519
 379   7 N     -0.167  1.237  3.930  0.000    24.615     7.369
 380   6 C      0.025  1.057  2.918  0.000    20.162     6.395
 381   6 C      0.202  1.089  2.709  0.000    23.701     7.973
 382   8 O     -0.350  1.743  4.608  0.000    20.710     6.101
 383   6 C     -0.133  1.044  3.089  0.000    23.106     6.854
 384   1 H      0.198  0.802  0.000  0.000     1.118     1.656
 385   1 H      0.105  0.895  0.000  0.000     1.743     2.065
 386   1 H      0.081  0.919  0.000  0.000     1.970     2.195
 387   1 H      0.083  0.917  0.000  0.000     1.943     2.180
 388   1 H      0.059  0.941  0.000  0.000     2.211     2.325
 389   7 N     -0.380  1.311  4.069  0.000    29.818     8.110
 390   6 C      0.033  1.059  2.908  0.000    20.035     6.376
 391   6 C      0.271  1.047  2.682  0.000    22.427     7.756
 392   8 O     -0.468  1.738  4.731  0.000    23.089     6.442
 393   6 C     -0.050  1.052  2.998  0.000    21.474     6.598
 394   6 C     -0.091  1.061  3.030  0.000    22.236     6.714
 395   6 C      0.367  1.025  2.608  0.000    20.772     7.458
 396   8 O     -0.634  1.770  4.864  0.000    26.970     6.963
 397   8 O     -0.614  1.768  4.846  0.000    26.470     6.898
 398   1 H      0.162  0.838  0.000  0.000     1.321     1.801
 399   1 H      0.029  0.971  0.000  0.000     2.605     2.524
 400   1 H      0.023  0.977  0.000  0.000     2.688     2.564
 401   1 H      0.020  0.980  0.000  0.000     2.734     2.586
 402   1 H      0.042  0.958  0.000  0.000     2.429     2.437
 403   1 H      0.017  0.983  0.000  0.000     2.783     2.609
 404   7 N     -0.170  1.241  3.929  0.000    24.681     7.378
 405   6 C      0.004  1.062  2.934  0.000    20.512     6.448
 406   6 C      0.275  1.040  2.685  0.000    22.351     7.742
 407   8 O     -0.491  1.758  4.733  0.000    23.594     6.512
 408   6 C     -0.142  1.045  3.097  0.000    23.295     6.881
 409   1 H      0.198  0.802  0.000  0.000     1.117     1.655
 410   1 H      0.097  0.903  0.000  0.000     1.813     2.106
 411   1 H      0.080  0.920  0.000  0.000     1.982     2.201
 412   1 H      0.084  0.916  0.000  0.000     1.943     2.180
 413   1 H      0.058  0.942  0.000  0.000     2.221     2.330
 414   7 N     -0.171  1.239  3.933  0.000    24.708     7.382
 415   6 C      0.025  1.058  2.917  0.000    20.157     6.394
 416   6 C      0.192  1.088  2.720  0.000    23.897     8.006
 417   8 O     -0.340  1.740  4.600  0.000    20.525     6.074
 418   6 C     -0.069  1.055  3.014  0.000    21.812     6.648
 419   6 C      0.008  1.078  2.914  0.000    27.838     8.655
 420   6 C     -0.039  1.082  2.957  0.000    28.968     8.826
 421   6 C     -0.042  1.080  2.962  0.000    29.034     8.837
 422   6 C     -0.043  1.081  2.962  0.000    29.063     8.841
 423   6 C     -0.032  1.080  2.953  0.000    28.801     8.801
 424   6 C     -0.036  1.080  2.957  0.000    28.904     8.816
 425   1 H      0.222  0.778  0.000  0.000     1.002     1.568
 426   1 H      0.083  0.917  0.000  0.000     1.950     2.184
 427   1 H      0.062  0.938  0.000  0.000     2.175     2.306
 428   1 H      0.068  0.932  0.000  0.000     2.111     2.272
 429   1 H      0.044  0.956  0.000  0.000     2.399     2.422
 430   1 H      0.033  0.967  0.000  0.000     2.547     2.496
 431   1 H      0.053  0.947  0.000  0.000     2.285     2.364
 432   1 H      0.049  0.951  0.000  0.000     2.327     2.385
 433   1 H      0.048  0.952  0.000  0.000     2.345     2.395
 434   7 N     -0.381  1.320  4.061  0.000    29.854     8.115
 435   6 C      0.034  1.058  2.908  0.000    20.018     6.373
 436   6 C      0.207  1.088  2.706  0.000    23.610     7.958
 437   8 O     -0.372  1.755  4.617  0.000    21.123     6.162
 438   6 C     -0.070  1.061  3.009  0.000    21.835     6.651
 439   6 C     -0.012  1.056  2.956  0.000    20.749     6.479
 440   6 C     -0.116  1.041  3.075  0.000    22.765     6.803
 441   6 C     -0.116  1.041  3.075  0.000    22.770     6.803
 442   1 H      0.156  0.844  0.000  0.000     1.359     1.826
 443   1 H      0.056  0.944  0.000  0.000     2.241     2.341
 444   1 H      0.060  0.940  0.000  0.000     2.198     2.318
 445   1 H      0.042  0.958  0.000  0.000     2.416     2.431
 446   1 H      0.012  0.988  0.000  0.000     2.856     2.643
 447   1 H      0.044  0.956  0.000  0.000     2.392     2.419
 448   1 H      0.030  0.970  0.000  0.000     2.589     2.516
 449   1 H      0.049  0.951  0.000  0.000     2.334     2.389
 450   1 H      0.044  0.956  0.000  0.000     2.391     2.418
 451   1 H      0.050  0.950  0.000  0.000     2.320     2.382
 452   1 H      0.038  0.962  0.000  0.000     2.482     2.464
 453   7 N     -0.392  1.310  4.082  0.000    30.141     8.154
 454   6 C      0.037  1.055  2.907  0.000    19.968     6.366
 455   6 C      0.195  1.100  2.704  0.000    23.837     7.995
 456   8 O     -0.380  1.741  4.640  0.000    21.295     6.187
 457   6 C     -0.070  1.053  3.017  0.000    21.817     6.646
 458   6 C     -0.008  1.068  2.940  0.000    20.721     6.482
 459  16 S     -0.236  1.915  4.269  0.052   151.148    20.692
 460   6 C     -0.053  1.052  3.002  0.000    21.606     6.631
 461   1 H      0.165  0.835  0.000  0.000     1.306     1.790
 462   1 H      0.082  0.918  0.000  0.000     1.954     2.186
 463   1 H      0.058  0.942  0.000  0.000     2.225     2.333
 464   1 H      0.079  0.921  0.000  0.000     1.988     2.205
 465   1 H      0.041  0.959  0.000  0.000     2.432     2.439
 466   1 H      0.058  0.942  0.000  0.000     2.228     2.334
 467   1 H      0.065  0.935  0.000  0.000     2.141     2.288
 468   1 H      0.050  0.950  0.000  0.000     2.324     2.384
 469   1 H      0.063  0.937  0.000  0.000     2.168     2.303
 470   7 N     -0.382  1.310  4.073  0.000    29.886     8.119
 471   6 C      0.040  1.056  2.904  0.000    19.917     6.357
 472   6 C      0.201  1.083  2.716  0.000    23.714     7.975
 473   8 O     -0.384  1.767  4.617  0.000    21.368     6.198
 474   6 C     -0.077  1.056  3.022  0.000    21.965     6.671
 475   6 C      0.003  1.072  2.926  0.000    27.964     8.674
 476   6 C     -0.043  1.080  2.963  0.000    29.067     8.842
 477   6 C     -0.039  1.082  2.957  0.000    28.975     8.828
 478   6 C     -0.073  1.075  2.997  0.000    29.820     8.955
 479   6 C     -0.052  1.075  2.977  0.000    29.291     8.875
 480   6 C      0.145  1.045  2.809  0.000    24.835     8.168
 481   8 O     -0.425  1.722  4.703  0.000    21.330     6.235
 482   1 H      0.154  0.846  0.000  0.000     1.375     1.837
 483   1 H      0.065  0.935  0.000  0.000     2.146     2.291
 484   1 H      0.061  0.939  0.000  0.000     2.192     2.315
 485   1 H      0.072  0.928  0.000  0.000     2.064     2.247
 486   1 H      0.046  0.954  0.000  0.000     2.371     2.408
 487   1 H      0.036  0.964  0.000  0.000     2.509     2.477
 488   1 H      0.026  0.974  0.000  0.000     2.650     2.546
 489   1 H      0.050  0.950  0.000  0.000     2.316     2.380
 490   1 H      0.320  0.680  0.000  0.000     0.665     1.281
 491   7 N     -0.392  1.318  4.074  0.000    30.147     8.155
 492   6 C      0.023  1.061  2.917  0.000    20.199     6.401
 493   6 C      0.277  1.047  2.676  0.000    22.319     7.736
 494   8 O     -0.485  1.755  4.730  0.000    23.463     6.494
 495   6 C     -0.028  1.072  2.956  0.000    21.036     6.522
 496   6 C     -0.071  1.053  3.018  0.000    21.855     6.656
 497   6 C     -0.114  1.037  3.077  0.000    22.735     6.799
 498   6 C     -0.112  1.038  3.075  0.000    22.709     6.796
 499   1 H      0.151  0.849  0.000  0.000     1.397     1.851
 500   1 H      0.061  0.939  0.000  0.000     2.190     2.314
 501   1 H      0.038  0.962  0.000  0.000     2.473     2.459
 502   1 H      0.043  0.957  0.000  0.000     2.412     2.429
 503   1 H      0.044  0.956  0.000  0.000     2.396     2.421
 504   1 H      0.050  0.950  0.000  0.000     2.326     2.385
 505   1 H      0.033  0.967  0.000  0.000     2.547     2.496
 506   1 H      0.030  0.970  0.000  0.000     2.583     2.513
 507   1 H      0.050  0.950  0.000  0.000     2.319     2.382
 508   1 H      0.044  0.956  0.000  0.000     2.400     2.423
 509   1 H      0.039  0.961  0.000  0.000     2.466     2.456
 510   7 N     -0.183  1.253  3.930  0.000    24.960     7.420
 511   6 C     -0.032  1.052  2.981  0.000    21.215     6.570
 512   6 C      0.197  1.083  2.721  0.000    23.805     7.990
 513   8 O     -0.361  1.747  4.613  0.000    20.913     6.131
 514   1 H      0.211  0.789  0.000  0.000     1.052     1.607
 515   1 H      0.112  0.888  0.000  0.000     1.678     2.026
 516   1 H      0.117  0.883  0.000  0.000     1.636     2.000
 517   1 H      0.187  0.813  0.000  0.000     1.172     1.696
 518   1 H      0.060  0.940  0.000  0.000     2.197     2.317
 519   1 H      0.178  0.822  0.000  0.000     1.224     1.733
 520   1 H      0.073  0.927  0.000  0.000     2.057     2.242
 521   1 H      0.184  0.816  0.000  0.000     1.192     1.710
 522   1 H      0.074  0.926  0.000  0.000     2.044     2.236
 523   1 H      0.191  0.809  0.000  0.000     1.151     1.680
 524   1 H      0.067  0.933  0.000  0.000     2.122     2.278
 525   1 H      0.182  0.818  0.000  0.000     1.202     1.717
 526   1 H      0.069  0.931  0.000  0.000     2.090     2.261
 527   1 H      0.170  0.830  0.000  0.000     1.269     1.765
 528   1 H      0.066  0.934  0.000  0.000     2.133     2.284
 529   1 H      0.161  0.839  0.000  0.000     1.326     1.804
 530   1 H      0.086  0.914  0.000  0.000     1.920     2.167
 531   1 H      0.185  0.815  0.000  0.000     1.184     1.705
 532   1 H      0.060  0.940  0.000  0.000     2.198     2.318
 533   1 H      0.182  0.818  0.000  0.000     1.200     1.716
 534   1 H      0.085  0.915  0.000  0.000     1.931     2.173
 535   1 H      0.185  0.815  0.000  0.000     1.186     1.706
 536   1 H      0.067  0.933  0.000  0.000     2.122     2.278
 537   1 H      0.185  0.815  0.000  0.000     1.186     1.706
 538   1 H      0.075  0.925  0.000  0.000     2.031     2.228

 Mol. C6AA /au·bohr⁶  :    2610357.338857
 Mol. C8AA /au·bohr⁸  :   58914327.429361
 Mol. α(0) /au        :       2434.975462

 
molecular dipole:
                 x           y           z       tot (Debye)
 q only:       36.467      91.273     319.066
   full:       34.618      92.753     322.110     856.538
molecular quadrupole (traceless):
                xx          xy          yy          xz          yz          zz
 q only:   -27085.600    2366.465  -21797.122    8652.493   21997.228   48882.722
  q+dip:   -27729.560    2275.596  -22093.170    8343.809   22585.943   49822.730
   full:   -27728.724    2274.981  -22095.774    8344.215   22584.261   49824.499
speedup  1.50
cpu  time for grad   22.27 s
wall time for grad   14.88 s

SCC energy    :    -791.2276155
rep           :      10.1334390
ES            :       1.8662440
AES           :      -0.0317374
AXC           :       0.3206316
disp          :      -0.6898852
XB            :       0.0000000
fix           :       0.0000000
Gborn         :       0.0000000
Gsasa         :       0.0000000
Ghb           :       0.0000000
Gshift        :       0.0000000
Gsolv         :      -0.4493780     -281.99
Etot ala COSMO:    -791.2276155
grad norm     :       0.7417591
total E       :    -781.0248200
atomizationE  :     146.7345431    92077.32
(atE without considering molecular charge,
 total energy contains solvation terms)
H-L gap (eV)  :          1.1131

------------------------------------------------------------------------
 * finished run on 2019/05/12 at 13:12:06.607     
------------------------------------------------------------------------
 total:
 * wall-time:     0 d,  0 h,  0 min, 16.192 sec
 *  cpu-time:     0 d,  0 h,  0 min, 23.625 sec
 * ratio c/w:     1.459 speedup
 SCF:
 * wall-time:     0 d,  0 h,  0 min, 15.527 sec
 *  cpu-time:     0 d,  0 h,  0 min, 23.129 sec
 * ratio c/w:     1.490 speedup

