      -----------------------------------------------------------      
     |                   =====================                   |     
     |                           x T B                           |     
     |                   =====================                   |     
     |                         S. Grimme                         |     
     |          Mulliken Center for Theoretical Chemistry        |     
     |                    University of Bonn                     |     
     |                 Version 6.0.1 (SAW181210)                 |     
      -----------------------------------------------------------      

   This program is distributed in the hope that it will be useful,
   but WITHOUT ANY WARRANTY; without even the implied warranty of
   MERCHANTABILITY or FITNESS FOR A PARTICULAR PURPOSE.
   
   FOR NON-COMMERCIAL, ACADEMIA USE ONLY.
   
   Cite this work as:
   S. Grimme, C. Bannwarth, P. Shushkov, J. Comput. Theory Chem., 2017,
   13, 1989-2009.
   C. Bannwarth, S. Ehlert and S. Grimme., ChemRxiv, 2018, preprint.
   http://doi.org/10.26434/chemrxiv.7246238.v1
   
   for sTDA-xTB:
   S. Grimme and C. Bannwarth, J. Chem. Phys., 2016, 145, 054103.
   
   in the mass-spec context:
   V. Asgeirsson, C. Bauer and S. Grimme, Chem. Sci., 2017, 8, 4879.
   
   if GBSA is used:
   P. Shushkov, F. März and S. Grimme, unpublished.
   
   for ANC optimizer:
   S. Grimme, unpublished.
   Rational Function algorithm used in ANCopt:
   F. Eckert, P. Pulay, H.-J. Werner, J. Comput. Chem., 1997, 18, 1473.
   
   with help from (in alphabetical order)
   C. Bannwarth, F. Bohle, G. Brandenburg, E. Caldeweyher, M. Checinski,
   S. Dohm, S. Ehlert, S. Ehrlich, F. März, H. Neugebauer, J. Pisarek,
   P. Pracht, P. Shushkov, and S. Spicher.
   
 * started run on 2019/05/03 at 23:04:34.721     
========================================================================
 # omp threads = 2
========================================================================
number of atoms            : 20
number of electrons        : 60
charge                     : -1
spin                       : .0
first test random number   : .5589

########################################################################
# WARNING! Please study the warnings concerning your input carefully
#  - Process number higher than OMP_NUM_THREADS, I hope you know what you are doing.
########################################################################

           ------------------------------------------------- 
          |                 G F N 2 - x T B                 |
          | Geometry, Frequencies, Noncovalent interactions |
          |            JCTC 2018 parametrisation            |
           ------------------------------------------------- 
 
      method parameters     
 k(s)        :  1.8500
 k(p)        :  2.2300
 k(d)        :  2.2300
 k(f)        :  2.0000
 kEN (H0ij)  : -2.0000
 D4 a1       :  0.5200
 D4 a2       :  5.0000
 D4 s6       :  1.0000
 D4 s8       :  2.7000
 D4 s9       :  5.0000
 alphaj      :  2.0000

 Solvent             : h2o
 Using internal parameter file: .param_gbsa2_h2o
 Gsolv ref. state (COSMO-RS): gsolv [1 M gas/solution]
 temperature (mdtemp)       :    298.150000000000     
 dielectric constant        :    80.2000000000000     
 rho                        :    1.00000000000000     
 mass                       :    18.0000000000000     
 surface tension            :    15.5689454083859     
 probe radius               :   0.975313790000000     
 vdW radii scaling          :    1.00000000000000     
 Gshift (Eh)                :   1.857443126794793E-003
 c1                         :    1.55243817000000     
 soset                      :   0.130326360000000     
 HB correction              :  T

            Z     q(EN)     CN     RAES       Cart. coordinates
     1  N   5.0   -0.25    3.17    1.95    33.54152    75.43183    50.95532
     2  C   4.0    0.01    4.22    4.04    35.40702    73.94143    49.58026
     3  C   4.0    0.10    3.14    3.03    34.69952    71.03888    49.37034
     4  O   6.0   -0.40    1.25    1.80    34.80012    69.90431    48.04109
     5  C   4.0   -0.06    4.22    4.04    38.05581    74.23251    50.71790
     6  C   4.0   -0.05    4.17    3.94    39.04414    76.91040    50.32219
     7  C   4.0    0.22    3.07    3.02    40.91467    77.91139    52.40814
     8  O   6.0   -0.35    1.16    1.80    41.16086    76.74617    54.44507
     9  O   6.0   -0.35    1.16    1.80    41.94862    79.97361    51.84184
    10  H   1.0    0.06    1.03    1.43    34.00554    76.36727    52.52672
    11  H   1.0    0.02    1.06    1.44    35.46805    74.49988    47.60354
    12  H   1.0    0.04    1.02    1.43    37.96141    73.84576    52.77321
    13  H   1.0    0.02    1.03    1.43    39.30491    72.83108    49.92361
    14  H   1.0    0.03    1.03    1.43    39.97475    77.09281    48.51733
    15  H   1.0    0.03    1.04    1.43    37.51382    78.27605    50.42474
    16  O   6.0   -0.41    1.78    1.81    41.36372    84.04941    46.68284
    17  H   1.0    0.09    0.79    1.41    42.51235    82.50147    47.58152
    18  H   1.0    0.15    1.01    1.43    40.57011    84.53853    47.78815
    19  H   1.0    0.07    1.07    1.44    32.92819    76.65057    49.93990
    20  H   1.0    0.03    1.14    1.45    34.00311    70.12520    50.87076

  Z AO/shell   Hii/eV     exponent
  1     Wed Apr 25 08:07:45 CEST 2018   EN: 2.200 GM2: 0.406  GM3: 0.0800  RAES: 1.40
     1s    -10.707211    1.230000
  6     Wed Apr 25 08:07:45 CEST 2018   EN: 2.550 GM2: 0.538  GM3: 0.1500  RAES: 3.00
     2s    -13.970922    2.096432
     2p    -10.063292    1.800000
  7     Wed Apr 25 08:07:45 CEST 2018   EN: 3.040 GM2: 0.461  GM3:-0.0640  RAES: 1.90
     2s    -16.686243    2.339881
     2p    -12.523956    2.014332
  8     Wed Apr 25 08:07:45 CEST 2018   EN: 3.440 GM2: 0.452  GM3:-0.0517  RAES: 1.80
     2s    -20.229985    2.439742
     2p    -15.503117    2.137023
 no old-style atom pair restraining (fixing) potential

molecular fragmentation (1/2 indicates fragments):
11111111111111122211
# atoms in fragment 1/2:    17     3
 fragment masses (1/2) :      130.12       18.02
CMA distance (Bohr)    :  10.397
constraining FC (au)   :  0.0500
           ------------------------------------------------- 
          |        Self-Consistent Charge Iterations        |
           ------------------------------------------------- 

 Ncao       : 50
 Nao        : 50
 Nshell     : 30
 Nel        : 60
 T(el)      :   500.0
 intcut     :    35.0
 scfconv/Eh :  0.100E-06
   qconv/e  :  0.100E-04
 intneglect :  0.100E-08
 broydamp   :      0.400
 iter      E             dE          RMSdq      gap      omega  full diag
   1    -35.5383084 -0.355383E+02  0.549E+00    3.41       0.0  T
   2    -35.6399271 -0.101619E+00  0.265E+00    3.36       1.0  T
   3    -35.6449965 -0.506943E-02  0.126E+00    4.69       1.0  T
   4    -35.6488585 -0.386195E-02  0.332E-01    4.75       1.0  T
   5    -35.6492749 -0.416432E-03  0.139E-01    4.84       1.0  T
   6    -35.6493052 -0.302798E-04  0.418E-02    4.80       1.0  T
   7    -35.6493073 -0.208041E-05  0.139E-02    4.79       1.6  T
   8    -35.6493077 -0.483374E-06  0.448E-03    4.79       5.0  T
   9    -35.6493078 -0.446353E-07  0.145E-03    4.79      15.5  T
  10    -35.6493078 -0.533410E-08  0.523E-04    4.79      42.8  T
  11    -35.6493078 -0.526903E-09  0.123E-04    4.79     181.8  T
  12    -35.6493078 -0.151701E-10  0.435E-05    4.79     514.1  T
  13    -35.6493078 -0.719780E-11  0.968E-06    4.79    2310.9  T
speedup  0.94
cpu  time for SCC    0.05 s
wall time for SCC    0.05 s

   *** convergence criteria satisfied after 13 iterations ***

          eigenvalues
 #    :          18         19         20         21         22         23         24         25
 occ. :        2.000      2.000      2.000      2.000      2.000      2.000      2.000      2.000
 eps  :       -13.693    -13.358    -13.296    -12.910    -12.372    -12.000    -11.952    -11.838
 #    :          26         27         28         29         30         31         32         33
 occ. :        2.000      2.000      2.000      2.000      2.000      0.000      0.000      0.000
 eps  :       -10.681    -10.648    -10.210     -9.773     -9.333     -4.544     -3.992     -1.247
 #    :          34         35         36         37         38         39         40         41
 occ. :        0.000      0.000      0.000      0.000      0.000      0.000      0.000      0.000
 eps  :         1.111      1.739      2.531      3.529      4.012      4.068      4.980      5.344


   #   Z            q   n(s)   n(p)   n(d)      C6AA      α(0)
   1   7 N     -0.390  1.301  4.089  0.000    30.088     8.147
   2   6 C     -0.010  1.074  2.936  0.000    20.781     6.494
   3   6 C      0.283  1.023  2.694  0.000    22.200     7.716
   4   8 O     -0.202  1.571  4.631  0.000    18.097     5.704
   5   6 C     -0.048  1.048  3.000  0.000    21.440     6.593
   6   6 C     -0.090  1.063  3.027  0.000    22.219     6.712
   7   6 C      0.363  1.033  2.604  0.000    20.839     7.470
   8   8 O     -0.645  1.778  4.868  0.000    27.255     6.999
   9   8 O     -0.662  1.774  4.888  0.000    27.682     7.054
  10   1 H      0.149  0.851  0.000  0.000     1.408     1.859
  11   1 H      0.024  0.976  0.000  0.000     2.680     2.560
  12   1 H      0.028  0.972  0.000  0.000     2.616     2.530
  13   1 H      0.015  0.985  0.000  0.000     2.806     2.620
  14   1 H      0.020  0.980  0.000  0.000     2.740     2.589
  15   1 H      0.023  0.977  0.000  0.000     2.681     2.560
  16   8 O     -0.643  1.726  4.917  0.000    26.330     6.921
  17   1 H      0.316  0.684  0.000  0.000     0.702     1.329
  18   1 H      0.324  0.676  0.000  0.000     0.652     1.268
  19   1 H      0.177  0.823  0.000  0.000     1.232     1.738
  20   1 H     -0.032  1.032  0.000  0.000     3.677     2.998

 Mol. C6AA /au·bohr⁶  :       3896.001354
 Mol. C8AA /au·bohr⁸  :      82824.830913
 Mol. α(0) /au        :         91.859300

 
molecular dipole:
                 x           y           z       tot (Debye)
 q only:      -41.496     -78.410     -52.435
   full:      -41.395     -78.135     -52.265     261.079
molecular quadrupole (traceless):
                xx          xy          yy          xz          yz          zz
 q only:     2736.548   -4887.252   -3916.982   -3265.656   -6158.813    1180.434
  q+dip:     2714.488   -4864.927   -3887.350   -3247.401   -6116.877    1172.861
   full:     2715.333   -4865.892   -3887.793   -3247.539   -6116.636    1172.460
speedup  0.93
cpu  time for grad    0.07 s
wall time for grad    0.07 s

SCC energy    :     -35.6471633
rep           :       0.7092037
ES            :       0.2810550
AES           :      -0.0024016
AXC           :       0.0006862
disp          :      -0.0132854
XB            :       0.0000000
fix           :       0.0000000
Gborn         :       0.0000000
Gsasa         :       0.0000000
Ghb           :       0.0000000
Gshift        :       0.0000000
Gsolv         :      -0.1091290      -68.48
Etot ala COSMO:     -35.6471633
grad norm     :       1.8204157
total E       :     -34.9379209
atomizationE  :       5.2948483     3322.57
(atE without considering molecular charge,
 total energy contains solvation terms)
H-L gap (eV)  :          4.7886

------------------------------------------------------------------------
 * finished run on 2019/05/03 at 23:04:35.089     
------------------------------------------------------------------------
 total:
 * wall-time:     0 d,  0 h,  0 min,  0.367 sec
 *  cpu-time:     0 d,  0 h,  0 min,  0.225 sec
 * ratio c/w:     0.615 speedup
 SCF:
 * wall-time:     0 d,  0 h,  0 min,  0.074 sec
 *  cpu-time:     0 d,  0 h,  0 min,  0.071 sec
 * ratio c/w:     0.965 speedup

