      -----------------------------------------------------------      
     |                   =====================                   |     
     |                           x T B                           |     
     |                   =====================                   |     
     |                         S. Grimme                         |     
     |          Mulliken Center for Theoretical Chemistry        |     
     |                    University of Bonn                     |     
     |                 Version 6.0.1 (SAW181210)                 |     
      -----------------------------------------------------------      

   This program is distributed in the hope that it will be useful,
   but WITHOUT ANY WARRANTY; without even the implied warranty of
   MERCHANTABILITY or FITNESS FOR A PARTICULAR PURPOSE.
   
   FOR NON-COMMERCIAL, ACADEMIA USE ONLY.
   
   Cite this work as:
   S. Grimme, C. Bannwarth, P. Shushkov, J. Comput. Theory Chem., 2017,
   13, 1989-2009.
   C. Bannwarth, S. Ehlert and S. Grimme., ChemRxiv, 2018, preprint.
   http://doi.org/10.26434/chemrxiv.7246238.v1
   
   for sTDA-xTB:
   S. Grimme and C. Bannwarth, J. Chem. Phys., 2016, 145, 054103.
   
   in the mass-spec context:
   V. Asgeirsson, C. Bauer and S. Grimme, Chem. Sci., 2017, 8, 4879.
   
   if GBSA is used:
   P. Shushkov, F. März and S. Grimme, unpublished.
   
   for ANC optimizer:
   S. Grimme, unpublished.
   Rational Function algorithm used in ANCopt:
   F. Eckert, P. Pulay, H.-J. Werner, J. Comput. Chem., 1997, 18, 1473.
   
   with help from (in alphabetical order)
   C. Bannwarth, F. Bohle, G. Brandenburg, E. Caldeweyher, M. Checinski,
   S. Dohm, S. Ehlert, S. Ehrlich, F. März, H. Neugebauer, J. Pisarek,
   P. Pracht, P. Shushkov, and S. Spicher.
   
 * started run on 2019/05/11 at 04:46:40.103     
========================================================================
 # omp threads = 2
========================================================================
number of atoms            : 697
number of electrons        : 1914
charge                     : -6
spin                       : .0
first test random number   : .7012

########################################################################
# WARNING! Please study the warnings concerning your input carefully
#  - Process number higher than OMP_NUM_THREADS, I hope you know what you are doing.
########################################################################

           ------------------------------------------------- 
          |                 G F N 2 - x T B                 |
          | Geometry, Frequencies, Noncovalent interactions |
          |            JCTC 2018 parametrisation            |
           ------------------------------------------------- 
 
      method parameters     
 k(s)        :  1.8500
 k(p)        :  2.2300
 k(d)        :  2.2300
 k(f)        :  2.0000
 kEN (H0ij)  : -2.0000
 D4 a1       :  0.5200
 D4 a2       :  5.0000
 D4 s6       :  1.0000
 D4 s8       :  2.7000
 D4 s9       :  5.0000
 alphaj      :  2.0000

 Solvent             : h2o
 Using internal parameter file: .param_gbsa2_h2o
 Gsolv ref. state (COSMO-RS): gsolv [1 M gas/solution]
 temperature (mdtemp)       :    298.150000000000     
 dielectric constant        :    80.2000000000000     
 rho                        :    1.00000000000000     
 mass                       :    18.0000000000000     
 surface tension            :    15.5689454083859     
 probe radius               :   0.975313790000000     
 vdW radii scaling          :    1.00000000000000     
 Gshift (Eh)                :   1.857443126794793E-003
 c1                         :    1.55243817000000     
 soset                      :   0.130326360000000     
 HB correction              :  T

            Z     q(EN)     CN     RAES       Cart. coordinates
     1  N   5.0   -0.24    3.21    1.96     6.23658   167.04239    18.67205
     2  C   4.0    0.02    4.33    4.25     4.19813   165.63346    19.86582
     3  C   4.0    0.06    3.26    3.05     2.03731   167.25499    20.81647
     4  O   6.0   -0.33    1.22    1.80    -0.07726   166.82739    19.99290
     5  C   4.0   -0.03    4.36    4.31     4.97180   164.05666    22.18476
     6  C   4.0   -0.06    4.20    4.01     7.37594   165.13802    23.38963
     7  C   4.0   -0.08    4.08    3.77     5.06841   161.26033    21.50370
     8  C   4.0   -0.10    4.02    3.65     7.30732   164.84853    26.25734
     9  H   1.0    0.07    1.03    1.43     7.97032   166.25145    18.78350
    10  H   1.0    0.04    1.06    1.44     3.33461   164.39373    18.43847
    11  H   1.0    0.04    1.08    1.44     3.45265   164.24085    23.57648
    12  H   1.0    0.03    1.03    1.43     9.02386   164.14422    22.65695
    13  H   1.0    0.03    1.04    1.43     7.54129   167.14166    22.93984
    14  H   1.0    0.04    1.00    1.43     5.76372   160.13221    23.07553
    15  H   1.0    0.04    1.00    1.43     3.20500   160.55421    20.99105
    16  H   1.0    0.03    1.00    1.43     6.30833   160.90380    19.90364
    17  H   1.0    0.01    1.00    1.43     9.03557   165.58870    27.08493
    18  H   1.0    0.02    1.00    1.43     5.69798   165.84293    27.05237
    19  H   1.0    0.03    1.00    1.43     7.18679   162.86411    26.77186
    20  N   5.0   -0.21    3.26    1.97    -1.66487   170.13069    16.23319
    21  C   4.0    0.03    4.30    4.21    -3.11917   168.24331    14.91005
    22  C   4.0    0.15    3.34    3.06    -5.44076   167.65463    16.59145
    23  O   6.0   -0.35    1.41    1.80    -7.42400   168.55659    15.80525
    24  C   4.0   -0.05    4.24    4.08    -1.33994   166.17475    13.87301
    25  C   4.0   -0.03    4.12    3.83    -2.28901   164.61745    11.54016
    26  C   4.0   -0.09    4.10    3.80    -4.53962   165.81617    10.13028
    27  C   4.0   -0.09    4.09    3.78    -0.11617   164.15982     9.67097
    28  H   1.0    0.08    1.04    1.43     0.09855   169.66148    16.78636
    29  H   1.0    0.04    1.08    1.44    -3.97754   169.20442    13.28584
    30  H   1.0    0.03    1.04    1.43     0.37755   167.16279    13.29228
    31  H   1.0    0.05    1.02    1.43    -0.82505   164.87301    15.38457
    32  H   1.0    0.03    1.05    1.44    -2.93030   162.77296    12.23174
    33  H   1.0    0.03    1.00    1.43    -5.09060   164.59236     8.57728
    34  H   1.0    0.04    1.00    1.43    -6.15373   166.04123    11.37695
    35  H   1.0    0.03    1.00    1.43    -4.01529   167.64750     9.36252
    36  H   1.0    0.03    1.00    1.43    -0.74755   162.97487     8.12154
    37  H   1.0    0.02    1.00    1.43     0.50747   165.96494     8.94172
    38  H   1.0    0.03    1.00    1.43     1.48518   163.24045    10.57040
    39  N   5.0   -0.15    3.38    2.01    -5.12414   166.42524    18.78028
    40  C   4.0    0.03    4.26    4.13    -6.97316   165.48288    20.60191
    41  C   4.0    0.07    3.27    3.05    -9.31551   167.14795    20.85205
    42  O   6.0   -0.32    1.15    1.80   -11.23619   166.11504    21.61449
    43  C   4.0   -0.05    4.31    4.23    -5.99099   165.31927    23.32717
    44  C   4.0   -0.04    4.12    3.85    -3.98902   163.31997    23.89934
    45  C   4.0   -0.01    4.17    3.95    -3.48876   163.44165    26.76042
    46  N   5.0   -0.14    3.34    2.00    -1.68748   161.60109    27.74701
    47  C   4.0    0.10    3.33    3.06    -1.98426   159.68295    29.39668
    48  N   5.0   -0.19    3.20    1.96    -4.15456   159.01716    30.59667
    49  N   5.0   -0.19    3.26    1.97     0.15069   158.63015    30.26100
    50  H   1.0    0.11    1.12    1.45    -3.31280   165.99837    19.23531
    51  H   1.0    0.05    1.05    1.44    -7.60604   163.59648    20.01428
    52  H   1.0    0.03    1.03    1.43    -5.29467   167.19493    23.83650
    53  H   1.0    0.05    1.04    1.44    -7.65081   164.91586    24.48554
    54  H   1.0    0.07    1.03    1.43    -4.68521   161.44809    23.38192
    55  H   1.0    0.05    1.02    1.43    -2.26308   163.67882    22.83555
    56  H   1.0    0.02    1.02    1.43    -2.76158   165.31653    27.24638
    57  H   1.0    0.04    1.03    1.43    -5.27284   163.15871    27.75125
    58  H   1.0    0.07    1.08    1.44     0.03249   161.68157    26.92345
    59  H   1.0    0.09    1.03    1.43    -5.77391   159.29254    29.62758
    60  H   1.0    0.08    1.04    1.43    -4.04792   157.35184    31.52000
    61  H   1.0    0.09    1.03    1.43     1.78570   158.95241    29.33812
    62  H   1.0    0.11    1.03    1.43     0.12818   156.87289    31.03417
    63  N   5.0   -0.22    3.31    1.99   -11.95978   167.69405    14.55262
    64  C   4.0    0.03    4.28    4.15   -13.16332   165.26452    14.32917
    65  C   4.0    0.14    3.46    3.10   -15.86562   165.35920    15.28100
    66  O   6.0   -0.32    1.22    1.80   -17.55731   164.12466    14.28776
    67  C   4.0   -0.07    4.15    3.89   -11.73099   163.35681    15.94369
    68  H   1.0    0.13    1.17    1.46   -10.19662   167.76820    15.31813
    69  H   1.0    0.04    1.05    1.44   -13.20811   164.67082    12.33722
    70  H   1.0    0.04    1.00    1.43   -12.50989   161.47991    15.64993
    71  H   1.0    0.04    1.00    1.43    -9.74724   163.30899    15.40552
    72  H   1.0    0.07    1.01    1.43   -11.89285   163.84004    17.92897
    73  N   5.0   -0.15    3.49    2.07   -16.06722   166.68375    17.42965
    74  C   4.0    0.04    4.28    4.16   -18.46976   167.17186    18.60365
    75  C   4.0    0.08    3.24    3.04   -20.16465   168.49582    16.63727
    76  O   6.0   -0.33    1.13    1.80   -22.30553   169.13059    17.24243
    77  C   4.0   -0.05    4.20    3.99   -18.42023   168.62530    21.14938
    78  C   4.0   -0.05    4.11    3.83   -17.25258   167.36425    23.50401
    79  C   4.0   -0.01    4.15    3.89   -18.72167   165.06388    24.48632
    80  N   5.0   -0.15    3.35    2.00   -19.58090   165.37684    27.11077
    81  C   4.0    0.08    3.30    3.05   -19.29527   163.80853    29.10318
    82  N   5.0   -0.19    3.24    1.96   -17.49038   162.03357    29.04647
    83  N   5.0   -0.21    3.21    1.96   -20.76416   163.99929    31.17684
    84  H   1.0    0.09    1.09    1.44   -14.59000   167.74944    17.98490
    85  H   1.0    0.05    1.05    1.44   -19.40929   165.33563    18.89827
    86  H   1.0    0.03    1.03    1.43   -17.40579   170.38471    20.78459
    87  H   1.0    0.04    1.03    1.43   -20.39129   169.13135    21.51177
    88  H   1.0    0.06    1.03    1.43   -15.31390   166.83359    23.05802
    89  H   1.0    0.03    1.03    1.43   -17.18768   168.81405    24.96573
    90  H   1.0    0.04    1.03    1.43   -20.40780   164.80171    23.31777
    91  H   1.0    0.05    1.03    1.43   -17.56937   163.37201    24.31751
    92  H   1.0    0.06    1.07    1.44   -20.87914   166.77035    27.28962
    93  H   1.0    0.09    1.03    1.43   -16.31354   161.89529    27.55731
    94  H   1.0    0.08    1.03    1.43   -17.31208   160.77020    30.45197
    95  H   1.0    0.06    1.03    1.43   -22.12370   165.32491    31.30257
    96  H   1.0    0.06    1.03    1.43   -20.43566   162.88338    32.68242
    97  N   5.0   -0.21    3.17    1.95   -21.45583   165.48985     9.81544
    98  C   4.0    0.03    4.28    4.15   -23.00486   164.16058     7.97341
    99  C   4.0    0.16    3.59    3.16   -23.67488   161.47993     8.75250
   100  O   6.0   -0.30    1.56    1.80   -22.11993   160.04184     9.69817
   101  C   4.0    0.02    4.14    3.89   -21.89640   164.06332     5.28622
   102  O   6.0   -0.27    2.13    1.84   -23.86527   163.26059     3.69849
   103  H   1.0    0.10    1.02    1.43   -19.83897   164.74906    10.50764
   104  H   1.0    0.03    1.06    1.44   -24.73837   165.29310     7.86407
   105  H   1.0    0.02    1.01    1.43   -21.14123   165.91584     4.75555
   106  H   1.0    0.05    1.02    1.43   -20.41191   162.64305     5.15591
   107  H   1.0    0.10    1.02    1.43   -24.98088   164.66602     3.35888
   108  N   5.0   -0.14    3.47    2.06   -26.08618   160.69945     8.50786
   109  C   4.0    0.03    4.57    4.63   -26.44873   158.14013     9.43838
   110  C   4.0    0.18    3.84    3.38   -24.22197   156.70281     8.35498
   111  O   6.0   -0.29    1.41    1.80   -23.66786   156.94746     6.11349
   112  C   4.0    0.05    4.24    4.08   -28.78265   156.61465     8.48837
   113  O   6.0   -0.27    2.11    1.84   -29.36473   157.36545     5.98887
   114  C   4.0   -0.08    4.04    3.69   -31.06052   156.79984    10.24009
   115  H   1.0    0.08    1.05    1.44   -27.39780   161.51603     7.39161
   116  H   1.0    0.04    1.05    1.44   -26.43495   158.10798    11.50454
   117  H   1.0    0.04    1.05    1.44   -28.20772   154.60449     8.47055
   118  H   1.0    0.13    1.04    1.43   -27.80215   157.39697     5.03219
   119  H   1.0    0.04    1.00    1.43   -32.66722   155.98086     9.25463
   120  H   1.0    0.04    1.00    1.43   -30.72041   155.72824    11.95726
   121  H   1.0    0.03    1.00    1.43   -31.49659   158.76050    10.66154
   122  N   5.0   -0.15    3.46    2.05   -23.39450   154.86263     9.87926
   123  C   4.0    0.03    4.43    4.43   -22.13194   152.67475     8.89022
   124  C   4.0    0.16    3.59    3.16   -22.12738   152.52661     6.00200
   125  O   6.0   -0.32    1.41    1.80   -20.11238   152.37036     4.85696
   126  C   4.0   -0.05    4.37    4.33   -23.36209   150.23779     9.85946
   127  C   4.0   -0.02    4.18    3.95   -21.50499   148.00546     9.57736
   128  C   4.0   -0.08    4.08    3.77   -20.68629   147.16342    12.24139
   129  C   4.0   -0.07    4.06    3.73   -22.56209   145.84275     7.95753
   130  H   1.0    0.08    1.07    1.44   -24.12114   154.67533    11.63173
   131  H   1.0    0.04    1.05    1.44   -20.14029   152.71355     9.48503
   132  H   1.0    0.05    1.04    1.43   -23.85304   150.46785    11.84937
   133  H   1.0    0.04    1.03    1.43   -25.11966   149.83193     8.86828
   134  H   1.0    0.04    1.06    1.44   -19.79596   148.66717     8.60542
   135  H   1.0    0.04    1.00    1.43   -19.26153   145.68229    12.13589
   136  H   1.0    0.04    1.00    1.43   -19.86749   148.74299    13.26526
   137  H   1.0    0.04    1.00    1.43   -22.29815   146.44961    13.29688
   138  H   1.0    0.05    1.00    1.43   -21.13923   144.37465     7.70742
   139  H   1.0    0.04    1.00    1.43   -24.21286   145.01485     8.85634
   140  H   1.0    0.05    1.00    1.43   -23.07882   146.53710     6.09317
   141  N   5.0   -0.13    3.54    2.10   -24.36330   152.36134     4.85049
   142  C   4.0    0.04    4.46    4.47   -24.68727   151.67823     2.21850
   143  C   4.0    0.17    3.56    3.15   -22.29931   152.30183     0.77450
   144  O   6.0   -0.31    1.30    1.80   -20.98195   150.64573    -0.17671
   145  C   4.0   -0.05    4.28    4.16   -26.91721   153.09904     0.99853
   146  C   4.0   -0.03    4.15    3.91   -27.12586   152.63630    -1.87174
   147  C   4.0    0.24    3.07    3.02   -28.15634   149.90395    -2.51236
   148  O   6.0   -0.32    1.15    1.80   -30.37506   149.77115    -3.32586
   149  O   6.0   -0.29    1.16    1.80   -26.67490   148.09306    -2.14214
   150  H   1.0    0.07    1.07    1.44   -25.94923   152.30102     5.91632
   151  H   1.0    0.06    1.05    1.44   -24.98929   149.62983     2.03662
   152  H   1.0    0.04    1.03    1.43   -28.66194   152.42826     1.87734
   153  H   1.0    0.05    1.03    1.43   -26.74757   155.12375     1.34275
   154  H   1.0    0.04    1.02    1.43   -28.45703   153.98185    -2.68444
   155  H   1.0    0.05    1.03    1.43   -25.28784   152.81659    -2.79002
   156  N   5.0   -0.13    3.67    2.23   -22.01244   154.79242     0.64776
   157  C   4.0    0.03    4.41    4.40   -20.50967   156.35866    -0.97763
   158  C   4.0    0.15    3.39    3.08   -17.67165   156.23273    -0.32477
   159  O   6.0   -0.33    1.29    1.80   -16.01440   156.27264    -1.94731
   160  C   4.0    0.05    4.25    4.10   -21.51431   159.12023    -0.53595
   161  O   6.0   -0.27    2.17    1.85   -23.99457   159.04300     0.49746
   162  C   4.0   -0.08    4.04    3.69   -21.34864   160.63110    -3.00732
   163  H   1.0    0.11    1.16    1.46   -23.28136   155.86205     1.63641
   164  H   1.0    0.05    1.04    1.43   -20.74106   155.79179    -2.96125
   165  H   1.0    0.04    1.05    1.44   -20.26509   159.97394     0.87805
   166  H   1.0    0.14    1.06    1.44   -24.15794   160.47415     1.65473
   167  H   1.0    0.03    1.00    1.43   -21.86735   162.58433    -2.65655
   168  H   1.0    0.04    1.00    1.43   -19.40104   160.54662    -3.65335
   169  H   1.0    0.04    1.00    1.43   -22.58765   159.81506    -4.42522
   170  N   5.0   -0.14    3.55    2.11   -17.29795   156.28894     2.17609
   171  C   4.0    0.03    4.43    4.43   -14.92337   155.91118     3.46439
   172  C   4.0    0.16    3.52    3.12   -13.84025   153.38494     2.72854
   173  O   6.0   -0.33    1.34    1.80   -11.80565   153.29441     1.64569
   174  C   4.0   -0.05    4.37    4.32   -15.26451   156.02624     6.32767
   175  C   4.0   -0.01    4.19    3.98   -16.81952   158.28900     7.29456
   176  C   4.0   -0.07    4.11    3.82   -16.53968   158.57354    10.15284
   177  C   4.0   -0.08    4.14    3.88   -15.97997   160.72900     6.02343
   178  H   1.0    0.10    1.12    1.45   -18.83245   155.88571     3.25010
   179  H   1.0    0.05    1.06    1.44   -13.57958   157.34632     2.82145
   180  H   1.0    0.05    1.03    1.43   -16.14722   154.27721     6.97625
   181  H   1.0    0.03    1.03    1.43   -13.37531   156.09115     7.16274
   182  H   1.0    0.07    1.05    1.44   -18.81699   157.94557     6.89062
   183  H   1.0    0.06    1.00    1.43   -17.62909   160.18082    10.80299
   184  H   1.0    0.04    1.00    1.43   -17.22328   156.88334    11.10295
   185  H   1.0    0.03    1.00    1.43   -14.56157   158.83981    10.65612
   186  H   1.0    0.04    1.00    1.43   -16.81052   162.33521     6.99277
   187  H   1.0    0.03    1.00    1.43   -13.93619   160.89864     6.16492
   188  H   1.0    0.04    1.00    1.43   -16.49464   160.76696     4.03891
   189  N   5.0   -0.15    3.54    2.10   -15.18120   151.32501     3.32021
   190  C   4.0    0.03    4.48    4.50   -14.16072   148.92072     2.56151
   191  C   4.0    0.16    3.52    3.12   -14.02974   148.76834    -0.31759
   192  O   6.0   -0.31    1.31    1.80   -12.23496   147.90230    -1.51396
   193  C   4.0   -0.04    4.23    4.06   -15.64383   146.75135     3.68921
   194  C   4.0   -0.03    4.13    3.86   -13.99654   144.38116     3.93043
   195  C   4.0    0.24    3.05    3.02   -15.04250   142.18797     5.70563
   196  O   6.0   -0.30    1.15    1.80   -17.24762   141.38881     5.34404
   197  O   6.0   -0.31    1.20    1.80   -13.53593   141.34845     7.35852
   198  H   1.0    0.11    1.11    1.44   -16.99055   151.43771     3.94216
   199  H   1.0    0.05    1.06    1.44   -12.19980   148.82931     3.26411
   200  H   1.0    0.05    1.03    1.43   -16.25127   147.30287     5.58779
   201  H   1.0    0.06    1.02    1.43   -17.32801   146.33931     2.57255
   202  H   1.0    0.06    1.02    1.43   -13.68863   143.53254     2.06688
   203  H   1.0    0.04    1.03    1.43   -12.14206   144.87619     4.69376
   204  N   5.0   -0.13    3.58    2.14   -15.97695   149.83842    -1.49296
   205  C   4.0    0.04    4.48    4.50   -16.21939   149.38306    -4.19841
   206  C   4.0    0.17    3.48    3.11   -13.86508   150.39780    -5.48435
   207  O   6.0   -0.30    1.20    1.80   -12.76102   149.21218    -7.13106
   208  C   4.0   -0.03    4.29    4.18   -18.67481   150.55455    -5.23069
   209  C   4.0   -0.03    4.15    3.90   -20.10469   148.92878    -7.13039
   210  C   4.0    0.25    3.10    3.02   -20.60520   150.48188    -9.59555
   211  O   6.0   -0.30    1.21    1.80   -19.63981   152.62280    -9.73403
   212  O   6.0   -0.30    1.16    1.80   -21.85278   149.40816   -11.28147
   213  H   1.0    0.11    1.12    1.45   -17.63937   150.12988    -0.56875
   214  H   1.0    0.06    1.05    1.44   -16.23416   147.32693    -4.50639
   215  H   1.0    0.07    1.07    1.44   -19.91896   150.89943    -3.64321
   216  H   1.0    0.07    1.06    1.44   -18.25400   152.36651    -6.14595
   217  H   1.0    0.05    1.02    1.43   -19.00390   147.26775    -7.66678
   218  H   1.0    0.06    1.02    1.43   -21.89534   148.24001    -6.36764
   219  N   5.0   -0.14    3.53    2.10   -13.29179   152.71050    -4.67077
   220  C   4.0    0.03    4.37    4.33   -11.21166   154.22032    -5.57075
   221  C   4.0    0.15    3.56    3.14    -8.57112   153.46442    -4.55725
   222  O   6.0   -0.31    1.31    1.80    -6.62584   153.73812    -5.81309
   223  C   4.0   -0.04    4.28    4.16   -11.63942   157.02898    -4.98345
   224  C   4.0   -0.03    4.05    3.71   -10.78156   157.84788    -2.32430
   225  S   6.0   -0.04    2.50    3.10    -7.33241   158.35893    -1.65059
   226  C   4.0   -0.08    3.86    3.41    -6.60688   161.05799    -3.72962
   227  H   1.0    0.12    1.13    1.45   -14.41910   153.55392    -3.36434
   228  H   1.0    0.05    1.06    1.44   -11.09094   153.94014    -7.61701
   229  H   1.0    0.04    1.03    1.43   -10.61180   158.12015    -6.40355
   230  H   1.0    0.06    1.04    1.43   -13.64606   157.42115    -5.17576
   231  H   1.0    0.04    1.07    1.44   -11.66407   159.65011    -1.90439
   232  H   1.0    0.07    1.09    1.44   -11.32131   156.46108    -0.92186
   233  H   1.0    0.03    1.05    1.44    -4.64421   161.50505    -3.37066
   234  H   1.0    0.04    1.04    1.43    -6.92361   160.43207    -5.64702
   235  H   1.0    0.04    1.04    1.43    -7.86890   162.58660    -3.22164
   236  N   5.0   -0.13    3.58    2.14    -8.48210   152.50194    -2.25197
   237  C   4.0    0.04    4.46    4.48    -6.19759   151.29897    -1.43971
   238  C   4.0    0.16    3.63    3.19    -5.28081   149.30363    -3.27587
   239  O   6.0   -0.30    1.29    1.80    -3.07771   149.30697    -4.01492
   240  C   4.0   -0.05    4.42    4.41    -6.74973   149.90555     1.02493
   241  C   4.0   -0.02    4.19    3.99    -5.53990   147.29005     1.48333
   242  C   4.0   -0.07    4.06    3.72    -2.58755   147.17944     1.23878
   243  C   4.0   -0.08    4.10    3.81    -6.42433   146.50903     4.14791
   244  H   1.0    0.12    1.12    1.45   -10.04082   152.31761    -1.16887
   245  H   1.0    0.05    1.05    1.44    -4.68078   152.70076    -1.24717
   246  H   1.0    0.04    1.03    1.43    -6.20510   151.11331     2.60275
   247  H   1.0    0.06    1.05    1.44    -8.77689   149.59117     1.13113
   248  H   1.0    0.04    1.07    1.44    -6.32292   145.89640     0.17894
   249  H   1.0    0.05    1.00    1.43    -1.97086   145.23319     1.49556
   250  H   1.0    0.07    1.03    1.43    -1.92876   147.82196    -0.58019
   251  H   1.0    0.04    1.00    1.43    -1.71962   148.31335     2.70801
   252  H   1.0    0.05    1.00    1.43    -5.74224   144.61843     4.59061
   253  H   1.0    0.04    1.00    1.43    -5.69612   147.78784     5.57914
   254  H   1.0    0.04    1.00    1.43    -8.47306   146.45424     4.23901
   255  N   5.0   -0.15    3.64    2.20    -6.91552   147.46038    -3.85754
   256  C   4.0    0.03    4.54    4.59    -6.10382   145.24976    -5.22165
   257  C   4.0    0.17    3.46    3.10    -4.70656   145.94206    -7.61230
   258  O   6.0   -0.29    1.19    1.80    -2.97740   144.61302    -8.37380
   259  C   4.0   -0.04    4.37    4.32    -8.43020   143.73494    -5.79760
   260  C   4.0   -0.03    4.25    4.11    -9.41442   142.75923    -3.28486
   261  C   4.0    0.25    3.13    3.03   -10.86956   140.28224    -3.88839
   262  O   6.0   -0.29    1.17    1.80   -12.81297   140.54726    -5.20983
   263  O   6.0   -0.29    1.16    1.80    -9.93782   138.25771    -3.09838
   264  H   1.0    0.10    1.09    1.44    -8.69092   147.45475    -3.15000
   265  H   1.0    0.05    1.05    1.44    -4.78428   144.10891    -4.08030
   266  H   1.0    0.07    1.03    1.43    -9.86306   144.85043    -6.76841
   267  H   1.0    0.06    1.04    1.43    -7.93845   142.12548    -7.00014
   268  H   1.0    0.05    1.03    1.43    -7.87633   142.25645    -1.99571
   269  H   1.0    0.07    1.03    1.43   -10.69713   144.08555    -2.38078
   270  N   5.0   -0.13    3.53    2.10    -5.63953   148.03843    -8.65774
   271  C   4.0    0.03    4.22    4.05    -4.65495   149.68888   -10.63318
   272  C   4.0    0.09    3.26    3.05    -2.00342   150.37614    -9.79703
   273  O   6.0   -0.30    1.11    1.80    -0.04265   149.47356   -10.66974
   274  C   4.0   -0.05    4.20    4.00    -6.23226   152.11878   -11.11721
   275  C   4.0   -0.05    4.10    3.81    -9.02490   151.65788   -11.93181
   276  C   4.0   -0.05    4.14    3.88   -10.48248   154.12462   -12.46703
   277  C   4.0   -0.02    4.10    3.80   -13.36778   154.03532   -12.28179
   278  N   5.0   -0.11    3.94    2.71   -14.57094   152.55084   -14.31233
   279  H   1.0    0.09    1.12    1.45    -7.15551   148.77150    -7.74591
   280  H   1.0    0.05    1.05    1.44    -4.53582   148.57794   -12.38027
   281  H   1.0    0.07    1.05    1.44    -6.22972   153.31489    -9.45179
   282  H   1.0    0.03    1.03    1.43    -5.25750   153.10378   -12.64414
   283  H   1.0    0.04    1.02    1.43    -9.03958   150.47533   -13.62218
   284  H   1.0    0.06    1.02    1.43    -9.97826   150.59072   -10.44380
   285  H   1.0    0.04    1.03    1.43    -9.82420   155.56290   -11.14578
   286  H   1.0    0.05    1.04    1.43   -10.02728   154.77828   -14.36338
   287  H   1.0    0.06    1.02    1.43   -14.00186   153.26775   -10.47275
   288  H   1.0    0.07    1.04    1.43   -14.06985   155.95754   -12.49373
   289  H   1.0    0.07    1.03    1.43   -16.46655   152.91877   -14.30227
   290  H   1.0    0.05    0.92    1.42   -13.83200   152.83651   -16.32515
   291  H   1.0    0.06    1.03    1.43   -14.32693   150.66380   -13.98435
   292  N   5.0   -0.25    3.15    1.95   -10.20047   172.53059    -2.04936
   293  C   4.0    0.02    4.22    4.04   -10.37409   170.02971    -3.15461
   294  C   4.0    0.05    3.27    3.05   -11.80303   169.75068    -5.60665
   295  O   6.0   -0.33    1.15    1.80   -11.57013   167.76326    -6.78274
   296  C   4.0   -0.05    4.40    4.37   -11.81502   168.08781    -1.49861
   297  C   4.0   -0.03    4.15    3.89   -10.70130   167.24807     1.05663
   298  C   4.0   -0.09    4.11    3.83   -11.98432   164.79945     1.90406
   299  C   4.0   -0.09    4.11    3.83    -7.86612   166.79346     0.93592
   300  H   1.0    0.06    1.03    1.43   -10.63673   172.63836    -0.19755
   301  H   1.0    0.03    1.06    1.44    -8.46864   169.30841    -3.47714
   302  H   1.0    0.03    1.03    1.43   -13.70492   168.83010    -1.13620
   303  H   1.0    0.05    1.05    1.44   -11.99526   166.39517    -2.66464
   304  H   1.0    0.03    1.05    1.44   -11.09281   168.70783     2.46848
   305  H   1.0    0.03    1.00    1.43   -11.37187   164.31901     3.80312
   306  H   1.0    0.03    1.00    1.43   -14.02516   165.01585     1.92599
   307  H   1.0    0.04    1.00    1.43   -11.47733   163.25384     0.64894
   308  H   1.0    0.03    1.00    1.43    -7.21913   165.95454     2.69597
   309  H   1.0    0.03    1.00    1.43    -7.39292   165.50646    -0.59139
   310  H   1.0    0.02    1.00    1.43    -6.83371   168.55312     0.68101
   311  N   5.0   -0.24    3.20    1.96   -10.11244   163.78266   -12.00894
   312  C   4.0    0.03    4.18    3.97   -11.66526   161.64377   -12.68718
   313  C   4.0    0.06    3.20    3.04   -10.71642   160.55235   -15.18548
   314  O   6.0   -0.32    1.14    1.80   -11.36877   158.45297   -15.86433
   315  C   4.0   -0.04    4.23    4.06   -14.55373   162.27163   -12.81969
   316  C   4.0    0.14    3.18    3.03   -16.32745   160.30513   -11.60695
   317  O   6.0   -0.30    1.19    1.80   -17.53379   158.77013   -12.83640
   318  N   5.0   -0.20    3.17    1.95   -16.47368   160.43288    -9.07395
   319  H   1.0    0.07    1.03    1.43   -10.41150   165.41455   -12.92564
   320  H   1.0    0.04    1.05    1.44   -11.32796   160.21371   -11.21819
   321  H   1.0    0.03    1.03    1.43   -14.83900   164.09920   -11.91088
   322  H   1.0    0.04    1.03    1.43   -15.08634   162.45064   -14.80326
   323  H   1.0    0.09    1.03    1.43   -17.54267   159.17146    -8.11907
   324  H   1.0    0.08    1.03    1.43   -15.33186   161.59522    -8.09608
   325  N   5.0   -0.23    3.23    1.96    10.03860   151.46102     8.04069
   326  C   4.0    0.02    4.31    4.22    10.24179   150.49711    10.60818
   327  C   4.0    0.14    3.40    3.08     8.02734   151.50457    12.21572
   328  O   6.0   -0.31    1.21    1.80     6.94680   150.35695    13.84451
   329  C   4.0   -0.04    4.26    4.12    12.66105   151.36767    11.94949
   330  C   4.0   -0.04    4.11    3.83    14.95542   149.68648    11.42116
   331  C   4.0    0.23    3.05    3.02    16.58660   149.10350    13.90270
   332  O   6.0   -0.31    1.19    1.80    15.19109   148.67276    15.79904
   333  O   6.0   -0.34    1.13    1.80    18.93165   149.01535    13.89478
   334  H   1.0    0.07    1.02    1.43    11.62083   151.40971     6.94959
   335  H   1.0    0.05    1.04    1.43    10.12635   148.41621    10.62439
   336  H   1.0    0.03    1.02    1.43    13.07518   153.33411    11.49203
   337  H   1.0    0.06    1.05    1.44    12.28721   151.23701    13.98016
   338  H   1.0    0.04    1.03    1.43    14.31208   147.84311    10.74590
   339  H   1.0    0.03    1.02    1.43    16.24459   150.42519    10.00178
   340  N   5.0   -0.15    3.50    2.08     7.64763   153.99623    11.77179
   341  C   4.0    0.02    4.30    4.20     6.40451   155.72997    13.51165
   342  C   4.0    0.15    3.46    3.10     3.47319   155.46339    13.26304
   343  O   6.0   -0.32    1.33    1.80     1.96216   154.92538    14.94173
   344  C   4.0   -0.06    4.16    3.92     7.43745   158.50442    13.11593
   345  C   4.0   -0.06    4.13    3.86    10.16993   159.03170    14.08610
   346  C   4.0   -0.06    4.13    3.87    10.36561   161.30879    15.88062
   347  C   4.0   -0.06    4.13    3.86    13.15325   161.98560    16.25354
   348  N   5.0   -0.14    3.99    2.83    13.50237   164.35068    17.77217
   349  H   1.0    0.07    1.10    1.44     8.89902   154.82938    10.60005
   350  H   1.0    0.05    1.05    1.44     6.87406   155.11509    15.44149
   351  H   1.0    0.03    1.02    1.43     7.24118   159.00974    11.13764
   352  H   1.0    0.04    1.03    1.43     6.13680   159.68914    14.19292
   353  H   1.0    0.04    1.02    1.43    10.90562   157.34468    15.02842
   354  H   1.0    0.02    1.03    1.43    11.41727   159.35519    12.48417
   355  H   1.0    0.03    1.03    1.43     9.36620   162.89821    15.03407
   356  H   1.0    0.03    1.02    1.43     9.52594   160.78125    17.68831
   357  H   1.0    0.02    1.02    1.43    14.13198   160.41995    17.17006
   358  H   1.0    0.02    1.02    1.43    14.01706   162.27352    14.40338
   359  H   1.0    0.02    1.02    1.43    15.40161   164.63974    18.07600
   360  H   1.0    0.03    1.02    1.43    12.75503   165.78905    16.63435
   361  H   1.0    0.03    1.02    1.43    12.62320   164.17036    19.49697
   362  N   5.0   -0.16    3.54    2.11     2.64899   156.04223    10.97319
   363  C   4.0    0.03    4.57    4.63     0.00970   155.57670    10.59216
   364  C   4.0    0.16    3.93    3.50    -0.56054   152.81805    10.87935
   365  O   6.0   -0.33    1.56    1.80    -2.68798   152.10900    11.45257
   366  C   4.0   -0.06    4.45    4.46    -0.94191   156.52030     8.07957
   367  C   4.0   -0.02    4.32    4.23    -2.60281   154.60295     6.80829
   368  C   4.0   -0.08    4.11    3.82    -4.09318   156.02114     4.76542
   369  C   4.0   -0.08    4.23    4.05    -0.91558   152.44834     5.86005
   370  H   1.0    0.07    1.06    1.44     3.82758   156.46607     9.53175
   371  H   1.0    0.05    1.08    1.44    -1.00087   156.55434    12.11034
   372  H   1.0    0.03    1.03    1.43    -1.97459   158.27943     8.36924
   373  H   1.0    0.03    1.04    1.43     0.66882   156.94131     6.85709
   374  H   1.0    0.05    1.09    1.44    -3.99384   153.89074     8.13686
   375  H   1.0    0.04    1.00    1.43    -5.40187   154.77483     3.80296
   376  H   1.0    0.03    1.00    1.43    -5.18661   157.51854     5.64050
   377  H   1.0    0.03    1.00    1.43    -2.84732   156.85105     3.35343
   378  H   1.0    0.04    1.01    1.43    -1.61527   150.60882     6.42823
   379  H   1.0    0.03    1.00    1.43    -0.92154   152.46866     3.79532
   380  H   1.0    0.04    1.03    1.43     1.04142   152.64281     6.43250
   381  N   5.0   -0.14    3.73    2.31     1.19972   151.11623    10.46536
   382  C   4.0    0.04    4.60    4.66     0.12602   148.67583    10.58314
   383  C   4.0    0.17    3.73    3.27    -0.77972   148.50541    13.28446
   384  O   6.0   -0.29    1.36    1.80    -2.86516   147.63905    13.79571
   385  C   4.0   -0.04    4.26    4.13     1.73949   146.80400     9.15045
   386  C   4.0   -0.03    4.09    3.79     4.26209   145.84287    10.19744
   387  C   4.0    0.24    3.06    3.02     5.44992   143.82388     8.26884
   388  O   6.0   -0.30    1.20    1.80     4.05733   143.37515     6.40483
   389  O   6.0   -0.30    1.13    1.80     7.62244   142.93135     8.69092
   390  H   1.0    0.08    1.06    1.44     2.99179   151.38944     9.89445
   391  H   1.0    0.05    1.10    1.44    -1.68246   148.68762     9.52999
   392  H   1.0    0.06    1.04    1.43     0.58992   145.12226     8.79023
   393  H   1.0    0.05    1.04    1.43     2.13093   147.64758     7.31312
   394  H   1.0    0.06    1.02    1.43     5.63760   147.35039    10.44688
   395  H   1.0    0.05    1.01    1.43     4.02441   144.89900    12.02642
   396  N   5.0   -0.13    3.59    2.15     0.57802   149.64116    15.10729
   397  C   4.0    0.04    4.66    4.73    -0.53651   149.06471    17.55038
   398  C   4.0    0.16    3.76    3.29    -2.98016   150.46776    17.94276
   399  O   6.0   -0.33    1.44    1.80    -4.77748   149.60917    19.16065
   400  C   4.0   -0.03    4.28    4.15     1.08809   149.63594    19.88041
   401  C   4.0   -0.07    4.13    3.86     3.28097   151.39740    19.24116
   402  C   4.0   -0.06    4.19    3.98    -0.53562   150.54287    22.12350
   403  H   1.0    0.10    1.07    1.44     2.47430   149.84260    14.95568
   404  H   1.0    0.06    1.07    1.44    -1.03212   147.04170    17.57827
   405  H   1.0    0.04    1.06    1.44     1.92112   147.83873    20.48593
   406  H   1.0    0.04    1.00    1.43     4.24263   151.90044    20.98516
   407  H   1.0    0.06    1.00    1.43     4.64011   150.44286    18.03106
   408  H   1.0    0.07    1.02    1.43     2.61457   153.10319    18.32143
   409  H   1.0    0.05    1.00    1.43     0.66180   150.64974    23.79449
   410  H   1.0    0.06    1.01    1.43    -1.33565   152.40771    21.81577
   411  H   1.0    0.05    1.01    1.43    -2.04246   149.21454    22.54188
   412  N   5.0   -0.14    3.66    2.22    -2.88460   152.81633    17.13151
   413  C   4.0    0.04    4.63    4.70    -5.00157   154.45873    17.53009
   414  C   4.0    0.16    3.76    3.29    -7.37134   153.06709    16.93383
   415  O   6.0   -0.32    1.30    1.80    -9.38387   153.44458    17.97876
   416  C   4.0   -0.02    4.34    4.28    -4.75137   156.71320    15.77858
   417  C   4.0   -0.07    4.20    4.01    -6.97163   156.92871    13.96662
   418  C   4.0   -0.07    4.12    3.85    -4.30845   159.04597    17.40670
   419  H   1.0    0.11    1.11    1.44    -1.30403   153.43846    16.24292
   420  H   1.0    0.06    1.09    1.44    -5.09419   155.08174    19.49630
   421  H   1.0    0.05    1.08    1.44    -3.05932   156.38641    14.64696
   422  H   1.0    0.03    1.00    1.43    -6.82045   158.69430    12.92149
   423  H   1.0    0.05    1.02    1.43    -6.96305   155.38143    12.62919
   424  H   1.0    0.05    1.01    1.43    -8.75316   156.94202    14.98987
   425  H   1.0    0.04    1.00    1.43    -4.08799   160.71782    16.23397
   426  H   1.0    0.06    1.02    1.43    -5.90868   159.30017    18.66336
   427  H   1.0    0.05    1.00    1.43    -2.63520   158.78293    18.56513
   428  N   5.0   -0.14    3.73    2.32    -7.15094   151.57080    14.92802
   429  C   4.0    0.04    4.64    4.71    -9.33160   150.25319    14.19276
   430  C   4.0    0.16    3.63    3.19   -10.17347   148.27107    16.04195
   431  O   6.0   -0.34    1.44    1.80   -12.43431   147.76097    16.31238
   432  C   4.0   -0.02    4.31    4.22    -9.04900   149.14448    11.58443
   433  C   4.0   -0.07    4.15    3.91   -11.68897   148.29822    10.73504
   434  C   4.0   -0.08    4.15    3.90    -7.93634   151.06216     9.74898
   435  H   1.0    0.12    1.12    1.45    -5.46489   151.06096    14.20409
   436  H   1.0    0.05    1.08    1.44   -10.90232   151.63563    14.15387
   437  H   1.0    0.06    1.05    1.44    -7.80447   147.49217    11.69936
   438  H   1.0    0.04    1.00    1.43   -11.58862   147.25236     8.96867
   439  H   1.0    0.06    1.02    1.43   -12.55206   147.05752    12.11747
   440  H   1.0    0.04    1.00    1.43   -12.90468   149.93533    10.46423
   441  H   1.0    0.04    1.00    1.43    -8.07504   150.31731     7.84082
   442  H   1.0    0.04    1.00    1.43    -9.00014   152.81801     9.83963
   443  H   1.0    0.07    1.04    1.43    -5.97825   151.38052    10.19408
   444  N   5.0   -0.12    3.76    2.35    -8.53056   147.19265    17.53286
   445  C   4.0    0.07    4.90    4.88    -9.66248   145.72281    19.45856
   446  C   4.0    0.15    3.72    3.26   -11.04325   147.28507    21.31030
   447  O   6.0   -0.30    1.48    1.80   -12.89529   146.48992    22.46605
   448  C   4.0   -0.04    4.43    4.43    -7.64625   144.27654    20.86621
   449  C   4.0    0.15    3.45    3.10    -7.52483   142.22080    18.90576
   450  O   6.0   -0.29    1.32    1.80    -7.22703   142.84577    16.67665
   451  N   5.0   -0.19    3.20    1.96    -8.15903   139.92865    19.85386
   452  H   1.0    0.12    1.11    1.44    -6.64618   147.23824    17.25873
   453  H   1.0    0.06    1.10    1.44   -11.02496   144.38196    18.63969
   454  H   1.0    0.05    1.03    1.43    -5.93638   145.40463    21.01324
   455  H   1.0    0.06    1.03    1.43    -8.24759   143.58149    22.70844
   456  H   1.0    0.10    1.04    1.43    -8.40641   138.41930    18.71706
   457  H   1.0    0.10    1.03    1.43    -8.56466   139.72811    21.70550
   458  N   5.0   -0.14    3.73    2.30    -9.96296   149.47538    21.73792
   459  C   4.0    0.04    4.56    4.61   -10.88045   150.87020    23.89164
   460  C   4.0    0.18    3.57    3.15   -13.76381   150.59981    23.86624
   461  O   6.0   -0.28    1.19    1.80   -15.00711   150.03773    25.73008
   462  C   4.0   -0.03    4.31    4.21    -9.83498   153.52888    23.67249
   463  C   4.0   -0.03    4.25    4.10    -6.96245   153.32641    23.85387
   464  C   4.0    0.24    3.12    3.03    -5.79460   155.99388    23.96037
   465  O   6.0   -0.32    1.22    1.80    -6.52849   157.55773    22.36169
   466  O   6.0   -0.30    1.19    1.80    -4.21247   156.35249    25.67713
   467  H   1.0    0.11    1.11    1.45    -8.28848   149.84388    20.87954
   468  H   1.0    0.05    1.05    1.44   -10.23510   149.99275    25.67384
   469  H   1.0    0.07    1.04    1.43   -10.36854   154.37497    21.87870
   470  H   1.0    0.06    1.02    1.43   -10.58891   154.69464    25.20176
   471  H   1.0    0.05    1.03    1.43    -6.41964   152.30992    25.57269
   472  H   1.0    0.06    1.04    1.43    -6.19587   152.31063    22.24142
   473  N   5.0   -0.13    3.64    2.20   -14.57545   151.16201    21.51147
   474  C   4.0    0.04    4.44    4.45   -16.98850   150.56503    20.44884
   475  C   4.0    0.16    3.50    3.12   -17.69285   147.78888    20.56306
   476  O   6.0   -0.30    1.39    1.80   -19.34854   147.15503    22.07134
   477  C   4.0   -0.05    4.32    4.24   -17.07372   151.50731    17.75149
   478  C   4.0   -0.05    4.19    3.97   -16.67316   154.36960    17.74414
   479  C   4.0   -0.01    4.14    3.89   -18.98002   155.88242    18.76365
   480  N   5.0   -0.14    3.38    2.01   -19.85933   157.80309    16.96723
   481  C   4.0    0.09    3.32    3.06   -22.16016   158.24942    16.03633
   482  N   5.0   -0.18    3.24    1.97   -24.21839   157.20151    17.03756
   483  N   5.0   -0.16    3.33    1.99   -22.37748   159.98259    14.23867
   484  H   1.0    0.10    1.14    1.45   -13.17368   151.32137    20.22189
   485  H   1.0    0.06    1.06    1.44   -18.41906   151.51390    21.61898
   486  H   1.0    0.06    1.04    1.43   -15.60781   150.56699    16.64351
   487  H   1.0    0.04    1.03    1.43   -18.90562   151.02312    16.93851
   488  H   1.0    0.05    1.03    1.43   -14.97979   154.80453    18.82892
   489  H   1.0    0.04    1.03    1.43   -16.32424   154.94185    15.79151
   490  H   1.0    0.05    1.03    1.43   -20.51720   154.57377    19.15418
   491  H   1.0    0.06    1.02    1.43   -18.48827   156.80029    20.54386
   492  H   1.0    0.08    1.08    1.44   -18.44004   158.80269    16.15732
   493  H   1.0    0.10    1.03    1.43   -24.10571   155.67273    18.16789
   494  H   1.0    0.09    1.03    1.43   -25.94219   157.38707    16.24508
   495  H   1.0    0.11    1.04    1.43   -20.87467   160.99742    13.64062
   496  H   1.0    0.09    1.04    1.43   -24.10394   160.66065    13.79958
   497  N   5.0   -0.14    3.46    2.05   -16.69684   146.24657    18.82585
   498  C   4.0    0.03    4.32    4.23   -17.48186   143.60871    18.63188
   499  C   4.0    0.17    3.50    3.12   -18.33238   142.51709    21.24470
   500  O   6.0   -0.31    1.27    1.80   -20.17757   141.11168    21.39009
   501  C   4.0   -0.04    4.16    3.92   -15.48889   141.76376    17.52498
   502  C   4.0   -0.04    4.05    3.70   -14.54640   141.91986    14.71965
   503  C   4.0   -0.01    4.09    3.78   -16.07530   140.61454    12.57332
   504  N   5.0   -0.14    3.29    1.98   -16.82765   137.89797    12.76776
   505  C   4.0    0.10    3.31    3.05   -17.40589   136.25961    10.87362
   506  N   5.0   -0.17    3.23    1.96   -16.43208   136.46394     8.56878
   507  N   5.0   -0.18    3.24    1.97   -19.02313   134.35767    11.32495
   508  H   1.0    0.11    1.13    1.45   -15.12473   146.76328    17.85645
   509  H   1.0    0.05    1.05    1.44   -19.18014   143.56011    17.42939
   510  H   1.0    0.05    1.03    1.43   -13.82372   141.90826    18.73482
   511  H   1.0    0.05    1.03    1.43   -16.25989   139.87360    17.83403
   512  H   1.0    0.05    1.03    1.43   -14.40142   143.89584    14.16393
   513  H   1.0    0.06    1.02    1.43   -12.63642   141.14571    14.70519
   514  H   1.0    0.04    1.02    1.43   -17.84387   141.67351    12.35381
   515  H   1.0    0.07    1.05    1.44   -14.97731   140.86819    10.85005
   516  H   1.0    0.08    1.07    1.44   -17.73536   137.53339    14.41486
   517  H   1.0    0.12    1.05    1.44   -15.43192   138.03328     8.07980
   518  H   1.0    0.09    1.03    1.43   -16.99767   135.31000     7.16983
   519  H   1.0    0.09    1.03    1.43   -19.57212   134.05152    13.12552
   520  H   1.0    0.11    1.05    1.44   -18.83989   132.70819    10.34383
   521  N   5.0   -0.13    3.53    2.10   -16.91154   143.07508    23.24346
   522  C   4.0    0.04    4.45    4.46   -17.82050   142.44758    25.73681
   523  C   4.0    0.16    3.44    3.09   -20.29846   143.82998    26.37836
   524  O   6.0   -0.29    1.28    1.80   -22.25559   142.60152    26.23667
   525  C   4.0   -0.04    4.24    4.08   -15.67789   142.71181    27.64122
   526  C   4.0   -0.03    4.18    3.96   -14.19498   140.21998    27.77868
   527  C   4.0    0.25    3.09    3.02   -11.30294   140.69364    28.04609
   528  O   6.0   -0.31    1.16    1.80   -10.58262   141.43312    30.17411
   529  O   6.0   -0.30    1.16    1.80    -9.99314   140.34448    26.10559
   530  H   1.0    0.12    1.12    1.45   -15.45770   144.31066    23.11261
   531  H   1.0    0.06    1.07    1.44   -18.42048   140.45503    25.67060
   532  H   1.0    0.07    1.03    1.43   -14.42048   144.24747    27.05967
   533  H   1.0    0.04    1.02    1.43   -16.40234   143.19703    29.50800
   534  H   1.0    0.04    1.02    1.43   -14.81201   139.08449    29.38528
   535  H   1.0    0.06    1.03    1.43   -14.44871   139.12693    26.04797
   536  N   5.0   -0.14    3.45    2.04   -20.20400   146.23387    27.13570
   537  C   4.0    0.03    4.40    4.37   -22.39569   147.71236    27.87773
   538  C   4.0    0.16    3.50    3.12   -24.79279   147.02652    26.44773
   539  O   6.0   -0.31    1.21    1.80   -26.81846   146.99881    27.59881
   540  C   4.0   -0.04    4.34    4.26   -22.05569   150.53315    27.29868
   541  C   4.0   -0.03    4.16    3.92   -19.94063   151.82362    28.75989
   542  C   4.0    0.25    3.10    3.02   -19.05531   154.26283    27.34042
   543  O   6.0   -0.31    1.19    1.80   -20.66896   155.27046    25.95255
   544  O   6.0   -0.29    1.16    1.80   -16.84264   154.99142    27.71548
   545  H   1.0    0.10    1.07    1.44   -18.57481   147.20996    26.92593
   546  H   1.0    0.04    1.05    1.44   -22.76167   147.43495    29.90507
   547  H   1.0    0.07    1.04    1.43   -21.64438   150.70580    25.28435
   548  H   1.0    0.05    1.03    1.43   -23.84064   151.50720    27.64577
   549  H   1.0    0.03    1.02    1.43   -20.54042   152.35990    30.66150
   550  H   1.0    0.06    1.03    1.43   -18.26828   150.62841    28.91385
   551  N   5.0   -0.13    3.48    2.07   -24.54312   146.69342    23.94971
   552  C   4.0    0.03    4.32    4.23   -26.68968   146.11980    22.32061
   553  C   4.0    0.15    3.42    3.08   -27.38226   143.26977    22.49964
   554  O   6.0   -0.30    1.30    1.80   -29.48148   142.68323    23.35501
   555  C   4.0   -0.05    4.14    3.88   -26.29455   147.21932    19.63168
   556  C   4.0   -0.04    4.04    3.69   -28.64513   148.38177    18.31257
   557  C   4.0    0.24    3.00    3.02   -28.22374   150.60745    16.21544
   558  O   6.0   -0.32    1.14    1.80   -29.04885   150.29336    14.02953
   559  O   6.0   -0.32    1.16    1.80   -27.15695   152.55461    17.00074
   560  H   1.0    0.11    1.10    1.44   -22.78766   146.72386    23.18261
   561  H   1.0    0.06    1.07    1.44   -28.31585   147.07329    23.19252
   562  H   1.0    0.06    1.03    1.43   -24.89988   148.72516    19.83967
   563  H   1.0    0.05    1.02    1.43   -25.48999   145.75051    18.42843
   564  H   1.0    0.04    1.01    1.43   -29.77465   146.89487    17.42928
   565  H   1.0    0.04    1.02    1.43   -29.81981   149.28374    19.75596
   566  N   5.0   -0.14    3.38    2.01   -25.72696   141.48246    21.76212
   567  C   4.0    0.05    4.38    4.35   -26.55743   138.89371    22.09077
   568  C   4.0    0.10    3.32    3.06   -27.83037   138.40764    24.64790
   569  O   6.0   -0.31    1.12    1.80   -29.70315   137.06970    24.82562
   570  C   4.0    0.03    4.17    3.93   -24.51753   136.92132    21.79430
   571  O   6.0   -0.26    2.08    1.84   -25.72537   134.89777    20.56233
   572  H   1.0    0.11    1.08    1.44   -23.84647   141.81762    21.58643
   573  H   1.0    0.06    1.07    1.44   -28.00470   138.49122    20.65171
   574  H   1.0    0.06    1.01    1.43   -22.95434   137.66689    20.65184
   575  H   1.0    0.04    1.02    1.43   -23.77647   136.37395    23.64821
   576  H   1.0    0.11    1.02    1.43   -24.72275   133.37133    20.75524
   577  N   5.0   -0.24    3.27    1.97     7.95452   145.66078    30.82567
   578  C   4.0    0.03    4.29    4.19     5.63422   146.06314    29.46156
   579  C   4.0    0.07    3.22    3.04     5.53514   144.50692    27.07091
   580  O   6.0   -0.33    1.19    1.80     3.51957   143.67395    26.30941
   581  C   4.0   -0.04    4.36    4.31     5.48553   148.83525    28.88562
   582  C   4.0   -0.04    4.25    4.11     5.13266   150.17546    31.39835
   583  C   4.0    0.23    3.14    3.03     3.71509   152.67415    30.79482
   584  O   6.0   -0.32    1.17    1.80     4.91631   154.22468    29.47338
   585  O   6.0   -0.32    1.16    1.80     1.49592   152.87951    31.58483
   586  H   1.0    0.06    1.04    1.43     8.83735   147.20114    31.53321
   587  H   1.0    0.04    1.05    1.44     3.98644   145.49080    30.60291
   588  H   1.0    0.04    1.03    1.43     7.16800   149.51840    27.91480
   589  H   1.0    0.05    1.04    1.43     3.84582   149.21411    27.68307
   590  H   1.0    0.04    1.03    1.43     3.92819   149.09483    32.68750
   591  H   1.0    0.03    1.02    1.43     6.92263   150.62316    32.30243
   592  N   5.0   -0.23    3.25    1.97     1.41459   138.91287    24.91328
   593  C   4.0    0.03    4.35    4.29    -0.24180   138.38142    22.80834
   594  C   4.0    0.07    3.24    3.04     0.26879   135.81755    21.61618
   595  O   6.0   -0.33    1.28    1.80    -1.37844   134.64768    20.43762
   596  C   4.0   -0.02    4.30    4.20    -0.17353   140.43277    20.82990
   597  C   4.0   -0.07    4.17    3.93    -0.72429   142.91112    22.14877
   598  C   4.0   -0.07    4.13    3.87     2.30091   140.44390    19.39212
   599  H   1.0    0.11    1.07    1.44     2.15680   140.64864    25.20029
   600  H   1.0    0.04    1.06    1.44    -2.19122   138.28000    23.54225
   601  H   1.0    0.05    1.06    1.44    -1.71337   140.03844    19.49675
   602  H   1.0    0.04    1.00    1.43    -1.35779   144.31843    20.78927
   603  H   1.0    0.05    1.00    1.43    -2.21417   142.67620    23.54911
   604  H   1.0    0.06    1.01    1.43     0.93204   143.66287    23.09581
   605  H   1.0    0.04    1.00    1.43     2.42791   142.13323    18.22373
   606  H   1.0    0.04    1.00    1.43     3.88447   140.42087    20.70113
   607  H   1.0    0.05    1.00    1.43     2.43784   138.80993    18.15290
   608  N   5.0   -0.21    3.21    1.96    -3.92755   131.78316    24.63237
   609  C   4.0    0.03    4.33    4.25    -6.20414   131.97301    23.19758
   610  C   4.0    0.14    3.47    3.10    -6.08303   130.68259    20.56740
   611  O   6.0   -0.32    1.40    1.80    -7.95020   129.53769    19.72906
   612  C   4.0   -0.03    4.30    4.19    -7.04004   134.71697    22.97963
   613  C   4.0    0.16    3.26    3.05    -9.85354   134.66619    22.35251
   614  O   6.0   -0.30    1.21    1.80   -11.36828   134.22958    24.03124
   615  N   5.0   -0.18    3.18    1.95   -10.61059   135.04822    19.90062
   616  H   1.0    0.08    1.02    1.43    -3.14212   133.34984    25.41394
   617  H   1.0    0.05    1.08    1.44    -7.71047   130.94040    24.14463
   618  H   1.0    0.05    1.03    1.43    -6.79439   135.68450    24.78683
   619  H   1.0    0.06    1.03    1.43    -5.92696   135.68547    21.54700
   620  H   1.0    0.10    1.03    1.43   -12.48629   134.78511    19.61431
   621  H   1.0    0.09    1.03    1.43    -9.47478   134.43723    18.50248
   622  N   5.0   -0.15    3.55    2.12    -4.15000   130.98614    19.03005
   623  C   4.0    0.04    4.46    4.48    -4.31982   129.75588    16.62382
   624  C   4.0    0.08    3.28    3.05    -5.00737   126.96367    16.75494
   625  O   6.0   -0.31    1.13    1.80    -6.59453   126.05106    15.34781
   626  C   4.0   -0.05    4.33    4.25    -1.79226   130.13598    15.37091
   627  C   4.0   -0.02    4.23    4.07    -1.50504   132.94297    14.85651
   628  C   4.0    0.24    3.10    3.02    -0.22477   133.32109    12.21558
   629  O   6.0   -0.30    1.16    1.80     2.06203   133.97031    12.42111
   630  O   6.0   -0.29    1.13    1.80    -1.45587   132.97058    10.19683
   631  H   1.0    0.12    1.17    1.46    -2.61351   132.04468    19.46657
   632  H   1.0    0.06    1.06    1.44    -5.84583   130.61740    15.48750
   633  H   1.0    0.04    1.03    1.43    -0.32267   129.37516    16.58683
   634  H   1.0    0.05    1.03    1.43    -1.78865   129.07634    13.59410
   635  H   1.0    0.05    1.03    1.43    -3.35888   133.85284    14.78296
   636  H   1.0    0.06    1.03    1.43    -0.37218   133.90251    16.27010
   637  N   5.0   -0.21    3.24    1.96   -11.41919   125.81793    18.90312
   638  C   4.0    0.05    4.31    4.21   -13.06546   126.00141    16.76714
   639  C   4.0    0.08    3.24    3.04   -13.09112   123.57544    15.15501
   640  O   6.0   -0.30    1.12    1.80   -14.96875   122.22789    15.07619
   641  C   4.0   -0.04    4.26    4.12   -12.34515   128.32605    15.23946
   642  C   4.0   -0.03    4.19    3.98   -13.77125   128.31375    12.75110
   643  C   4.0    0.25    3.09    3.02   -16.74897   128.02631    13.03350
   644  O   6.0   -0.30    1.24    1.80   -17.61647   126.68320    14.75561
   645  O   6.0   -0.31    1.20    1.80   -18.01569   129.22454    11.41250
   646  H   1.0    0.13    1.09    1.44    -9.83628   126.88972    18.92968
   647  H   1.0    0.07    1.08    1.44   -15.00731   126.15690    17.46788
   648  H   1.0    0.05    1.02    1.43   -12.78446   130.01251    16.34433
   649  H   1.0    0.06    1.03    1.43   -10.30914   128.27814    14.88791
   650  H   1.0    0.05    1.02    1.43   -13.40273   130.03001    11.66455
   651  H   1.0    0.05    1.03    1.43   -13.16479   126.70619    11.60404
   652  N   5.0   -0.24    3.18    1.95   -13.98079   143.02688   -22.91142
   653  C   4.0    0.02    4.12    3.84   -14.86069   141.08344   -21.17156
   654  C   4.0    0.05    3.14    3.03   -13.16416   138.67813   -21.42017
   655  O   6.0   -0.32    1.10    1.80   -11.94272   137.63854   -19.74148
   656  C   4.0   -0.07    4.15    3.90   -17.77990   140.59077   -21.56728
   657  C   4.0   -0.06    4.13    3.86   -19.60278   142.69352   -20.59711
   658  C   4.0   -0.06    4.13    3.87   -21.67264   141.72444   -18.80259
   659  C   4.0   -0.05    4.13    3.86   -23.65259   143.80020   -18.42967
   660  N   5.0   -0.13    3.99    2.83   -25.87538   142.92001   -16.91104
   661  H   1.0    0.06    1.03    1.43   -15.32801   143.69404   -24.08316
   662  H   1.0    0.04    1.04    1.44   -14.56296   141.79752   -19.24172
   663  H   1.0    0.01    1.02    1.43   -18.11939   140.16813   -23.54557
   664  H   1.0    0.03    1.03    1.43   -18.15557   138.87200   -20.49029
   665  H   1.0    0.03    1.02    1.43   -18.50963   144.17416   -19.65479
   666  H   1.0    0.02    1.03    1.43   -20.50660   143.61200   -22.19904
   667  H   1.0    0.02    1.03    1.43   -22.54941   140.06421   -19.64914
   668  H   1.0    0.04    1.02    1.43   -20.79594   141.26104   -16.99490
   669  H   1.0    0.04    1.02    1.43   -22.78606   145.43063   -17.51315
   670  H   1.0    0.02    1.02    1.43   -24.33385   144.40432   -20.27983
   671  H   1.0    0.04    1.02    1.43   -27.07532   144.42027   -16.60721
   672  H   1.0    0.03    1.02    1.43   -26.74737   141.55361   -18.04886
   673  H   1.0    0.05    1.02    1.43   -25.27963   142.24878   -15.18624
   674  H   1.0    0.08    1.07    1.44     5.90473   167.22612    17.01414
   675  H   1.0    0.03    1.04    1.43     2.36655   168.62305    22.07785
   676  H   1.0    0.07    1.07    1.44    -1.47266   171.49828    15.24055
   677  H   1.0    0.05    1.04    1.43    -9.22436   168.98086    20.40130
   678  H   1.0    0.09    1.07    1.44   -11.79724   168.39114    13.00982
   679  H   1.0    0.05    1.05    1.44   -19.51080   168.82506    14.89510
   680  H   1.0    0.08    1.08    1.44   -20.93988   166.97179     9.15953
   681  H   1.0    0.07    1.05    1.44    -1.74537   151.65742    -8.43219
   682  H   1.0    0.07    1.07    1.44    -8.60868   173.10966    -2.20238
   683  H   1.0    0.03    1.04    1.43   -12.89814   171.15996    -6.22771
   684  H   1.0    0.10    1.07    1.44   -10.33705   164.14814   -10.36317
   685  H   1.0    0.03    1.05    1.44    -9.55095   161.56361   -16.27638
   686  H   1.0    0.09    1.07    1.44     8.87326   150.56280     7.18762
   687  H   1.0    0.06    1.05    1.44   -27.12886   139.19301    26.21703
   688  H   1.0    0.07    1.07    1.44     7.65840   144.65618    32.16569
   689  H   1.0    0.04    1.05    1.44     7.12143   144.15525    26.10598
   690  H   1.0    0.09    1.07    1.44     0.59646   138.60305    26.37179
   691  H   1.0    0.04    1.05    1.44     1.97791   135.02656    21.77206
   692  H   1.0    0.08    1.08    1.44    -4.17751   130.74953    25.95965
   693  H   1.0    0.04    1.05    1.44    -4.15414   125.83845    18.01070
   694  H   1.0    0.09    1.08    1.44   -12.26494   126.25879    20.31128
   695  H   1.0    0.05    1.04    1.43   -11.56179   123.08726    14.15807
   696  H   1.0    0.08    1.07    1.44   -13.38699   144.35324   -22.02784
   697  H   1.0    0.03    1.05    1.44   -12.98785   137.81492   -23.09194

  Z AO/shell   Hii/eV     exponent
  1     Wed Apr 25 08:07:45 CEST 2018   EN: 2.200 GM2: 0.406  GM3: 0.0800  RAES: 1.40
     1s    -10.707211    1.230000
  6     Wed Apr 25 08:07:45 CEST 2018   EN: 2.550 GM2: 0.538  GM3: 0.1500  RAES: 3.00
     2s    -13.970922    2.096432
     2p    -10.063292    1.800000
  7     Wed Apr 25 08:07:45 CEST 2018   EN: 3.040 GM2: 0.461  GM3:-0.0640  RAES: 1.90
     2s    -16.686243    2.339881
     2p    -12.523956    2.014332
  8     Wed Apr 25 08:07:45 CEST 2018   EN: 3.440 GM2: 0.452  GM3:-0.0517  RAES: 1.80
     2s    -20.229985    2.439742
     2p    -15.503117    2.137023
 16     Tue Apr 24 11:44:34 CEST 2018   EN: 2.580 GM2: 0.340  GM3:-0.0502  RAES: 3.10
     3s    -20.029654    1.981333
     3p    -11.377694    2.025643
     3d     -0.420282    1.702555
 no old-style atom pair restraining (fixing) potential

molecular fragmentation (1/2 indicates fragments):
111111111111111111122222222222222222222222222222222222222222222222222222
222222222222222222222222222222222222222222222222222222222222222222222222
222222222222222222222222222222222222222222222222222222222222222222222222
222222222222222222222222222222222222222222222222222222222222222222222222
222222222222222222222222222222222222222222222222222222222222222222222222
222222222222222222222222222222222222222222222222222222222222222222222222
222222222222222222222222222222222222222222222222222222222222222222222222
222222222222222222222222222222222222222222222222222222222222222222222222
222222222222222222222222222222222222222222222222222222222222222222222222
2222222222222222222222222112222222222222222222222
# atoms in fragment 1/2:    21   676
 fragment masses (1/2) :      115.17     4700.32
CMA distance (Bohr)    :  24.135
constraining FC (au)   :  0.0500
           ------------------------------------------------- 
          |        Self-Consistent Charge Iterations        |
           ------------------------------------------------- 

 Ncao       : 1708
 Nao        : 1707
 Nshell     : 1033
 Nel        : 1914
 T(el)      :   500.0
 intcut     :    35.0
 scfconv/Eh :  0.100E-06
   qconv/e  :  0.100E-04
 intneglect :  0.100E-08
 broydamp   :      0.400
 iter      E             dE          RMSdq      gap      omega  full diag
   1  -1100.3511694 -0.110035E+04  0.476E+00    3.10       0.0  T
   2  -1103.4168467 -0.306568E+01  0.219E+00    1.77       1.0  T
   3  -1103.6422394 -0.225393E+00  0.130E+00    1.79       1.0  T
   4  -1103.8396994 -0.197460E+00  0.286E-01    1.07       1.0  T
   5  -1103.8509789 -0.112795E-01  0.155E-01    1.15       1.0  T
   6  -1103.8530685 -0.208959E-02  0.650E-02    0.99       1.0  T
   7  -1103.8537589 -0.690332E-03  0.310E-02    0.93       1.0  T
   8  -1103.8538712 -0.112367E-03  0.144E-02    0.87       1.0  T
   9  -1103.8539015 -0.302471E-04  0.692E-03    0.86       1.0  T
  10  -1103.8539074 -0.590727E-05  0.274E-03    0.85       1.4  T
  11  -1103.8539087 -0.126897E-05  0.132E-03    0.85       2.9  T
  12  -1103.8539089 -0.207032E-06  0.562E-04    0.85       6.7  T
  13  -1103.8539089 -0.306379E-07  0.246E-04    0.85      15.4  T
  14  -1103.8539089 -0.916930E-08  0.105E-04    0.85      36.2  T
  15  -1103.8539089 -0.130103E-08  0.531E-05    0.85      71.3  T
  16  -1103.8539089 -0.397904E-09  0.243E-05    0.85     155.8  T
speedup  1.96
cpu  time for SCC   34.46 s
wall time for SCC   17.59 s

   *** convergence criteria satisfied after 16 iterations ***

          eigenvalues
 #    :         945        946        947        948        949        950        951        952
 occ. :        2.000      2.000      2.000      2.000      2.000      2.000      2.000      2.000
 eps  :        -9.897     -9.884     -9.870     -9.833     -9.814     -9.810     -9.809     -9.802
 #    :         953        954        955        956        957        958        959        960
 occ. :        2.000      2.000      2.000      2.000      2.000      0.000      0.000      0.000
 eps  :        -9.609     -9.601     -9.495     -9.351     -9.276     -8.429     -8.102     -7.994
 #    :         961        962        963        964        965        966        967        968
 occ. :        0.000      0.000      0.000      0.000      0.000      0.000      0.000      0.000
 eps  :        -7.736     -7.720     -7.580     -7.569     -7.552     -7.516     -7.503     -7.449


   #   Z            q   n(s)   n(p)   n(d)      C6AA      α(0)
   1   7 N     -0.378  1.310  4.068  0.000    29.776     8.104
   2   6 C      0.026  1.058  2.916  0.000    20.153     6.394
   3   6 C      0.191  1.091  2.718  0.000    23.912     8.009
   4   8 O     -0.367  1.748  4.620  0.000    21.041     6.150
   5   6 C     -0.023  1.067  2.956  0.000    20.940     6.507
   6   6 C     -0.079  1.055  3.024  0.000    22.004     6.678
   7   6 C     -0.112  1.038  3.073  0.000    22.693     6.793
   8   6 C     -0.117  1.038  3.078  0.000    22.796     6.809
   9   1 H      0.177  0.823  0.000  0.000     1.232     1.739
  10   1 H      0.033  0.967  0.000  0.000     2.541     2.493
  11   1 H      0.037  0.963  0.000  0.000     2.492     2.469
  12   1 H      0.053  0.947  0.000  0.000     2.282     2.362
  13   1 H      0.089  0.911  0.000  0.000     1.893     2.151
  14   1 H      0.035  0.965  0.000  0.000     2.517     2.481
  15   1 H      0.021  0.979  0.000  0.000     2.722     2.580
  16   1 H      0.050  0.950  0.000  0.000     2.316     2.380
  17   1 H      0.051  0.949  0.000  0.000     2.304     2.374
  18   1 H      0.043  0.957  0.000  0.000     2.407     2.426
  19   1 H      0.022  0.978  0.000  0.000     2.703     2.571
  20   7 N     -0.388  1.312  4.076  0.000    30.039     8.140
  21   6 C      0.025  1.066  2.909  0.000    20.173     6.398
  22   6 C      0.264  1.055  2.682  0.000    22.551     7.776
  23   8 O     -0.482  1.737  4.746  0.000    23.396     6.485
  24   6 C     -0.085  1.070  3.015  0.000    22.121     6.697
  25   6 C     -0.018  1.065  2.953  0.000    20.870     6.499
  26   6 C     -0.115  1.041  3.073  0.000    22.758     6.803
  27   6 C     -0.125  1.045  3.081  0.000    22.964     6.833
  28   1 H      0.159  0.841  0.000  0.000     1.345     1.816
  29   1 H      0.059  0.941  0.000  0.000     2.211     2.325
  30   1 H      0.062  0.938  0.000  0.000     2.181     2.310
  31   1 H      0.037  0.963  0.000  0.000     2.496     2.471
  32   1 H      0.008  0.992  0.000  0.000     2.928     2.676
  33   1 H      0.035  0.965  0.000  0.000     2.523     2.484
  34   1 H      0.032  0.968  0.000  0.000     2.555     2.500
  35   1 H      0.052  0.948  0.000  0.000     2.297     2.370
  36   1 H      0.037  0.963  0.000  0.000     2.486     2.466
  37   1 H      0.059  0.941  0.000  0.000     2.209     2.324
  38   1 H      0.042  0.958  0.000  0.000     2.422     2.434
  39   7 N     -0.179  1.241  3.938  0.000    24.887     7.409
  40   6 C      0.022  1.061  2.917  0.000    20.220     6.405
  41   6 C      0.202  1.086  2.712  0.000    23.706     7.975
  42   8 O     -0.362  1.748  4.614  0.000    20.937     6.135
  43   6 C     -0.078  1.059  3.019  0.000    21.969     6.670
  44   6 C     -0.077  1.052  3.026  0.000    21.982     6.676
  45   6 C     -0.027  1.059  2.968  0.000    21.136     6.560
  46   7 N     -0.121  1.207  3.914  0.000    23.636     7.221
  47   6 C      0.247  1.034  2.719  0.000    22.853     7.827
  48   7 N     -0.243  1.260  3.983  0.000    26.341     7.623
  49   7 N     -0.241  1.252  3.988  0.000    26.283     7.614
  50   1 H      0.241  0.759  0.000  0.000     0.918     1.501
  51   1 H      0.074  0.926  0.000  0.000     2.042     2.235
  52   1 H      0.088  0.912  0.000  0.000     1.903     2.158
  53   1 H      0.073  0.927  0.000  0.000     2.052     2.240
  54   1 H      0.062  0.938  0.000  0.000     2.177     2.308
  55   1 H      0.062  0.938  0.000  0.000     2.176     2.307
  56   1 H      0.112  0.888  0.000  0.000     1.682     2.028
  57   1 H      0.083  0.917  0.000  0.000     1.950     2.184
  58   1 H      0.221  0.779  0.000  0.000     1.003     1.569
  59   1 H      0.233  0.767  0.000  0.000     0.950     1.527
  60   1 H      0.224  0.776  0.000  0.000     0.994     1.561
  61   1 H      0.230  0.770  0.000  0.000     0.964     1.538
  62   1 H      0.218  0.782  0.000  0.000     1.019     1.581
  63   7 N     -0.436  1.318  4.118  0.000    31.405     8.323
  64   6 C      0.038  1.051  2.911  0.000    19.944     6.360
  65   6 C      0.257  1.051  2.691  0.000    22.668     7.797
  66   8 O     -0.510  1.744  4.766  0.000    24.008     6.569
  67   6 C     -0.117  1.042  3.075  0.000    22.792     6.805
  68   1 H      0.210  0.790  0.000  0.000     1.055     1.609
  69   1 H      0.018  0.982  0.000  0.000     2.767     2.601
  70   1 H      0.025  0.975  0.000  0.000     2.661     2.551
  71   1 H      0.042  0.958  0.000  0.000     2.421     2.433
  72   1 H      0.058  0.942  0.000  0.000     2.220     2.330
  73   7 N     -0.167  1.241  3.926  0.000    24.619     7.369
  74   6 C      0.014  1.063  2.923  0.000    20.348     6.425
  75   6 C      0.202  1.090  2.708  0.000    23.706     7.974
  76   8 O     -0.360  1.751  4.609  0.000    20.891     6.128
  77   6 C     -0.085  1.060  3.024  0.000    22.116     6.696
  78   6 C     -0.094  1.056  3.038  0.000    22.300     6.724
  79   6 C     -0.026  1.056  2.970  0.000    21.134     6.562
  80   7 N     -0.144  1.216  3.928  0.000    24.123     7.295
  81   6 C      0.231  1.027  2.742  0.000    23.158     7.879
  82   7 N     -0.237  1.224  4.013  0.000    26.197     7.602
  83   7 N     -0.258  1.236  4.022  0.000    26.697     7.674
  84   1 H      0.224  0.776  0.000  0.000     0.990     1.558
  85   1 H      0.098  0.902  0.000  0.000     1.802     2.099
  86   1 H      0.079  0.921  0.000  0.000     1.989     2.205
  87   1 H      0.091  0.909  0.000  0.000     1.865     2.135
  88   1 H      0.086  0.914  0.000  0.000     1.919     2.166
  89   1 H      0.099  0.901  0.000  0.000     1.797     2.096
  90   1 H      0.087  0.913  0.000  0.000     1.908     2.160
  91   1 H      0.065  0.935  0.000  0.000     2.137     2.286
  92   1 H      0.247  0.753  0.000  0.000     0.893     1.480
  93   1 H      0.233  0.767  0.000  0.000     0.951     1.527
  94   1 H      0.223  0.777  0.000  0.000     0.995     1.562
  95   1 H      0.265  0.735  0.000  0.000     0.828     1.425
  96   1 H      0.245  0.755  0.000  0.000     0.904     1.489
  97   7 N     -0.375  1.303  4.072  0.000    29.695     8.093
  98   6 C      0.013  1.063  2.924  0.000    20.378     6.430
  99   6 C      0.269  1.047  2.683  0.000    22.452     7.762
 100   8 O     -0.438  1.753  4.685  0.000    22.436     6.351
 101   6 C      0.059  1.045  2.897  0.000    19.799     6.373
 102   8 O     -0.493  1.726  4.767  0.000    22.742     6.438
 103   1 H      0.161  0.839  0.000  0.000     1.327     1.804
 104   1 H      0.080  0.920  0.000  0.000     1.975     2.198
 105   1 H      0.060  0.940  0.000  0.000     2.199     2.319
 106   1 H      0.056  0.944  0.000  0.000     2.252     2.347
 107   1 H      0.359  0.641  0.000  0.000     0.568     1.184
 108   7 N     -0.164  1.240  3.924  0.000    24.544     7.358
 109   6 C     -0.002  1.069  2.933  0.000    20.586     6.456
 110   6 C      0.293  1.036  2.671  0.000    22.039     7.691
 111   8 O     -0.497  1.738  4.759  0.000    23.718     6.529
 112   6 C      0.123  1.046  2.831  0.000    18.659     6.166
 113   8 O     -0.452  1.709  4.744  0.000    21.895     6.317
 114   6 C     -0.136  1.044  3.092  0.000    23.180     6.866
 115   1 H      0.238  0.762  0.000  0.000     0.932     1.512
 116   1 H      0.066  0.934  0.000  0.000     2.127     2.281
 117   1 H     -0.009  1.009  0.000  0.000     3.224     2.808
 118   1 H      0.317  0.683  0.000  0.000     0.671     1.287
 119   1 H      0.074  0.926  0.000  0.000     2.046     2.237
 120   1 H      0.054  0.946  0.000  0.000     2.268     2.355
 121   1 H      0.093  0.907  0.000  0.000     1.847     2.126
 122   7 N     -0.192  1.243  3.949  0.000    25.160     7.450
 123   6 C      0.027  1.058  2.914  0.000    20.116     6.386
 124   6 C      0.298  1.039  2.663  0.000    21.943     7.671
 125   8 O     -0.501  1.737  4.763  0.000    23.799     6.541
 126   6 C     -0.080  1.064  3.016  0.000    22.009     6.678
 127   6 C     -0.008  1.061  2.947  0.000    20.688     6.470
 128   6 C     -0.111  1.043  3.068  0.000    22.682     6.791
 129   6 C     -0.104  1.038  3.066  0.000    22.552     6.773
 130   1 H      0.206  0.794  0.000  0.000     1.076     1.625
 131   1 H      0.065  0.935  0.000  0.000     2.144     2.290
 132   1 H      0.070  0.930  0.000  0.000     2.089     2.260
 133   1 H      0.048  0.952  0.000  0.000     2.344     2.394
 134   1 H      0.018  0.982  0.000  0.000     2.771     2.603
 135   1 H      0.024  0.976  0.000  0.000     2.667     2.554
 136   1 H      0.048  0.952  0.000  0.000     2.346     2.395
 137   1 H      0.041  0.959  0.000  0.000     2.439     2.442
 138   1 H      0.030  0.970  0.000  0.000     2.591     2.517
 139   1 H      0.050  0.950  0.000  0.000     2.314     2.379
 140   1 H      0.023  0.977  0.000  0.000     2.693     2.566
 141   7 N     -0.174  1.244  3.930  0.000    24.775     7.392
 142   6 C      0.039  1.054  2.906  0.000    19.911     6.352
 143   6 C      0.309  1.028  2.663  0.000    21.753     7.637
 144   8 O     -0.529  1.759  4.770  0.000    24.426     6.626
 145   6 C     -0.067  1.060  3.007  0.000    21.782     6.644
 146   6 C     -0.093  1.069  3.023  0.000    22.277     6.721
 147   6 C      0.366  1.030  2.604  0.000    20.787     7.461
 148   8 O     -0.628  1.765  4.863  0.000    26.827     6.944
 149   8 O     -0.666  1.792  4.875  0.000    27.812     7.071
 150   1 H      0.200  0.800  0.000  0.000     1.107     1.648
 151   1 H      0.034  0.966  0.000  0.000     2.533     2.489
 152   1 H      0.048  0.952  0.000  0.000     2.346     2.395
 153   1 H      0.081  0.919  0.000  0.000     1.969     2.194
 154   1 H      0.054  0.946  0.000  0.000     2.274     2.358
 155   1 H      0.001  0.999  0.000  0.000     3.035     2.724
 156   7 N     -0.197  1.243  3.954  0.000    25.273     7.467
 157   6 C      0.011  1.069  2.920  0.000    20.407     6.434
 158   6 C      0.260  1.049  2.691  0.000    22.621     7.788
 159   8 O     -0.468  1.734  4.734  0.000    23.083     6.441
 160   6 C      0.105  1.055  2.839  0.000    18.945     6.215
 161   8 O     -0.479  1.731  4.749  0.000    22.455     6.397
 162   6 C     -0.143  1.048  3.095  0.000    23.329     6.888
 163   1 H      0.257  0.743  0.000  0.000     0.858     1.451
 164   1 H      0.056  0.944  0.000  0.000     2.248     2.345
 165   1 H      0.045  0.955  0.000  0.000     2.388     2.417
 166   1 H      0.363  0.637  0.000  0.000     0.558     1.173
 167   1 H      0.102  0.898  0.000  0.000     1.771     2.081
 168   1 H      0.061  0.939  0.000  0.000     2.190     2.314
 169   1 H      0.064  0.936  0.000  0.000     2.153     2.294
 170   7 N     -0.172  1.248  3.925  0.000    24.728     7.385
 171   6 C      0.022  1.057  2.920  0.000    20.205     6.401
 172   6 C      0.278  1.041  2.682  0.000    22.306     7.735
 173   8 O     -0.482  1.734  4.748  0.000    23.396     6.485
 174   6 C     -0.079  1.058  3.021  0.000    22.003     6.677
 175   6 C     -0.014  1.055  2.958  0.000    20.783     6.484
 176   6 C     -0.124  1.044  3.080  0.000    22.922     6.826
 177   6 C     -0.127  1.043  3.084  0.000    22.983     6.835
 178   1 H      0.219  0.781  0.000  0.000     1.016     1.579
 179   1 H      0.106  0.894  0.000  0.000     1.728     2.056
 180   1 H      0.024  0.976  0.000  0.000     2.667     2.554
 181   1 H      0.060  0.940  0.000  0.000     2.199     2.319
 182   1 H      0.043  0.957  0.000  0.000     2.415     2.430
 183   1 H      0.087  0.913  0.000  0.000     1.911     2.162
 184   1 H      0.019  0.981  0.000  0.000     2.743     2.590
 185   1 H      0.046  0.954  0.000  0.000     2.376     2.411
 186   1 H      0.072  0.928  0.000  0.000     2.065     2.247
 187   1 H      0.057  0.943  0.000  0.000     2.238     2.339
 188   1 H      0.040  0.960  0.000  0.000     2.454     2.450
 189   7 N     -0.209  1.260  3.950  0.000    25.556     7.508
 190   6 C      0.049  1.051  2.900  0.000    19.736     6.323
 191   6 C      0.287  1.041  2.672  0.000    22.143     7.707
 192   8 O     -0.516  1.751  4.766  0.000    24.149     6.589
 193   6 C     -0.042  1.046  2.996  0.000    21.326     6.574
 194   6 C     -0.076  1.065  3.011  0.000    21.960     6.674
 195   6 C      0.357  1.037  2.606  0.000    20.940     7.488
 196   8 O     -0.609  1.768  4.841  0.000    26.345     6.882
 197   8 O     -0.627  1.777  4.850  0.000    26.785     6.939
 198   1 H      0.230  0.770  0.000  0.000     0.966     1.540
 199   1 H      0.044  0.956  0.000  0.000     2.395     2.420
 200   1 H      0.045  0.955  0.000  0.000     2.379     2.412
 201   1 H      0.028  0.972  0.000  0.000     2.614     2.528
 202   1 H     -0.009  1.009  0.000  0.000     3.212     2.803
 203   1 H      0.010  0.990  0.000  0.000     2.895     2.661
 204   7 N     -0.214  1.281  3.933  0.000    25.667     7.524
 205   6 C      0.050  1.058  2.892  0.000    19.724     6.321
 206   6 C      0.289  1.035  2.676  0.000    22.110     7.700
 207   8 O     -0.504  1.737  4.767  0.000    23.869     6.550
 208   6 C     -0.069  1.052  3.017  0.000    21.819     6.650
 209   6 C     -0.086  1.060  3.026  0.000    22.146     6.701
 210   6 C      0.363  1.028  2.610  0.000    20.844     7.471
 211   8 O     -0.604  1.752  4.852  0.000    26.211     6.864
 212   8 O     -0.623  1.753  4.870  0.000    26.698     6.927
 213   1 H      0.221  0.779  0.000  0.000     1.006     1.571
 214   1 H      0.009  0.991  0.000  0.000     2.912     2.669
 215   1 H      0.047  0.953  0.000  0.000     2.352     2.398
 216   1 H      0.066  0.934  0.000  0.000     2.125     2.279
 217   1 H      0.005  0.995  0.000  0.000     2.979     2.699
 218   1 H     -0.004  1.004  0.000  0.000     3.126     2.765
 219   7 N     -0.194  1.248  3.946  0.000    25.211     7.457
 220   6 C      0.015  1.060  2.925  0.000    20.330     6.422
 221   6 C      0.276  1.043  2.682  0.000    22.339     7.741
 222   8 O     -0.475  1.737  4.738  0.000    23.229     6.462
 223   6 C     -0.081  1.060  3.021  0.000    22.041     6.683
 224   6 C     -0.026  1.075  2.951  0.000    21.058     6.536
 225  16 S     -0.263  1.943  4.255  0.065   152.357    20.775
 226   6 C     -0.074  1.062  3.012  0.000    21.992     6.690
 227   1 H      0.218  0.782  0.000  0.000     1.020     1.582
 228   1 H      0.091  0.909  0.000  0.000     1.871     2.139
 229   1 H      0.085  0.915  0.000  0.000     1.928     2.171
 230   1 H      0.090  0.910  0.000  0.000     1.877     2.143
 231   1 H      0.074  0.926  0.000  0.000     2.047     2.237
 232   1 H      0.046  0.954  0.000  0.000     2.367     2.406
 233   1 H      0.095  0.905  0.000  0.000     1.834     2.118
 234   1 H      0.071  0.929  0.000  0.000     2.075     2.252
 235   1 H      0.086  0.914  0.000  0.000     1.914     2.163
 236   7 N     -0.177  1.243  3.934  0.000    24.832     7.401
 237   6 C      0.039  1.051  2.910  0.000    19.909     6.351
 238   6 C      0.292  1.040  2.668  0.000    22.055     7.691
 239   8 O     -0.488  1.744  4.744  0.000    23.520     6.502
 240   6 C     -0.071  1.059  3.011  0.000    21.829     6.648
 241   6 C     -0.007  1.063  2.943  0.000    20.666     6.467
 242   6 C     -0.114  1.041  3.074  0.000    22.758     6.804
 243   6 C     -0.088  1.038  3.050  0.000    22.239     6.723
 244   1 H      0.209  0.791  0.000  0.000     1.061     1.614
 245   1 H      0.090  0.910  0.000  0.000     1.879     2.144
 246   1 H      0.066  0.934  0.000  0.000     2.131     2.283
 247   1 H      0.044  0.956  0.000  0.000     2.397     2.421
 248   1 H      0.004  0.996  0.000  0.000     2.986     2.702
 249   1 H      0.011  0.989  0.000  0.000     2.879     2.653
 250   1 H      0.063  0.937  0.000  0.000     2.165     2.301
 251   1 H      0.049  0.951  0.000  0.000     2.326     2.385
 252   1 H      0.007  0.993  0.000  0.000     2.940     2.681
 253   1 H      0.043  0.957  0.000  0.000     2.416     2.431
 254   1 H      0.011  0.989  0.000  0.000     2.868     2.648
 255   7 N     -0.194  1.246  3.947  0.000    25.206     7.457
 256   6 C      0.047  1.051  2.902  0.000    19.770     6.327
 257   6 C      0.284  1.034  2.682  0.000    22.183     7.712
 258   8 O     -0.493  1.745  4.747  0.000    23.624     6.517
 259   6 C     -0.036  1.045  2.992  0.000    21.205     6.553
 260   6 C     -0.075  1.058  3.017  0.000    21.932     6.666
 261   6 C      0.369  1.027  2.604  0.000    20.748     7.455
 262   8 O     -0.644  1.765  4.879  0.000    27.222     6.995
 263   8 O     -0.657  1.779  4.878  0.000    27.553     7.038
 264   1 H      0.204  0.796  0.000  0.000     1.088     1.634
 265   1 H      0.030  0.970  0.000  0.000     2.582     2.513
 266   1 H      0.057  0.943  0.000  0.000     2.232     2.336
 267   1 H      0.031  0.969  0.000  0.000     2.578     2.511
 268   1 H     -0.009  1.009  0.000  0.000     3.211     2.802
 269   1 H      0.013  0.987  0.000  0.000     2.837     2.634
 270   7 N     -0.169  1.237  3.932  0.000    24.663     7.376
 271   6 C      0.027  1.063  2.910  0.000    20.147     6.394
 272   6 C      0.212  1.085  2.703  0.000    23.518     7.943
 273   8 O     -0.364  1.755  4.609  0.000    20.970     6.140
 274   6 C     -0.101  1.066  3.035  0.000    22.427     6.743
 275   6 C     -0.080  1.055  3.026  0.000    22.041     6.685
 276   6 C     -0.094  1.056  3.038  0.000    22.293     6.723
 277   6 C     -0.031  1.050  2.981  0.000    21.225     6.577
 278   7 N     -0.133  1.238  3.894  0.000    23.865     7.256
 279   1 H      0.195  0.805  0.000  0.000     1.131     1.666
 280   1 H      0.094  0.906  0.000  0.000     1.843     2.123
 281   1 H      0.093  0.907  0.000  0.000     1.846     2.125
 282   1 H      0.095  0.905  0.000  0.000     1.830     2.116
 283   1 H      0.068  0.932  0.000  0.000     2.113     2.273
 284   1 H      0.032  0.968  0.000  0.000     2.556     2.500
 285   1 H      0.074  0.926  0.000  0.000     2.044     2.236
 286   1 H      0.118  0.882  0.000  0.000     1.632     1.998
 287   1 H      0.071  0.929  0.000  0.000     2.075     2.252
 288   1 H      0.124  0.876  0.000  0.000     1.579     1.965
 289   1 H      0.286  0.714  0.000  0.000     0.757     1.363
 290   1 H      0.330  0.670  0.000  0.000     0.635     1.250
 291   1 H      0.270  0.730  0.000  0.000     0.812     1.411
 292   7 N     -0.391  1.312  4.079  0.000    30.119     8.151
 293   6 C      0.037  1.051  2.912  0.000    19.969     6.366
 294   6 C      0.197  1.089  2.714  0.000    23.803     7.992
 295   8 O     -0.394  1.756  4.638  0.000    21.562     6.226
 296   6 C     -0.072  1.064  3.008  0.000    21.857     6.651
 297   6 C     -0.010  1.058  2.952  0.000    20.717     6.474
[...]
 411   1 H      0.020  0.980  0.000  0.000     2.739     2.588
 412   7 N     -0.186  1.254  3.932  0.000    25.031     7.431
 413   6 C      0.028  1.050  2.922  0.000    20.085     6.376
 414   6 C      0.303  1.030  2.667  0.000    21.857     7.659
 415   8 O     -0.501  1.734  4.766  0.000    23.795     6.540
 416   6 C     -0.020  1.060  2.960  0.000    20.882     6.498
 417   6 C     -0.132  1.041  3.091  0.000    23.092     6.852
 418   6 C     -0.127  1.043  3.083  0.000    22.977     6.834
 419   1 H      0.236  0.764  0.000  0.000     0.940     1.518
 420   1 H      0.087  0.913  0.000  0.000     1.910     2.161
 421   1 H      0.050  0.950  0.000  0.000     2.321     2.383
 422   1 H      0.081  0.919  0.000  0.000     1.970     2.195
 423   1 H      0.039  0.961  0.000  0.000     2.468     2.457
 424   1 H      0.044  0.956  0.000  0.000     2.390     2.418
 425   1 H      0.074  0.926  0.000  0.000     2.041     2.234
 426   1 H      0.076  0.924  0.000  0.000     2.021     2.223
 427   1 H      0.046  0.954  0.000  0.000     2.370     2.408
 428   7 N     -0.185  1.232  3.953  0.000    25.012     7.428
 429   6 C      0.041  1.042  2.917  0.000    19.863     6.340
 430   6 C      0.278  1.042  2.680  0.000    22.308     7.739
 431   8 O     -0.524  1.730  4.795  0.000    24.324     6.613
 432   6 C     -0.006  1.052  2.953  0.000    20.643     6.461
 433   6 C     -0.108  1.040  3.069  0.000    22.617     6.780
 434   6 C     -0.127  1.041  3.085  0.000    22.981     6.835
 435   1 H      0.210  0.790  0.000  0.000     1.058     1.611
 436   1 H      0.082  0.918  0.000  0.000     1.961     2.190
 437   1 H      0.007  0.993  0.000  0.000     2.938     2.680
 438   1 H      0.021  0.979  0.000  0.000     2.724     2.581
 439   1 H      0.031  0.969  0.000  0.000     2.576     2.510
 440   1 H      0.058  0.942  0.000  0.000     2.217     2.329
 441   1 H      0.036  0.964  0.000  0.000     2.506     2.476
 442   1 H      0.066  0.934  0.000  0.000     2.133     2.284
 443   1 H      0.084  0.916  0.000  0.000     1.939     2.178
 444   7 N     -0.158  1.234  3.923  0.000    24.413     7.338
 445   6 C      0.081  1.031  2.887  0.000    19.158     6.218
 446   6 C      0.287  1.026  2.686  0.000    22.133     7.707
 447   8 O     -0.514  1.744  4.770  0.000    24.099     6.582
 448   6 C     -0.095  1.055  3.040  0.000    22.279     6.716
 449   6 C      0.293  1.035  2.672  0.000    22.048     7.699
 450   8 O     -0.502  1.760  4.741  0.000    23.825     6.544
 451   7 N     -0.282  1.264  4.019  0.000    27.291     7.759
 452   1 H      0.225  0.775  0.000  0.000     0.988     1.557
 453   1 H      0.048  0.952  0.000  0.000     2.342     2.393
 454   1 H      0.076  0.924  0.000  0.000     2.016     2.220
 455   1 H      0.060  0.940  0.000  0.000     2.199     2.319
 456   1 H      0.215  0.785  0.000  0.000     1.031     1.591
 457   1 H      0.223  0.777  0.000  0.000     0.997     1.564
 458   7 N     -0.182  1.256  3.927  0.000    24.951     7.419
 459   6 C      0.042  1.060  2.898  0.000    19.840     6.336
 460   6 C      0.303  1.035  2.661  0.000    21.851     7.655
 461   8 O     -0.486  1.747  4.740  0.000    23.483     6.497
 462   6 C     -0.061  1.051  3.010  0.000    21.657     6.624
 463   6 C     -0.086  1.060  3.026  0.000    22.142     6.698
 464   6 C      0.363  1.022  2.615  0.000    20.837     7.470
 465   8 O     -0.587  1.748  4.838  0.000    25.797     6.810
 466   8 O     -0.625  1.758  4.866  0.000    26.730     6.932
 467   1 H      0.229  0.771  0.000  0.000     0.970     1.543
 468   1 H      0.026  0.974  0.000  0.000     2.645     2.544
 469   1 H      0.083  0.917  0.000  0.000     1.950     2.184
 470   1 H      0.053  0.947  0.000  0.000     2.288     2.366
 471   1 H     -0.006  1.006  0.000  0.000     3.162     2.781
 472   1 H      0.011  0.989  0.000  0.000     2.872     2.650
 473   7 N     -0.196  1.249  3.946  0.000    25.242     7.462
 474   6 C      0.038  1.049  2.912  0.000    19.934     6.357
 475   6 C      0.278  1.046  2.675  0.000    22.293     7.732
 476   8 O     -0.510  1.744  4.766  0.000    24.007     6.569
 477   6 C     -0.085  1.057  3.028  0.000    22.105     6.692
 478   6 C     -0.087  1.058  3.029  0.000    22.164     6.703
 479   6 C     -0.022  1.055  2.966  0.000    21.057     6.550
 480   7 N     -0.138  1.208  3.930  0.000    23.985     7.274
 481   6 C      0.228  1.018  2.754  0.000    23.208     7.887
 482   7 N     -0.228  1.226  4.002  0.000    25.998     7.573
 483   7 N     -0.226  1.235  3.991  0.000    25.951     7.566
 484   1 H      0.206  0.794  0.000  0.000     1.078     1.626
 485   1 H      0.070  0.930  0.000  0.000     2.083     2.257
 486   1 H      0.058  0.942  0.000  0.000     2.227     2.334
 487   1 H      0.055  0.945  0.000  0.000     2.254     2.348
 488   1 H      0.071  0.929  0.000  0.000     2.078     2.254
 489   1 H      0.083  0.917  0.000  0.000     1.950     2.184
 490   1 H      0.064  0.936  0.000  0.000     2.147     2.292
 491   1 H      0.099  0.901  0.000  0.000     1.796     2.096
 492   1 H      0.234  0.766  0.000  0.000     0.949     1.526
 493   1 H      0.221  0.779  0.000  0.000     1.005     1.570
 494   1 H      0.240  0.760  0.000  0.000     0.925     1.506
 495   1 H      0.262  0.738  0.000  0.000     0.840     1.435
 496   1 H      0.246  0.754  0.000  0.000     0.898     1.485
 497   7 N     -0.203  1.261  3.942  0.000    25.404     7.486
 498   6 C      0.023  1.068  2.909  0.000    20.205     6.403
 499   6 C      0.282  1.045  2.673  0.000    22.234     7.722
 500   8 O     -0.495  1.734  4.761  0.000    23.669     6.523
 501   6 C     -0.066  1.057  3.010  0.000    21.780     6.646
 502   6 C     -0.063  1.055  3.008  0.000    21.713     6.636
 503   6 C     -0.015  1.057  2.959  0.000    20.956     6.536
 504   7 N     -0.172  1.244  3.928  0.000    24.725     7.385
 505   6 C      0.243  1.026  2.732  0.000    22.936     7.841
 506   7 N     -0.239  1.241  3.998  0.000    26.238     7.608
 507   7 N     -0.253  1.269  3.984  0.000    26.585     7.658
 508   1 H      0.234  0.766  0.000  0.000     0.946     1.524
 509   1 H      0.070  0.930  0.000  0.000     2.085     2.258
 510   1 H      0.031  0.969  0.000  0.000     2.573     2.508
 511   1 H      0.059  0.941  0.000  0.000     2.207     2.323
 512   1 H      0.062  0.938  0.000  0.000     2.174     2.306
 513   1 H      0.046  0.954  0.000  0.000     2.366     2.405
 514   1 H      0.061  0.939  0.000  0.000     2.190     2.315
 515   1 H      0.092  0.908  0.000  0.000     1.859     2.132
 516   1 H      0.218  0.782  0.000  0.000     1.017     1.579
 517   1 H      0.232  0.768  0.000  0.000     0.956     1.531
 518   1 H      0.251  0.749  0.000  0.000     0.881     1.470
 519   1 H      0.235  0.765  0.000  0.000     0.942     1.520
 520   1 H      0.261  0.739  0.000  0.000     0.844     1.439
 521   7 N     -0.182  1.256  3.926  0.000    24.936     7.416
 522   6 C      0.035  1.062  2.902  0.000    19.976     6.363
 523   6 C      0.278  1.043  2.679  0.000    22.293     7.731
 524   8 O     -0.489  1.741  4.747  0.000    23.533     6.504
 525   6 C     -0.048  1.050  2.998  0.000    21.430     6.590
 526   6 C     -0.092  1.069  3.023  0.000    22.247     6.716
 527   6 C      0.370  1.027  2.603  0.000    20.730     7.451
 528   8 O     -0.635  1.767  4.868  0.000    26.992     6.966
 529   8 O     -0.659  1.773  4.885  0.000    27.608     7.045
 530   1 H      0.212  0.788  0.000  0.000     1.046     1.602
 531   1 H      0.069  0.931  0.000  0.000     2.095     2.264
 532   1 H      0.022  0.978  0.000  0.000     2.705     2.572
 533   1 H      0.051  0.949  0.000  0.000     2.313     2.378
 534   1 H      0.035  0.965  0.000  0.000     2.518     2.482
 535   1 H      0.013  0.987  0.000  0.000     2.841     2.636
 536   7 N     -0.171  1.243  3.927  0.000    24.698     7.381
 537   6 C      0.026  1.063  2.911  0.000    20.147     6.392
 538   6 C      0.287  1.040  2.673  0.000    22.136     7.705
 539   8 O     -0.494  1.739  4.755  0.000    23.651     6.520
 540   6 C     -0.046  1.051  2.995  0.000    21.379     6.580
 541   6 C     -0.098  1.065  3.033  0.000    22.374     6.735
 542   6 C      0.369  1.025  2.606  0.000    20.750     7.454
 543   8 O     -0.620  1.756  4.864  0.000    26.611     6.916
 544   8 O     -0.637  1.769  4.868  0.000    27.041     6.972
 545   1 H      0.201  0.799  0.000  0.000     1.103     1.645
 546   1 H      0.072  0.928  0.000  0.000     2.064     2.247
 547   1 H      0.031  0.969  0.000  0.000     2.568     2.506
 548   1 H      0.063  0.937  0.000  0.000     2.165     2.301
 549   1 H      0.036  0.964  0.000  0.000     2.500     2.473
 550   1 H      0.013  0.987  0.000  0.000     2.846     2.638
 551   7 N     -0.185  1.248  3.937  0.000    25.012     7.428
 552   6 C      0.025  1.071  2.904  0.000    20.177     6.398
 553   6 C      0.273  1.054  2.674  0.000    22.392     7.750
 554   8 O     -0.471  1.749  4.722  0.000    23.157     6.452
 555   6 C     -0.054  1.055  2.999  0.000    21.541     6.609
 556   6 C     -0.106  1.081  3.025  0.000    22.543     6.765
 557   6 C      0.360  1.037  2.603  0.000    20.889     7.478
 558   8 O     -0.619  1.772  4.847  0.000    26.585     6.913
 559   8 O     -0.606  1.748  4.859  0.000    26.272     6.872
 560   1 H      0.199  0.801  0.000  0.000     1.110     1.650
 561   1 H      0.087  0.913  0.000  0.000     1.912     2.162
 562   1 H      0.043  0.957  0.000  0.000     2.403     2.424
 563   1 H      0.019  0.981  0.000  0.000     2.744     2.590
 564   1 H      0.011  0.989  0.000  0.000     2.868     2.648
 565   1 H      0.031  0.969  0.000  0.000     2.566     2.505
 566   7 N     -0.176  1.256  3.919  0.000    24.803     7.397
 567   6 C      0.030  1.057  2.914  0.000    20.069     6.377
 568   6 C      0.218  1.079  2.702  0.000    23.391     7.921
 569   8 O     -0.356  1.735  4.621  0.000    20.815     6.117
 570   6 C      0.080  1.035  2.885  0.000    19.438     6.312
 571   8 O     -0.468  1.719  4.749  0.000    22.214     6.363
 572   1 H      0.209  0.791  0.000  0.000     1.061     1.614
 573   1 H      0.106  0.894  0.000  0.000     1.729     2.056
 574   1 H      0.053  0.947  0.000  0.000     2.286     2.364
 575   1 H      0.033  0.967  0.000  0.000     2.549     2.497
 576   1 H      0.352  0.648  0.000  0.000     0.584     1.201
 577   7 N     -0.391  1.309  4.082  0.000    30.121     8.151
 578   6 C      0.049  1.049  2.902  0.000    19.755     6.329
 579   6 C      0.196  1.091  2.712  0.000    23.816     7.993
 580   8 O     -0.400  1.756  4.644  0.000    21.690     6.244
 581   6 C     -0.032  1.045  2.987  0.000    21.117     6.539
 582   6 C     -0.088  1.064  3.024  0.000    22.170     6.702
 583   6 C      0.366  1.026  2.608  0.000    20.801     7.464
 584   8 O     -0.628  1.763  4.865  0.000    26.811     6.942
 585   8 O     -0.644  1.775  4.868  0.000    27.214     6.994
 586   1 H      0.180  0.820  0.000  0.000     1.214     1.726
 587   1 H      0.034  0.966  0.000  0.000     2.530     2.488
 588   1 H      0.057  0.943  0.000  0.000     2.234     2.337
 589   1 H      0.001  0.999  0.000  0.000     3.036     2.725
 590   1 H      0.019  0.981  0.000  0.000     2.754     2.595
 591   1 H      0.040  0.960  0.000  0.000     2.443     2.444
 592   7 N     -0.392  1.291  4.101  0.000    30.155     8.156
 593   6 C      0.047  1.050  2.903  0.000    19.793     6.335
 594   6 C      0.193  1.099  2.708  0.000    23.872     8.002
 595   8 O     -0.378  1.752  4.625  0.000    21.237     6.179
 596   6 C      0.004  1.050  2.946  0.000    20.469     6.434
 597   6 C     -0.103  1.036  3.067  0.000    22.507     6.762
 598   6 C     -0.107  1.035  3.072  0.000    22.591     6.777
 599   1 H      0.194  0.806  0.000  0.000     1.137     1.671
 600   1 H      0.033  0.967  0.000  0.000     2.543     2.494
 601   1 H      0.004  0.996  0.000  0.000     2.987     2.703
 602   1 H      0.012  0.988  0.000  0.000     2.864     2.646
 603   1 H      0.035  0.965  0.000  0.000     2.513     2.479
 604   1 H      0.077  0.923  0.000  0.000     2.011     2.218
 605   1 H      0.025  0.975  0.000  0.000     2.662     2.551
 606   1 H      0.078  0.922  0.000  0.000     1.998     2.210
 607   1 H      0.025  0.975  0.000  0.000     2.662     2.551
 608   7 N     -0.380  1.297  4.083  0.000    29.818     8.110
 609   6 C      0.048  1.049  2.903  0.000    19.771     6.332
 610   6 C      0.256  1.056  2.688  0.000    22.691     7.802
 611   8 O     -0.516  1.753  4.763  0.000    24.140     6.588
 612   6 C     -0.094  1.060  3.034  0.000    22.286     6.720
 613   6 C      0.292  1.047  2.661  0.000    22.054     7.690
 614   8 O     -0.462  1.744  4.717  0.000    22.954     6.424
 615   7 N     -0.305  1.295  4.010  0.000    27.846     7.837
 616   1 H      0.160  0.840  0.000  0.000     1.337     1.811
 617   1 H      0.051  0.949  0.000  0.000     2.310     2.377
 618   1 H      0.074  0.926  0.000  0.000     2.039     2.233
 619   1 H      0.052  0.948  0.000  0.000     2.294     2.369
 620   1 H      0.217  0.783  0.000  0.000     1.023     1.584
 621   1 H      0.199  0.801  0.000  0.000     1.113     1.653
 622   7 N     -0.178  1.257  3.921  0.000    24.848     7.403
 623   6 C      0.046  1.052  2.902  0.000    19.780     6.328
 624   6 C      0.206  1.080  2.714  0.000    23.634     7.962
 625   8 O     -0.363  1.751  4.611  0.000    20.950     6.137
 626   6 C     -0.051  1.050  3.001  0.000    21.481     6.596
 627   6 C     -0.085  1.065  3.021  0.000    22.124     6.696
 628   6 C      0.365  1.031  2.604  0.000    20.811     7.466
 629   8 O     -0.649  1.779  4.871  0.000    27.363     7.013
 630   8 O     -0.654  1.789  4.866  0.000    27.494     7.030
 631   1 H      0.261  0.739  0.000  0.000     0.842     1.438
 632   1 H      0.047  0.953  0.000  0.000     2.362     2.403
 633   1 H      0.073  0.927  0.000  0.000     2.052     2.240
 634   1 H      0.042  0.958  0.000  0.000     2.429     2.437
 635   1 H      0.007  0.993  0.000  0.000     2.942     2.682
 636   1 H      0.037  0.963  0.000  0.000     2.488     2.467
 637   7 N     -0.406  1.304  4.102  0.000    30.545     8.208
 638   6 C      0.047  1.050  2.902  0.000    19.796     6.337
 639   6 C      0.212  1.091  2.697  0.000    23.517     7.942
 640   8 O     -0.365  1.748  4.617  0.000    20.993     6.143
 641   6 C     -0.047  1.052  2.996  0.000    21.415     6.587
 642   6 C     -0.095  1.069  3.026  0.000    22.312     6.726
 643   6 C      0.360  1.033  2.607  0.000    20.896     7.480
 644   8 O     -0.602  1.769  4.833  0.000    26.169     6.859
 645   8 O     -0.639  1.761  4.878  0.000    27.097     6.979
 646   1 H      0.178  0.822  0.000  0.000     1.228     1.736
 647   1 H      0.061  0.939  0.000  0.000     2.185     2.311
 648   1 H      0.009  0.991  0.000  0.000     2.903     2.664
 649   1 H      0.035  0.965  0.000  0.000     2.519     2.482
 650   1 H      0.005  0.995  0.000  0.000     2.965     2.693
 651   1 H      0.009  0.991  0.000  0.000     2.900     2.663
 652   7 N     -0.392  1.321  4.071  0.000    30.146     8.154
 653   6 C      0.033  1.067  2.899  0.000    20.048     6.381
 654   6 C      0.199  1.099  2.703  0.000    23.766     7.983
 655   8 O     -0.403  1.780  4.623  0.000    21.743     6.252
 656   6 C     -0.080  1.065  3.015  0.000    22.036     6.685
 657   6 C     -0.073  1.055  3.018  0.000    21.901     6.663
 658   6 C     -0.089  1.056  3.033  0.000    22.205     6.709
 659   6 C     -0.052  1.059  2.992  0.000    21.596     6.633
 660   7 N     -0.151  1.235  3.915  0.000    24.250     7.314
 661   1 H      0.190  0.810  0.000  0.000     1.159     1.686
 662   1 H      0.034  0.966  0.000  0.000     2.532     2.488
 663   1 H      0.076  0.924  0.000  0.000     2.018     2.221
 664   1 H      0.046  0.954  0.000  0.000     2.372     2.409
 665   1 H      0.049  0.951  0.000  0.000     2.329     2.387
 666   1 H      0.076  0.924  0.000  0.000     2.025     2.225
 667   1 H      0.085  0.915  0.000  0.000     1.929     2.172
 668   1 H      0.054  0.946  0.000  0.000     2.272     2.357
 669   1 H      0.103  0.897  0.000  0.000     1.755     2.072
 670   1 H      0.130  0.870  0.000  0.000     1.532     1.936
 671   1 H      0.300  0.700  0.000  0.000     0.714     1.324
 672   1 H      0.315  0.685  0.000  0.000     0.671     1.284
 673   1 H      0.283  0.717  0.000  0.000     0.767     1.372
 674   1 H      0.184  0.816  0.000  0.000     1.189     1.708
 675   1 H      0.090  0.910  0.000  0.000     1.877     2.142
 676   1 H      0.189  0.811  0.000  0.000     1.163     1.689
 677   1 H      0.101  0.899  0.000  0.000     1.774     2.083
 678   1 H      0.172  0.828  0.000  0.000     1.263     1.760
 679   1 H      0.077  0.923  0.000  0.000     2.011     2.218
 680   1 H      0.195  0.805  0.000  0.000     1.132     1.666
 681   1 H      0.081  0.919  0.000  0.000     1.964     2.191
 682   1 H      0.185  0.815  0.000  0.000     1.187     1.707
 683   1 H      0.077  0.923  0.000  0.000     2.006     2.215
 684   1 H      0.184  0.816  0.000  0.000     1.189     1.708
 685   1 H      0.093  0.907  0.000  0.000     1.849     2.127
 686   1 H      0.154  0.846  0.000  0.000     1.373     1.835
 687   1 H      0.060  0.940  0.000  0.000     2.203     2.321
 688   1 H      0.191  0.809  0.000  0.000     1.155     1.683
 689   1 H      0.077  0.923  0.000  0.000     2.008     2.216
 690   1 H      0.181  0.819  0.000  0.000     1.207     1.721
 691   1 H      0.101  0.899  0.000  0.000     1.777     2.084
 692   1 H      0.207  0.793  0.000  0.000     1.071     1.621
 693   1 H      0.087  0.913  0.000  0.000     1.911     2.162
 694   1 H      0.178  0.822  0.000  0.000     1.225     1.734
 695   1 H      0.059  0.941  0.000  0.000     2.210     2.325
 696   1 H      0.183  0.817  0.000  0.000     1.194     1.712
 697   1 H      0.084  0.916  0.000  0.000     1.940     2.178

 Mol. C6AA /au·bohr⁶  :    4448754.873665
 Mol. C8AA /au·bohr⁸  :   97892234.270815
 Mol. α(0) /au        :       3133.655646

 
molecular dipole:
                 x           y           z       tot (Debye)
 q only:       61.485    -781.372     -85.246
   full:       63.771    -788.162     -83.110    2020.969
molecular quadrupole (traceless):
                xx          xy          yy          xz          yz          zz
 q only:    48946.111   12619.284  -98299.068    1872.073  -16641.969   49352.957
  q+dip:    49957.008   13202.061 -100374.477    1939.517  -16308.770   50417.470
   full:    49950.904   13200.961 -100368.693    1945.319  -16311.634   50417.789
speedup  1.92
cpu  time for grad   42.11 s
wall time for grad   21.91 s

SCC energy    :   -1103.8752306
rep           :      12.5547840
ES            :       5.8688994
AES           :      -0.3501151
AXC           :       0.3238429
disp          :      -0.9224349
XB            :       0.0000000
fix           :       0.0000000
Gborn         :       0.0000000
Gsasa         :       0.0000000
Ghb           :       0.0000000
Gshift        :       0.0000000
Gsolv         :      -2.5312630    -1588.39
Etot ala COSMO:   -1103.8752306
grad norm     :       0.8039871
total E       :   -1091.2284352
atomizationE  :     194.5163936   122060.88
(atE without considering molecular charge,
 total energy contains solvation terms)
H-L gap (eV)  :          0.8467

------------------------------------------------------------------------
 * finished run on 2019/05/11 at 04:47:04.875     
------------------------------------------------------------------------
 total:
 * wall-time:     0 d,  0 h,  0 min, 24.770 sec
 *  cpu-time:     0 d,  0 h,  0 min, 46.102 sec
 * ratio c/w:     1.861 speedup
 SCF:
 * wall-time:     0 d,  0 h,  0 min, 23.379 sec
 *  cpu-time:     0 d,  0 h,  0 min, 44.532 sec
 * ratio c/w:     1.905 speedup

