      -----------------------------------------------------------      
     |                   =====================                   |     
     |                           x T B                           |     
     |                   =====================                   |     
     |                         S. Grimme                         |     
     |          Mulliken Center for Theoretical Chemistry        |     
     |                    University of Bonn                     |     
     |                 Version 6.0.1 (SAW181210)                 |     
      -----------------------------------------------------------      

   This program is distributed in the hope that it will be useful,
   but WITHOUT ANY WARRANTY; without even the implied warranty of
   MERCHANTABILITY or FITNESS FOR A PARTICULAR PURPOSE.
   
   FOR NON-COMMERCIAL, ACADEMIA USE ONLY.
   
   Cite this work as:
   S. Grimme, C. Bannwarth, P. Shushkov, J. Comput. Theory Chem., 2017,
   13, 1989-2009.
   C. Bannwarth, S. Ehlert and S. Grimme., ChemRxiv, 2018, preprint.
   http://doi.org/10.26434/chemrxiv.7246238.v1
   
   for sTDA-xTB:
   S. Grimme and C. Bannwarth, J. Chem. Phys., 2016, 145, 054103.
   
   in the mass-spec context:
   V. Asgeirsson, C. Bauer and S. Grimme, Chem. Sci., 2017, 8, 4879.
   
   if GBSA is used:
   P. Shushkov, F. März and S. Grimme, unpublished.
   
   for ANC optimizer:
   S. Grimme, unpublished.
   Rational Function algorithm used in ANCopt:
   F. Eckert, P. Pulay, H.-J. Werner, J. Comput. Chem., 1997, 18, 1473.
   
   with help from (in alphabetical order)
   C. Bannwarth, F. Bohle, G. Brandenburg, E. Caldeweyher, M. Checinski,
   S. Dohm, S. Ehlert, S. Ehrlich, F. März, H. Neugebauer, J. Pisarek,
   P. Pracht, P. Shushkov, and S. Spicher.
   
 * started run on 2019/05/05 at 18:41:22.168     
========================================================================
 # omp threads = 2
========================================================================
number of atoms            : 559
number of electrons        : 1496
charge                     : 1
spin                       : .0
first test random number   : .2134

########################################################################
# WARNING! Please study the warnings concerning your input carefully
#  - Process number higher than OMP_NUM_THREADS, I hope you know what you are doing.
########################################################################

           ------------------------------------------------- 
          |                 G F N 2 - x T B                 |
          | Geometry, Frequencies, Noncovalent interactions |
          |            JCTC 2018 parametrisation            |
           ------------------------------------------------- 
 
      method parameters     
 k(s)        :  1.8500
 k(p)        :  2.2300
 k(d)        :  2.2300
 k(f)        :  2.0000
 kEN (H0ij)  : -2.0000
 D4 a1       :  0.5200
 D4 a2       :  5.0000
 D4 s6       :  1.0000
 D4 s8       :  2.7000
 D4 s9       :  5.0000
 alphaj      :  2.0000

 Solvent             : h2o
 Using internal parameter file: .param_gbsa2_h2o
 Gsolv ref. state (COSMO-RS): gsolv [1 M gas/solution]
 temperature (mdtemp)       :    298.150000000000     
 dielectric constant        :    80.2000000000000     
 rho                        :    1.00000000000000     
 mass                       :    18.0000000000000     
 surface tension            :    15.5689454083859     
 probe radius               :   0.975313790000000     
 vdW radii scaling          :    1.00000000000000     
 Gshift (Eh)                :   1.857443126794793E-003
 c1                         :    1.55243817000000     
 soset                      :   0.130326360000000     
 HB correction              :  T

            Z     q(EN)     CN     RAES       Cart. coordinates
     1  N   5.0   -0.19    3.17    1.95    13.25933    51.95710   -15.14372
     2  C   4.0    0.03    4.20    3.99    11.78538    51.24458   -12.92185
     3  C   4.0    0.06    3.21    3.04    12.60280    48.72698   -11.81537
     4  O   6.0   -0.27    1.09    1.80    12.21492    46.66859   -13.15230
     5  C   4.0   -0.04    4.27    4.14     8.96154    51.26231   -13.57867
     6  C   4.0   -0.05    4.20    4.00     7.24064    50.41556   -11.44007
     7  C   4.0   -0.04    4.16    3.93     5.02872    48.80612   -12.36759
     8  C   4.0   -0.03    4.14    3.88     3.18210    48.31236   -10.20972
     9  N   5.0   -0.12    4.01    2.89     1.36621    46.27810   -10.75815
    10  H   1.0    0.10    1.01    1.43    14.27921    50.49260   -16.00478
    11  H   1.0    0.04    1.05    1.44    12.14863    52.67700   -11.44862
    12  H   1.0    0.04    1.02    1.43     8.43201    53.18537   -14.14479
    13  H   1.0    0.06    1.04    1.43     8.67394    49.99907   -15.18198
    14  H   1.0    0.05    1.04    1.43     8.34041    49.32011   -10.07972
    15  H   1.0    0.04    1.03    1.43     6.50632    52.07926   -10.46750
    16  H   1.0    0.04    1.02    1.43     4.06006    49.82313   -13.88377
    17  H   1.0    0.06    1.03    1.43     5.77791    47.01939   -13.07560
    18  H   1.0    0.05    1.03    1.43     4.24970    47.78313    -8.54019
    19  H   1.0    0.04    1.02    1.43     2.11086    50.05187    -9.84032
    20  H   1.0    0.06    1.02    1.43     0.13790    46.03740    -9.25471
    21  H   1.0    0.06    1.02    1.43     0.27644    46.74166   -12.32067
    22  H   1.0    0.07    1.02    1.43     2.31980    44.60339   -11.08857
    23  N   5.0   -0.19    3.12    1.94    11.57976    42.92223    -7.20400
    24  C   4.0    0.01    4.22    4.05     9.60599    41.52141    -5.84812
    25  C   4.0    0.13    3.40    3.08     7.04980    41.91435    -6.99566
    26  O   6.0   -0.29    1.21    1.80     6.77760    43.26153    -9.00160
    27  H   1.0    0.10    1.01    1.43    12.30280    41.91608    -8.71275
    28  H   1.0    0.06    1.03    1.43    10.07741    39.51409    -5.86502
    29  H   1.0    0.04    1.03    1.43     9.62042    42.24971    -3.91349
    30  N   5.0   -0.09    3.66    2.22     5.13287    40.82733    -5.81836
    31  C   4.0    0.02    4.59    4.66     5.57568    38.86194    -3.91496
    32  C   4.0    0.15    3.40    3.08     5.84965    36.17735    -5.04179
    33  O   6.0   -0.29    1.29    1.80     5.56194    35.90969    -7.41762
    34  C   4.0   -0.03    4.34    4.27     3.19772    39.04838    -2.25736
    35  C   4.0   -0.04    4.27    4.15     1.19083    40.04066    -4.00913
    36  C   4.0    0.00    4.32    4.23     2.42212    41.25800    -6.24562
    37  H   1.0    0.05    1.07    1.44     7.24456    39.28109    -2.80885
    38  H   1.0    0.07    1.03    1.43     2.74572    37.18296    -1.49262
    39  H   1.0    0.07    1.04    1.43     3.59403    40.33183    -0.69621
    40  H   1.0    0.06    1.02    1.43    -0.02837    38.45473    -4.60773
    41  H   1.0    0.04    1.02    1.43     0.00112    41.40647    -2.97501
    42  H   1.0    0.06    1.02    1.43     1.79853    40.39302    -8.01051
    43  H   1.0    0.04    1.02    1.43     2.07330    43.29144    -6.28818
    44  N   5.0   -0.13    3.43    2.04     6.33279    34.32183    -3.59182
    45  C   4.0    0.04    4.36    4.30     6.40105    31.66958    -4.45260
    46  C   4.0    0.08    3.23    3.04     3.88288    30.91907    -5.60455
    47  O   6.0   -0.26    1.11    1.80     1.82390    31.56730    -4.50966
    48  C   4.0   -0.04    4.37    4.33     7.12416    29.87327    -2.33372
    49  C   4.0   -0.02    4.21    4.01     9.94282    29.99316    -1.80067
    50  C   4.0   -0.07    4.10    3.80    10.53797    28.64275     0.67338
    51  C   4.0   -0.07    4.12    3.84    11.38291    28.84127    -4.02805
    52  H   1.0    0.09    1.06    1.44     6.61999    34.53879    -1.65596
    53  H   1.0    0.05    1.07    1.44     7.83181    31.58999    -5.95183
    54  H   1.0    0.05    1.03    1.43     6.06384    30.39364    -0.64098
    55  H   1.0    0.05    1.04    1.43     6.59666    27.96606    -2.87487
    56  H   1.0    0.05    1.06    1.44    10.53538    31.96383    -1.60103
    57  H   1.0    0.04    1.00    1.43    12.54415    28.71930     1.03652
    58  H   1.0    0.04    1.00    1.43     9.52960    29.55786     2.22436
    59  H   1.0    0.05    1.00    1.43     9.95099    26.67350     0.57231
    60  H   1.0    0.05    1.00    1.43    13.38702    28.90090    -3.65104
    61  H   1.0    0.05    1.00    1.43    10.80961    26.88807    -4.31076
    62  H   1.0    0.06    1.00    1.43    11.01736    29.91684    -5.74276
    63  N   5.0   -0.19    3.21    1.96     7.84842    32.01050   -10.39961
    64  C   4.0    0.05    4.20    4.01     9.56240    33.54315   -11.96685
    65  C   4.0    0.08    3.19    3.03    11.80848    34.60618   -10.51822
    66  O   6.0   -0.28    1.12    1.80    11.74609    34.59810    -8.10169
    67  C   4.0    0.04    4.15    3.91     8.10233    35.66253   -13.22959
    68  O   6.0   -0.24    2.04    1.83     9.48002    36.42236   -15.36048
    69  H   1.0    0.11    1.05    1.44     6.52375    33.05225    -9.41771
    70  H   1.0    0.05    1.05    1.44    10.31405    32.23719   -13.39060
    71  H   1.0    0.05    1.01    1.43     6.23114    34.95171   -13.78359
    72  H   1.0    0.07    1.01    1.43     7.84719    37.23499   -11.89340
    73  H   1.0    0.12    1.00    1.43     8.28244    37.11710   -16.63055
    74  N   5.0   -0.20    3.18    1.95    23.52931    45.06278    -2.63863
    75  C   4.0    0.03    4.25    4.09    22.55839    47.31082    -1.28009
    76  C   4.0    0.08    3.21    3.04    24.17826    49.62338    -1.71356
    77  O   6.0   -0.28    1.12    1.80    23.35483    51.70285    -1.00193
    78  C   4.0   -0.02    4.31    4.22    22.51065    46.69418     1.53824
    79  C   4.0   -0.01    3.73    3.27    20.61256    44.70033     2.09245
    80  C   4.0   -0.00    3.63    3.18    21.05929    42.29135     2.88683
    81  C   4.0    0.01    3.94    3.53    17.92792    44.93017     1.97765
    82  N   5.0   -0.12    3.52    2.09    18.87423    41.06247     3.25198
    83  C   4.0    0.03    3.93    3.51    16.88650    42.62401     2.71147
    84  C   4.0   -0.05    3.41    3.08    16.33132    46.94925     1.33837
    85  C   4.0   -0.05    3.41    3.08    14.30040    42.22864     2.80886
    86  C   4.0   -0.05    3.39    3.07    13.75490    46.56027     1.50227
    87  C   4.0   -0.04    3.40    3.08    12.79325    44.18530     2.23127
    88  H   1.0    0.09    1.00    1.43    22.49520    44.72109    -4.30966
    89  H   1.0    0.05    1.05    1.44    20.63527    47.74828    -1.89286
    90  H   1.0    0.05    1.03    1.43    24.38132    46.06321     2.12854
    91  H   1.0    0.06    1.03    1.43    22.10005    48.42293     2.59608
    92  H   1.0    0.06    1.02    1.43    22.90149    41.48196     3.21278
    93  H   1.0    0.07    1.04    1.43    18.68454    39.20468     3.80753
    94  H   1.0    0.05    1.03    1.43    17.08306    48.75901     0.78502
    95  H   1.0    0.05    1.02    1.43    13.52250    40.41104     3.36960
    96  H   1.0    0.05    1.03    1.43    12.51061    48.07767     0.99443
    97  H   1.0    0.06    1.03    1.43    10.74071    43.95348     2.26944
    98  N   5.0   -0.19    3.20    1.96     2.01733    54.91231     2.99543
    99  C   4.0    0.04    4.34    4.27     0.75346    54.53556     5.42905
   100  C   4.0    0.15    3.45    3.09     1.93299    52.40853     6.93720
   101  O   6.0   -0.30    1.25    1.80     2.66819    50.41842     5.75807
   102  C   4.0   -0.04    4.26    4.13    -2.07396    54.00985     5.09439
   103  C   4.0   -0.02    4.26    4.13    -2.60542    51.81411     3.32238
   104  C   4.0    0.14    3.24    3.04    -4.64887    50.07131     4.28487
   105  O   6.0   -0.25    1.23    1.80    -3.89960    48.02725     5.46879
   106  N   5.0   -0.18    3.19    1.95    -6.86599    50.56706     3.95780
   107  H   1.0    0.11    1.01    1.43     2.49069    53.25968     2.04192
   108  H   1.0    0.06    1.06    1.44     1.00524    56.30804     6.49129
   109  H   1.0    0.06    1.03    1.43    -2.86329    53.58766     6.96878
   110  H   1.0    0.05    1.01    1.43    -3.01512    55.72832     4.36409
   111  H   1.0    0.05    1.03    1.43    -3.27259    52.55221     1.47802
   112  H   1.0    0.07    1.04    1.43    -0.86548    50.74101     3.02313
   113  H   1.0    0.08    1.01    1.43    -7.44471    52.27470     3.06792
   114  H   1.0    0.09    1.02    1.43    -8.36010    49.50015     4.62838
   115  N   5.0   -0.14    3.49    2.07     2.07488    52.67768     9.29414
   116  C   4.0    0.04    4.57    4.62     2.85999    50.69309    11.04707
   117  C   4.0    0.15    3.48    3.11     0.64934    49.70054    12.59487
   118  O   6.0   -0.33    1.32    1.80    -0.40842    51.05299    14.19845
   119  C   4.0   -0.02    4.31    4.21     4.97889    51.61375    12.74061
   120  C   4.0   -0.07    4.18    3.95     5.27744    49.85988    14.98315
   121  C   4.0   -0.08    4.13    3.86     7.40827    51.80706    11.24761
   122  H   1.0    0.11    1.12    1.45     1.48947    54.31115    10.21125
   123  H   1.0    0.05    1.10    1.44     3.49251    49.14477     9.83442
   124  H   1.0    0.05    1.06    1.44     4.49403    53.48711    13.46208
   125  H   1.0    0.04    1.00    1.43     6.78737    50.52143    16.20145
   126  H   1.0    0.06    1.02    1.43     3.54136    49.79970    16.07783
   127  H   1.0    0.04    1.00    1.43     5.71378    47.96140    14.32624
   128  H   1.0    0.03    1.01    1.43     8.90998    52.45389    12.46599
   129  H   1.0    0.03    1.00    1.43     7.91911    49.95437    10.49032
   130  H   1.0    0.04    1.00    1.43     7.17349    53.13466     9.69270
   131  N   5.0   -0.14    3.49    2.07     0.00126    47.37739    12.16635
   132  C   4.0    0.03    4.39    4.37    -1.93017    46.08516    13.62405
   133  C   4.0    0.14    3.50    3.12    -0.59871    44.49665    15.59673
   134  O   6.0   -0.31    1.26    1.80     0.60059    42.56392    14.97555
   135  C   4.0   -0.05    4.15    3.90    -3.52049    44.47009    11.90861
   136  H   1.0    0.10    1.07    1.44     0.76441    46.28961    10.76087
   137  H   1.0    0.04    1.08    1.44    -3.12792    47.50056    14.53730
   138  H   1.0    0.05    1.01    1.43    -4.95529    43.52978    12.99152
   139  H   1.0    0.07    1.01    1.43    -4.39777    45.63326    10.44984
   140  H   1.0    0.07    1.00    1.43    -2.34132    43.06862    10.96927
   141  N   5.0   -0.09    3.68    2.24    -0.67438    45.31206    18.03443
   142  C   4.0    0.04    4.59    4.65     0.57908    43.94041    20.06404
   143  C   4.0    0.15    3.46    3.10    -0.36657    41.23075    20.27103
   144  O   6.0   -0.29    1.26    1.80    -2.66262    40.79594    19.64790
   145  C   4.0   -0.04    4.38    4.34    -0.18581    45.46582    22.43130
   146  C   4.0   -0.04    4.31    4.21    -0.84413    47.95509    21.48973
   147  C   4.0   -0.01    4.39    4.36    -2.07064    47.50905    18.95945
   148  H   1.0    0.04    1.06    1.44     2.60336    43.96305    19.78790
   149  H   1.0    0.06    1.03    1.43    -1.78947    44.54441    23.35572
   150  H   1.0    0.05    1.01    1.43     1.41594    45.51662    23.78889
   151  H   1.0    0.05    1.01    1.43    -2.17265    48.96649    22.77672
   152  H   1.0    0.05    1.02    1.43     0.82965    49.19257    21.26472
   153  H   1.0    0.04    1.02    1.43    -4.07355    47.08836    19.15745
   154  H   1.0    0.05    1.03    1.43    -1.81977    49.12897    17.69284
   155  N   5.0   -0.14    3.42    2.03     1.10151    39.55760    21.04718
   156  C   4.0    0.04    4.50    4.53     0.26951    36.93091    21.41843
   157  C   4.0    0.16    3.55    3.14    -1.05866    36.44490    23.93223
   158  O   6.0   -0.26    1.26    1.80     0.02960    37.07742    25.95752
   159  C   4.0   -0.02    4.34    4.28     2.34347    35.02945    21.15293
   160  C   4.0    0.15    3.34    3.06     1.67454    32.58367    22.40934
   161  O   6.0   -0.29    1.27    1.80    -0.58613    31.63068    22.07410
   162  N   5.0   -0.16    3.19    1.95     3.28851    31.54094    23.79168
   163  H   1.0    0.11    1.09    1.44     3.00395    39.85980    21.55850
   164  H   1.0    0.05    1.08    1.44    -1.20156    36.66818    19.94088
   165  H   1.0    0.05    1.03    1.43     2.78229    34.72245    19.15359
   166  H   1.0    0.07    1.02    1.43     4.07921    35.76381    22.09411
   167  H   1.0    0.10    1.02    1.43     3.02749    29.81308    24.63708
   168  H   1.0    0.11    1.03    1.43     5.08071    32.30802    24.05491
   169  N   5.0   -0.13    3.48    2.06    -3.18355    35.32390    23.89984
   170  C   4.0    0.04    4.24    4.08    -4.81604    35.12249    26.12981
   171  C   4.0    0.10    3.21    3.04    -3.41150    33.69584    28.25550
   172  O   6.0   -0.25    1.09    1.80    -3.38714    34.71215    30.48118
   173  C   4.0   -0.07    4.09    3.78    -7.29246    33.80406    25.43841
   174  H   1.0    0.08    1.06    1.44    -3.95314    34.52123    22.26855
   175  H   1.0    0.07    1.05    1.44    -5.23639    37.03214    26.78222
   176  H   1.0    0.06    1.01    1.43    -8.46599    33.65582    27.09800
   177  H   1.0    0.05    1.00    1.43    -8.29133    34.90789    24.01248
   178  H   1.0    0.05    1.00    1.43    -6.91708    31.91692    24.70141
   179  N   5.0   -0.18    3.18    1.95    13.23764    47.86401    33.60875
   180  C   4.0    0.03    4.22    4.05    12.23300    48.39201    31.08417
   181  C   4.0    0.08    3.21    3.04    13.14275    50.95690    30.16567
   182  O   6.0   -0.26    1.11    1.80    12.56588    52.92343    31.50853
   183  C   4.0   -0.03    4.32    4.24     9.35849    48.20540    31.09523
   184  C   4.0   -0.01    3.56    3.14     8.21085    48.36533    28.51052
   185  C   4.0   -0.03    3.45    3.10     7.31074    46.20696    27.32009
   186  C   4.0   -0.02    3.47    3.10     7.91290    50.71615    27.32938
   187  C   4.0   -0.04    3.37    3.07     6.14537    46.36642    25.01271
   188  C   4.0   -0.03    3.35    3.07     6.73029    50.89871    24.99440
   189  C   4.0   -0.04    3.38    3.07     5.83889    48.73256    23.84858
   190  H   1.0    0.09    1.01    1.43    11.92175    48.18273    35.04522
   191  H   1.0    0.05    1.06    1.44    13.02363    46.96686    29.78922
   192  H   1.0    0.05    1.03    1.43     8.83493    46.37869    31.94457
   193  H   1.0    0.06    1.03    1.43     8.62299    49.75407    32.26544
   194  H   1.0    0.06    1.03    1.43     7.46259    44.38424    28.25414
   195  H   1.0    0.07    1.03    1.43     8.53809    52.40675    28.27519
   196  H   1.0    0.06    1.03    1.43     5.47969    44.69512    24.08683
   197  H   1.0    0.07    1.03    1.43     6.51012    52.71107    24.09771
   198  H   1.0    0.05    1.03    1.43     4.96050    48.84495    22.03676
   199  N   5.0   -0.18    3.19    1.95    14.68077    53.83436    22.18906
   200  C   4.0    0.03    4.33    4.25    15.60449    53.72293    19.54998
   201  C   4.0    0.08    3.22    3.04    16.74139    56.24359    18.69448
   202  O   6.0   -0.30    1.20    1.80    15.58550    58.26504    19.31880
   203  C   4.0   -0.02    4.29    4.17    13.50488    52.86861    17.76632
   204  C   4.0   -0.08    4.18    3.95    14.46605    52.97185    15.10889
   205  C   4.0   -0.08    4.14    3.89    12.68410    50.20504    18.43853
   206  H   1.0    0.12    1.04    1.43    13.22425    55.08914    22.47129
   207  H   1.0    0.05    1.06    1.44    17.14185    52.36048    19.55639
   208  H   1.0    0.04    1.06    1.44    11.88630    54.14585    17.96827
   209  H   1.0    0.03    1.00    1.43    13.00414    52.34807    13.80896
   210  H   1.0    0.04    1.01    1.43    15.01819    54.89895    14.60600
   211  H   1.0    0.04    1.00    1.43    16.10549    51.75121    14.88570
   212  H   1.0    0.03    1.00    1.43    11.20675    49.60572    17.14362
   213  H   1.0    0.04    1.00    1.43    14.29428    48.93847    18.29462
   214  H   1.0    0.05    1.00    1.43    11.97054    50.15228    20.36065
   215  N   5.0   -0.19    3.25    1.97    12.00785    61.24548    21.22362
   216  C   4.0    0.03    4.23    4.07     9.48392    60.24141    21.56057
   217  C   4.0    0.08    3.19    3.04     9.30069    58.93731    24.13012
   218  O   6.0   -0.28    1.14    1.80    10.55020    56.90859    24.49821
   219  C   4.0   -0.04    4.38    4.34     8.74193    58.55390    19.36762
   220  C   4.0   -0.02    4.20    4.00     8.51115    59.89094    16.81231
   221  C   4.0   -0.08    4.12    3.85     7.90104    57.97333    14.80280
   222  C   4.0   -0.07    4.14    3.87     6.46301    61.89098    16.97124
   223  H   1.0    0.13    1.08    1.44    13.45161    59.95559    21.19172
   224  H   1.0    0.04    1.06    1.44     8.21973    61.88563    21.66859
   225  H   1.0    0.05    1.03    1.43    10.16168    57.06760    19.19124
   226  H   1.0    0.05    1.04    1.43     6.94162    57.68628    19.82059
   227  H   1.0    0.04    1.05    1.44    10.31843    60.80092    16.34372
   228  H   1.0    0.03    1.01    1.43     7.71832    58.89739    12.99093
   229  H   1.0    0.03    1.00    1.43     9.40790    56.56591    14.66305
   230  H   1.0    0.04    1.00    1.43     6.13249    57.00087    15.23452
   231  H   1.0    0.04    1.00    1.43     6.22559    62.77011    15.13248
   232  H   1.0    0.04    1.00    1.43     4.66333    61.03110    17.45505
   233  H   1.0    0.04    1.00    1.43     6.95998    63.31899    18.35680
   234  N   5.0   -0.19    3.18    1.95    -7.29330    52.20714    18.12455
   235  C   4.0    0.03    4.41    4.39    -6.21992    52.22665    15.54305
   236  C   4.0    0.15    3.49    3.11    -5.53344    54.95998    14.94459
   237  O   6.0   -0.28    1.26    1.80    -7.23545    56.57186    14.76278
   238  C   4.0   -0.02    4.36    4.31    -8.07906    51.32060    13.51691
   239  C   4.0   -0.05    4.20    4.01    -8.85678    48.57660    13.99056
   240  C   4.0   -0.06    4.22    4.03    -6.85966    51.61390    10.93865
   241  C   4.0   -0.07    4.08    3.77    -9.33737    47.09388    11.60083
   242  H   1.0    0.08    1.00    1.43    -9.09151    51.33100    18.17727
   243  H   1.0    0.05    1.05    1.44    -4.51034    51.04658    15.56512
   244  H   1.0    0.06    1.06    1.44    -9.74980    52.52969    13.58932
   245  H   1.0    0.04    1.03    1.43    -7.36778    47.62629    15.05493
   246  H   1.0    0.04    1.03    1.43   -10.57659    48.55348    15.12132
   247  H   1.0    0.05    1.02    1.43    -8.15440    50.98730     9.49069
   248  H   1.0    0.06    1.01    1.43    -6.40424    53.58639    10.57897
   249  H   1.0    0.06    1.00    1.43    -5.13920    50.50133    10.82120
   250  H   1.0    0.05    1.01    1.43    -9.87090    45.18139    12.07023
   251  H   1.0    0.05    1.00    1.43   -10.84241    47.96758    10.51784
   252  H   1.0    0.05    1.01    1.43    -7.63218    47.01661    10.43694
   253  N   5.0   -0.13    3.46    2.05    -3.15791    55.54644    14.72765
   254  C   4.0    0.04    4.32    4.23    -2.34510    58.17169    14.38278
   255  C   4.0    0.07    3.20    3.04    -1.43846    58.72633    11.70957
   256  O   6.0   -0.31    1.21    1.80    -0.50815    56.96298    10.34900
   257  C   4.0   -0.04    4.26    4.13    -0.29548    58.87259    16.28014
   258  C   4.0   -0.03    4.20    4.01    -1.18239    59.15164    18.98607
   259  C   4.0    0.13    3.21    3.04     0.99094    58.94554    20.87067
   260  O   6.0   -0.29    1.16    1.80     2.05028    56.58016    21.03753
   261  N   5.0   -0.18    3.15    1.95     1.70995    60.70763    22.09030
   262  H   1.0    0.11    1.10    1.44    -1.75896    54.23058    14.75756
   263  H   1.0    0.06    1.07    1.44    -4.04285    59.34066    14.68299
   264  H   1.0    0.06    1.03    1.43     1.16013    57.39087    16.22684
   265  H   1.0    0.04    1.03    1.43     0.56932    60.65447    15.65442
   266  H   1.0    0.04    1.02    1.43    -1.98807    61.07089    19.25418
   267  H   1.0    0.06    1.02    1.43    -2.62545    57.72087    19.38973
   268  H   1.0    0.08    1.01    1.43     0.90650    62.54658    21.88226
   269  H   1.0    0.09    1.02    1.43     3.19063    60.68828    23.40408
   270  N   5.0   -0.19    3.29    1.98     3.56009    62.13853     6.95292
   271  C   4.0    0.03    4.29    4.19     6.15586    63.00737     6.71607
   272  C   4.0    0.07    3.30    3.05     6.39340    64.60352     4.35972
   273  O   6.0   -0.27    1.12    1.80     5.05377    64.12990     2.37594
   274  C   4.0   -0.03    4.26    4.12     8.00465    60.74864     6.58291
   275  C   4.0   -0.07    4.18    3.97     6.74334    58.36706     7.56783
   276  C   4.0   -0.06    4.18    3.96     8.90094    60.31527     3.85985
   277  H   1.0    0.10    1.03    1.43     2.98098    61.03025     5.52126
   278  H   1.0    0.04    1.05    1.44     6.57041    64.19425     8.36444
   279  H   1.0    0.03    1.05    1.44     9.65637    61.17942     7.74469
   280  H   1.0    0.04    1.00    1.43     8.04924    56.77373     7.44730
   281  H   1.0    0.04    1.01    1.43     6.15020    58.62700     9.50468
   282  H   1.0    0.05    1.01    1.43     5.08786    57.91427     6.44186
   283  H   1.0    0.04    1.00    1.43    10.19256    58.71269     3.79180
   284  H   1.0    0.06    1.01    1.43     7.29203    59.93397     2.65352
   285  H   1.0    0.05    1.02    1.43     9.85906    61.97773     3.16735
   286  N   5.0   -0.19    3.19    1.95    22.40390    54.44182     5.22588
   287  C   4.0    0.03    4.29    4.18    20.66795    53.64067     7.23230
   288  C   4.0    0.13    3.38    3.07    21.89453    51.57910     8.91068
   289  O   6.0   -0.29    1.21    1.80    22.83564    49.56910     7.80681
   290  C   4.0   -0.04    4.34    4.27    18.14708    52.86408     6.05875
   291  C   4.0   -0.03    4.20    3.99    15.91704    52.94816     7.86553
   292  C   4.0   -0.08    4.13    3.86    15.49172    55.62431     8.83332
   293  C   4.0   -0.08    4.13    3.85    13.58008    51.98453     6.57870
   294  H   1.0    0.10    1.02    1.43    22.45418    53.24087     3.70214
   295  H   1.0    0.04    1.06    1.44    20.43036    55.28452     8.48611
   296  H   1.0    0.04    1.02    1.43    17.77147    54.14067     4.43596
   297  H   1.0    0.05    1.03    1.43    18.36518    50.92886     5.35595
   298  H   1.0    0.04    1.05    1.44    16.33638    51.72211     9.49850
   299  H   1.0    0.03    1.00    1.43    13.87125    55.65623    10.10522
   300  H   1.0    0.04    1.01    1.43    17.13886    56.28225     9.84308
   301  H   1.0    0.04    1.00    1.43    15.13677    56.87616     7.24672
   302  H   1.0    0.04    1.00    1.43    11.97437    52.05859     7.86401
   303  H   1.0    0.04    1.00    1.43    13.15725    53.14882     4.92560
   304  H   1.0    0.04    1.00    1.43    13.86384    50.04468     5.96372
   305  N   5.0   -0.15    3.42    2.03    21.88547    51.79169    11.27257
   306  C   4.0    0.03    4.50    4.53    23.45749    50.30061    13.05430
   307  C   4.0    0.14    3.47    3.10    21.91688    49.52093    15.37006
   308  O   6.0   -0.30    1.27    1.80    21.61000    51.09898    17.13312
   309  C   4.0   -0.01    4.37    4.33    25.74617    51.85852    13.92967
   310  C   4.0   -0.04    4.22    4.03    27.37488    52.64414    11.67150
   311  C   4.0   -0.06    4.17    3.94    27.29200    50.38518    15.87420
   312  C   4.0   -0.06    4.07    3.74    29.13511    50.63325    10.79209
   313  H   1.0    0.07    1.06    1.44    20.96708    53.29250    12.14292
   314  H   1.0    0.06    1.06    1.44    24.01350    48.60908    11.98872
   315  H   1.0    0.06    1.07    1.44    25.04920    53.55493    14.83003
   316  H   1.0    0.06    1.04    1.43    26.13859    53.18809    10.09492
   317  H   1.0    0.05    1.03    1.43    28.49053    54.28740    12.19117
   318  H   1.0    0.05    1.00    1.43    28.91068    51.49553    16.44590
   319  H   1.0    0.07    1.01    1.43    26.10738    49.96993    17.51319
   320  H   1.0    0.05    1.01    1.43    27.93722    48.62509    15.07190
   321  H   1.0    0.05    1.00    1.43    30.22158    51.30269     9.18834
   322  H   1.0    0.05    1.00    1.43    30.45191    50.11244    12.31370
   323  H   1.0    0.06    1.00    1.43    28.09044    48.96814    10.20209
   324  N   5.0   -0.13    3.48    2.07    20.93136    47.35802    15.42465
   325  C   4.0    0.04    4.43    4.43    19.34645    46.52517    17.53546
   326  C   4.0    0.15    3.40    3.08    20.90889    45.59150    19.82928
   327  O   6.0   -0.24    1.23    1.80    22.87484    44.17294    19.35007
   328  C   4.0   -0.03    4.35    4.28    17.50801    44.48680    16.67916
   329  C   4.0   -0.01    3.63    3.18    16.81950    44.64973    13.91204
   330  C   4.0   -0.05    3.49    3.11    14.88375    46.15467    13.14215
   331  C   4.0   -0.03    3.51    3.12    18.06898    43.14834    12.18214
   332  C   4.0   -0.05    3.40    3.08    14.22203    46.24872    10.60875
   333  C   4.0   -0.03    3.39    3.08    17.39900    43.24044     9.65043
   334  C   4.0   -0.04    3.39    3.08    15.53577    44.78978     8.87948
   335  H   1.0    0.09    1.06    1.44    21.23253    45.95583    14.05368
   336  H   1.0    0.05    1.06    1.44    18.31137    48.20302    18.18640
   337  H   1.0    0.08    1.05    1.44    18.36666    42.65118    17.04111
   338  H   1.0    0.04    1.04    1.43    15.80753    44.63506    17.79230
   339  H   1.0    0.04    1.03    1.43    13.86428    47.31320    14.50325
   340  H   1.0    0.07    1.03    1.43    19.55761    41.88938    12.82303
   341  H   1.0    0.04    1.03    1.43    12.71626    47.48087    10.00219
   342  H   1.0    0.06    1.02    1.43    18.45323    42.07636     8.30751
   343  H   1.0    0.05    1.03    1.43    15.01463    44.88886     6.87402
   344  N   5.0   -0.13    3.37    2.01    20.23025    46.13058    22.03393
   345  C   4.0    0.05    4.41    4.40    21.74131    45.43482    24.31079
   346  C   4.0    0.16    3.43    3.09    22.04584    42.53335    24.48166
   347  O   6.0   -0.25    1.23    1.80    24.33591    41.67727    24.48468
   348  C   4.0   -0.03    4.28    4.16    20.68683    46.50551    26.80007
   349  C   4.0    0.15    3.21    3.04    22.12370    48.80723    27.73773
   350  O   6.0   -0.26    1.21    1.80    23.99790    49.67178    26.45720
   351  N   5.0   -0.17    3.16    1.95    21.38280    49.84586    29.83534
   352  H   1.0    0.08    1.04    1.43    18.64197    47.24009    22.46173
   353  H   1.0    0.09    1.07    1.44    23.60466    46.24672    24.00032
   354  H   1.0    0.06    1.04    1.43    18.73623    47.05683    26.51449
   355  H   1.0    0.05    1.03    1.43    20.79190    45.05383    28.26618
   356  H   1.0    0.11    1.03    1.43    22.26133    51.39114    30.56125
   357  H   1.0    0.09    1.02    1.43    19.87674    49.10607    30.82744
   358  N   5.0   -0.13    3.46    2.05    20.23573    41.10441    24.78401
   359  C   4.0    0.04    4.40    4.39    20.27166    38.35551    24.21881
   360  C   4.0    0.16    3.48    3.11    19.48641    37.94498    21.48820
   361  O   6.0   -0.28    1.28    1.80    18.51704    39.80121    20.28545
   362  C   4.0    0.03    4.16    3.91    18.57300    36.85014    26.01447
   363  O   6.0   -0.26    2.15    1.85    17.77741    34.56175    24.90702
   364  H   1.0    0.08    1.09    1.44    18.41954    41.79051    25.12325
   365  H   1.0    0.07    1.06    1.44    22.21475    37.73193    24.47511
   366  H   1.0    0.05    1.01    1.43    19.57136    36.55375    27.80448
   367  H   1.0    0.04    1.05    1.44    16.89949    37.97197    26.46055
   368  H   1.0    0.12    1.01    1.43    16.71346    33.66796    26.15879
   369  N   5.0   -0.13    3.57    2.14    19.69878    35.78995    20.50476
   370  C   4.0    0.04    4.48    4.50    18.66596    35.22330    17.99838
   371  C   4.0    0.14    3.46    3.10    15.93148    34.48657    18.44358
   372  O   6.0   -0.30    1.21    1.80    14.27304    35.00769    16.74088
   373  C   4.0   -0.04    4.21    4.01    20.20522    33.19572    16.61672
   374  C   4.0   -0.03    4.13    3.86    22.72275    34.25909    15.58634
   375  C   4.0    0.25    3.08    3.02    22.42093    36.54307    13.71638
   376  O   6.0   -0.32    1.27    1.80    21.82745    36.12649    11.53675
   377  O   6.0   -0.26    1.14    1.80    22.85990    38.79929    14.63593
   378  H   1.0    0.08    1.06    1.44    20.61234    34.28925    21.37900
   379  H   1.0    0.07    1.07    1.44    18.76833    36.91927    16.84962
   380  H   1.0    0.05    1.02    1.43    20.60989    31.63712    17.92958
   381  H   1.0    0.05    1.03    1.43    19.09096    32.52058    15.03129
   382  H   1.0    0.06    1.01    1.43    23.92758    34.84726    17.17829
   383  H   1.0    0.05    1.03    1.43    23.67535    32.75798    14.55291
   384  N   5.0   -0.14    3.58    2.14    15.39247    33.40334    20.48929
   385  C   4.0    0.03    4.41    4.39    12.89040    32.34690    21.08002
   386  C   4.0    0.15    3.43    3.09    11.24249    34.41227    22.30721
   387  O   6.0   -0.29    1.26    1.80     9.24947    33.72105    23.43689
   388  C   4.0   -0.03    4.25    4.10    13.11680    29.95436    22.75302
   389  C   4.0    0.05    3.78    3.31    14.82339    27.92294    21.69340
   390  N   5.0   -0.15    2.62    1.91    16.53402    26.68132    23.22469
   391  C   4.0   -0.01    3.66    3.21    15.00872    26.97729    19.39568
   392  C   4.0    0.07    3.68    3.22    17.69510    25.04035    21.65328
   393  N   5.0   -0.10    3.53    2.10    16.85890    25.21383    19.55822
   394  H   1.0    0.10    1.12    1.45    16.65744    33.18043    21.95136
   395  H   1.0    0.06    1.06    1.44    12.02277    31.81773    19.28641
   396  H   1.0    0.06    1.02    1.43    13.81691    30.51909    24.63263
   397  H   1.0    0.06    1.03    1.43    11.21259    29.21690    22.98572
   398  H   1.0    0.05    0.98    1.43    13.90051    27.50434    17.65412
   399  H   1.0    0.05    1.03    1.43    19.15011    23.81510    22.37857
   400  H   1.0    0.07    0.99    1.43    17.41704    24.11623    17.85844
   401  N   5.0   -0.14    3.56    2.12    11.90659    36.68034    22.17635
   402  C   4.0    0.03    4.45    4.46    10.37525    38.74604    23.26261
   403  C   4.0    0.14    3.43    3.09     8.22300    39.24045    21.42424
   404  O   6.0   -0.32    1.26    1.80     6.26406    40.46281    22.26210
   405  C   4.0   -0.04    4.28    4.15    11.90763    41.16312    23.69773
   406  C   4.0   -0.03    4.27    4.14    13.75767    40.91667    25.84550
   407  C   4.0    0.13    3.25    3.04    14.80209    43.37971    26.82958
   408  O   6.0   -0.31    1.22    1.80    14.61530    45.40919    25.51843
   409  N   5.0   -0.19    3.20    1.96    15.92735    43.39643    28.95236
   410  H   1.0    0.09    1.07    1.44    13.52151    37.31285    21.24504
   411  H   1.0    0.06    1.06    1.44     9.64197    38.12607    25.07286
   412  H   1.0    0.05    1.03    1.43    12.96419    41.62366    21.97867
   413  H   1.0    0.06    1.04    1.43    10.62687    42.69762    24.16311
   414  H   1.0    0.04    1.03    1.43    12.93731    39.89869    27.46040
   415  H   1.0    0.04    1.08    1.44    15.34217    39.83447    25.13618
   416  H   1.0    0.08    1.02    1.43    16.04849    41.76870    30.05015
   417  H   1.0    0.09    1.03    1.43    16.60482    44.97060    29.79414
   418  N   5.0   -0.13    3.47    2.06     8.44637    38.51210    19.15957
   419  C   4.0    0.03    4.48    4.51     7.03035    39.43492    16.94704
   420  C   4.0    0.13    3.48    3.11     5.77017    37.34125    15.37096
   421  O   6.0   -0.29    1.23    1.80     6.76012    35.11551    15.24106
   422  C   4.0   -0.02    4.28    4.15     8.76531    41.13036    15.32279
   423  C   4.0   -0.07    4.21    4.02     8.47687    40.49387    12.56963
   424  C   4.0   -0.08    4.12    3.85     8.18508    43.87870    15.81612
   425  H   1.0    0.10    1.08    1.44     9.73880    37.11987    18.65342
   426  H   1.0    0.05    1.06    1.44     5.45100    40.55097    17.73053
   427  H   1.0    0.05    1.06    1.44    10.74403    40.76689    15.84139
   428  H   1.0    0.04    1.01    1.43     9.68143    41.69499    11.43723
   429  H   1.0    0.05    1.01    1.43     8.99403    38.51697    12.26095
   430  H   1.0    0.06    1.02    1.43     6.53268    40.77156    11.98585
   431  H   1.0    0.03    1.01    1.43     9.38187    45.04783    14.64538
   432  H   1.0    0.05    1.01    1.43     6.22257    44.25061    15.37173
   433  H   1.0    0.04    1.00    1.43     8.52917    44.32769    17.80895
   434  N   5.0   -0.15    3.50    2.08     3.75623    37.90642    14.24579
   435  C   4.0    0.03    4.49    4.52     2.49437    36.15469    12.55590
   436  C   4.0    0.14    3.44    3.09     3.44718    36.61743     9.86132
   437  O   6.0   -0.32    1.34    1.80     2.63910    38.44236     8.60221
   438  C   4.0   -0.04    4.36    4.31    -0.36363    36.37626    12.77285
   439  C   4.0   -0.02    4.22    4.04    -1.32174    35.46207    15.33200
   440  C   4.0   -0.07    4.10    3.81    -4.14248    35.92994    15.62104
   441  C   4.0   -0.07    4.13    3.86    -0.68567    32.68178    15.69388
   442  H   1.0    0.10    1.08    1.44     2.82047    39.63291    14.42127
   443  H   1.0    0.05    1.07    1.44     3.10688    34.23595    13.09420
   444  H   1.0    0.06    1.03    1.43    -0.89668    38.36284    12.51532
   445  H   1.0    0.04    1.03    1.43    -1.23828    35.26562    11.29159
   446  H   1.0    0.05    1.07    1.44    -0.36345    36.58217    16.78181
   447  H   1.0    0.05    1.00    1.43    -4.78580    35.26464    17.44689
   448  H   1.0    0.06    1.00    1.43    -4.54331    37.94105    15.47429
   449  H   1.0    0.04    1.00    1.43    -5.18481    34.93739    14.15101
   450  H   1.0    0.06    1.00    1.43    -1.37844    32.03509    17.50889
   451  H   1.0    0.05    1.00    1.43    -1.55840    31.57899    14.20132
   452  H   1.0    0.05    1.00    1.43     1.35007    32.40961    15.63668
   453  N   5.0   -0.15    3.51    2.09     5.10688    35.09815     9.00854
   454  C   4.0    0.03    4.43    4.43     6.40217    35.49210     6.57208
   455  C   4.0    0.14    3.51    3.12     4.58027    34.72366     4.45594
   456  O   6.0   -0.31    1.23    1.80     5.07593    35.61520     2.17539
   457  C   4.0   -0.05    4.24    4.08     8.90157    34.04270     6.41612
   458  C   4.0   -0.05    4.20    4.00    10.72998    34.76222     8.51771
   459  C   4.0   -0.05    4.18    3.95    13.46541    34.26559     7.85155
   460  C   4.0   -0.03    4.13    3.86    15.20655    35.90520     9.43519
   461  N   5.0   -0.12    4.03    2.94    17.86879    35.75412     8.48428
   462  H   1.0    0.08    1.05    1.44     5.73196    33.50605     9.97221
   463  H   1.0    0.05    1.06    1.44     6.83165    37.51012     6.42278
   464  H   1.0    0.04    1.02    1.43     8.50516    32.00252     6.50875
   465  H   1.0    0.04    1.03    1.43     9.75641    34.48733     4.58988
   466  H   1.0    0.04    1.03    1.43    10.50553    36.78199     8.93825
   467  H   1.0    0.05    1.02    1.43    10.24302    33.71691    10.24094
   468  H   1.0    0.04    1.02    1.43    13.89189    32.25949     8.18576
   469  H   1.0    0.04    1.03    1.43    13.75286    34.68104     5.84591
   470  H   1.0    0.04    1.02    1.43    14.59561    37.86642     9.37630
   471  H   1.0    0.06    1.02    1.43    15.19428    35.25889    11.39459
   472  H   1.0    0.10    1.11    1.45    19.18642    35.86081     9.85526
   473  H   1.0    0.06    1.02    1.43    18.11230    34.06937     7.46853
   474  H   1.0    0.06    1.01    1.43    18.19285    37.23803     7.20346
   475  N   5.0   -0.14    3.57    2.13     2.77732    33.34691     4.91594
   476  C   4.0    0.04    4.46    4.48     0.84466    32.62676     3.04986
   477  C   4.0    0.15    3.47    3.10    -0.65713    35.01101     2.53212
   478  O   6.0   -0.30    1.29    1.80    -2.37812    34.90918     0.86260
   479  C   4.0   -0.03    4.29    4.18    -0.82834    30.43343     3.94869
   480  C   4.0    0.16    3.23    3.04    -1.68427    28.80084     1.76771
   481  O   6.0   -0.27    1.18    1.80    -0.98080    26.49693     1.62345
   482  N   5.0   -0.16    3.21    1.96    -3.16521    29.82699     0.12511
   483  H   1.0    0.07    1.06    1.44     2.40522    32.57398     6.71809
   484  H   1.0    0.07    1.06    1.44     1.80455    32.00284     1.33227
   485  H   1.0    0.05    1.03    1.43     0.25040    29.27746     5.26406
   486  H   1.0    0.05    1.02    1.43    -2.50431    31.20952     4.92273
   487  H   1.0    0.11    1.02    1.43    -3.80468    28.82094    -1.41607
   488  H   1.0    0.12    1.07    1.44    -3.63840    31.69474     0.22880
   489  N   5.0   -0.14    3.54    2.10    -0.16933    37.01041     3.76855
   490  C   4.0    0.04    4.38    4.34    -1.73802    39.30754     3.64278
   491  C   4.0    0.13    3.36    3.07    -0.22563    41.70959     4.28411
   492  O   6.0   -0.23    1.27    1.80    -1.73627    43.77301     4.98194
   493  C   4.0   -0.02    4.29    4.18    -4.17780    38.91021     5.21813
   494  C   4.0    0.16    3.29    3.05    -5.92408    41.16202     5.09747
   495  O   6.0   -0.26    1.22    1.80    -5.86083    42.72927     7.12893
   496  N   5.0   -0.17    3.19    1.95    -7.19815    41.57459     3.30612
   497  H   1.0    0.10    1.12    1.45     1.31564    37.16709     5.05185
   498  H   1.0    0.06    1.06    1.44    -2.26810    39.50448     1.64600
   499  H   1.0    0.05    1.02    1.43    -5.23817    37.30124     4.40577
   500  H   1.0    0.06    1.02    1.43    -3.65101    38.46104     7.16379
   501  H   1.0    0.10    1.03    1.43    -8.42970    43.08816     3.11063
   502  H   1.0    0.08    1.03    1.43    -7.21512    40.34956     1.73957
   503  N   5.0   -0.12    3.43    2.04     2.06898    41.90757     4.18808
   504  C   4.0    0.04    4.47    4.49     3.61324    44.17305     4.82597
   505  C   4.0    0.13    3.48    3.11     5.40667    44.67140     2.66853
   506  O   6.0   -0.31    1.28    1.80     6.18400    42.78852     1.40809
   507  C   4.0    0.06    4.23    4.06     5.15676    43.82386     7.29706
   508  O   6.0   -0.25    2.13    1.84     3.48032    43.44162     9.37030
   509  C   4.0   -0.07    4.14    3.88     6.70924    46.12394     7.83201
   510  H   1.0    0.10    1.07    1.44     3.18312    40.35358     3.73619
   511  H   1.0    0.08    1.06    1.44     2.29424    45.74602     5.05346
   512  H   1.0    0.04    1.05    1.44     6.39460    42.20232     7.07883
   513  H   1.0    0.16    1.07    1.44     2.93320    41.67915     9.38109
   514  H   1.0    0.04    1.00    1.43     7.77661    45.89193     9.58900
   515  H   1.0    0.04    1.01    1.43     8.02763    46.48279     6.29971
   516  H   1.0    0.06    1.02    1.43     5.49939    47.77891     7.98170
   517  N   5.0   -0.14    3.48    2.06     6.10319    46.96265     2.20751
   518  C   4.0    0.04    4.35    4.29     7.43944    47.66415    -0.13459
   519  C   4.0    0.06    3.27    3.05     7.83971    50.47672    -0.32279
   520  O   6.0   -0.29    1.16    1.80     6.84111    51.84072     1.31362
   521  C   4.0   -0.03    4.37    4.32     5.89327    46.87622    -2.44376
   522  C   4.0   -0.01    3.59    3.16     3.37116    48.18159    -2.60489
   523  C   4.0   -0.04    3.48    3.11     3.12411    50.55076    -3.72282
   524  C   4.0   -0.03    3.48    3.11     1.22363    47.04839    -1.55954
   525  C   4.0   -0.03    3.44    3.09     0.80997    51.71629    -3.81194
   526  C   4.0   -0.04    3.45    3.09    -1.08837    48.26396    -1.63315
   527  C   4.0    0.06    3.47    3.10    -1.26333    50.57653    -2.77701
   528  O   6.0   -0.24    2.09    1.84    -3.58051    51.83459    -2.85847
   529  H   1.0    0.11    1.07    1.44     5.61894    48.48189     3.34954
   530  H   1.0    0.04    1.06    1.44     9.25703    46.68009    -0.13783
   531  H   1.0    0.04    1.02    1.43     7.01085    47.31766    -4.15179
   532  H   1.0    0.06    1.04    1.43     5.60263    44.84539    -2.36562
   533  H   1.0    0.05    1.02    1.43     4.78827    51.43043    -4.55924
   534  H   1.0    0.06    1.03    1.43     1.38699    45.24298    -0.62017
   535  H   1.0    0.06    1.02    1.43     0.65268    53.54207    -4.75459
   536  H   1.0    0.06    1.03    1.43    -2.71961    47.36738    -0.79043
   537  H   1.0    0.12    1.02    1.43    -4.87530    50.73398    -2.08815
   538  H   1.0    0.10    1.08    1.44    12.22095    52.58001   -16.33800
   539  H   1.0    0.05    1.04    1.43    13.41395    48.66323   -10.10979
   540  H   1.0    0.11    1.08    1.44    10.93336    44.37632    -7.80431
   541  H   1.0    0.06    1.04    1.43     3.83755    29.92363    -7.21019
   542  H   1.0    0.10    1.07    1.44     6.99546    30.92165   -11.38927
   543  H   1.0    0.06    1.04    1.43    13.29767    35.29442   -11.45615
   544  H   1.0    0.10    1.07    1.44    25.15978    45.31082    -3.05406
   545  H   1.0    0.06    1.04    1.43    25.86276    49.45323    -2.55296
   546  H   1.0    0.10    1.07    1.44     1.00097    55.79863     1.95908
   547  H   1.0    0.07    1.03    1.43    -2.56307    32.04801    27.88692
   548  H   1.0    0.09    1.07    1.44    13.71630    46.23455    33.69993
   549  H   1.0    0.06    1.04    1.43    14.15140    51.08687    28.57294
   550  H   1.0    0.10    1.07    1.44    14.11485    52.30052    22.65771
   551  H   1.0    0.06    1.04    1.43    18.33693    56.26536    17.68213
   552  H   1.0    0.10    1.08    1.44    12.09484    62.07752    19.74285
   553  H   1.0    0.06    1.04    1.43     8.21473    59.67554    25.48908
   554  H   1.0    0.09    1.06    1.44    -6.25400    51.35290    19.16509
   555  H   1.0    0.05    1.04    1.43    -1.56988    60.47747    11.01152
   556  H   1.0    0.09    1.09    1.44     3.39188    61.23605     8.38464
   557  H   1.0    0.06    1.04    1.43     7.60345    66.05445     4.31934
   558  H   1.0    0.10    1.07    1.44    21.93439    55.97005     4.64568
   559  H   1.0    0.05    1.04    1.43     8.87962    51.19106    -1.72969

  Z AO/shell   Hii/eV     exponent
  1     Wed Apr 25 08:07:45 CEST 2018   EN: 2.200 GM2: 0.406  GM3: 0.0800  RAES: 1.40
     1s    -10.707211    1.230000
  6     Wed Apr 25 08:07:45 CEST 2018   EN: 2.550 GM2: 0.538  GM3: 0.1500  RAES: 3.00
     2s    -13.970922    2.096432
     2p    -10.063292    1.800000
  7     Wed Apr 25 08:07:45 CEST 2018   EN: 3.040 GM2: 0.461  GM3:-0.0640  RAES: 1.90
     2s    -16.686243    2.339881
     2p    -12.523956    2.014332
  8     Wed Apr 25 08:07:45 CEST 2018   EN: 3.440 GM2: 0.452  GM3:-0.0517  RAES: 1.80
     2s    -20.229985    2.439742
     2p    -15.503117    2.137023
 no old-style atom pair restraining (fixing) potential

molecular fragmentation (1/2 indicates fragments):
111111111111111111111122222222222222222222222222222222222222222222222222
222222222222222222222222222222222222222222222222222222222222222222222222
222222222222222222222222222222222222222222222222222222222222222222222222
222222222222222222222222222222222222222222222222222222222222222222222222
222222222222222222222222222222222222222222222222222222222222222222222222
222222222222222222222222222222222222222222222222222222222222222222222222
222222222222222222222222222222222222222222222222222222222222222222222222
2222222222222222222222222222222221122222222222222222222
# atoms in fragment 1/2:    24   535
 fragment masses (1/2) :      131.20     3643.32
CMA distance (Bohr)    :  24.645
constraining FC (au)   :  0.0500
           ------------------------------------------------- 
          |        Self-Consistent Charge Iterations        |
           ------------------------------------------------- 

 Ncao       : 1360
 Nao        : 1360
 Nshell     : 826
 Nel        : 1496
 T(el)      :   500.0
 intcut     :    35.0
 scfconv/Eh :  0.100E-06
   qconv/e  :  0.100E-04
 intneglect :  0.100E-08
 broydamp   :      0.400
 iter      E             dE          RMSdq      gap      omega  full diag
   1   -851.5567828 -0.851557E+03  0.465E+00    2.05       0.0  T
   2   -854.1148300 -0.255805E+01  0.218E+00    0.73       1.0  T
   3   -854.2890527 -0.174223E+00  0.134E+00    1.42       1.0  T
   4   -854.4589974 -0.169945E+00  0.333E-01    0.75       1.0  T
   5   -854.4840599 -0.250625E-01  0.148E-01    0.95       1.0  T
   6   -854.4870743 -0.301442E-02  0.645E-02    0.98       1.0  T
   7   -854.4875739 -0.499614E-03  0.257E-02    0.96       1.0  T
   8   -854.4876677 -0.937353E-04  0.135E-02    0.96       1.0  T
   9   -854.4876866 -0.189669E-04  0.594E-03    0.96       1.0  T
  10   -854.4876938 -0.718077E-05  0.260E-03    0.96       1.6  T
  11   -854.4876945 -0.655163E-06  0.140E-03    0.96       3.0  T
  12   -854.4876948 -0.342446E-06  0.705E-04    0.96       6.0  T
  13   -854.4876949 -0.793653E-07  0.325E-04    0.96      13.0  T
  14   -854.4876949 -0.157017E-07  0.184E-04    0.96      23.0  T
  15   -854.4876949 -0.472676E-08  0.752E-05    0.96      56.2  T
  16   -854.4876949 -0.954401E-09  0.296E-05    0.96     142.7  T
speedup  1.97
cpu  time for SCC   42.45 s
wall time for SCC   21.57 s

   *** convergence criteria satisfied after 16 iterations ***

          eigenvalues
 #    :         736        737        738        739        740        741        742        743
 occ. :        2.000      2.000      2.000      2.000      2.000      2.000      2.000      2.000
 eps  :       -10.121     -9.994     -9.959     -9.947     -9.918     -9.899     -9.896     -9.893
 #    :         744        745        746        747        748        749        750        751
 occ. :        2.000      2.000      2.000      2.000      2.000      0.000      0.000      0.000
 eps  :        -9.859     -9.843     -9.751     -9.683     -9.621     -8.660     -8.394     -8.371
 #    :         752        753        754        755        756        757        758        759
 occ. :        0.000      0.000      0.000      0.000      0.000      0.000      0.000      0.000
 eps  :        -8.297     -8.258     -8.177     -8.151     -8.048     -7.966     -7.936     -7.826


   #   Z            q   n(s)   n(p)   n(d)      C6AA      α(0)
   1   7 N     -0.376  1.341  4.036  0.000    29.720     8.097
   2   6 C      0.043  1.054  2.903  0.000    19.870     6.350
   3   6 C      0.182  1.106  2.712  0.000    24.093     8.038
   4   8 O     -0.405  1.803  4.602  0.000    21.790     6.258
   5   6 C     -0.072  1.058  3.014  0.000    21.871     6.658
   6   6 C     -0.071  1.050  3.021  0.000    21.860     6.656
   7   6 C     -0.089  1.055  3.034  0.000    22.188     6.706
   8   6 C     -0.048  1.055  2.994  0.000    21.528     6.622
   9   7 N     -0.135  1.227  3.908  0.000    23.913     7.263
  10   1 H      0.152  0.848  0.000  0.000     1.390     1.847
  11   1 H      0.054  0.946  0.000  0.000     2.269     2.356
  12   1 H      0.060  0.940  0.000  0.000     2.199     2.319
  13   1 H      0.062  0.938  0.000  0.000     2.172     2.304
  14   1 H      0.040  0.960  0.000  0.000     2.445     2.445
  15   1 H      0.062  0.938  0.000  0.000     2.180     2.309
  16   1 H      0.078  0.922  0.000  0.000     1.999     2.211
  17   1 H      0.078  0.922  0.000  0.000     2.003     2.213
  18   1 H      0.107  0.893  0.000  0.000     1.722     2.052
  19   1 H      0.117  0.883  0.000  0.000     1.642     2.004
  20   1 H      0.287  0.713  0.000  0.000     0.753     1.359
  21   1 H      0.306  0.694  0.000  0.000     0.697     1.308
  22   1 H      0.289  0.711  0.000  0.000     0.748     1.354
  23   7 N     -0.372  1.326  4.046  0.000    29.598     8.080
  24   6 C     -0.010  1.045  2.965  0.000    20.830     6.512
  25   6 C      0.240  1.057  2.703  0.000    22.993     7.852
  26   8 O     -0.533  1.764  4.769  0.000    24.518     6.639
  27   1 H      0.144  0.856  0.000  0.000     1.443     1.882
  28   1 H      0.051  0.949  0.000  0.000     2.311     2.377
  29   1 H      0.074  0.926  0.000  0.000     2.046     2.237
  30   7 N     -0.067  1.229  3.837  0.000    22.530     7.050
  31   6 C      0.004  1.071  2.925  0.000    20.498     6.443
  32   6 C      0.266  1.044  2.690  0.000    22.508     7.769
  33   8 O     -0.540  1.767  4.774  0.000    24.697     6.663
  34   6 C     -0.073  1.053  3.020  0.000    21.874     6.655
  35   6 C     -0.069  1.047  3.022  0.000    21.795     6.642
  36   6 C     -0.011  1.052  2.959  0.000    20.831     6.508
  37   1 H      0.080  0.920  0.000  0.000     1.976     2.198
  38   1 H      0.056  0.944  0.000  0.000     2.245     2.343
  39   1 H      0.072  0.928  0.000  0.000     2.061     2.245
  40   1 H      0.057  0.943  0.000  0.000     2.234     2.338
  41   1 H      0.056  0.944  0.000  0.000     2.247     2.344
  42   1 H      0.078  0.922  0.000  0.000     1.997     2.210
  43   1 H      0.077  0.923  0.000  0.000     2.011     2.217
  44   7 N     -0.127  1.238  3.890  0.000    23.763     7.240
  45   6 C      0.020  1.061  2.919  0.000    20.245     6.407
  46   6 C      0.193  1.096  2.711  0.000    23.870     8.001
  47   8 O     -0.390  1.781  4.609  0.000    21.491     6.215
  48   6 C     -0.071  1.057  3.014  0.000    21.847     6.653
  49   6 C     -0.019  1.058  2.961  0.000    20.869     6.497
  50   6 C     -0.126  1.044  3.083  0.000    22.975     6.834
  51   6 C     -0.127  1.042  3.085  0.000    22.989     6.836
  52   1 H      0.227  0.773  0.000  0.000     0.978     1.549
  53   1 H      0.113  0.887  0.000  0.000     1.672     2.022
  54   1 H      0.061  0.939  0.000  0.000     2.187     2.312
  55   1 H      0.066  0.934  0.000  0.000     2.126     2.280
  56   1 H      0.050  0.950  0.000  0.000     2.324     2.384
  57   1 H      0.062  0.938  0.000  0.000     2.177     2.308
  58   1 H      0.047  0.953  0.000  0.000     2.360     2.402
  59   1 H      0.044  0.956  0.000  0.000     2.392     2.419
  60   1 H      0.051  0.949  0.000  0.000     2.303     2.373
  61   1 H      0.043  0.957  0.000  0.000     2.415     2.430
  62   1 H      0.046  0.954  0.000  0.000     2.371     2.408
  63   7 N     -0.397  1.329  4.068  0.000    30.292     8.174
  64   6 C      0.040  1.055  2.905  0.000    19.925     6.359
  65   6 C      0.187  1.100  2.713  0.000    23.985     8.021
  66   8 O     -0.380  1.775  4.605  0.000    21.292     6.186
  67   6 C      0.088  1.038  2.874  0.000    19.321     6.296
  68   8 O     -0.493  1.736  4.757  0.000    22.752     6.439
  69   1 H      0.176  0.824  0.000  0.000     1.235     1.741
  70   1 H      0.073  0.927  0.000  0.000     2.050     2.239
  71   1 H      0.043  0.957  0.000  0.000     2.416     2.431
  72   1 H      0.033  0.967  0.000  0.000     2.549     2.497
  73   1 H      0.353  0.647  0.000  0.000     0.582     1.199
  74   7 N     -0.385  1.348  4.037  0.000    29.962     8.130
  75   6 C      0.038  1.059  2.903  0.000    19.942     6.360
  76   6 C      0.191  1.091  2.718  0.000    23.921     8.010
  77   8 O     -0.406  1.769  4.637  0.000    21.803     6.260
  78   6 C     -0.047  1.045  3.002  0.000    21.409     6.586
  79   6 C     -0.028  1.063  2.965  0.000    28.618     8.771
  80   6 C     -0.003  1.064  2.939  0.000    28.045     8.684
  81   6 C     -0.018  1.070  2.948  0.000    28.136     8.672
  82   7 N     -0.095  1.220  3.875  0.000    23.092     7.137
  83   6 C      0.040  1.055  2.905  0.000    26.962     8.507
  84   6 C     -0.039  1.080  2.959  0.000    28.974     8.826
  85   6 C     -0.054  1.067  2.986  0.000    29.329     8.880
  86   6 C     -0.056  1.076  2.980  0.000    29.391     8.890
  87   6 C     -0.045  1.074  2.970  0.000    29.112     8.849
  88   1 H      0.162  0.838  0.000  0.000     1.324     1.803
  89   1 H      0.077  0.923  0.000  0.000     2.007     2.216
  90   1 H      0.040  0.960  0.000  0.000     2.451     2.448
  91   1 H      0.045  0.955  0.000  0.000     2.380     2.412
  92   1 H      0.040  0.960  0.000  0.000     2.452     2.448
  93   1 H      0.189  0.811  0.000  0.000     1.162     1.689
  94   1 H      0.020  0.980  0.000  0.000     2.740     2.588
  95   1 H      0.056  0.944  0.000  0.000     2.249     2.345
  96   1 H      0.026  0.974  0.000  0.000     2.650     2.545
  97   1 H      0.036  0.964  0.000  0.000     2.504     2.475
  98   7 N     -0.374  1.326  4.048  0.000    29.664     8.089
  99   6 C      0.032  1.058  2.909  0.000    20.038     6.375
 100   6 C      0.271  1.039  2.690  0.000    22.424     7.755
 101   8 O     -0.550  1.762  4.788  0.000    24.912     6.692
 102   6 C     -0.056  1.055  3.001  0.000    21.586     6.614
 103   6 C     -0.087  1.055  3.032  0.000    22.152     6.700
 104   6 C      0.270  1.031  2.699  0.000    22.433     7.755
 105   8 O     -0.569  1.811  4.758  0.000    25.369     6.753
 106   7 N     -0.219  1.250  3.969  0.000    25.791     7.542
 107   1 H      0.154  0.846  0.000  0.000     1.376     1.838
 108   1 H      0.050  0.950  0.000  0.000     2.317     2.381
 109   1 H      0.021  0.979  0.000  0.000     2.726     2.582
 110   1 H      0.045  0.955  0.000  0.000     2.384     2.415
 111   1 H      0.053  0.947  0.000  0.000     2.283     2.363
 112   1 H      0.076  0.924  0.000  0.000     2.018     2.222
 113   1 H      0.233  0.767  0.000  0.000     0.951     1.528
 114   1 H      0.226  0.774  0.000  0.000     0.983     1.553
 115   7 N     -0.155  1.245  3.910  0.000    24.364     7.331
 116   6 C      0.009  1.064  2.926  0.000    20.407     6.429
 117   6 C      0.274  1.038  2.688  0.000    22.363     7.744
 118   8 O     -0.517  1.740  4.777  0.000    24.172     6.592
 119   6 C     -0.015  1.053  2.961  0.000    20.798     6.486
 120   6 C     -0.119  1.037  3.082  0.000    22.834     6.812
 121   6 C     -0.128  1.041  3.087  0.000    23.013     6.839
 122   1 H      0.229  0.771  0.000  0.000     0.968     1.541
 123   1 H      0.083  0.917  0.000  0.000     1.946     2.181
 124   1 H      0.046  0.954  0.000  0.000     2.367     2.406
 125   1 H      0.057  0.943  0.000  0.000     2.240     2.341
 126   1 H      0.031  0.969  0.000  0.000     2.575     2.509
 127   1 H      0.047  0.953  0.000  0.000     2.352     2.398
 128   1 H      0.056  0.944  0.000  0.000     2.251     2.346
 129   1 H      0.056  0.944  0.000  0.000     2.247     2.344
 130   1 H      0.051  0.949  0.000  0.000     2.309     2.376
 131   7 N     -0.152  1.247  3.905  0.000    24.283     7.319
 132   6 C      0.038  1.049  2.913  0.000    19.933     6.357
 133   6 C      0.256  1.056  2.689  0.000    22.701     7.803
 134   8 O     -0.500  1.739  4.761  0.000    23.776     6.537
 135   6 C     -0.109  1.036  3.073  0.000    22.629     6.781
 136   1 H      0.227  0.773  0.000  0.000     0.976     1.548
 137   1 H      0.058  0.942  0.000  0.000     2.222     2.331
 138   1 H      0.051  0.949  0.000  0.000     2.302     2.373
 139   1 H      0.083  0.917  0.000  0.000     1.950     2.184
 140   1 H      0.063  0.937  0.000  0.000     2.159     2.298
 141   7 N     -0.080  1.238  3.842  0.000    22.792     7.091
 142   6 C      0.028  1.062  2.910  0.000    20.082     6.376
 143   6 C      0.274  1.032  2.695  0.000    22.375     7.747
 144   8 O     -0.558  1.771  4.787  0.000    25.105     6.718
 145   6 C     -0.060  1.048  3.012  0.000    21.625     6.615
 146   6 C     -0.057  1.043  3.015  0.000    21.574     6.607
 147   6 C     -0.003  1.050  2.954  0.000    20.666     6.477
 148   1 H      0.054  0.946  0.000  0.000     2.269     2.356
 149   1 H      0.051  0.949  0.000  0.000     2.311     2.377
 150   1 H      0.063  0.937  0.000  0.000     2.161     2.299
 151   1 H      0.058  0.942  0.000  0.000     2.221     2.331
 152   1 H      0.059  0.941  0.000  0.000     2.207     2.323
 153   1 H      0.051  0.949  0.000  0.000     2.310     2.377
 154   1 H      0.073  0.927  0.000  0.000     2.050     2.239
 155   7 N     -0.160  1.253  3.907  0.000    24.453     7.344
 156   6 C      0.030  1.054  2.916  0.000    20.056     6.374
 157   6 C      0.277  1.035  2.688  0.000    22.316     7.736
 158   8 O     -0.535  1.768  4.767  0.000    24.584     6.648
 159   6 C     -0.090  1.054  3.036  0.000    22.197     6.705
 160   6 C      0.275  1.036  2.690  0.000    22.357     7.742
 161   8 O     -0.573  1.782  4.792  0.000    25.465     6.766
 162   7 N     -0.225  1.257  3.968  0.000    25.923     7.562
 163   1 H      0.237  0.763  0.000  0.000     0.937     1.517
 164   1 H      0.089  0.911  0.000  0.000     1.894     2.152
 165   1 H      0.085  0.915  0.000  0.000     1.928     2.171
 166   1 H      0.065  0.935  0.000  0.000     2.145     2.291
 167   1 H      0.257  0.743  0.000  0.000     0.857     1.450
 168   1 H      0.244  0.756  0.000  0.000     0.908     1.493
 169   7 N     -0.134  1.243  3.891  0.000    23.903     7.261
 170   6 C      0.035  1.061  2.904  0.000    19.991     6.367
 171   6 C      0.198  1.101  2.701  0.000    23.774     7.985
 172   8 O     -0.388  1.793  4.596  0.000    21.453     6.210
 173   6 C     -0.139  1.046  3.093  0.000    23.238     6.874
 174   1 H      0.228  0.772  0.000  0.000     0.976     1.548
 175   1 H      0.090  0.910  0.000  0.000     1.884     2.146
 176   1 H      0.084  0.916  0.000  0.000     1.936     2.176
 177   1 H      0.087  0.913  0.000  0.000     1.912     2.162
 178   1 H      0.082  0.918  0.000  0.000     1.962     2.190
 179   7 N     -0.382  1.333  4.048  0.000    29.864     8.116
 180   6 C      0.044  1.053  2.903  0.000    19.857     6.348
 181   6 C      0.190  1.102  2.708  0.000    23.931     8.011
 182   8 O     -0.386  1.795  4.591  0.000    21.410     6.204
 183   6 C     -0.071  1.059  3.012  0.000    21.846     6.653
 184   6 C      0.004  1.084  2.912  0.000    27.930     8.669
 185   6 C     -0.041  1.080  2.961  0.000    29.020     8.834
 186   6 C     -0.040  1.083  2.957  0.000    28.994     8.830
 187   6 C     -0.040  1.081  2.959  0.000    28.995     8.830
 188   6 C     -0.028  1.079  2.948  0.000    28.689     8.783
 189   6 C     -0.039  1.080  2.959  0.000    28.959     8.825
 190   1 H      0.166  0.834  0.000  0.000     1.296     1.784
 191   1 H      0.049  0.951  0.000  0.000     2.331     2.388
 192   1 H      0.061  0.939  0.000  0.000     2.190     2.314
 193   1 H      0.058  0.942  0.000  0.000     2.225     2.333
 194   1 H      0.039  0.961  0.000  0.000     2.461     2.453
 195   1 H      0.027  0.973  0.000  0.000     2.636     2.539
 196   1 H      0.046  0.954  0.000  0.000     2.365     2.405
 197   1 H      0.033  0.967  0.000  0.000     2.537     2.491
 198   1 H      0.036  0.964  0.000  0.000     2.496     2.471
 199   7 N     -0.396  1.338  4.058  0.000    30.268     8.171
 200   6 C      0.041  1.058  2.901  0.000    19.893     6.352
 201   6 C      0.192  1.103  2.706  0.000    23.905     8.007
 202   8 O     -0.376  1.768  4.608  0.000    21.204     6.174
 203   6 C     -0.010  1.056  2.954  0.000    20.716     6.473
 204   6 C     -0.113  1.038  3.076  0.000    22.713     6.793
 205   6 C     -0.115  1.039  3.076  0.000    22.748     6.799
 206   1 H      0.173  0.827  0.000  0.000     1.252     1.753
 207   1 H      0.047  0.953  0.000  0.000     2.356     2.400
 208   1 H      0.044  0.956  0.000  0.000     2.400     2.422
 209   1 H      0.062  0.938  0.000  0.000     2.170     2.304
 210   1 H      0.035  0.965  0.000  0.000     2.512     2.478
 211   1 H      0.036  0.964  0.000  0.000     2.501     2.473
 212   1 H      0.061  0.939  0.000  0.000     2.183     2.311
 213   1 H      0.039  0.961  0.000  0.000     2.459     2.452
 214   1 H      0.043  0.957  0.000  0.000     2.407     2.426
 215   7 N     -0.410  1.327  4.083  0.000    30.655     8.223
 216   6 C      0.048  1.051  2.901  0.000    19.788     6.337
 217   6 C      0.190  1.104  2.707  0.000    23.939     8.013
 218   8 O     -0.382  1.781  4.601  0.000    21.330     6.192
 219   6 C     -0.064  1.053  3.011  0.000    21.711     6.632
 220   6 C     -0.008  1.052  2.956  0.000    20.691     6.470
 221   6 C     -0.111  1.040  3.071  0.000    22.672     6.788
 222   6 C     -0.124  1.040  3.083  0.000    22.916     6.824
 223   1 H      0.186  0.814  0.000  0.000     1.179     1.701
 224   1 H      0.045  0.955  0.000  0.000     2.385     2.415
 225   1 H      0.039  0.961  0.000  0.000     2.464     2.455
 226   1 H      0.040  0.960  0.000  0.000     2.443     2.444
 227   1 H      0.030  0.970  0.000  0.000     2.590     2.517
 228   1 H      0.049  0.951  0.000  0.000     2.328     2.386
 229   1 H      0.037  0.963  0.000  0.000     2.485     2.465
 230   1 H      0.036  0.964  0.000  0.000     2.505     2.475
 231   1 H      0.046  0.954  0.000  0.000     2.366     2.406
 232   1 H      0.039  0.961  0.000  0.000     2.457     2.451
 233   1 H      0.044  0.956  0.000  0.000     2.397     2.421
 234   7 N     -0.389  1.345  4.044  0.000    30.062     8.143
 235   6 C      0.030  1.066  2.904  0.000    20.071     6.380
 236   6 C      0.275  1.045  2.680  0.000    22.344     7.741
 237   8 O     -0.526  1.756  4.770  0.000    24.372     6.619
 238   6 C     -0.017  1.060  2.957  0.000    20.842     6.493
 239   6 C     -0.056  1.047  3.009  0.000    21.568     6.611
 240   6 C     -0.102  1.034  3.068  0.000    22.502     6.763
 241   6 C     -0.115  1.038  3.077  0.000    22.752     6.802
 242   1 H      0.155  0.845  0.000  0.000     1.366     1.831
 243   1 H      0.022  0.978  0.000  0.000     2.702     2.571
 244   1 H      0.045  0.955  0.000  0.000     2.389     2.417
 245   1 H      0.021  0.979  0.000  0.000     2.715     2.577
 246   1 H      0.030  0.970  0.000  0.000     2.582     2.513
 247   1 H      0.055  0.945  0.000  0.000     2.259     2.350
 248   1 H      0.023  0.977  0.000  0.000     2.685     2.563
 249   1 H      0.029  0.971  0.000  0.000     2.600     2.522
 250   1 H      0.040  0.960  0.000  0.000     2.448     2.447
 251   1 H      0.039  0.961  0.000  0.000     2.462     2.454
 252   1 H      0.057  0.943  0.000  0.000     2.235     2.338
 253   7 N     -0.164  1.241  3.923  0.000    24.552     7.359
 254   6 C      0.025  1.057  2.918  0.000    20.159     6.393
 255   6 C      0.184  1.105  2.711  0.000    24.056     8.032
 256   8 O     -0.377  1.767  4.610  0.000    21.234     6.178
 257   6 C     -0.058  1.051  3.008  0.000    21.620     6.619
 258   6 C     -0.088  1.060  3.028  0.000    22.183     6.705
 259   6 C      0.265  1.043  2.692  0.000    22.530     7.772
 260   8 O     -0.633  1.825  4.808  0.000    26.954     6.961
 261   7 N     -0.180  1.247  3.933  0.000    24.903     7.411
 262   1 H      0.229  0.771  0.000  0.000     0.970     1.543
 263   1 H      0.111  0.889  0.000  0.000     1.684     2.030
 264   1 H      0.074  0.926  0.000  0.000     2.038     2.233
 265   1 H      0.075  0.925  0.000  0.000     2.032     2.229
 266   1 H      0.064  0.936  0.000  0.000     2.154     2.295
 267   1 H      0.083  0.917  0.000  0.000     1.953     2.186
 268   1 H      0.255  0.745  0.000  0.000     0.863     1.456
 269   1 H      0.240  0.760  0.000  0.000     0.924     1.506
 270   7 N     -0.378  1.318  4.061  0.000    29.780     8.105
 271   6 C      0.038  1.057  2.905  0.000    19.950     6.362
 272   6 C      0.192  1.097  2.711  0.000    23.897     8.006
 273   8 O     -0.402  1.789  4.612  0.000    21.716     6.248
 274   6 C     -0.017  1.065  2.953  0.000    20.850     6.494
 275   6 C     -0.114  1.038  3.077  0.000    22.742     6.799
 276   6 C     -0.115  1.040  3.074  0.000    22.746     6.800
 277   1 H      0.166  0.834  0.000  0.000     1.296     1.783
 278   1 H      0.055  0.945  0.000  0.000     2.261     2.351
 279   1 H      0.042  0.958  0.000  0.000     2.419     2.432
 280   1 H      0.053  0.947  0.000  0.000     2.288     2.365
 281   1 H      0.040  0.960  0.000  0.000     2.449     2.447
 282   1 H      0.056  0.944  0.000  0.000     2.242     2.342
 283   1 H      0.051  0.949  0.000  0.000     2.308     2.376
 284   1 H      0.054  0.946  0.000  0.000     2.270     2.356
 285   1 H      0.030  0.970  0.000  0.000     2.580     2.512
 286   7 N     -0.388  1.332  4.056  0.000    30.042     8.140
 287   6 C      0.039  1.063  2.898  0.000    19.944     6.362
 288   6 C      0.260  1.054  2.686  0.000    22.620     7.788
 289   8 O     -0.558  1.789  4.769  0.000    25.115     6.719
 290   6 C     -0.067  1.062  3.005  0.000    21.771     6.642
 291   6 C     -0.013  1.053  2.961  0.000    20.778     6.483
 292   6 C     -0.119  1.041  3.078  0.000    22.825     6.811
 293   6 C     -0.116  1.040  3.076  0.000    22.776     6.803
 294   1 H      0.151  0.849  0.000  0.000     1.395     1.850
 295   1 H      0.030  0.970  0.000  0.000     2.582     2.513
 296   1 H      0.046  0.954  0.000  0.000     2.375     2.410
 297   1 H      0.043  0.957  0.000  0.000     2.413     2.429
 298   1 H      0.018  0.982  0.000  0.000     2.760     2.598
 299   1 H      0.050  0.950  0.000  0.000     2.322     2.383
 300   1 H      0.024  0.976  0.000  0.000     2.667     2.554
 301   1 H      0.048  0.952  0.000  0.000     2.340     2.392
 302   1 H      0.050  0.950  0.000  0.000     2.316     2.380
 303   1 H      0.043  0.957  0.000  0.000     2.403     2.424
 304   1 H      0.045  0.955  0.000  0.000     2.382     2.414
 305   7 N     -0.132  1.241  3.890  0.000    23.862     7.255
 306   6 C      0.019  1.072  2.909  0.000    20.261     6.409
 307   6 C      0.271  1.034  2.695  0.000    22.417     7.754
 308   8 O     -0.537  1.760  4.777  0.000    24.620     6.653
 309   6 C     -0.016  1.059  2.957  0.000    20.821     6.489
 310   6 C     -0.060  1.045  3.016  0.000    21.657     6.625
 311   6 C     -0.110  1.036  3.074  0.000    22.653     6.786
 312   6 C     -0.107  1.034  3.074  0.000    22.608     6.780
 313   1 H      0.195  0.805  0.000  0.000     1.131     1.666
 314   1 H      0.068  0.932  0.000  0.000     2.109     2.271
 315   1 H      0.053  0.947  0.000  0.000     2.279     2.361
 316   1 H      0.036  0.964  0.000  0.000     2.498     2.471
 317   1 H      0.044  0.956  0.000  0.000     2.394     2.420
 318   1 H      0.056  0.944  0.000  0.000     2.242     2.342
 319   1 H      0.029  0.971  0.000  0.000     2.599     2.521
 320   1 H      0.042  0.958  0.000  0.000     2.418     2.432
 321   1 H      0.044  0.956  0.000  0.000     2.399     2.422
 322   1 H      0.041  0.959  0.000  0.000     2.434     2.440
 323   1 H      0.034  0.966  0.000  0.000     2.537     2.491
 324   7 N     -0.130  1.239  3.891  0.000    23.816     7.248
 325   6 C      0.039  1.061  2.900  0.000    19.918     6.354
 326   6 C      0.271  1.042  2.687  0.000    22.420     7.754
 327   8 O     -0.570  1.804  4.766  0.000    25.398     6.757
 328   6 C     -0.078  1.048  3.030  0.000    21.968     6.671
 329   6 C      0.008  1.075  2.917  0.000    27.836     8.654
 330   6 C     -0.048  1.080  2.968  0.000    29.199     8.862
 331   6 C     -0.042  1.083  2.959  0.000    29.033     8.837
 332   6 C     -0.039  1.082  2.957  0.000    28.980     8.829
 333   6 C     -0.031  1.076  2.955  0.000    28.778     8.798
 334   6 C     -0.034  1.078  2.955  0.000    28.836     8.806
 335   1 H      0.210  0.790  0.000  0.000     1.058     1.612
 336   1 H      0.060  0.940  0.000  0.000     2.205     2.322
 337   1 H      0.067  0.933  0.000  0.000     2.120     2.277
 338   1 H      0.063  0.937  0.000  0.000     2.160     2.298
 339   1 H      0.052  0.948  0.000  0.000     2.289     2.366
 340   1 H      0.027  0.973  0.000  0.000     2.636     2.539
 341   1 H      0.057  0.943  0.000  0.000     2.238     2.339
 342   1 H      0.042  0.958  0.000  0.000     2.428     2.437
 343   1 H      0.053  0.947  0.000  0.000     2.281     2.362
 344   7 N     -0.136  1.247  3.890  0.000    23.952     7.269
 345   6 C      0.025  1.065  2.909  0.000    20.153     6.392
 346   6 C      0.283  1.034  2.683  0.000    22.210     7.717
 347   8 O     -0.559  1.787  4.772  0.000    25.119     6.720
 348   6 C     -0.119  1.065  3.054  0.000    22.772     6.793
 349   6 C      0.280  1.037  2.683  0.000    22.259     7.725
 350   8 O     -0.551  1.794  4.758  0.000    24.954     6.698
 351   7 N     -0.246  1.257  3.989  0.000    26.407     7.632
 352   1 H      0.221  0.779  0.000  0.000     1.005     1.570
 353   1 H      0.102  0.898  0.000  0.000     1.764     2.077
 354   1 H      0.106  0.894  0.000  0.000     1.727     2.055
 355   1 H      0.095  0.905  0.000  0.000     1.835     2.118
 356   1 H      0.255  0.745  0.000  0.000     0.865     1.457
 357   1 H      0.238  0.762  0.000  0.000     0.931     1.512
 358   7 N     -0.124  1.224  3.899  0.000    23.689     7.229
 359   6 C      0.007  1.064  2.929  0.000    20.461     6.440
 360   6 C      0.273  1.031  2.696  0.000    22.389     7.749
 361   8 O     -0.546  1.774  4.772  0.000    24.822     6.680
 362   6 C      0.044  1.041  2.914  0.000    20.048     6.415
 363   8 O     -0.470  1.721  4.749  0.000    22.260     6.369
 364   1 H      0.209  0.791  0.000  0.000     1.063     1.615
 365   1 H      0.098  0.902  0.000  0.000     1.806     2.102
 366   1 H      0.078  0.922  0.000  0.000     2.001     2.212
 367   1 H      0.066  0.934  0.000  0.000     2.129     2.282
 368   1 H      0.364  0.636  0.000  0.000     0.557     1.173
 369   7 N     -0.144  1.239  3.905  0.000    24.121     7.294
 370   6 C      0.022  1.061  2.917  0.000    20.198     6.397
 371   6 C      0.255  1.040  2.705  0.000    22.708     7.804
 372   8 O     -0.539  1.767  4.772  0.000    24.670     6.659
 373   6 C     -0.068  1.060  3.008  0.000    21.795     6.647
 374   6 C     -0.100  1.071  3.029  0.000    22.413     6.742
 375   6 C      0.359  1.034  2.607  0.000    20.908     7.483
 376   8 O     -0.563  1.718  4.845  0.000    25.226     6.734
 377   8 O     -0.682  1.822  4.860  0.000    28.221     7.122
 378   1 H      0.224  0.776  0.000  0.000     0.990     1.558
 379   1 H      0.092  0.908  0.000  0.000     1.859     2.132
 380   1 H      0.057  0.943  0.000  0.000     2.239     2.340
 381   1 H      0.079  0.921  0.000  0.000     1.992     2.207
 382   1 H      0.012  0.988  0.000  0.000     2.862     2.645
 383   1 H      0.046  0.954  0.000  0.000     2.372     2.408
 384   7 N     -0.158  1.238  3.919  0.000    24.409     7.338
 385   6 C      0.006  1.074  2.920  0.000    20.482     6.444
 386   6 C      0.266  1.035  2.699  0.000    22.518     7.771
 387   8 O     -0.528  1.760  4.768  0.000    24.416     6.625
 388   6 C     -0.083  1.057  3.026  0.000    22.087     6.691
 389   6 C      0.059  1.060  2.881  0.000    25.908     8.266
 390   7 N     -0.359  1.518  3.841  0.000    30.108     8.139
 391   6 C     -0.044  1.055  2.989  0.000    28.803     8.777
 392   6 C      0.101  1.035  2.865  0.000    25.211     8.177
 393   7 N     -0.027  1.227  3.799  0.000    21.758     6.928
 394   1 H      0.236  0.764  0.000  0.000     0.940     1.519
 395   1 H      0.105  0.895  0.000  0.000     1.744     2.065
 396   1 H      0.074  0.926  0.000  0.000     2.044     2.236
 397   1 H      0.091  0.909  0.000  0.000     1.871     2.139
 398   1 H      0.040  0.960  0.000  0.000     2.452     2.449
 399   1 H      0.045  0.955  0.000  0.000     2.385     2.415
 400   1 H      0.202  0.798  0.000  0.000     1.096     1.641
 401   7 N     -0.142  1.232  3.910  0.000    24.086     7.289
 402   6 C      0.010  1.070  2.920  0.000    20.401     6.430
 403   6 C      0.262  1.042  2.696  0.000    22.577     7.781
 404   8 O     -0.535  1.772  4.763  0.000    24.577     6.647
 405   6 C     -0.065  1.044  3.021  0.000    21.744     6.638
 406   6 C     -0.113  1.058  3.055  0.000    22.647     6.774
 407   6 C      0.263  1.038  2.699  0.000    22.560     7.777
 408   8 O     -0.542  1.782  4.760  0.000    24.738     6.668
 409   7 N     -0.242  1.250  3.991  0.000    26.311     7.618
 410   1 H      0.202  0.798  0.000  0.000     1.094     1.639
 411   1 H      0.114  0.886  0.000  0.000     1.660     2.015
 412   1 H      0.068  0.932  0.000  0.000     2.108     2.270
 413   1 H      0.094  0.906  0.000  0.000     1.844     2.124
 414   1 H      0.087  0.913  0.000  0.000     1.907     2.159
 415   1 H      0.083  0.917  0.000  0.000     1.946     2.182
 416   1 H      0.241  0.759  0.000  0.000     0.919     1.502
 417   1 H      0.231  0.769  0.000  0.000     0.960     1.535
 418   7 N     -0.125  1.229  3.896  0.000    23.718     7.233
 419   6 C      0.006  1.077  2.918  0.000    20.483     6.444
 420   6 C      0.258  1.041  2.701  0.000    22.648     7.794
 421   8 O     -0.540  1.770  4.770  0.000    24.688     6.662
 422   6 C     -0.022  1.060  2.962  0.000    20.933     6.507
 423   6 C     -0.131  1.038  3.092  0.000    23.061     6.846
 424   6 C     -0.122  1.041  3.081  0.000    22.893     6.821
 425   1 H      0.220  0.780  0.000  0.000     1.011     1.575
 426   1 H      0.069  0.931  0.000  0.000     2.091     2.262
 427   1 H      0.060  0.940  0.000  0.000     2.195     2.317
 428   1 H      0.070  0.930  0.000  0.000     2.086     2.259
 429   1 H      0.055  0.945  0.000  0.000     2.262     2.352
 430   1 H      0.048  0.952  0.000  0.000     2.343     2.394
 431   1 H      0.069  0.931  0.000  0.000     2.101     2.267
 432   1 H      0.048  0.952  0.000  0.000     2.351     2.398
 433   1 H      0.042  0.958  0.000  0.000     2.426     2.436
 434   7 N     -0.129  1.237  3.893  0.000    23.809     7.247
 435   6 C      0.007  1.064  2.929  0.000    20.446     6.436
 436   6 C      0.264  1.039  2.698  0.000    22.553     7.777
 437   8 O     -0.516  1.752  4.764  0.000    24.146     6.588
 438   6 C     -0.075  1.054  3.021  0.000    21.923     6.665
 439   6 C     -0.016  1.054  2.962  0.000    20.832     6.492
 440   6 C     -0.113  1.039  3.074  0.000    22.709     6.794
 441   6 C     -0.129  1.042  3.087  0.000    23.033     6.842
 442   1 H      0.236  0.764  0.000  0.000     0.941     1.520
 443   1 H      0.086  0.914  0.000  0.000     1.917     2.165
 444   1 H      0.062  0.938  0.000  0.000     2.172     2.305
 445   1 H      0.061  0.939  0.000  0.000     2.192     2.315
 446   1 H      0.027  0.973  0.000  0.000     2.625     2.534
 447   1 H      0.038  0.962  0.000  0.000     2.481     2.463
 448   1 H      0.038  0.962  0.000  0.000     2.481     2.463
 449   1 H      0.049  0.951  0.000  0.000     2.330     2.387
 450   1 H      0.056  0.944  0.000  0.000     2.241     2.341
 451   1 H      0.056  0.944  0.000  0.000     2.251     2.346
 452   1 H      0.038  0.962  0.000  0.000     2.477     2.461
 453   7 N     -0.156  1.248  3.908  0.000    24.373     7.332
 454   6 C      0.006  1.074  2.921  0.000    20.485     6.444
 455   6 C      0.247  1.041  2.712  0.000    22.856     7.830
 456   8 O     -0.551  1.785  4.766  0.000    24.954     6.698
 457   6 C     -0.085  1.060  3.026  0.000    22.126     6.697
 458   6 C     -0.080  1.050  3.030  0.000    22.022     6.681
 459   6 C     -0.097  1.056  3.040  0.000    22.340     6.729
 460   6 C     -0.041  1.057  2.984  0.000    21.396     6.602
 461   7 N     -0.151  1.239  3.913  0.000    24.257     7.315
 462   1 H      0.235  0.765  0.000  0.000     0.943     1.521
 463   1 H      0.106  0.894  0.000  0.000     1.734     2.059
 464   1 H      0.072  0.928  0.000  0.000     2.067     2.248
 465   1 H      0.101  0.899  0.000  0.000     1.775     2.084
 466   1 H      0.060  0.940  0.000  0.000     2.201     2.320
 467   1 H      0.062  0.938  0.000  0.000     2.179     2.309
 468   1 H      0.085  0.915  0.000  0.000     1.927     2.171
 469   1 H      0.089  0.911  0.000  0.000     1.885     2.147
 470   1 H      0.106  0.894  0.000  0.000     1.729     2.056
 471   1 H      0.104  0.896  0.000  0.000     1.752     2.070
 472   1 H      0.290  0.710  0.000  0.000     0.745     1.352
 473   1 H      0.295  0.705  0.000  0.000     0.728     1.337
 474   1 H      0.261  0.739  0.000  0.000     0.841     1.437
 475   7 N     -0.128  1.235  3.892  0.000    23.778     7.242
 476   6 C      0.016  1.066  2.918  0.000    20.300     6.414
 477   6 C      0.270  1.032  2.698  0.000    22.440     7.758
 478   8 O     -0.506  1.757  4.749  0.000    23.907     6.556
 479   6 C     -0.106  1.064  3.042  0.000    22.520     6.755
 480   6 C      0.285  1.032  2.683  0.000    22.173     7.710
 481   8 O     -0.554  1.782  4.773  0.000    25.023     6.707
 482   7 N     -0.256  1.267  3.989  0.000    26.665     7.669
 483   1 H      0.220  0.780  0.000  0.000     1.010     1.574
 484   1 H      0.109  0.891  0.000  0.000     1.701     2.040
 485   1 H      0.102  0.898  0.000  0.000     1.771     2.081
 486   1 H      0.081  0.919  0.000  0.000     1.969     2.195
 487   1 H      0.235  0.765  0.000  0.000     0.945     1.523
 488   1 H      0.255  0.745  0.000  0.000     0.863     1.455
 489   7 N     -0.147  1.236  3.911  0.000    24.186     7.304
 490   6 C      0.032  1.069  2.899  0.000    20.043     6.375
 491   6 C      0.233  1.052  2.715  0.000    23.116     7.873
 492   8 O     -0.564  1.851  4.713  0.000    25.249     6.737
 493   6 C     -0.083  1.060  3.023  0.000    22.084     6.689
 494   6 C      0.283  1.026  2.691  0.000    22.214     7.717
 495   8 O     -0.596  1.818  4.778  0.000    26.015     6.838
 496   7 N     -0.197  1.242  3.955  0.000    25.281     7.468
 497   1 H      0.207  0.793  0.000  0.000     1.072     1.622
 498   1 H      0.096  0.904  0.000  0.000     1.824     2.112
 499   1 H      0.072  0.928  0.000  0.000     2.062     2.245
 500   1 H      0.076  0.924  0.000  0.000     2.020     2.223
 501   1 H      0.251  0.749  0.000  0.000     0.878     1.468
 502   1 H      0.244  0.756  0.000  0.000     0.906     1.491
 503   7 N     -0.090  1.221  3.869  0.000    23.000     7.123
 504   6 C      0.004  1.073  2.924  0.000    20.524     6.451
 505   6 C      0.261  1.038  2.701  0.000    22.607     7.786
 506   8 O     -0.509  1.752  4.757  0.000    23.984     6.566
 507   6 C      0.121  1.042  2.837  0.000    18.694     6.173
 508   8 O     -0.482  1.724  4.758  0.000    22.504     6.404
 509   6 C     -0.141  1.042  3.099  0.000    23.264     6.877
 510   1 H      0.217  0.783  0.000  0.000     1.022     1.583
 511   1 H      0.105  0.895  0.000  0.000     1.740     2.063
 512   1 H      0.036  0.964  0.000  0.000     2.498     2.472
 513   1 H      0.321  0.679  0.000  0.000     0.662     1.278
 514   1 H      0.072  0.928  0.000  0.000     2.064     2.247
 515   1 H      0.059  0.941  0.000  0.000     2.210     2.325
 516   1 H      0.076  0.924  0.000  0.000     2.021     2.223
 517   7 N     -0.138  1.235  3.903  0.000    24.001     7.276
 518   6 C      0.022  1.059  2.919  0.000    20.206     6.401
 519   6 C      0.187  1.083  2.729  0.000    23.988     8.022
 520   8 O     -0.356  1.772  4.584  0.000    20.819     6.117
 521   6 C     -0.079  1.053  3.026  0.000    22.002     6.676
 522   6 C     -0.008  1.078  2.930  0.000    28.223     8.714
 523   6 C     -0.047  1.085  2.961  0.000    29.158     8.855
 524   6 C     -0.037  1.081  2.956  0.000    28.925     8.820
 525   6 C     -0.054  1.071  2.984  0.000    29.344     8.883
 526   6 C     -0.065  1.075  2.990  0.000    29.615     8.924
 527   6 C      0.145  1.044  2.812  0.000    24.851     8.171
 528   8 O     -0.444  1.736  4.708  0.000    21.719     6.291
 529   1 H      0.231  0.769  0.000  0.000     0.960     1.535
 530   1 H      0.113  0.887  0.000  0.000     1.670     2.021
 531   1 H      0.073  0.927  0.000  0.000     2.054     2.242
 532   1 H      0.088  0.912  0.000  0.000     1.901     2.156
 533   1 H      0.061  0.939  0.000  0.000     2.193     2.316
 534   1 H      0.031  0.969  0.000  0.000     2.575     2.509
 535   1 H      0.068  0.932  0.000  0.000     2.112     2.273
 536   1 H      0.039  0.961  0.000  0.000     2.459     2.452
 537   1 H      0.330  0.670  0.000  0.000     0.639     1.255
 538   1 H      0.195  0.805  0.000  0.000     1.133     1.668
 539   1 H      0.080  0.920  0.000  0.000     1.974     2.197
 540   1 H      0.181  0.819  0.000  0.000     1.208     1.722
 541   1 H      0.085  0.915  0.000  0.000     1.926     2.170
 542   1 H      0.179  0.821  0.000  0.000     1.220     1.730
 543   1 H      0.080  0.920  0.000  0.000     1.977     2.199
 544   1 H      0.173  0.827  0.000  0.000     1.254     1.754
 545   1 H      0.060  0.940  0.000  0.000     2.199     2.319
 546   1 H      0.180  0.820  0.000  0.000     1.213     1.725
 547   1 H      0.095  0.905  0.000  0.000     1.831     2.116
 548   1 H      0.194  0.806  0.000  0.000     1.137     1.670
 549   1 H      0.080  0.920  0.000  0.000     1.983     2.202
 550   1 H      0.173  0.827  0.000  0.000     1.257     1.756
 551   1 H      0.075  0.925  0.000  0.000     2.034     2.230
 552   1 H      0.183  0.817  0.000  0.000     1.196     1.713
 553   1 H      0.077  0.923  0.000  0.000     2.007     2.215
 554   1 H      0.173  0.827  0.000  0.000     1.257     1.756
 555   1 H      0.111  0.889  0.000  0.000     1.691     2.033
 556   1 H      0.179  0.821  0.000  0.000     1.217     1.728
 557   1 H      0.070  0.930  0.000  0.000     2.083     2.257
 558   1 H      0.190  0.810  0.000  0.000     1.159     1.686
 559   1 H      0.099  0.901  0.000  0.000     1.794     2.095

 Mol. C6AA /au·bohr⁶  :    2858771.544701
 Mol. C8AA /au·bohr⁸  :   63666898.179897
 Mol. α(0) /au        :       2540.343555

 
molecular dipole:
                 x           y           z       tot (Debye)
 q only:       -3.532      37.793      -9.361
   full:       -2.837      36.525      -9.599      96.263
molecular quadrupole (traceless):
                xx          xy          yy          xz          yz          zz
 q only:    -1173.261    -510.583    1659.266     -67.043    -817.524    -486.005
  q+dip:    -1088.223    -502.668    1528.780     -44.458    -857.424    -440.557
   full:    -1082.803    -497.007    1520.054     -47.472    -857.434    -437.251
speedup  1.97
cpu  time for grad   57.00 s
wall time for grad   28.88 s

SCC energy    :    -854.5133487
rep           :      10.7240184
ES            :       2.6063194
AES           :      -0.0402714
AXC           :       0.3249042
disp          :      -0.7467008
XB            :       0.0000000
fix           :       0.0000000
Gborn         :       0.0000000
Gsasa         :       0.0000000
Ghb           :       0.0000000
Gshift        :       0.0000000
Gsolv         :      -0.5493459     -344.72
Etot ala COSMO:    -854.5133487
grad norm     :       1.4610177
total E       :    -843.7074873
atomizationE  :     156.0768266    97939.69
(atE without considering molecular charge,
 total energy contains solvation terms)
H-L gap (eV)  :          0.9612

------------------------------------------------------------------------
 * finished run on 2019/05/05 at 18:41:52.080     
------------------------------------------------------------------------
 total:
 * wall-time:     0 d,  0 h,  0 min, 29.911 sec
 *  cpu-time:     0 d,  0 h,  0 min, 58.847 sec
 * ratio c/w:     1.967 speedup
 SCF:
 * wall-time:     0 d,  0 h,  0 min, 29.528 sec
 *  cpu-time:     0 d,  0 h,  0 min, 58.253 sec
 * ratio c/w:     1.973 speedup

