      -----------------------------------------------------------      
     |                   =====================                   |     
     |                           x T B                           |     
     |                   =====================                   |     
     |                         S. Grimme                         |     
     |          Mulliken Center for Theoretical Chemistry        |     
     |                    University of Bonn                     |     
     |                 Version 6.0.1 (SAW181210)                 |     
      -----------------------------------------------------------      

   This program is distributed in the hope that it will be useful,
   but WITHOUT ANY WARRANTY; without even the implied warranty of
   MERCHANTABILITY or FITNESS FOR A PARTICULAR PURPOSE.
   
   FOR NON-COMMERCIAL, ACADEMIA USE ONLY.
   
   Cite this work as:
   S. Grimme, C. Bannwarth, P. Shushkov, J. Comput. Theory Chem., 2017,
   13, 1989-2009.
   C. Bannwarth, S. Ehlert and S. Grimme., ChemRxiv, 2018, preprint.
   http://doi.org/10.26434/chemrxiv.7246238.v1
   
   for sTDA-xTB:
   S. Grimme and C. Bannwarth, J. Chem. Phys., 2016, 145, 054103.
   
   in the mass-spec context:
   V. Asgeirsson, C. Bauer and S. Grimme, Chem. Sci., 2017, 8, 4879.
   
   if GBSA is used:
   P. Shushkov, F. März and S. Grimme, unpublished.
   
   for ANC optimizer:
   S. Grimme, unpublished.
   Rational Function algorithm used in ANCopt:
   F. Eckert, P. Pulay, H.-J. Werner, J. Comput. Chem., 1997, 18, 1473.
   
   with help from (in alphabetical order)
   C. Bannwarth, F. Bohle, G. Brandenburg, E. Caldeweyher, M. Checinski,
   S. Dohm, S. Ehlert, S. Ehrlich, F. März, H. Neugebauer, J. Pisarek,
   P. Pracht, P. Shushkov, and S. Spicher.
   
 * started run on 2019/05/12 at 03:17:22.118     
========================================================================
 # omp threads = 2
========================================================================
number of atoms            : 921
number of electrons        : 2484
charge                     : -3
spin                       : .0
first test random number   : .5441

########################################################################
# WARNING! Please study the warnings concerning your input carefully
#  - Process number higher than OMP_NUM_THREADS, I hope you know what you are doing.
########################################################################

           ------------------------------------------------- 
          |                 G F N 2 - x T B                 |
          | Geometry, Frequencies, Noncovalent interactions |
          |            JCTC 2018 parametrisation            |
           ------------------------------------------------- 
 
      method parameters     
 k(s)        :  1.8500
 k(p)        :  2.2300
 k(d)        :  2.2300
 k(f)        :  2.0000
 kEN (H0ij)  : -2.0000
 D4 a1       :  0.5200
 D4 a2       :  5.0000
 D4 s6       :  1.0000
 D4 s8       :  2.7000
 D4 s9       :  5.0000
 alphaj      :  2.0000

 Solvent             : h2o
 Using internal parameter file: .param_gbsa2_h2o
 Gsolv ref. state (COSMO-RS): gsolv [1 M gas/solution]
 temperature (mdtemp)       :    298.150000000000     
 dielectric constant        :    80.2000000000000     
 rho                        :    1.00000000000000     
 mass                       :    18.0000000000000     
 surface tension            :    15.5689454083859     
 probe radius               :   0.975313790000000     
 vdW radii scaling          :    1.00000000000000     
 Gshift (Eh)                :   1.857443126794793E-003
 c1                         :    1.55243817000000     
 soset                      :   0.130326360000000     
 HB correction              :  T

            Z     q(EN)     CN     RAES       Cart. coordinates
     1  N   5.0   -0.20    3.27    1.97    15.77873    70.08016   149.96745
     2  C   4.0    0.03    4.46    4.48    18.07476    69.76388   151.37696
     3  C   4.0    0.15    3.51    3.12    20.29206    69.24231   149.66550
     4  O   6.0   -0.31    1.28    1.80    20.10640    67.75894   147.90166
     5  C   4.0   -0.02    4.33    4.26    17.87806    67.43682   153.07072
     6  C   4.0   -0.07    4.16    3.91    20.40611    66.90862   154.36950
     7  C   4.0   -0.08    4.13    3.87    15.77437    67.85668   154.98059
     8  H   1.0    0.12    1.08    1.44    15.08419    68.53497   149.05799
     9  H   1.0    0.04    1.06    1.44    18.41014    71.46576   152.49730
    10  H   1.0    0.05    1.06    1.44    17.38858    65.82976   151.86235
    11  H   1.0    0.04    1.00    1.43    20.17159    65.44994   155.79584
    12  H   1.0    0.05    1.01    1.43    21.82705    66.28791   153.02564
    13  H   1.0    0.05    1.00    1.43    21.10410    68.61837   155.27677
    14  H   1.0    0.04    1.00    1.43    15.39806    66.12684   156.01880
    15  H   1.0    0.04    1.00    1.43    16.32478    69.30806   156.32712
    16  H   1.0    0.04    1.01    1.43    14.06988    68.48516   154.03508
    17  N   5.0   -0.15    3.52    2.09    22.43894    70.36345   150.34716
    18  C   4.0    0.04    4.52    4.56    24.86433    69.58954   149.35246
    19  C   4.0    0.14    3.43    3.09    26.29861    68.12937   151.42130
    20  O   6.0   -0.32    1.30    1.80    26.79856    69.17820   153.42968
    21  C   4.0   -0.01    4.30    4.20    26.38446    71.93194   148.61880
    22  C   4.0   -0.07    4.14    3.88    29.00410    71.18048   147.72999
    23  C   4.0   -0.07    4.13    3.87    25.00860    73.40292   146.57639
    24  H   1.0    0.11    1.09    1.44    22.47938    71.47730   151.90489
    25  H   1.0    0.07    1.08    1.44    24.52307    68.38119   147.71577
    26  H   1.0    0.05    1.06    1.44    26.56297    73.12672   150.30483
    27  H   1.0    0.04    1.00    1.43    30.01783    72.81563   147.00701
    28  H   1.0    0.05    1.00    1.43    30.11218    70.40539   149.27998
    29  H   1.0    0.04    1.01    1.43    28.87700    69.77790   146.24488
    30  H   1.0    0.04    1.00    1.43    25.92486    75.21394   146.26225
    31  H   1.0    0.04    1.00    1.43    25.03887    72.35618   144.80805
    32  H   1.0    0.05    1.00    1.43    23.05402    73.74911   147.10149
    33  N   5.0   -0.14    3.45    2.05    26.83383    65.70657   150.94099
    34  C   4.0    0.03    4.47    4.49    28.39091    64.09019   152.52127
    35  C   4.0    0.14    3.46    3.10    31.00620    63.84464   151.26314
    36  O   6.0   -0.31    1.24    1.80    31.17118    63.00123   149.10931
    37  C   4.0   -0.02    4.28    4.16    27.26283    61.41113   152.68516
    38  C   4.0   -0.08    4.15    3.90    29.13457    59.69957   154.04118
    39  C   4.0   -0.08    4.09    3.79    24.67578    61.35605   153.95184
    40  H   1.0    0.11    1.09    1.44    26.51630    65.06738   149.15869
    41  H   1.0    0.06    1.06    1.44    28.56455    64.97443   154.37984
    42  H   1.0    0.05    1.06    1.44    27.05619    60.74786   150.73468
    43  H   1.0    0.03    1.00    1.43    28.34854    57.81714   154.25809
    44  H   1.0    0.05    1.01    1.43    30.89253    59.56297   152.99508
    45  H   1.0    0.04    1.00    1.43    29.55421    60.44890   155.91180
    46  H   1.0    0.03    1.00    1.43    24.02072    59.41604   154.08288
    47  H   1.0    0.04    1.00    1.43    24.78286    62.14253   155.84774
    48  H   1.0    0.04    1.00    1.43    23.31806    62.43590   152.85884
    49  N   5.0   -0.14    3.44    2.04    33.02481    64.48409   152.66570
    50  C   4.0    0.03    4.27    4.15    35.59969    64.15302   151.76988
    51  C   4.0    0.07    3.23    3.04    37.20045    62.87387   153.80832
    52  O   6.0   -0.32    1.16    1.80    37.15530    63.57109   156.01332
    53  C   4.0   -0.03    4.24    4.07    37.01404    66.63641   151.08861
    54  C   4.0   -0.03    4.16    3.93    35.36519    68.99441   150.95146
    55  C   4.0    0.24    3.08    3.02    36.76905    71.23604   149.60026
    56  O   6.0   -0.30    1.17    1.80    37.80636    70.77426   147.52291
    57  O   6.0   -0.30    1.16    1.80    36.71174    73.33116   150.66561
    58  H   1.0    0.11    1.09    1.44    32.76355    65.31435   154.37119
    59  H   1.0    0.05    1.06    1.44    35.42690    62.96297   150.08712
    60  H   1.0    0.05    1.04    1.43    38.50146    66.97689   152.48321
    61  H   1.0    0.05    1.03    1.43    37.91942    66.41324   149.24834
    62  H   1.0    0.05    1.03    1.43    33.67925    68.60601   149.82144
    63  H   1.0    0.06    1.02    1.43    34.76461    69.63889   152.81599
    64  N   5.0   -0.19    3.28    1.98    42.90349    61.71971   158.20752
    65  C   4.0    0.03    4.24    4.09    44.70170    63.43477   159.35853
    66  C   4.0    0.08    3.25    3.04    47.02963    63.36135   157.68855
    67  O   6.0   -0.29    1.14    1.80    47.93200    61.31132   157.02254
    68  C   4.0   -0.03    4.34    4.27    45.32198    62.51427   162.02201
    69  C   4.0   -0.02    3.53    3.13    47.43410    63.86692   163.36579
    70  C   4.0   -0.03    3.46    3.10    47.41021    66.44651   163.89746
    71  C   4.0   -0.04    3.48    3.11    49.36127    62.42433   164.40534
    72  C   4.0   -0.02    3.45    3.09    49.27317    67.56648   165.34930
    73  C   4.0   -0.05    3.44    3.09    51.12825    63.48777   166.00934
    74  C   4.0    0.07    3.44    3.09    51.09738    66.06858   166.50938
    75  O   6.0   -0.24    2.10    1.84    52.86236    67.13626   168.06192
    76  H   1.0    0.12    1.07    1.44    42.06669    60.42098   159.33881
    77  H   1.0    0.03    1.06    1.44    43.91981    65.33492   159.37725
    78  H   1.0    0.05    1.03    1.43    43.61738    62.68778   163.17335
    79  H   1.0    0.06    1.04    1.43    45.79441    60.51180   161.89262
    80  H   1.0    0.06    1.03    1.43    45.85495    67.61386   163.28188
    81  H   1.0    0.05    1.03    1.43    49.41236    60.41202   164.09033
    82  H   1.0    0.07    1.03    1.43    49.23647    69.56216   165.73594
    83  H   1.0    0.04    1.03    1.43    52.48148    62.27331   166.94307
    84  H   1.0    0.11    1.04    1.43    53.71693    65.81947   169.00120
    85  N   5.0   -0.20    3.22    1.96    36.50924    52.00176   146.19562
    86  C   4.0    0.03    4.23    4.06    33.97054    51.41316   145.41421
    87  C   4.0    0.07    3.23    3.04    33.56039    51.86952   142.61962
    88  O   6.0   -0.29    1.12    1.80    34.57760    53.54758   141.39896
    89  C   4.0   -0.05    4.38    4.35    32.01723    53.00053   146.83511
    90  C   4.0   -0.03    4.18    3.96    31.34665    51.92566   149.43316
    91  C   4.0   -0.08    4.12    3.84    30.00887    53.98899   150.93095
    92  C   4.0   -0.08    4.10    3.81    29.65082    49.60730   149.19399
    93  H   1.0    0.09    1.03    1.43    37.00999    53.83602   146.30703
    94  H   1.0    0.03    1.06    1.44    33.72052    49.39556   145.79941
    95  H   1.0    0.05    1.03    1.43    32.75970    54.91771   147.00780
    96  H   1.0    0.04    1.04    1.43    30.30207    53.14308   145.70281
    97  H   1.0    0.04    1.05    1.44    33.09107    51.37905   150.40629
    98  H   1.0    0.03    1.00    1.43    29.52350    53.31950   152.80895
    99  H   1.0    0.04    1.00    1.43    31.23851    55.61875   151.13620
   100  H   1.0    0.04    1.00    1.43    28.30077    54.58502   149.96165
   101  H   1.0    0.04    1.00    1.43    29.24545    48.80876   151.04226
   102  H   1.0    0.04    1.00    1.43    27.87431    50.12635   148.30184
   103  H   1.0    0.03    1.00    1.43    30.52590    48.12760   148.06507
   104  N   5.0   -0.22    3.21    1.96    27.05836    60.45100   141.04948
   105  C   4.0    0.03    4.27    4.14    27.77515    62.48308   142.72719
   106  C   4.0    0.07    3.22    3.04    25.54284    64.13344   143.46701
   107  O   6.0   -0.31    1.17    1.80    25.45350    65.21635   145.51283
   108  C   4.0    0.05    4.24    4.07    29.86564    64.09833   141.45672
   109  O   6.0   -0.26    2.12    1.84    31.97134    62.54817   140.99433
   110  C   4.0   -0.07    4.08    3.77    30.54442    66.44465   142.96821
   111  H   1.0    0.08    1.03    1.43    26.94179    60.97660   139.21240
   112  H   1.0    0.06    1.05    1.44    28.57199    61.66520   144.45755
   113  H   1.0    0.04    1.04    1.43    29.22483    64.67823   139.57086
   114  H   1.0    0.12    1.03    1.43    32.78671    62.14860   142.57275
   115  H   1.0    0.05    1.00    1.43    32.22650    67.32882   142.18535
   116  H   1.0    0.04    1.00    1.43    29.01740    67.81452   142.90529
   117  H   1.0    0.06    1.00    1.43    30.93271    65.95557   144.93087
   118  N   5.0   -0.20    3.24    1.96    17.90239    64.19546   144.34643
   119  C   4.0    0.03    4.21    4.03    15.75639    62.64666   145.03836
   120  C   4.0    0.07    3.23    3.04    13.48504    64.35246   145.67893
   121  O   6.0   -0.31    1.20    1.80    13.73541    66.19790   147.07120
   122  C   4.0   -0.04    4.36    4.30    16.22868    61.20129   147.53689
   123  C   4.0   -0.02    3.56    3.14    18.39223    59.38914   147.40850
   124  C   4.0   -0.04    3.50    3.11    20.85510    60.28944   147.24985
   125  C   4.0   -0.05    3.46    3.10    17.96214    56.80695   147.49906
   126  C   4.0   -0.04    3.38    3.07    22.86211    58.61795   147.16139
   127  C   4.0   -0.05    3.38    3.07    19.97554    55.14586   147.43773
   128  C   4.0   -0.05    3.37    3.07    22.42726    56.04042   147.27117
   129  H   1.0    0.13    1.06    1.44    18.29924    65.60937   145.58521
   130  H   1.0    0.03    1.04    1.43    15.32999    61.35756   143.48862
   131  H   1.0    0.05    1.03    1.43    16.60314    62.62053   148.99369
   132  H   1.0    0.03    1.03    1.43    14.48402    60.22270   148.04331
   133  H   1.0    0.06    1.03    1.43    21.21965    62.29835   147.26865
   134  H   1.0    0.04    1.03    1.43    16.05435    56.10528   147.66199
   135  H   1.0    0.05    1.03    1.43    24.76907    59.33597   147.01868
   136  H   1.0    0.04    1.03    1.43    19.63011    53.14169   147.55214
   137  H   1.0    0.04    1.03    1.43    24.01227    54.75922   147.23617
   138  N   5.0   -0.22    3.21    1.96    10.68477    58.91096   170.27973
   139  C   4.0    0.03    4.27    4.13    13.32970    58.63587   169.63137
   140  C   4.0    0.07    3.24    3.04    14.25575    55.93897   169.94882
   141  O   6.0   -0.33    1.19    1.80    16.17338    55.23551   168.86500
   142  C   4.0   -0.04    4.45    4.46    14.89752    60.21154   171.42527
   143  C   4.0   -0.04    4.07    3.74    15.08312    62.93218   170.60738
   144  S   6.0   -0.06    2.54    3.10    17.66328    63.42085   168.46161
   145  C   4.0   -0.07    3.92    3.49    20.10574    61.39983   169.73902
   146  H   1.0    0.08    1.03    1.43    10.17782    60.24700   171.55250
   147  H   1.0    0.04    1.05    1.44    13.66576    59.19827   167.66299
   148  H   1.0    0.05    1.03    1.43    13.98787    60.12075   173.28398
   149  H   1.0    0.05    1.08    1.44    16.76028    59.37550   171.65375
   150  H   1.0    0.04    1.08    1.44    13.37836    63.56705   169.64077
   151  H   1.0    0.04    1.07    1.44    15.38014    64.14479   172.25399
   152  H   1.0    0.04    1.05    1.44    21.83313    62.01246   168.81936
   153  H   1.0    0.04    1.04    1.43    20.25627    61.68630   171.76528
   154  H   1.0    0.05    1.03    1.43    19.74778    59.43019   169.28180
   155  N   5.0   -0.21    3.22    1.96    12.29446    52.99737   164.21011
   156  C   4.0    0.03    4.38    4.34    13.97307    53.95905   162.29342
   157  C   4.0    0.15    3.48    3.11    16.48872    52.57190   162.31257
   158  O   6.0   -0.32    1.28    1.80    17.45528    51.77467   160.35719
   159  C   4.0   -0.04    4.34    4.27    14.51811    56.77552   162.53551
   160  C   4.0   -0.02    3.55    3.14    15.70711    57.78527   160.13183
   161  C   4.0   -0.04    3.47    3.10    14.83113    57.11452   157.71757
   162  C   4.0   -0.05    3.46    3.10    17.70216    59.48582   160.26728
   163  C   4.0   -0.05    3.38    3.07    15.93838    58.10068   155.57123
   164  C   4.0   -0.05    3.39    3.08    18.75387    60.53113   158.08224
   165  C   4.0   -0.05    3.38    3.07    17.90140    59.83015   155.72346
   166  H   1.0    0.08    1.02    1.43    11.31795    54.24671   165.29156
   167  H   1.0    0.04    1.07    1.44    13.11522    53.57045   160.44547
   168  H   1.0    0.03    1.03    1.43    12.71524    57.72041   162.87322
   169  H   1.0    0.05    1.03    1.43    15.76696    57.13743   164.13187
   170  H   1.0    0.04    1.03    1.43    13.25742    55.83716   157.50361
   171  H   1.0    0.04    1.03    1.43    18.42568    60.05710   162.08503
   172  H   1.0    0.04    1.03    1.43    15.26648    57.50206   153.73930
   173  H   1.0    0.04    1.04    1.43    20.29302    61.85181   158.29063
   174  H   1.0    0.04    1.03    1.43    18.74445    60.57813   154.02566
   175  N   5.0   -0.15    3.51    2.09    17.55767    52.45813   164.59743
   176  C   4.0    0.03    4.34    4.27    20.02784    51.31871   164.90441
   177  C   4.0    0.08    3.28    3.05    19.90574    48.65934   163.74979
   178  O   6.0   -0.31    1.14    1.80    21.46508    47.90565   162.20829
   179  C   4.0   -0.05    4.34    4.27    20.81362    51.34264   167.65538
   180  C   4.0   -0.03    4.17    3.95    23.68255    51.18930   168.03806
   181  C   4.0   -0.08    4.11    3.82    24.22332    51.17079   170.88775
   182  C   4.0   -0.07    4.11    3.83    24.92817    48.85968   166.86167
   183  H   1.0    0.11    1.11    1.45    16.77508    53.29587   166.13357
   184  H   1.0    0.05    1.05    1.44    21.39082    52.39763   163.76112
   185  H   1.0    0.05    1.04    1.43    20.14653    53.10608   168.48873
   186  H   1.0    0.04    1.03    1.43    19.88346    49.79154   168.64781
   187  H   1.0    0.04    1.05    1.44    24.53888    52.87504   167.20343
   188  H   1.0    0.05    1.00    1.43    26.25036    51.14327   171.22719
   189  H   1.0    0.04    1.00    1.43    23.42085    52.83520   171.78540
   190  H   1.0    0.04    1.00    1.43    23.38641    49.50523   171.74883
   191  H   1.0    0.05    1.00    1.43    26.93712    48.89181   167.29472
   192  H   1.0    0.04    1.00    1.43    24.08322    47.14635   167.62062
   193  H   1.0    0.06    1.01    1.43    24.70740    48.85640   164.82545
   194  N   5.0   -0.20    3.22    1.96    20.18850    48.50624   156.92958
   195  C   4.0    0.03    4.30    4.19    22.70012    48.88416   155.89886
   196  C   4.0    0.08    3.26    3.05    24.25649    46.46918   156.23260
   197  O   6.0   -0.31    1.11    1.80    25.46120    45.55167   154.47647
   198  C   4.0   -0.02    4.34    4.27    24.01054    51.17818   157.09687
   199  C   4.0   -0.06    4.18    3.96    23.37213    53.62697   155.66065
   200  C   4.0   -0.08    4.16    3.92    26.86542    50.82042   157.20244
   201  C   4.0   -0.07    4.05    3.70    21.65764    55.26251   157.29046
   202  H   1.0    0.12    1.06    1.44    19.61890    49.45211   158.48983
   203  H   1.0    0.04    1.06    1.44    22.51772    49.13265   153.84887
   204  H   1.0    0.05    1.07    1.44    23.30748    51.32124   159.03379
   205  H   1.0    0.03    1.03    1.43    25.10109    54.65500   155.22271
   206  H   1.0    0.04    1.03    1.43    22.42678    53.20823   153.88186
   207  H   1.0    0.03    1.00    1.43    27.76300    52.49065   157.99075
   208  H   1.0    0.04    1.01    1.43    27.37256    49.21126   158.35818
   209  H   1.0    0.04    1.00    1.43    27.58717    50.50354   155.30542
   210  H   1.0    0.04    1.03    1.43    21.11411    56.94591   156.26554
   211  H   1.0    0.06    1.01    1.43    19.95572    54.24260   157.81010
   212  H   1.0    0.04    1.00    1.43    22.62798    55.83445   159.00646
   213  N   5.0   -0.21    3.30    1.98    34.70980    46.53474   171.06581
   214  C   4.0    0.03    4.36    4.31    35.80469    48.92937   170.47408
   215  C   4.0    0.15    3.46    3.10    33.86691    50.89835   171.24808
   216  O   6.0   -0.31    1.27    1.80    31.63441    50.33584   171.42741
   217  C   4.0   -0.04    4.32    4.24    36.56844    49.00346   167.66162
   218  C   4.0   -0.01    3.58    3.15    34.32966    48.81377   165.91271
   219  C   4.0   -0.05    3.47    3.10    33.39535    46.47799   165.16850
   220  C   4.0   -0.03    3.48    3.11    33.09659    50.99633   165.13529
   221  C   4.0   -0.05    3.38    3.07    31.20912    46.33772   163.75205
   222  C   4.0   -0.04    3.37    3.07    30.89003    50.85691   163.75531
   223  C   4.0   -0.05    3.39    3.07    29.93362    48.52171   163.08780
   224  H   1.0    0.10    1.06    1.44    32.81411    46.54239   171.33024
   225  H   1.0    0.04    1.05    1.44    37.52779    49.16773   171.60091
   226  H   1.0    0.06    1.03    1.43    37.58237    50.76553   167.31854
   227  H   1.0    0.03    1.03    1.43    37.83994    47.40538   167.37775
   228  H   1.0    0.04    1.03    1.43    34.36795    44.77236   165.72623
   229  H   1.0    0.06    1.03    1.43    33.84228    52.79971   165.73820
   230  H   1.0    0.04    1.03    1.43    30.53115    44.51755   163.13271
   231  H   1.0    0.04    1.03    1.43    29.91789    52.56047   163.20357
   232  H   1.0    0.05    1.03    1.43    28.18816    48.40007   162.04434
   233  N   5.0   -0.14    3.54    2.11    34.86253    53.12615   171.84145
   234  C   4.0    0.04    4.44    4.45    33.35156    55.27898   172.50790
   235  C   4.0    0.14    3.44    3.09    32.66539    56.76756   170.14992
   236  O   6.0   -0.31    1.26    1.80    34.11712    56.97698   168.34668
   237  C   4.0   -0.04    4.36    4.31    34.94706    57.05612   174.13766
   238  C   4.0   -0.02    3.58    3.15    36.34928    55.63611   176.17025
   239  C   4.0   -0.05    3.45    3.10    35.28357    55.16383   178.53733
   240  C   4.0   -0.04    3.47    3.10    38.79356    54.79651   175.71107
   241  C   4.0   -0.05    3.45    3.10    36.62346    53.92564   180.40308
   242  C   4.0   -0.05    3.44    3.09    40.15109    53.57997   177.58834
   243  C   4.0    0.06    3.44    3.09    39.08674    53.12245   179.94543
   244  O   6.0   -0.26    2.11    1.84    40.36566    51.91196   181.78422
   245  H   1.0    0.10    1.10    1.44    36.66930    53.49398   171.32376
   246  H   1.0    0.05    1.05    1.44    31.66941    54.59656   173.49232
   247  H   1.0    0.05    1.04    1.43    36.32129    57.98810   172.90946
   248  H   1.0    0.04    1.03    1.43    33.73330    58.50216   174.96966
   249  H   1.0    0.04    1.03    1.43    33.38782    55.81135   178.92202
   250  H   1.0    0.06    1.03    1.43    39.68045    55.13151   173.90470
   251  H   1.0    0.05    1.03    1.43    35.78503    53.54831   182.22188
   252  H   1.0    0.05    1.03    1.43    42.04433    52.90348   177.20954
   253  H   1.0    0.11    1.02    1.43    42.02024    51.29281   181.22692
   254  N   5.0   -0.14    3.53    2.10    30.40404    57.87000   170.19780
   255  C   4.0    0.03    4.43    4.42    29.53581    59.60080   168.21094
   256  C   4.0    0.14    3.42    3.08    29.35309    62.11394   169.62868
   257  O   6.0   -0.31    1.25    1.80    28.24839    62.16938   171.66665
   258  C   4.0   -0.05    4.36    4.30    27.04022    58.54330   167.24277
   259  C   4.0   -0.03    4.18    3.96    25.90459    59.93946   165.01777
   260  C   4.0   -0.08    4.12    3.84    27.78036    60.25720   162.83571
   261  C   4.0   -0.08    4.12    3.84    23.61935    58.46343   164.03215
   262  H   1.0    0.08    1.07    1.44    29.30743    57.82957   171.75762
   263  H   1.0    0.06    1.06    1.44    30.98434    59.66998   166.75302
   264  H   1.0    0.04    1.03    1.43    27.39753    56.58096   166.70593
   265  H   1.0    0.04    1.03    1.43    25.69605    58.54376   168.81094
   266  H   1.0    0.04    1.05    1.44    25.29478    61.82345   165.62148
   267  H   1.0    0.04    1.00    1.43    26.81223    61.06793   161.21333
   268  H   1.0    0.06    1.01    1.43    29.34144    61.49431   163.33023
   269  H   1.0    0.04    1.00    1.43    28.52615    58.42366   162.28480
   270  H   1.0    0.04    1.00    1.43    22.71919    59.51644   162.51977
   271  H   1.0    0.03    1.00    1.43    24.23394    56.64394   163.30317
   272  H   1.0    0.04    1.00    1.43    22.25322    58.14330   165.52882
   273  N   5.0   -0.14    3.46    2.05    30.65961    64.05784   168.69439
   274  C   4.0    0.03    4.40    4.39    30.98557    66.45273   170.00260
   275  C   4.0    0.15    3.49    3.11    30.04855    68.58850   168.31837
   276  O   6.0   -0.32    1.33    1.80    30.86196    68.83375   166.13825
   277  C   4.0   -0.04    4.40    4.38    33.78593    67.03244   170.43333
   278  C   4.0   -0.02    4.19    3.98    35.08213    65.17711   172.21136
   279  C   4.0   -0.07    4.11    3.82    37.65216    64.41674   171.17892
   280  C   4.0   -0.08    4.12    3.84    35.34895    66.37951   174.81844
   281  H   1.0    0.11    1.11    1.45    31.56506    63.90209   167.01339
   282  H   1.0    0.06    1.06    1.44    29.93444    66.36948   171.77817
   283  H   1.0    0.06    1.04    1.43    34.70774    66.97957   168.58321
   284  H   1.0    0.05    1.03    1.43    33.97664    68.96018   171.15273
   285  H   1.0    0.05    1.06    1.44    33.91753    63.47216   172.37463
   286  H   1.0    0.04    1.00    1.43    38.60084    63.12303   172.46519
   287  H   1.0    0.05    1.00    1.43    37.47869    63.50258   169.34498
   288  H   1.0    0.07    1.00    1.43    38.89827    66.03839   170.94647
   289  H   1.0    0.03    1.00    1.43    36.13146    65.03493   176.15160
   290  H   1.0    0.04    1.00    1.43    36.61964    67.99582   174.72739
   291  H   1.0    0.04    1.00    1.43    33.51780    67.02217   175.49077
   292  N   5.0   -0.14    3.49    2.07    28.33538    70.15160   169.29475
   293  C   4.0    0.04    4.56    4.61    27.43490    72.21795   167.73124
   294  C   4.0    0.16    3.50    3.12    29.61073    74.09862   167.51978
   295  O   6.0   -0.32    1.31    1.80    30.90934    74.68853   169.35342
   296  C   4.0   -0.02    4.25    4.10    24.93386    73.25616   168.71564
   297  C   4.0   -0.07    4.13    3.87    24.19887    75.58205   167.19534
   298  C   4.0   -0.08    4.12    3.84    22.87543    71.23215   168.52340
   299  H   1.0    0.10    1.09    1.44    27.98756    70.21575   171.18765
   300  H   1.0    0.05    1.07    1.44    27.12731    71.44365   165.83312
   301  H   1.0    0.05    1.05    1.44    25.16710    73.77386   170.70359
   302  H   1.0    0.04    1.01    1.43    22.34839    76.23930   167.78355
   303  H   1.0    0.07    1.01    1.43    25.53228    77.11909   167.45696
   304  H   1.0    0.05    1.00    1.43    24.13315    75.13245   165.18825
   305  H   1.0    0.03    1.00    1.43    21.12448    71.97737   169.28092
   306  H   1.0    0.04    1.00    1.43    22.56932    70.74444   166.54968
   307  H   1.0    0.04    1.00    1.43    23.40310    69.53448   169.54585
   308  N   5.0   -0.14    3.48    2.06    30.18495    74.80194   165.16563
   309  C   4.0    0.04    4.41    4.39    32.19683    76.58992   164.68649
   310  C   4.0    0.15    3.50    3.11    34.79484    75.67905   165.61420
   311  O   6.0   -0.31    1.31    1.80    36.48235    77.20092   165.99669
   312  C   4.0   -0.02    4.33    4.26    31.67626    79.17544   165.93891
   313  C   4.0    0.15    3.21    3.04    29.24552    80.41720   164.99450
   314  O   6.0   -0.30    1.20    1.80    27.47670    80.75814   166.44046
   315  N   5.0   -0.18    3.17    1.95    29.19564    81.06103   162.52692
   316  H   1.0    0.11    1.10    1.44    28.99737    74.41362   163.69909
   317  H   1.0    0.05    1.05    1.44    32.34986    76.81399   162.63528
   318  H   1.0    0.06    1.04    1.43    31.48521    78.90062   167.96969
   319  H   1.0    0.05    1.03    1.43    33.29090    80.40003   165.56918
   320  H   1.0    0.10    1.03    1.43    27.68121    82.02379   161.88881
   321  H   1.0    0.08    1.03    1.43    30.76532    81.03405   161.45773
   322  N   5.0   -0.14    3.48    2.06    35.11150    73.19194   165.98494
   323  C   4.0    0.05    4.49    4.52    37.46374    72.30155   167.04958
   324  C   4.0    0.16    3.50    3.12    38.13230    73.55612   169.56979
   325  O   6.0   -0.30    1.31    1.80    40.30657    73.55513   170.33631
   326  C   4.0   -0.02    4.38    4.34    39.74193    72.71040   165.34148
   327  C   4.0    0.17    3.31    3.06    41.78885    70.89178   166.24289
   328  O   6.0   -0.29    1.23    1.80    41.27216    68.65519   166.50469
   329  N   5.0   -0.18    3.19    1.95    44.12954    71.81884   166.45182
   330  H   1.0    0.10    1.07    1.44    33.70970    71.94565   165.62632
   331  H   1.0    0.05    1.07    1.44    37.30163    70.26828   167.40882
   332  H   1.0    0.06    1.04    1.43    39.24644    72.21105   163.40187
   333  H   1.0    0.06    1.03    1.43    40.36503    74.66695   165.41728
   334  H   1.0    0.14    1.13    1.45    45.28143    70.72191   167.61860
   335  H   1.0    0.09    1.04    1.43    44.32325    73.70391   166.61267
   336  N   5.0   -0.14    3.53    2.10    36.21827    74.55496   170.91206
   337  C   4.0    0.04    4.43    4.43    36.80337    75.86869   173.23257
   338  C   4.0    0.14    3.42    3.09    34.62318    75.80782   175.11252
   339  O   6.0   -0.33    1.29    1.80    34.59327    77.21408   176.94516
   340  C   4.0   -0.03    4.27    4.14    37.73816    78.57976   172.75468
   341  C   4.0   -0.04    4.19    3.98    35.80845    80.18784   171.31956
   342  C   4.0   -0.05    4.14    3.88    36.38294    83.01718   171.51021
   343  C   4.0   -0.03    4.11    3.83    35.98162    84.01244   174.21572
   344  N   5.0   -0.12    4.01    2.88    38.28892    85.17461   175.33408
   345  H   1.0    0.11    1.11    1.44    34.50807    74.86062   170.09902
   346  H   1.0    0.05    1.07    1.44    38.36955    74.81997   174.11752
   347  H   1.0    0.05    1.03    1.43    38.16976    79.39138   174.60146
   348  H   1.0    0.06    1.03    1.43    39.48735    78.44550   171.67290
   349  H   1.0    0.06    1.04    1.43    35.84480    79.61516   169.34487
   350  H   1.0    0.05    1.03    1.43    33.92027    79.82876   172.07065
   351  H   1.0    0.04    1.03    1.43    38.33152    83.31332   170.90935
   352  H   1.0    0.04    1.02    1.43    35.16622    84.02004   170.19029
   353  H   1.0    0.04    1.02    1.43    34.47768    85.41361   174.25932
   354  H   1.0    0.05    1.03    1.43    35.41995    82.45466   175.44172
   355  H   1.0    0.11    1.13    1.45    38.34042    84.82803   177.37194
   356  H   1.0    0.06    1.03    1.43    39.88210    84.31010   174.65079
   357  H   1.0    0.05    1.02    1.43    38.38858    87.06732   174.95065
   358  N   5.0   -0.14    3.49    2.07    32.79973    74.07963   174.74791
   359  C   4.0    0.04    4.37    4.33    30.44350    74.29598   176.15607
   360  C   4.0    0.15    3.37    3.07    29.29079    71.61539   176.46035
   361  O   6.0   -0.32    1.27    1.80    28.03067    70.65365   174.75467
   362  C   4.0    0.05    4.15    3.91    28.77515    76.19028   174.69750
   363  O   6.0   -0.26    2.06    1.83    27.28592    77.67107   176.30626
   364  H   1.0    0.10    1.09    1.44    32.65463    73.23087   173.04414
   365  H   1.0    0.06    1.06    1.44    30.88602    75.05931   178.02192
   366  H   1.0    0.05    1.02    1.43    30.05503    77.40514   173.60166
   367  H   1.0    0.06    1.01    1.43    27.60611    75.13593   173.35160
   368  H   1.0    0.12    1.03    1.43    26.16964    78.68217   175.27125
   369  N   5.0   -0.14    3.47    2.06    29.87374    70.39122   178.59969
   370  C   4.0    0.03    4.42    4.42    28.63555    68.02636   179.29827
   371  C   4.0    0.15    3.47    3.10    25.98705    68.71135   180.22414
   372  O   6.0   -0.31    1.33    1.80    25.66783    70.55888   181.57698
   373  C   4.0   -0.04    4.39    4.37    29.96197    66.72725   181.47824
   374  C   4.0   -0.03    4.19    3.97    32.50936    65.56897   180.77420
   375  C   4.0   -0.08    4.11    3.83    34.04921    65.14651   183.18519
   376  C   4.0   -0.08    4.12    3.84    32.12887    63.07482   179.40276
   377  H   1.0    0.12    1.12    1.45    30.64973    71.35154   180.07322
   378  H   1.0    0.05    1.05    1.44    28.54067    66.83535   177.61031
   379  H   1.0    0.06    1.04    1.43    30.23604    68.14025   182.95938
   380  H   1.0    0.05    1.04    1.43    28.73275    65.24963   182.23159
   381  H   1.0    0.04    1.06    1.44    33.53976    66.91054   179.58887
   382  H   1.0    0.03    1.00    1.43    35.95344    64.55241   182.71480
   383  H   1.0    0.04    1.00    1.43    34.19371    66.88496   184.27501
   384  H   1.0    0.04    1.00    1.43    33.16071    63.71540   184.36474
   385  H   1.0    0.03    1.00    1.43    33.92946    62.19182   178.96944
   386  H   1.0    0.04    1.03    1.43    31.05349    61.79608   180.58916
   387  H   1.0    0.04    1.00    1.43    31.11691    63.34406   177.63300
   388  N   5.0   -0.14    3.49    2.07    24.08678    67.22941   179.47659
   389  C   4.0    0.03    4.51    4.55    21.49405    68.08711   179.54243
   390  C   4.0    0.15    3.53    3.13    19.86070    66.06669   180.70653
   391  O   6.0   -0.31    1.35    1.80    20.62271    63.92142   181.13046
   392  C   4.0   -0.02    4.28    4.15    20.49547    68.67620   176.85338
   393  C   4.0   -0.07    4.10    3.80    21.95171    70.82995   175.59949
   394  C   4.0   -0.07    4.14    3.88    20.55695    66.31868   175.20592
   395  H   1.0    0.08    1.07    1.44    24.43972    65.71387   178.36953
   396  H   1.0    0.06    1.06    1.44    21.46212    69.79900   180.70367
   397  H   1.0    0.04    1.06    1.44    18.53000    69.27843   177.06465
   398  H   1.0    0.04    1.00    1.43    21.08814    71.29046   173.79808
   399  H   1.0    0.06    1.00    1.43    21.91298    72.51166   176.78302
   400  H   1.0    0.07    1.01    1.43    23.91395    70.32539   175.27041
   401  H   1.0    0.04    1.00    1.43    19.65405    66.72557   173.40579
   402  H   1.0    0.05    1.00    1.43    22.48719    65.73234   174.80466
   403  H   1.0    0.06    1.00    1.43    19.55808    64.75726   176.09754
   404  N   5.0   -0.15    3.48    2.06    17.48918    66.76262   181.23509
   405  C   4.0    0.05    4.47    4.49    15.87202    64.79484   182.19957
   406  C   4.0    0.17    3.48    3.11    15.40129    62.86539   180.08056
   407  O   6.0   -0.31    1.23    1.80    14.51298    63.50694   178.04254
   408  C   4.0    0.03    4.15    3.90    13.34719    65.80986   183.14353
   409  O   6.0   -0.26    2.07    1.83    11.94878    63.68924   183.97521
   410  H   1.0    0.08    1.06    1.44    16.76805    68.44268   180.70715
   411  H   1.0    0.06    1.06    1.44    16.86386    63.87233   183.76923
   412  H   1.0    0.04    1.01    1.43    13.69565    67.14417   184.68195
   413  H   1.0    0.05    1.01    1.43    12.35039    66.77375   181.59959
   414  H   1.0    0.11    1.02    1.43    10.64702    64.24409   185.12444
   415  N   5.0   -0.14    3.44    2.04    15.96386    60.47314   180.67816
   416  C   4.0    0.04    4.33    4.26    15.36211    58.38069   179.03189
   417  C   4.0    0.08    3.17    3.03    12.51556    57.71560   179.12584
   418  O   6.0   -0.30    1.12    1.80    11.67141    56.01379   177.80658
   419  C   4.0   -0.04    4.28    4.17    17.15814    56.14367   179.50148
   420  C   4.0   -0.04    4.02    3.66    19.93856    56.78246   179.00206
   421  S   6.0   -0.05    2.49    3.10    20.52847    57.62704   175.67208
   422  C   4.0   -0.06    3.86    3.41    23.94763    58.07918   175.52583
   423  H   1.0    0.08    1.07    1.44    16.64133    60.06610   182.41558
   424  H   1.0    0.06    1.08    1.44    15.66682    59.03912   177.08225
   425  H   1.0    0.04    1.03    1.43    16.98669    55.55971   181.47220
   426  H   1.0    0.05    1.03    1.43    16.59623    54.56846   178.30140
   427  H   1.0    0.06    1.06    1.44    20.57231    58.38304   180.13119
   428  H   1.0    0.04    1.06    1.44    21.10129    55.13366   179.40910
   429  H   1.0    0.05    1.04    1.44    24.32741    59.02660   173.74918
   430  H   1.0    0.06    1.06    1.44    24.53460    59.25836   177.09147
   431  H   1.0    0.04    1.03    1.43    24.88373    56.25300   175.58411
   432  N   5.0   -0.23    3.23    1.96     5.42398    67.13460   166.40406
   433  C   4.0    0.03    4.33    4.25     6.82603    68.51079   164.50833
   434  C   4.0    0.07    3.21    3.04     5.89913    71.22248   164.42386
   435  O   6.0   -0.33    1.19    1.80     7.37235    72.97052   164.06319
   436  C   4.0   -0.05    4.37    4.33     6.65563    67.17616   161.97720
   437  C   4.0   -0.05    4.09    3.79     8.25990    64.80060   162.02648
   438  S   6.0   -0.06    2.64    3.10    11.54301    65.68803   162.53811
   439  C   4.0   -0.07    3.92    3.49    12.82829    62.55920   162.77709
   440  H   1.0    0.07    1.03    1.43     4.72470    65.41520   165.94630
   441  H   1.0    0.04    1.11    1.45     8.83272    68.60850   165.03496
   442  H   1.0    0.03    1.02    1.43     4.69447    66.70393   161.53666
   443  H   1.0    0.04    1.04    1.43     7.37713    68.42411   160.50438
   444  H   1.0    0.03    1.07    1.44     7.71166    63.55014   163.57130
   445  H   1.0    0.03    1.06    1.44     8.13069    63.79958   160.22939
   446  H   1.0    0.04    1.05    1.44    14.76134    62.73972   163.43630
   447  H   1.0    0.03    1.04    1.44    11.70398    61.50797   164.13962
   448  H   1.0    0.04    1.04    1.44    12.79583    61.66118   160.93249
   449  N   5.0   -0.20    3.25    1.97     9.31394    74.26476   169.23066
   450  C   4.0    0.03    4.41    4.39    11.93980    74.73062   168.58514
   451  C   4.0    0.14    3.43    3.09    12.19466    76.92485   166.71313
   452  O   6.0   -0.33    1.29    1.80    14.04905    78.32479   166.71060
   453  C   4.0   -0.02    4.34    4.27    13.25695    72.42082   167.41918
   454  C   4.0   -0.05    4.21    4.03    12.54893    69.94083   168.72408
   455  C   4.0   -0.08    4.14    3.88    16.11408    72.79415   167.54661
   456  C   4.0   -0.08    4.03    3.68    12.83564    69.98014   171.59129
   457  H   1.0    0.08    1.03    1.43     8.60298    72.49195   169.14828
   458  H   1.0    0.04    1.05    1.44    12.94459    75.30582   170.31035
   459  H   1.0    0.05    1.06    1.44    12.67138    72.27071   165.43847
   460  H   1.0    0.04    1.03    1.43    10.60978    69.43713   168.28250
   461  H   1.0    0.04    1.03    1.43    13.74780    68.45395   167.94126
   462  H   1.0    0.03    1.00    1.43    17.05811    71.16843   166.71944
   463  H   1.0    0.05    1.00    1.43    16.69215    74.47547   166.52099
   464  H   1.0    0.04    1.00    1.43    16.71973    72.99621   169.49781
   465  H   1.0    0.04    1.00    1.43    12.25179    68.15497   172.31884
   466  H   1.0    0.04    1.00    1.43    14.78514    70.30532   172.14469
   467  H   1.0    0.04    1.00    1.43    11.65268    71.41790   172.45641
   468  N   5.0   -0.15    3.53    2.10    10.36136    77.14167   165.00541
   469  C   4.0    0.03    4.44    4.44    10.44953    78.95765   162.94584
   470  C   4.0    0.16    3.46    3.10     9.97449    81.62307   163.93522
   471  O   6.0   -0.32    1.33    1.80    11.23560    83.45594   163.23869
   472  C   4.0   -0.04    4.34    4.27     8.44425    78.24651   160.96685
   473  C   4.0   -0.02    3.55    3.14     8.76110    79.71025   158.54940
   474  C   4.0   -0.05    3.48    3.11    10.89575    79.30553   157.07206
   475  C   4.0   -0.05    3.45    3.10     6.97968    81.45673   157.73995
   476  C   4.0   -0.05    3.43    3.09    11.23587    80.57508   154.82239
   477  C   4.0   -0.05    3.43    3.09     7.30778    82.75921   155.49924
   478  C   4.0    0.06    3.45    3.09     9.43776    82.32345   154.01091
   479  O   6.0   -0.26    2.11    1.84     9.66560    83.60111   151.81101
   480  H   1.0    0.11    1.12    1.45     8.92338    75.87641   165.00155
   481  H   1.0    0.05    1.05    1.44    12.35016    78.93125   162.11681
   482  H   1.0    0.05    1.03    1.43     8.65268    76.22842   160.59369
   483  H   1.0    0.04    1.03    1.43     6.57991    78.55046   161.79062
   484  H   1.0    0.04    1.03    1.43    12.29511    77.96562   157.70036
   485  H   1.0    0.04    1.03    1.43     5.33784    81.81631   158.89227
   486  H   1.0    0.04    1.03    1.43    12.88758    80.20934   153.68422
   487  H   1.0    0.05    1.03    1.43     5.99254    84.20304   154.91552
   488  H   1.0    0.11    1.03    1.43    11.25369    83.09606   150.99629
   489  N   5.0   -0.15    3.52    2.09     8.01593    81.78820   165.49259
   490  C   4.0    0.03    4.42    4.41     7.45035    84.01035   166.99650
   491  C   4.0    0.16    3.48    3.11     9.88422    85.02291   168.19774
   492  O   6.0   -0.31    1.27    1.80    10.55622    87.21932   167.91916
   493  C   4.0   -0.05    4.30    4.20     5.49104    83.29360   169.00107
   494  C   4.0   -0.04    4.19    3.98     5.05537    85.43020   170.88050
   495  C   4.0   -0.02    4.19    3.97     2.54116    85.17230   172.27863
   496  N   5.0   -0.15    3.39    2.02     1.88254    82.64556   173.17784
   497  C   4.0    0.09    3.33    3.06     2.54899    81.64343   175.40198
   498  N   5.0   -0.20    3.24    1.96     0.94516    79.99907   176.48563
   499  N   5.0   -0.18    3.25    1.97     4.64655    82.31571   176.57636
   500  H   1.0    0.07    1.08    1.44     7.11822    80.17229   166.01162
   501  H   1.0    0.04    1.05    1.44     6.67519    85.50003   165.78030
   502  H   1.0    0.03    1.03    1.43     3.74129    82.80549   168.02811
   503  H   1.0    0.05    1.03    1.43     6.15431    81.62536   170.01252
   504  H   1.0    0.07    1.05    1.44     6.62397    85.48176   172.20541
   505  H   1.0    0.04    1.03    1.43     5.01036    87.24254   169.90077
   506  H   1.0    0.04    1.03    1.43     2.55823    86.46274   173.89027
   507  H   1.0    0.03    1.03    1.43     1.01714    85.71869   171.00526
   508  H   1.0    0.06    1.08    1.44     0.29938    81.91584   172.40191
   509  H   1.0    0.07    1.03    1.43    -0.74931    79.59606   175.72193
   510  H   1.0    0.08    1.03    1.43     1.39309    79.12951   178.11730
   511  H   1.0    0.13    1.10    1.44     6.24863    82.99502   175.63479
   512  H   1.0    0.09    1.04    1.43     5.08100    81.44449   178.21337
   513  N   5.0   -0.13    3.53    2.10    11.20185    83.28142   169.44126
   514  C   4.0    0.05    4.42    4.41    13.17240    83.94262   171.19211
   515  C   4.0    0.15    3.41    3.08    15.79848    84.29448   170.02687
   516  O   6.0   -0.29    1.23    1.80    17.36510    85.54556   171.17718
   517  C   4.0   -0.03    4.27    4.15    13.23582    81.97879   173.29584
   518  C   4.0    0.25    3.10    3.02    10.80719    81.92186   174.98257
   519  O   6.0   -0.33    1.33    1.80     9.11096    83.49561   174.50776
   520  O   6.0   -0.29    1.16    1.80    10.73933    80.31448   176.69193
   521  H   1.0    0.08    1.08    1.44    10.45159    81.53586   169.68058
   522  H   1.0    0.07    1.06    1.44    12.70515    85.78937   172.03135
   523  H   1.0    0.05    1.03    1.43    13.44925    80.09165   172.49538
   524  H   1.0    0.06    1.02    1.43    14.84099    82.31402   174.54965
   525  N   5.0   -0.13    3.44    2.04    16.21021    83.34892   167.68031
   526  C   4.0    0.04    4.38    4.35    18.77293    83.38722   166.68695
   527  C   4.0    0.15    3.41    3.08    18.96208    83.64761   163.79285
   528  O   6.0   -0.29    1.28    1.80    20.96141    83.15094   162.71763
   529  C   4.0   -0.02    4.33    4.26    20.29783    80.98197   167.40875
   530  C   4.0   -0.01    3.55    3.14    20.04161    80.15252   170.11491
   531  C   4.0   -0.05    3.49    3.11    18.11963    78.48484   170.78756
   532  C   4.0   -0.03    3.45    3.10    21.72083    80.90956   171.97883
   533  C   4.0   -0.04    3.44    3.09    17.83476    77.65333   173.23453
   534  C   4.0   -0.04    3.42    3.09    21.43250    80.11336   174.45880
   535  C   4.0    0.07    3.44    3.09    19.43647    78.53775   175.13001
   536  O   6.0   -0.24    2.10    1.84    18.92133    77.85771   177.57307
   537  H   1.0    0.11    1.09    1.44    15.16431    81.82382   167.14546
   538  H   1.0    0.07    1.06    1.44    19.70151    85.04054   167.52653
   539  H   1.0    0.05    1.04    1.43    19.61232    79.46449   166.18593
   540  H   1.0    0.06    1.03    1.43    22.27397    81.32968   166.94182
   541  H   1.0    0.07    1.06    1.44    16.81968    77.86485   169.35232
   542  H   1.0    0.06    1.03    1.43    23.25728    82.16310   171.49287
   543  H   1.0    0.06    1.03    1.43    16.32494    76.39247   173.77453
   544  H   1.0    0.06    1.03    1.43    22.69183    80.80610   175.91282
   545  H   1.0    0.13    1.03    1.43    20.13267    78.60483   178.71559
   546  N   5.0   -0.13    3.42    2.03    16.91957    84.38176   162.47068
   547  C   4.0    0.03    4.39    4.36    17.15221    84.67417   159.72085
   548  C   4.0    0.17    3.50    3.12    19.22306    86.62109   159.10566
   549  O   6.0   -0.28    1.25    1.80    19.45392    88.60041   160.28927
   550  C   4.0   -0.05    4.22    4.04    14.62163    85.30800   158.43431
   551  C   4.0   -0.04    4.19    3.99    14.24750    88.04089   157.51806
   552  C   4.0   -0.05    4.16    3.92    11.87483    89.26424   158.60405
   553  C   4.0   -0.03    4.12    3.85    12.21144    89.87032   161.42217
   554  N   5.0   -0.12    4.04    2.98    10.27988    88.56301   162.98838
   555  H   1.0    0.10    1.07    1.44    15.25670    84.70497   163.35320
   556  H   1.0    0.04    1.06    1.44    17.85336    82.85910   158.99895
   557  H   1.0    0.04    1.03    1.43    14.45384    84.06363   156.80066
   558  H   1.0    0.06    1.04    1.44    13.12323    84.77128   159.74228
   559  H   1.0    0.07    1.05    1.44    15.86913    89.22006   157.97517
   560  H   1.0    0.05    1.02    1.43    14.14637    88.05457   155.45847
   561  H   1.0    0.04    1.03    1.43    11.50737    90.99152   157.54716
   562  H   1.0    0.04    1.03    1.43    10.28421    87.98712   158.30419
   563  H   1.0    0.06    1.03    1.43    14.08687    89.27376   162.03048
   564  H   1.0    0.04    1.02    1.43    12.06294    91.89826   161.74294
   565  H   1.0    0.09    1.05    1.44    10.46974    89.02290   164.89063
   566  H   1.0    0.05    1.02    1.43     8.50811    89.05475   162.36111
   567  H   1.0    0.10    1.08    1.44    10.53297    86.58847   162.87926
   568  N   5.0   -0.13    3.45    2.05    20.82760    85.94237   157.27867
   569  C   4.0    0.04    4.31    4.22    22.76798    87.67653   156.45582
   570  C   4.0    0.09    3.23    3.04    21.68627    90.10392   155.27623
   571  O   6.0   -0.29    1.13    1.80    19.45324    90.48306   154.84078
   572  C   4.0   -0.04    4.28    4.16    24.40010    86.37455   154.46696
   573  C   4.0    0.24    3.10    3.02    26.88136    87.73927   153.77339
   574  O   6.0   -0.28    1.16    1.80    28.65568    87.60645   155.36886
   575  O   6.0   -0.29    1.16    1.80    27.09305    88.72499   151.65148
   576  H   1.0    0.07    1.07    1.44    20.36979    84.58928   156.00094
   577  H   1.0    0.06    1.05    1.44    23.89699    88.24159   158.11103
   578  H   1.0    0.05    1.03    1.43    24.93424    84.51799   155.19494
   579  H   1.0    0.05    1.03    1.43    23.27682    86.13518   152.75506
   580  N   5.0   -0.21    3.23    1.96    19.18784    78.00910   153.79806
   581  C   4.0    0.03    4.40    4.38    20.30930    77.55646   156.27789
   582  C   4.0    0.15    3.48    3.10    22.43552    75.61803   155.93010
   583  O   6.0   -0.32    1.27    1.80    22.04061    73.53278   154.99593
   584  C   4.0   -0.02    4.26    4.12    18.37881    76.65873   158.24867
   585  C   4.0   -0.08    4.14    3.88    16.48424    74.80301   157.15673
   586  C   4.0   -0.07    4.18    3.96    19.81924    75.43298   160.40538
   587  H   1.0    0.09    1.02    1.43    18.41948    76.50981   152.88488
   588  H   1.0    0.04    1.05    1.44    21.12348    79.36000   156.88500
   589  H   1.0    0.04    1.05    1.44    17.38473    78.33441   158.94966
   590  H   1.0    0.04    1.00    1.43    15.22547    74.13688   158.63610
   591  H   1.0    0.04    1.00    1.43    15.35897    75.64423   155.65773
   592  H   1.0    0.05    1.01    1.43    17.48688    73.18857   156.37902
   593  H   1.0    0.04    1.00    1.43    18.53116    74.91403   161.92167
   594  H   1.0    0.05    1.01    1.43    20.77603    73.72831   159.77135
   595  H   1.0    0.05    1.00    1.43    21.22182    76.72175   161.18705
   596  N   5.0   -0.14    3.46    2.05    24.76190    76.38921   156.53922
   597  C   4.0    0.04    4.39    4.37    26.93855    74.77285   156.18109
   598  C   4.0    0.15    3.38    3.07    27.42857    73.20352   158.61547
   599  O   6.0   -0.32    1.28    1.80    27.29100    74.14441   160.74258
   600  C   4.0   -0.03    4.31    4.21    29.26971    76.37250   155.55194
   601  C   4.0   -0.01    3.51    3.12    29.25615    77.72045   153.03545
   602  C   4.0   -0.04    3.46    3.10    27.52631    79.61351   152.40688
   603  C   4.0   -0.04    3.47    3.10    31.16568    77.18708   151.31027
   604  C   4.0   -0.03    3.42    3.08    27.72566    80.98919   150.19117
   605  C   4.0   -0.04    3.44    3.09    31.35932    78.51455   149.07123
   606  C   4.0    0.07    3.44    3.09    29.67706    80.45797   148.50710
   607  O   6.0   -0.24    2.11    1.84    29.94397    81.88477   146.39181
   608  H   1.0    0.08    1.06    1.44    25.02276    77.99078   157.53769
   609  H   1.0    0.07    1.07    1.44    26.48994    73.45110   154.65640
   610  H   1.0    0.05    1.03    1.43    29.47645    77.77044   157.06416
   611  H   1.0    0.05    1.04    1.43    30.91712    75.13134   155.60051
   612  H   1.0    0.05    1.03    1.43    25.99799    80.08944   153.67670
   613  H   1.0    0.07    1.03    1.43    32.54311    75.73583   151.71666
   614  H   1.0    0.06    1.03    1.43    26.42607    82.50953   149.78496
   615  H   1.0    0.06    1.03    1.43    32.86921    78.05584   147.77346
   616  H   1.0    0.11    1.04    1.43    31.28190    81.19022   145.34586
   617  N   5.0   -0.14    3.51    2.08    28.01471    70.78848   158.23754
   618  C   4.0    0.04    4.46    4.47    28.66092    69.04438   160.22138
   619  C   4.0    0.15    3.50    3.12    31.07785    67.71646   159.50059
   620  O   6.0   -0.31    1.31    1.80    31.39943    66.96326   157.33367
   621  C   4.0   -0.03    4.47    4.49    26.70207    66.94259   160.45773
   622  C   4.0   -0.04    4.10    3.80    24.10335    67.99324   160.95897
   623  S   6.0   -0.06    2.60    3.10    22.19839    65.32038   161.79927
   624  C   4.0   -0.07    3.89    3.45    19.20437    66.94636   162.14586
   625  H   1.0    0.12    1.12    1.45    27.98802    70.04783   156.46158
   626  H   1.0    0.06    1.06    1.44    28.87428    70.06985   162.00032
   627  H   1.0    0.05    1.04    1.43    26.68419    65.85633   158.70105
   628  H   1.0    0.04    1.05    1.44    27.27765    65.69369   161.99714
   629  H   1.0    0.04    1.06    1.44    24.13025    69.34784   162.51755
   630  H   1.0    0.05    1.06    1.44    23.33036    68.90623   159.27803
   631  H   1.0    0.04    1.05    1.44    17.87996    65.62079   162.96720
   632  H   1.0    0.03    1.04    1.43    19.45787    68.54243   163.41012
   633  H   1.0    0.04    1.04    1.43    18.55657    67.57185   160.30292
   634  N   5.0   -0.13    3.53    2.10    32.70633    67.32168   161.36927
   635  C   4.0    0.04    4.53    4.58    34.92997    65.83019   160.91272
   636  C   4.0    0.14    3.50    3.12    34.59378    63.34162   162.23387
   637  O   6.0   -0.32    1.35    1.80    33.19106    63.17064   164.07936
   638  C   4.0    0.06    4.26    4.12    37.30726    67.23145   161.80147
   639  O   6.0   -0.25    2.13    1.84    37.50741    69.56743   160.55168
   640  C   4.0   -0.07    4.14    3.88    39.64648    65.64542   161.36023
   641  H   1.0    0.11    1.11    1.44    32.31253    67.83010   163.16662
   642  H   1.0    0.08    1.09    1.44    35.07437    65.53583   158.86813
   643  H   1.0    0.06    1.04    1.43    37.15154    67.69463   163.81296
   644  H   1.0    0.13    1.03    1.43    37.65119    69.27582   158.75794
   645  H   1.0    0.05    1.01    1.43    41.26355    66.78664   161.90317
   646  H   1.0    0.05    1.01    1.43    39.63571    63.97260   162.54450
   647  H   1.0    0.05    1.01    1.43    39.73921    65.11797   159.37863
   648  N   5.0   -0.14    3.50    2.08    35.85492    61.37511   161.30009
   649  C   4.0    0.04    4.49    4.53    35.94733    59.11875   162.82768
   650  C   4.0    0.14    3.41    3.08    38.66723    58.27351   163.22964
   651  O   6.0   -0.32    1.29    1.80    40.29451    58.55056   161.60929
   652  C   4.0   -0.03    4.34    4.27    34.25553    57.05184   161.73890
   653  C   4.0   -0.01    3.60    3.17    35.24133    56.03397   159.30536
   654  C   4.0   -0.04    3.49    3.11    34.93416    57.45435   157.12468
   655  C   4.0   -0.04    3.46    3.10    36.40615    53.67993   159.19419
   656  C   4.0   -0.05    3.44    3.09    35.72732    56.52141   154.82807
   657  C   4.0   -0.04    3.42    3.08    37.25281    52.74777   156.91346
   658  C   4.0    0.07    3.47    3.10    36.89009    54.17191   154.72532
   659  O   6.0   -0.25    2.11    1.84    37.62040    53.20951   152.44870
   660  H   1.0    0.10    1.07    1.44    36.95365    61.56387   159.75095
   661  H   1.0    0.07    1.09    1.44    35.17314    59.64019   164.67801
   662  H   1.0    0.04    1.04    1.43    34.09120    55.55868   163.14277
   663  H   1.0    0.04    1.04    1.43    32.39418    57.88779   161.44616
   664  H   1.0    0.06    1.03    1.43    34.00852    59.26925   157.21819
   665  H   1.0    0.05    1.03    1.43    36.58448    52.59051   160.91085
   666  H   1.0    0.05    1.03    1.43    35.39922    57.59589   153.12465
   667  H   1.0    0.05    1.03    1.43    38.15560    50.92897   156.74955
   668  H   1.0    0.11    1.05    1.44    36.80218    54.18439   151.13437
   669  N   5.0   -0.14    3.46    2.06    39.13879    57.26244   165.49840
   670  C   4.0    0.04    4.25    4.10    41.69087    56.74851   166.36992
   671  C   4.0    0.07    3.25    3.04    41.68478    54.46272   168.08013
   672  O   6.0   -0.32    1.19    1.80    39.87083    54.10621   169.46630
   673  C   4.0   -0.07    4.13    3.86    42.67514    58.90952   168.02726
   674  H   1.0    0.11    1.08    1.44    37.73248    57.08374   166.79396
   675  H   1.0    0.05    1.05    1.44    42.89089    56.49037   164.70922
   676  H   1.0    0.04    1.00    1.43    44.62397    58.57336   168.58593
   677  H   1.0    0.05    1.00    1.43    42.59822    60.70800   167.03472
   678  H   1.0    0.05    1.00    1.43    41.52620    59.08428   169.72318
   679  N   5.0   -0.20    3.22    1.96    48.35301    59.45328   175.91838
   680  C   4.0    0.03    4.34    4.27    48.89214    62.06058   175.27763
   681  C   4.0    0.15    3.45    3.09    49.09778    63.64962   177.65689
   682  O   6.0   -0.31    1.31    1.80    47.57504    63.39518   179.37801
   683  C   4.0   -0.04    4.30    4.20    46.75671    63.28261   173.73564
   684  C   4.0   -0.03    4.21    4.02    47.76005    65.58050   172.36461
   685  C   4.0    0.26    3.09    3.02    45.71971    67.17430   170.95134
   686  O   6.0   -0.30    1.18    1.80    43.47349    66.57400   171.15701
   687  O   6.0   -0.31    1.32    1.80    46.65496    68.98954   169.74409
   688  H   1.0    0.13    1.08    1.44    48.24588    58.98462   177.78871
   689  H   1.0    0.04    1.05    1.44    50.64369    62.11340   174.17535
   690  H   1.0    0.04    1.03    1.43    46.02250    61.94713   172.35347
   691  H   1.0    0.06    1.03    1.43    45.20143    63.82399   174.97869
   692  H   1.0    0.06    1.03    1.43    48.64854    66.91616   173.66540
   693  H   1.0    0.05    1.03    1.43    49.14630    65.01252   170.95030
   694  N   5.0   -0.13    3.51    2.08    50.96868    65.33590   177.70569
   695  C   4.0    0.04    4.46    4.48    51.48811    67.07584   179.74930
   696  C   4.0    0.15    3.43    3.09    50.90063    69.75939   178.88038
   697  O   6.0   -0.29    1.25    1.80    51.21338    70.33536   176.65292
   698  C   4.0    0.06    4.25    4.10    54.32335    66.79309   180.39913
   699  O   6.0   -0.25    2.11    1.84    54.91303    64.24381   180.87826
   700  C   4.0   -0.07    4.08    3.77    55.06837    68.53327   182.55183
   701  H   1.0    0.08    1.07    1.44    52.02289    65.59932   176.14116
   702  H   1.0    0.07    1.06    1.44    50.29562    66.56227   181.35184
   703  H   1.0    0.05    1.04    1.43    55.38513    67.26867   178.67960
   704  H   1.0    0.12    1.02    1.43    54.31550    63.76586   182.55136
   705  H   1.0    0.04    1.00    1.43    57.03427    68.19770   183.04165
   706  H   1.0    0.06    1.00    1.43    54.82504    70.49587   182.00652
   707  H   1.0    0.06    1.01    1.43    53.87400    68.13264   184.17583
   708  N   5.0   -0.14    3.48    2.07    50.13955    71.37614   180.64749
   709  C   4.0    0.04    4.36    4.32    49.44077    73.95695   180.08206
   710  C   4.0    0.24    3.16    3.03    51.09341    75.86531   181.66545
   711  O   6.0   -0.30    1.17    1.80    50.26054    78.00171   182.09698
   712  C   4.0   -0.03    4.32    4.23    46.60876    74.42060   180.53281
   713  C   4.0   -0.01    3.57    3.15    45.01587    72.49191   179.20956
   714  C   4.0   -0.03    3.46    3.10    44.17332    72.84201   176.75260
   715  C   4.0   -0.03    3.49    3.11    44.40907    70.23620   180.40256
   716  C   4.0   -0.02    3.38    3.07    42.81775    70.97595   175.51588
   717  C   4.0   -0.04    3.38    3.07    43.04899    68.36775   179.17722
   718  C   4.0   -0.03    3.37    3.07    42.26105    68.72017   176.71697
   719  O   6.0   -0.33    1.37    1.80    53.18878    75.00857   182.40014
   720  H   1.0    0.10    1.09    1.44    49.88109    70.74823   182.43530
   721  H   1.0    0.07    1.06    1.44    49.88240    74.26433   178.07912
   722  H   1.0    0.05    1.03    1.43    46.23823    74.33944   182.56380
   723  H   1.0    0.05    1.03    1.43    46.18690    76.32622   179.87631
   724  H   1.0    0.06    1.03    1.43    44.61418    74.57549   175.75939
   725  H   1.0    0.06    1.03    1.43    45.00736    69.93065   182.33164
   726  H   1.0    0.08    1.03    1.43    42.23241    71.26035   173.57856
   727  H   1.0    0.05    1.03    1.43    42.62462    66.62956   180.15560
   728  H   1.0    0.06    1.03    1.43    41.25445    67.27046   175.69312
   729  N   5.0   -0.20    3.29    1.98    28.57733    56.75491   190.53504
   730  C   4.0    0.03    4.24    4.09    31.19722    56.52279   189.86859
   731  C   4.0    0.07    3.24    3.04    32.82945    56.67284   192.22657
   732  O   6.0   -0.30    1.13    1.80    32.28495    58.03478   194.02981
   733  C   4.0   -0.04    4.36    4.31    31.93852    58.79310   188.23883
   734  C   4.0   -0.02    3.58    3.16    30.00764    59.29745   186.20624
   735  C   4.0   -0.06    3.45    3.10    30.13149    58.13838   183.83916
   736  C   4.0   -0.05    3.47    3.10    28.05839    60.99447   186.66542
   737  C   4.0   -0.05    3.45    3.10    28.38924    58.67967   181.97341
   738  C   4.0   -0.04    3.44    3.09    26.32607    61.56185   184.78815
   739  C   4.0    0.07    3.44    3.09    26.46202    60.41133   182.43106
   740  O   6.0   -0.26    2.15    1.85    24.77425    60.91366   180.59227
   741  H   1.0    0.09    1.03    1.43    27.99249    58.50354   191.05273
   742  H   1.0    0.03    1.05    1.44    31.44730    54.72479   188.88417
   743  H   1.0    0.05    1.04    1.43    32.05852    60.44921   189.46703
   744  H   1.0    0.03    1.03    1.43    33.79770    58.46498   187.40683
   745  H   1.0    0.04    1.03    1.43    31.64013    56.82038   183.45447
   746  H   1.0    0.05    1.03    1.43    27.90507    61.93003   188.47179
   747  H   1.0    0.05    1.03    1.43    28.48168    57.76489   180.15461
   748  H   1.0    0.07    1.03    1.43    24.79359    62.86320   185.16695
   749  H   1.0    0.15    1.07    1.44    23.41076    62.03700   181.14957
   750  N   5.0   -0.20    3.22    1.96    40.14591    58.58093   193.68210
   751  C   4.0    0.02    4.22    4.05    42.05696    60.06066   192.37389
   752  C   4.0    0.07    3.25    3.04    44.37511    60.31706   194.05813
   753  O   6.0   -0.30    1.13    1.80    44.18080    61.14412   196.23825
   754  C   4.0   -0.04    4.40    4.38    41.15883    62.77570   191.94316
   755  C   4.0   -0.03    4.19    3.98    38.90397    62.97057   190.16513
   756  C   4.0   -0.07    4.11    3.82    36.96045    64.81610   191.19757
   757  C   4.0   -0.08    4.12    3.84    39.81187    63.80284   187.55805
   758  H   1.0    0.09    1.02    1.43    39.55830    59.28719   195.36310
   759  H   1.0    0.03    1.05    1.44    42.51043    59.10873   190.59832
   760  H   1.0    0.05    1.04    1.43    40.65214    63.54757   193.79328
   761  H   1.0    0.04    1.03    1.43    42.73295    63.90472   191.22376
   762  H   1.0    0.03    1.06    1.44    38.00974    61.10952   190.00186
   763  H   1.0    0.04    1.00    1.43    35.36573    64.99082   189.91130
   764  H   1.0    0.05    1.00    1.43    36.25550    64.20878   193.03151
   765  H   1.0    0.06    1.00    1.43    37.74179    66.70609   191.43002
   766  H   1.0    0.03    1.00    1.43    38.25618    63.80823   186.22489
   767  H   1.0    0.04    1.00    1.43    40.57629    65.71144   187.64910
   768  H   1.0    0.03    1.00    1.43    41.28400    62.53835   186.88572
   769  N   5.0   -0.22    3.20    1.96    46.45736    68.64342   191.46443
   770  C   4.0    0.03    4.22    4.04    47.30253    69.80700   189.14392
   771  C   4.0    0.07    3.20    3.04    48.33991    67.88846   187.26397
   772  O   6.0   -0.32    1.17    1.80    49.57272    68.56569   185.43133
   773  C   4.0   -0.04    4.27    4.13    49.18299    71.97209   189.62181
   774  C   4.0   -0.05    4.19    3.97    51.54048    71.10495   191.05693
   775  C   4.0   -0.06    4.14    3.88    53.70352    73.01714   190.86628
   776  C   4.0   -0.04    4.11    3.83    54.76610    73.16722   188.16077
   777  N   5.0   -0.12    4.01    2.88    54.61891    75.74648   187.04241
   778  H   1.0    0.08    1.02    1.43    47.57717    67.31517   192.27747
   779  H   1.0    0.04    1.05    1.44    45.61122    70.63899   188.25897
   780  H   1.0    0.05    1.03    1.43    49.67007    72.75167   187.77503
   781  H   1.0    0.04    1.03    1.43    48.19212    73.41980   190.70359
   782  H   1.0    0.03    1.03    1.43    51.02635    70.85009   193.03162
   783  H   1.0    0.04    1.03    1.43    52.17359    69.29020   190.30584
   784  H   1.0    0.03    1.03    1.43    52.98569    74.85273   191.46714
   785  H   1.0    0.03    1.02    1.43    55.18038    72.46486   192.18620
   786  H   1.0    0.03    1.02    1.43    56.73152    72.56535   188.11717
   787  H   1.0    0.05    1.03    1.43    53.69785    71.90190   186.93477
   788  H   1.0    0.11    1.13    1.45    54.29302    75.61780   185.00455
   789  H   1.0    0.06    1.03    1.43    53.07363    76.69396   187.72570
   790  H   1.0    0.05    1.02    1.43    56.20822    76.77914   187.42584
   791  N   5.0   -0.19    3.25    1.97    46.02371    61.06703   183.77680
   792  C   4.0    0.03    4.23    4.07    44.59478    58.81230   183.07822
   793  C   4.0    0.08    3.24    3.04    46.51225    56.86112   182.15235
   794  O   6.0   -0.30    1.21    1.80    48.27187    57.50844   180.79951
   795  C   4.0   -0.04    4.39    4.36    42.80650    59.31145   180.89825
   796  C   4.0   -0.03    4.19    3.97    40.52971    60.93841   181.60229
   797  C   4.0   -0.08    4.11    3.83    39.39393    62.06074   179.19131
   798  C   4.0   -0.08    4.12    3.84    38.55996    59.36183   182.97373
   799  H   1.0    0.12    1.08    1.44    46.46738    62.21921   182.30327
   800  H   1.0    0.03    1.05    1.44    43.61077    58.13462   184.76618
   801  H   1.0    0.06    1.04    1.43    43.89316    60.25530   179.41711
   802  H   1.0    0.04    1.04    1.43    42.14147    57.50811   180.14490
   803  H   1.0    0.03    1.06    1.44    41.17634    62.50156   182.78762
   804  H   1.0    0.03    1.00    1.43    37.92731    63.41280   179.66169
   805  H   1.0    0.04    1.00    1.43    40.82722    63.05510   178.10148
   806  H   1.0    0.04    1.00    1.43    38.59880    60.57572   178.01175
   807  H   1.0    0.03    1.00    1.43    36.89497    60.47968   183.40705
   808  H   1.0    0.04    1.03    1.43    37.99023    57.79115   181.78733
   809  H   1.0    0.03    1.00    1.43    39.29911    58.62007   184.74349
   810  N   5.0   -0.21    3.20    1.96    24.03613    64.37934   194.26427
   811  C   4.0    0.03    4.27    4.13    22.20603    63.49041   192.43520
   812  C   4.0    0.15    3.39    3.08    22.23525    64.91571   189.87419
   813  O   6.0   -0.30    1.23    1.80    21.02657    64.11874   188.10240
   814  C   4.0    0.03    4.15    3.90    19.49525    63.53944   193.46948
   815  O   6.0   -0.26    2.05    1.83    18.47075    65.98769   193.40830
   816  H   1.0    0.08    1.02    1.43    23.52626    65.83568   195.43614
   817  H   1.0    0.04    1.05    1.44    22.69230    61.52895   191.97438
   818  H   1.0    0.05    1.02    1.43    18.31223    62.36892   192.24827
   819  H   1.0    0.03    1.01    1.43    19.47634    62.77014   195.38961
   820  H   1.0    0.11    1.02    1.43    19.27567    66.95064   194.76006
   821  N   5.0   -0.14    3.57    2.13    23.64993    66.99742   189.76134
   822  C   4.0    0.04    4.42    4.42    24.02571    68.51538   187.55163
   823  C   4.0    0.14    3.50    3.11    26.05525    70.41682   188.26872
   824  O   6.0   -0.31    1.34    1.80    26.46950    70.79412   190.51125
   825  C   4.0   -0.03    4.32    4.23    21.58732    69.83825   186.73626
   826  C   4.0   -0.03    4.26    4.13    20.21188    71.09791   188.90428
   827  C   4.0    0.15    3.25    3.04    17.86186    72.32955   187.82986
   828  O   6.0   -0.29    1.20    1.80    17.89327    74.38360   186.78603
   829  N   5.0   -0.19    3.19    1.95    15.75635    70.93241   188.06300
   830  H   1.0    0.10    1.12    1.45    24.52275    67.71080   191.31609
   831  H   1.0    0.05    1.05    1.44    24.69624    67.33944   185.97951
   832  H   1.0    0.06    1.03    1.43    22.06677    71.23465   185.29415
   833  H   1.0    0.06    1.03    1.43    20.36050    68.40624   185.89311
   834  H   1.0    0.05    1.03    1.43    19.70701    69.70856   190.34141
   835  H   1.0    0.06    1.03    1.43    21.41103    72.54348   189.75799
   836  H   1.0    0.08    1.03    1.43    15.78020    69.28582   189.01427
   837  H   1.0    0.09    1.03    1.43    14.10510    71.62661   187.41377
   838  N   5.0   -0.14    3.45    2.05    27.31155    71.60157   186.45811
   839  C   4.0    0.04    4.46    4.48    29.29997    73.37212   187.09886
   840  C   4.0    0.15    3.45    3.09    30.57330    74.34473   184.71960
   841  O   6.0   -0.31    1.31    1.80    31.11432    72.89879   182.99849
   842  C   4.0   -0.03    4.32    4.24    31.42599    72.13381   188.64085
   843  C   4.0   -0.03    4.21    4.02    32.91436    74.15167   190.01188
   844  C   4.0    0.25    3.09    3.02    35.31480    73.18158   191.42515
   845  O   6.0   -0.31    1.18    1.80    35.91803    70.93615   191.21948
   846  O   6.0   -0.29    1.17    1.80    36.41921    74.89915   192.63240
   847  H   1.0    0.12    1.11    1.45    26.95924    71.27447   184.58778
   848  H   1.0    0.05    1.05    1.44    28.46994    74.91542   188.20114
   849  H   1.0    0.07    1.04    1.43    30.63654    70.83022   190.02302
   850  H   1.0    0.06    1.03    1.43    32.67248    71.05758   187.39780
   851  H   1.0    0.06    1.03    1.43    33.62682    75.58895   188.71109
   852  H   1.0    0.05    1.03    1.43    31.72935    75.06820   191.42619
   853  N   5.0   -0.13    3.51    2.08    31.09821    76.80812   184.67080
   854  C   4.0    0.04    4.46    4.48    32.34532    78.12793   182.62719
   855  C   4.0    0.15    3.43    3.09    34.96309    78.96093   183.49611
   856  O   6.0   -0.29    1.25    1.80    35.30552    79.51977   185.72357
   857  C   4.0    0.06    4.25    4.10    30.68283    80.44195   181.97736
   858  O   6.0   -0.24    2.11    1.84    28.18025    79.67798   181.49823
   859  C   4.0   -0.07    4.08    3.77    31.81737    81.95724   179.82466
   860  H   1.0    0.08    1.07    1.44    30.79923    77.85281   186.23533
   861  H   1.0    0.06    1.06    1.44    32.49681    76.83842   181.02466
   862  H   1.0    0.05    1.04    1.43    30.56381    81.59926   183.69689
   863  H   1.0    0.14    1.04    1.43    28.06510    78.92153   179.82513
   864  H   1.0    0.05    1.00    1.43    30.54381    83.49198   179.33484
   865  H   1.0    0.06    1.00    1.43    33.63869    82.72781   180.36997
   866  H   1.0    0.06    1.01    1.43    32.06760    80.72257   178.20066
   867  N   5.0   -0.14    3.48    2.07    36.74378    79.11019   181.72900
   868  C   4.0    0.04    4.36    4.32    39.32821    79.79543   182.29444
   869  C   4.0    0.24    3.16    3.03    40.15458    82.18085   180.71104
   870  O   6.0   -0.30    1.17    1.80    42.42119    82.52776   180.27951
   871  C   4.0   -0.03    4.32    4.23    41.14575    77.57467   181.84368
   872  C   4.0   -0.01    3.57    3.15    40.27190    75.23084   183.16693
   873  C   4.0   -0.03    3.46    3.10    40.99637    74.67622   185.62389
   874  C   4.0   -0.03    3.49    3.11    38.62180    73.57749   181.97393
   875  C   4.0   -0.03    3.38    3.07    40.05810    72.56924   186.86061
   876  C   4.0   -0.04    3.38    3.07    37.68371    71.46540   183.19927
   877  C   4.0   -0.03    3.37    3.07    38.38289    70.95922   185.65952
   878  O   6.0   -0.32    1.37    1.80    38.36493    83.56712   179.97635
   879  H   1.0    0.10    1.09    1.44    36.32922    78.57241   179.94119
   880  H   1.0    0.06    1.06    1.44    39.37360    80.33159   184.29737
   881  H   1.0    0.05    1.03    1.43    41.26073    77.21320   179.81269
   882  H   1.0    0.05    1.03    1.43    43.00699    78.16214   182.50018
   883  H   1.0    0.05    1.03    1.43    42.27718    75.92475   186.61710
   884  H   1.0    0.06    1.03    1.43    38.05804    73.94284   180.04485
   885  H   1.0    0.06    1.03    1.43    40.59706    72.20452   188.79793
   886  H   1.0    0.05    1.03    1.43    36.39059    70.22878   182.22089
   887  H   1.0    0.05    1.03    1.43    37.63070    69.36263   186.68337
   888  H   1.0    0.09    1.07    1.44    24.46069    63.10526   195.30784
   889  H   1.0    0.09    1.08    1.44    14.53628    70.58695   151.01246
   890  H   1.0    0.05    1.05    1.44    38.32505    61.42434   153.35531
   891  H   1.0    0.10    1.08    1.44    41.62446    62.61074   157.52727
   892  H   1.0    0.05    1.04    1.43    47.83836    64.97312   157.12352
   893  H   1.0    0.09    1.08    1.44    36.78366    51.37513   147.75273
   894  H   1.0    0.04    1.05    1.44    32.38706    50.75605   141.64262
   895  H   1.0    0.10    1.07    1.44    28.20852    59.20192   141.14690
   896  H   1.0    0.05    1.05    1.44    24.09662    64.35800   142.27157
   897  H   1.0    0.10    1.09    1.44    19.29453    63.22378   144.24471
   898  H   1.0    0.04    1.04    1.43    11.78057    63.96562   144.96045
   899  H   1.0    0.08    1.07    1.44     9.79437    59.29313   168.88198
   900  H   1.0    0.06    1.05    1.44    13.29810    54.73401   171.04521
   901  H   1.0    0.08    1.07    1.44    11.09878    52.02993   163.48419
   902  H   1.0    0.05    1.05    1.44    18.52052    47.47503   164.24943
   903  H   1.0    0.09    1.07    1.44    19.02621    48.92807   155.76180
   904  H   1.0    0.06    1.05    1.44    24.30741    45.60230   157.91099
   905  H   1.0    0.08    1.09    1.44    35.01419    45.44250   169.79817
   906  H   1.0    0.06    1.04    1.43    11.35761    58.67788   180.26787
   907  H   1.0    0.09    1.07    1.44     6.41916    66.85485   167.75458
   908  H   1.0    0.05    1.05    1.44     4.06349    71.60149   164.66435
   909  H   1.0    0.09    1.07    1.44     9.03115    74.74246   170.83827
   910  H   1.0    0.06    1.05    1.44    22.84291    91.52201   154.80477
   911  H   1.0    0.08    1.07    1.44    17.92555    79.13958   153.94362
   912  H   1.0    0.04    1.04    1.44    43.14959    53.26889   168.06694
   913  H   1.0    0.09    1.08    1.44    46.84785    59.00741   175.26396
   914  H   1.0    0.09    1.08    1.44    27.61218    56.30975   189.20731
   915  H   1.0    0.04    1.05    1.44    34.40829    55.64176   192.35001
   916  H   1.0    0.09    1.07    1.44    38.75872    58.45522   192.70616
   917  H   1.0    0.04    1.04    1.43    46.07652    59.81522   193.40665
   918  H   1.0    0.09    1.08    1.44    46.25957    69.83764   192.65912
   919  H   1.0    0.05    1.05    1.44    48.01569    66.04441   187.51976
   920  H   1.0    0.08    1.07    1.44    45.11633    61.99677   184.87444
   921  H   1.0    0.04    1.04    1.43    46.33132    55.04766   182.65201

  Z AO/shell   Hii/eV     exponent
  1     Wed Apr 25 08:07:45 CEST 2018   EN: 2.200 GM2: 0.406  GM3: 0.0800  RAES: 1.40
     1s    -10.707211    1.230000
  6     Wed Apr 25 08:07:45 CEST 2018   EN: 2.550 GM2: 0.538  GM3: 0.1500  RAES: 3.00
     2s    -13.970922    2.096432
     2p    -10.063292    1.800000
  7     Wed Apr 25 08:07:45 CEST 2018   EN: 3.040 GM2: 0.461  GM3:-0.0640  RAES: 1.90
     2s    -16.686243    2.339881
     2p    -12.523956    2.014332
  8     Wed Apr 25 08:07:45 CEST 2018   EN: 3.440 GM2: 0.452  GM3:-0.0517  RAES: 1.80
     2s    -20.229985    2.439742
     2p    -15.503117    2.137023
 16     Tue Apr 24 11:44:34 CEST 2018   EN: 2.580 GM2: 0.340  GM3:-0.0502  RAES: 3.10
     3s    -20.029654    1.981333
     3p    -11.377694    2.025643
     3d     -0.420282    1.702555
 no old-style atom pair restraining (fixing) potential

molecular fragmentation (1/2 indicates fragments):
111111111111111111111111111111111111111111111111111111111111111222222222
222222222222222222222222222222222222222222222222222222222222222222222222
222222222222222222222222222222222222222222222222222222222222222222222222
222222222222222222222222222222222222222222222222222222222222222222222222
222222222222222222222222222222222222222222222222222222222222222222222222
222222222222222222222222222222222222222222222222222222222222222222222222
222222222222222222222222222222222222222222222222222222222222222222222222
222222222222222222222222222222222222222222222222222222222222222222222222
222222222222222222222222222222222222222222222222222222222222222222222222
222222222222222222222222222222222222222222222222222222222222222222222222
222222222222222222222222222222222222222222222222222222222222222222222222
222222222222222222222222222222222222222222222222222222222222222222222222
222222222222222222222222112222222222222222222222222222222
# atoms in fragment 1/2:    65   856
 fragment masses (1/2) :      427.52     5905.14
CMA distance (Bohr)    :  18.615
constraining FC (au)   :  0.0500
           ------------------------------------------------- 
          |        Self-Consistent Charge Iterations        |
           ------------------------------------------------- 

 Ncao       : 2277
 Nao        : 2273
 Nshell     : 1369
 Nel        : 2484
 T(el)      :   500.0
 intcut     :    35.0
 scfconv/Eh :  0.100E-06
   qconv/e  :  0.100E-04
 intneglect :  0.100E-08
 broydamp   :      0.400
 iter      E             dE          RMSdq      gap      omega  full diag
   1  -1415.0575330 -0.141506E+04  0.460E+00    2.83       0.0  T
   2  -1418.2592427 -0.320171E+01  0.220E+00    1.28       1.0  T
   3  -1418.4451742 -0.185932E+00  0.122E+00    1.33       1.0  T
   4  -1418.6771436 -0.231969E+00  0.262E-01    0.64       1.0  T
   5  -1418.6891553 -0.120117E-01  0.134E-01    0.91       1.0  T
   6  -1418.6919243 -0.276901E-02  0.614E-02    0.83       1.0  T
   7  -1418.6927461 -0.821818E-03  0.301E-02    0.78       1.0  T
   8  -1418.6928967 -0.150634E-03  0.162E-02    0.74       1.0  T
   9  -1418.6929518 -0.551279E-04  0.847E-03    0.72       1.0  T
  10  -1418.6929674 -0.156106E-04  0.422E-03    0.72       1.0  T
  11  -1418.6929715 -0.402929E-05  0.223E-03    0.72       1.5  T
  12  -1418.6929725 -0.104425E-05  0.113E-03    0.71       2.9  T
  13  -1418.6929729 -0.372474E-06  0.592E-04    0.71       5.6  T
  14  -1418.6929730 -0.805480E-07  0.272E-04    0.71      12.1  T
  15  -1418.6929730 -0.187749E-07  0.146E-04    0.71      22.6  T
  16  -1418.6929730 -0.493878E-08  0.750E-05    0.71      43.9  T
  17  -1418.6929730 -0.133423E-08  0.383E-05    0.71      86.1  T
speedup  1.90
cpu  time for SCC    2 m 58.2 s
wall time for SCC    1 m 33.6 s

   *** convergence criteria satisfied after 17 iterations ***

          eigenvalues
 #    :        1230       1231       1232       1233       1234       1235       1236       1237
 occ. :        2.000      2.000      2.000      2.000      2.000      2.000      2.000      2.000
 eps  :        -9.977     -9.872     -9.827     -9.810     -9.804     -9.730     -9.629     -9.564
 #    :        1238       1239       1240       1241       1242       1243       1244       1245
 occ. :        2.000      2.000      2.000      2.000      2.000      0.001      0.000      0.000
 eps  :        -9.562     -9.537     -9.532     -9.510     -9.389     -8.676     -8.447     -8.098
 #    :        1246       1247       1248       1249       1250       1251       1252       1253
 occ. :        0.000      0.000      0.000      0.000      0.000      0.000      0.000      0.000
 eps  :        -8.070     -7.894     -7.842     -7.835     -7.808     -7.800     -7.755     -7.726


   #   Z            q   n(s)   n(p)   n(d)      C6AA      α(0)
   1   7 N     -0.416  1.323  4.093  0.000    30.827     8.246
   2   6 C      0.041  1.051  2.908  0.000    19.885     6.349
   3   6 C      0.278  1.044  2.679  0.000    22.305     7.735
   4   8 O     -0.488  1.734  4.754  0.000    23.531     6.504
   5   6 C     -0.007  1.060  2.947  0.000    20.667     6.464
   6   6 C     -0.101  1.035  3.066  0.000    22.484     6.761
   7   6 C     -0.114  1.039  3.075  0.000    22.734     6.798
   8   1 H      0.191  0.809  0.000  0.000     1.151     1.681
   9   1 H      0.028  0.972  0.000  0.000     2.620     2.531
  10   1 H      0.025  0.975  0.000  0.000     2.655     2.548
  11   1 H      0.053  0.947  0.000  0.000     2.281     2.362
  12   1 H      0.006  0.994  0.000  0.000     2.948     2.685
  13   1 H      0.025  0.975  0.000  0.000     2.665     2.553
  14   1 H      0.051  0.949  0.000  0.000     2.312     2.378
  15   1 H      0.039  0.961  0.000  0.000     2.458     2.452
  16   1 H      0.054  0.946  0.000  0.000     2.272     2.357
  17   7 N     -0.187  1.253  3.935  0.000    25.060     7.435
  18   6 C      0.020  1.063  2.918  0.000    20.243     6.406
  19   6 C      0.275  1.049  2.675  0.000    22.342     7.740
  20   8 O     -0.501  1.736  4.765  0.000    23.808     6.542
  21   6 C     -0.005  1.054  2.951  0.000    20.629     6.460
  22   6 C     -0.101  1.034  3.067  0.000    22.478     6.759
[...]
 635   6 C      0.009  1.058  2.933  0.000    20.422     6.432
 636   6 C      0.267  1.041  2.692  0.000    22.501     7.769
 637   8 O     -0.485  1.727  4.758  0.000    23.455     6.493
 638   6 C      0.122  1.040  2.838  0.000    18.672     6.168
 639   8 O     -0.476  1.721  4.755  0.000    22.382     6.387
 640   6 C     -0.121  1.041  3.081  0.000    22.884     6.821
 641   1 H      0.227  0.773  0.000  0.000     0.976     1.548
 642   1 H      0.091  0.909  0.000  0.000     1.865     2.136
 643   1 H      0.038  0.962  0.000  0.000     2.482     2.464
 644   1 H      0.321  0.679  0.000  0.000     0.661     1.277
 645   1 H      0.058  0.942  0.000  0.000     2.223     2.331
 646   1 H      0.044  0.956  0.000  0.000     2.402     2.424
 647   1 H      0.063  0.937  0.000  0.000     2.167     2.302
 648   7 N     -0.163  1.242  3.921  0.000    24.518     7.354
 649   6 C      0.025  1.056  2.919  0.000    20.147     6.388
 650   6 C      0.268  1.042  2.690  0.000    22.478     7.764
 651   8 O     -0.474  1.739  4.735  0.000    23.223     6.461
 652   6 C     -0.073  1.050  3.023  0.000    21.881     6.658
 653   6 C      0.002  1.074  2.925  0.000    27.988     8.678
 654   6 C     -0.042  1.079  2.963  0.000    29.034     8.837
 655   6 C     -0.036  1.083  2.953  0.000    28.901     8.816
 656   6 C     -0.072  1.074  2.998  0.000    29.799     8.952
 657   6 C     -0.056  1.076  2.980  0.000    29.387     8.890
 658   6 C      0.145  1.046  2.809  0.000    24.838     8.168
 659   8 O     -0.416  1.712  4.704  0.000    21.159     6.210
 660   1 H      0.215  0.785  0.000  0.000     1.034     1.593
 661   1 H      0.081  0.919  0.000  0.000     1.969     2.194
 662   1 H      0.072  0.928  0.000  0.000     2.066     2.248
 663   1 H      0.065  0.935  0.000  0.000     2.143     2.289
 664   1 H      0.024  0.976  0.000  0.000     2.678     2.559
 665   1 H      0.046  0.954  0.000  0.000     2.370     2.408
 666   1 H      0.026  0.974  0.000  0.000     2.637     2.539
 667   1 H      0.068  0.932  0.000  0.000     2.103     2.268
 668   1 H      0.326  0.674  0.000  0.000     0.647     1.263
 669   7 N     -0.170  1.241  3.929  0.000    24.683     7.379
 670   6 C      0.031  1.052  2.917  0.000    20.061     6.378
 671   6 C      0.199  1.086  2.715  0.000    23.764     7.985
 672   8 O     -0.346  1.736  4.610  0.000    20.631     6.090
 673   6 C     -0.105  1.038  3.067  0.000    22.553     6.769
 674   1 H      0.223  0.777  0.000  0.000     0.995     1.562
 675   1 H      0.098  0.902  0.000  0.000     1.803     2.100
 676   1 H      0.068  0.932  0.000  0.000     2.110     2.272
 677   1 H      0.049  0.951  0.000  0.000     2.332     2.388
 678   1 H      0.054  0.946  0.000  0.000     2.271     2.357
 679   7 N     -0.399  1.318  4.082  0.000    30.358     8.183
 680   6 C      0.041  1.056  2.903  0.000    19.891     6.352
 681   6 C      0.277  1.046  2.677  0.000    22.322     7.737
 682   8 O     -0.485  1.729  4.757  0.000    23.465     6.495
 683   6 C     -0.037  1.047  2.990  0.000    21.219     6.556
 684   6 C     -0.086  1.062  3.024  0.000    22.140     6.699
 685   6 C      0.372  1.023  2.605  0.000    20.694     7.444
 686   8 O     -0.604  1.764  4.840  0.000    26.229     6.866
 687   8 O     -0.620  1.764  4.856  0.000    26.622     6.918
 688   1 H      0.195  0.805  0.000  0.000     1.133     1.667
 689   1 H      0.025  0.975  0.000  0.000     2.664     2.553
 690   1 H      0.033  0.967  0.000  0.000     2.550     2.497
 691   1 H      0.016  0.984  0.000  0.000     2.791     2.613
 692   1 H      0.007  0.993  0.000  0.000     2.939     2.681
 693   1 H      0.020  0.980  0.000  0.000     2.734     2.586
 694   7 N     -0.171  1.241  3.930  0.000    24.711     7.383
 695   6 C      0.012  1.066  2.922  0.000    20.385     6.430
 696   6 C      0.276  1.041  2.683  0.000    22.338     7.740
 697   8 O     -0.530  1.761  4.769  0.000    24.458     6.631
 698   6 C      0.117  1.045  2.838  0.000    18.755     6.182
 699   8 O     -0.474  1.725  4.750  0.000    22.351     6.382
 700   6 C     -0.152  1.047  3.106  0.000    23.503     6.913
 701   1 H      0.188  0.812  0.000  0.000     1.170     1.695
 702   1 H      0.077  0.923  0.000  0.000     2.012     2.218
 703   1 H      0.037  0.963  0.000  0.000     2.483     2.464
 704   1 H      0.345  0.655  0.000  0.000     0.601     1.218
 705   1 H      0.089  0.911  0.000  0.000     1.885     2.147
 706   1 H      0.061  0.939  0.000  0.000     2.192     2.315
 707   1 H      0.069  0.931  0.000  0.000     2.095     2.263
 708   7 N     -0.175  1.248  3.927  0.000    24.785     7.394
 709   6 C      0.022  1.068  2.910  0.000    20.221     6.405
 710   6 C      0.360  1.027  2.612  0.000    20.889     7.479
 711   8 O     -0.580  1.769  4.812  0.000    25.643     6.789
 712   6 C     -0.060  1.050  3.009  0.000    21.641     6.622
 713   6 C      0.016  1.083  2.902  0.000    27.660     8.627
 714   6 C     -0.037  1.077  2.960  0.000    28.925     8.820
 715   6 C     -0.042  1.079  2.963  0.000    29.044     8.838
 716   6 C     -0.024  1.080  2.944  0.000    28.592     8.769
 717   6 C     -0.031  1.079  2.953  0.000    28.782     8.798
 718   6 C     -0.027  1.075  2.952  0.000    28.684     8.783
 719   8 O     -0.567  1.736  4.831  0.000    25.307     6.745
 720   1 H      0.222  0.778  0.000  0.000     1.002     1.568
 721   1 H      0.034  0.966  0.000  0.000     2.525     2.485
 722   1 H      0.039  0.961  0.000  0.000     2.459     2.452
 723   1 H      0.048  0.952  0.000  0.000     2.351     2.398
 724   1 H      0.010  0.990  0.000  0.000     2.887     2.657
 725   1 H      0.028  0.972  0.000  0.000     2.613     2.528
 726   1 H      0.011  0.989  0.000  0.000     2.873     2.651
 727   1 H      0.042  0.958  0.000  0.000     2.417     2.431
 728   1 H      0.023  0.977  0.000  0.000     2.683     2.561
 729   7 N     -0.373  1.305  4.067  0.000    29.619     8.083
 730   6 C      0.043  1.053  2.905  0.000    19.871     6.349
 731   6 C      0.198  1.086  2.717  0.000    23.790     7.989
 732   8 O     -0.376  1.762  4.614  0.000    21.205     6.174
 733   6 C     -0.065  1.053  3.012  0.000    21.724     6.633
 734   6 C      0.000  1.078  2.922  0.000    28.019     8.683
 735   6 C     -0.044  1.084  2.960  0.000    29.093     8.845
 736   6 C     -0.039  1.081  2.958  0.000    28.969     8.826
 737   6 C     -0.062  1.073  2.988  0.000    29.532     8.911
 738   6 C     -0.077  1.079  2.998  0.000    29.928     8.971
 739   6 C      0.145  1.043  2.812  0.000    24.843     8.169
 740   8 O     -0.422  1.698  4.724  0.000    21.288     6.229
 741   1 H      0.154  0.846  0.000  0.000     1.377     1.838
 742   1 H      0.068  0.932  0.000  0.000     2.112     2.273
 743   1 H      0.039  0.961  0.000  0.000     2.457     2.451
 744   1 H      0.047  0.953  0.000  0.000     2.352     2.398
 745   1 H      0.056  0.944  0.000  0.000     2.241     2.341
 746   1 H      0.026  0.974  0.000  0.000     2.642     2.542
 747   1 H      0.052  0.948  0.000  0.000     2.295     2.369
 748   1 H      0.029  0.971  0.000  0.000     2.598     2.520
 749   1 H      0.340  0.660  0.000  0.000     0.612     1.229
 750   7 N     -0.372  1.313  4.059  0.000    29.606     8.081
 751   6 C      0.039  1.055  2.906  0.000    19.941     6.361
 752   6 C      0.198  1.090  2.711  0.000    23.772     7.986
 753   8 O     -0.375  1.762  4.613  0.000    21.190     6.172
 754   6 C     -0.069  1.060  3.009  0.000    21.802     6.645
 755   6 C     -0.003  1.055  2.948  0.000    20.600     6.456
 756   6 C     -0.099  1.037  3.063  0.000    22.451     6.756
 757   6 C     -0.108  1.041  3.067  0.000    22.615     6.780
 758   1 H      0.163  0.837  0.000  0.000     1.318     1.798
 759   1 H      0.055  0.945  0.000  0.000     2.260     2.351
 760   1 H      0.049  0.951  0.000  0.000     2.332     2.388
 761   1 H      0.039  0.961  0.000  0.000     2.467     2.456
 762   1 H      0.036  0.964  0.000  0.000     2.507     2.476
 763   1 H      0.024  0.976  0.000  0.000     2.670     2.555
 764   1 H      0.031  0.969  0.000  0.000     2.575     2.510
 765   1 H      0.036  0.964  0.000  0.000     2.499     2.472
 766   1 H      0.040  0.960  0.000  0.000     2.444     2.445
 767   1 H      0.023  0.977  0.000  0.000     2.683     2.561
 768   1 H      0.040  0.960  0.000  0.000     2.448     2.447
 769   7 N     -0.393  1.320  4.073  0.000    30.166     8.157
 770   6 C      0.040  1.053  2.907  0.000    19.914     6.357
 771   6 C      0.200  1.088  2.712  0.000    23.739     7.979
 772   8 O     -0.384  1.746  4.638  0.000    21.361     6.197
 773   6 C     -0.074  1.056  3.019  0.000    21.921     6.666
 774   6 C     -0.069  1.050  3.019  0.000    21.821     6.651
 775   6 C     -0.090  1.057  3.033  0.000    22.213     6.710
 776   6 C     -0.039  1.055  2.984  0.000    21.366     6.598
 777   7 N     -0.182  1.253  3.930  0.000    24.941     7.417
 778   1 H      0.168  0.832  0.000  0.000     1.285     1.776
 779   1 H      0.060  0.940  0.000  0.000     2.203     2.321
 780   1 H      0.048  0.952  0.000  0.000     2.350     2.397
 781   1 H      0.046  0.954  0.000  0.000     2.375     2.410
 782   1 H      0.061  0.939  0.000  0.000     2.190     2.314
 783   1 H      0.047  0.953  0.000  0.000     2.355     2.400
 784   1 H      0.074  0.926  0.000  0.000     2.046     2.237
 785   1 H      0.091  0.909  0.000  0.000     1.867     2.137
 786   1 H      0.116  0.884  0.000  0.000     1.642     2.004
 787   1 H      0.091  0.909  0.000  0.000     1.868     2.137
 788   1 H      0.300  0.700  0.000  0.000     0.713     1.323
 789   1 H      0.254  0.746  0.000  0.000     0.868     1.460
 790   1 H      0.284  0.716  0.000  0.000     0.762     1.368
 791   7 N     -0.397  1.321  4.076  0.000    30.301     8.175
 792   6 C      0.043  1.055  2.902  0.000    19.870     6.350
 793   6 C      0.197  1.088  2.715  0.000    23.806     7.991
 794   8 O     -0.362  1.756  4.606  0.000    20.941     6.135
 795   6 C     -0.061  1.055  3.006  0.000    21.664     6.624
 796   6 C     -0.006  1.054  2.953  0.000    20.657     6.464
 797   6 C     -0.098  1.037  3.061  0.000    22.430     6.752
 798   6 C     -0.124  1.040  3.084  0.000    22.930     6.827
 799   1 H      0.181  0.819  0.000  0.000     1.207     1.721
 800   1 H      0.052  0.948  0.000  0.000     2.300     2.372
 801   1 H      0.037  0.963  0.000  0.000     2.490     2.468
 802   1 H      0.035  0.965  0.000  0.000     2.512     2.479
 803   1 H      0.025  0.975  0.000  0.000     2.657     2.549
 804   1 H      0.033  0.967  0.000  0.000     2.545     2.495
 805   1 H      0.010  0.990  0.000  0.000     2.885     2.656
 806   1 H      0.034  0.966  0.000  0.000     2.529     2.487
 807   1 H      0.044  0.956  0.000  0.000     2.400     2.423
 808   1 H      0.054  0.946  0.000  0.000     2.266     2.354
 809   1 H      0.046  0.954  0.000  0.000     2.365     2.405
 810   7 N     -0.399  1.324  4.075  0.000    30.343     8.181
 811   6 C      0.014  1.064  2.922  0.000    20.369     6.429
 812   6 C      0.277  1.042  2.681  0.000    22.309     7.734
 813   8 O     -0.480  1.731  4.748  0.000    23.343     6.478
 814   6 C      0.070  1.040  2.890  0.000    19.623     6.346
 815   8 O     -0.475  1.723  4.752  0.000    22.367     6.384
 816   1 H      0.156  0.844  0.000  0.000     1.360     1.827
 817   1 H      0.057  0.943  0.000  0.000     2.230     2.335
 818   1 H      0.062  0.938  0.000  0.000     2.171     2.304
 819   1 H      0.038  0.962  0.000  0.000     2.472     2.459
 820   1 H      0.326  0.674  0.000  0.000     0.647     1.264
 821   7 N     -0.173  1.233  3.940  0.000    24.738     7.387
 822   6 C      0.033  1.051  2.915  0.000    20.018     6.371
 823   6 C      0.273  1.038  2.689  0.000    22.387     7.749
 824   8 O     -0.490  1.743  4.747  0.000    23.573     6.510
 825   6 C     -0.056  1.048  3.009  0.000    21.574     6.611
 826   6 C     -0.096  1.052  3.044  0.000    22.326     6.726
 827   6 C      0.292  1.035  2.673  0.000    22.056     7.690
 828   8 O     -0.501  1.755  4.746  0.000    23.817     6.543
 829   7 N     -0.286  1.264  4.022  0.000    27.380     7.771
 830   1 H      0.218  0.782  0.000  0.000     1.020     1.582
 831   1 H      0.047  0.953  0.000  0.000     2.354     2.399
 832   1 H      0.048  0.952  0.000  0.000     2.346     2.395
 833   1 H      0.065  0.935  0.000  0.000     2.141     2.288
 834   1 H      0.072  0.928  0.000  0.000     2.063     2.246
 835   1 H      0.055  0.945  0.000  0.000     2.255     2.348
 836   1 H      0.230  0.770  0.000  0.000     0.967     1.540
 837   1 H      0.238  0.762  0.000  0.000     0.933     1.513
 838   7 N     -0.186  1.248  3.938  0.000    25.028     7.430
 839   6 C      0.037  1.058  2.906  0.000    19.954     6.359
 840   6 C      0.278  1.041  2.681  0.000    22.292     7.732
 841   8 O     -0.487  1.724  4.763  0.000    23.497     6.499
 842   6 C     -0.040  1.044  2.996  0.000    21.274     6.565
 843   6 C     -0.090  1.063  3.027  0.000    22.218     6.711
 844   6 C      0.371  1.023  2.605  0.000    20.708     7.447
 845   8 O     -0.610  1.757  4.853  0.000    26.366     6.884
 846   8 O     -0.666  1.777  4.889  0.000    27.795     7.068
 847   1 H      0.228  0.772  0.000  0.000     0.973     1.545
 848   1 H      0.048  0.952  0.000  0.000     2.346     2.395
 849   1 H      0.063  0.937  0.000  0.000     2.159     2.298
 850   1 H      0.025  0.975  0.000  0.000     2.655     2.548
 851   1 H      0.004  0.996  0.000  0.000     2.994     2.706
 852   1 H      0.020  0.980  0.000  0.000     2.736     2.587
 853   7 N     -0.163  1.241  3.922  0.000    24.529     7.356
 854   6 C      0.014  1.066  2.920  0.000    20.354     6.425
 855   6 C      0.274  1.040  2.686  0.000    22.363     7.744
 856   8 O     -0.518  1.754  4.764  0.000    24.179     6.593
 857   6 C      0.116  1.046  2.838  0.000    18.776     6.185
 858   8 O     -0.470  1.715  4.755  0.000    22.249     6.367
 859   6 C     -0.151  1.046  3.105  0.000    23.480     6.910
 860   1 H      0.201  0.799  0.000  0.000     1.099     1.642
 861   1 H      0.066  0.934  0.000  0.000     2.130     2.282
 862   1 H      0.044  0.956  0.000  0.000     2.396     2.421
 863   1 H      0.329  0.671  0.000  0.000     0.639     1.256
 864   1 H      0.086  0.914  0.000  0.000     1.916     2.165
 865   1 H      0.063  0.937  0.000  0.000     2.168     2.303
 866   1 H      0.062  0.938  0.000  0.000     2.171     2.304
 867   7 N     -0.172  1.247  3.925  0.000    24.723     7.385
 868   6 C      0.019  1.070  2.911  0.000    20.266     6.412
 869   6 C      0.360  1.028  2.613  0.000    20.898     7.481
 870   8 O     -0.579  1.767  4.811  0.000    25.598     6.783
 871   6 C     -0.059  1.050  3.009  0.000    21.621     6.619
 872   6 C      0.014  1.083  2.903  0.000    27.697     8.632
 873   6 C     -0.040  1.079  2.962  0.000    29.004     8.832
 874   6 C     -0.040  1.078  2.962  0.000    28.994     8.831
 875   6 C     -0.024  1.079  2.945  0.000    28.608     8.771
 876   6 C     -0.033  1.078  2.955  0.000    28.814     8.803
 877   6 C     -0.028  1.077  2.950  0.000    28.695     8.784
 878   8 O     -0.572  1.739  4.833  0.000    25.427     6.761
 879   1 H      0.214  0.786  0.000  0.000     1.036     1.594
 880   1 H      0.046  0.954  0.000  0.000     2.370     2.407
 881   1 H      0.026  0.974  0.000  0.000     2.650     2.546
 882   1 H      0.054  0.946  0.000  0.000     2.268     2.355
 883   1 H      0.027  0.973  0.000  0.000     2.637     2.539
 884   1 H      0.006  0.994  0.000  0.000     2.963     2.692
 885   1 H      0.030  0.970  0.000  0.000     2.589     2.516
 886   1 H      0.032  0.968  0.000  0.000     2.552     2.498
 887   1 H      0.042  0.958  0.000  0.000     2.419     2.432
 888   1 H      0.190  0.810  0.000  0.000     1.156     1.684
 889   1 H      0.183  0.817  0.000  0.000     1.197     1.714
 890   1 H      0.091  0.909  0.000  0.000     1.872     2.140
 891   1 H      0.156  0.844  0.000  0.000     1.358     1.825
 892   1 H      0.058  0.942  0.000  0.000     2.223     2.332
 893   1 H      0.186  0.814  0.000  0.000     1.181     1.703
 894   1 H      0.070  0.930  0.000  0.000     2.085     2.258
 895   1 H      0.195  0.805  0.000  0.000     1.133     1.668
 896   1 H      0.087  0.913  0.000  0.000     1.911     2.161
 897   1 H      0.174  0.826  0.000  0.000     1.247     1.749
 898   1 H      0.080  0.920  0.000  0.000     1.977     2.198
 899   1 H      0.180  0.820  0.000  0.000     1.213     1.725
 900   1 H      0.084  0.916  0.000  0.000     1.937     2.176
 901   1 H      0.187  0.813  0.000  0.000     1.175     1.698
 902   1 H      0.071  0.929  0.000  0.000     2.070     2.250
 903   1 H      0.178  0.822  0.000  0.000     1.227     1.735
 904   1 H      0.066  0.934  0.000  0.000     2.129     2.282
 905   1 H      0.186  0.814  0.000  0.000     1.182     1.703
 906   1 H      0.086  0.914  0.000  0.000     1.914     2.163
 907   1 H      0.177  0.823  0.000  0.000     1.232     1.739
 908   1 H      0.093  0.907  0.000  0.000     1.853     2.128
 909   1 H      0.175  0.825  0.000  0.000     1.243     1.746
 910   1 H      0.057  0.943  0.000  0.000     2.230     2.335
 911   1 H      0.187  0.813  0.000  0.000     1.177     1.699
 912   1 H      0.102  0.898  0.000  0.000     1.770     2.080
 913   1 H      0.172  0.828  0.000  0.000     1.263     1.761
 914   1 H      0.184  0.816  0.000  0.000     1.190     1.709
 915   1 H      0.070  0.930  0.000  0.000     2.086     2.258
 916   1 H      0.175  0.825  0.000  0.000     1.244     1.747
 917   1 H      0.077  0.923  0.000  0.000     2.008     2.216
 918   1 H      0.185  0.815  0.000  0.000     1.184     1.705
 919   1 H      0.076  0.924  0.000  0.000     2.022     2.224
 920   1 H      0.160  0.840  0.000  0.000     1.336     1.810
 921   1 H      0.078  0.922  0.000  0.000     2.003     2.213

 Mol. C6AA /au·bohr⁶  :    8136260.880068
 Mol. C8AA /au·bohr⁸  :  184809119.127466
 Mol. α(0) /au        :       4310.691652

 
molecular dipole:
                 x           y           z       tot (Debye)
 q only:     -153.421    -219.278    -496.961
   full:     -150.575    -217.110    -495.387    1427.074
molecular quadrupole (traceless):
                xx          xy          yy          xz          yz          zz
 q only:    44102.787  -16949.824   28322.826  -38235.949  -54570.325  -72425.613
  q+dip:    43815.697  -16456.904   28210.961  -37527.738  -53825.797  -72026.658
   full:    43822.192  -16456.291   28209.963  -37528.000  -53827.554  -72032.155
speedup  1.92
cpu  time for grad    3 m 39.9 s
wall time for grad    1 m 54.8 s

SCC energy    :   -1418.7238798
rep           :      17.8215616
ES            :       4.2054178
AES           :      -0.1602504
AXC           :       0.4917745
disp          :      -1.3097335
XB            :       0.0000000
fix           :       0.0000000
Gborn         :       0.0000000
Gsasa         :       0.0000000
Ghb           :       0.0000000
Gshift        :       0.0000000
Gsolv         :      -1.1159542     -700.27
Etot ala COSMO:   -1418.7238798
grad norm     :       0.9392349
total E       :   -1400.7413124
atomizationE  :     260.5036142   163468.49
(atE without considering molecular charge,
 total energy contains solvation terms)
H-L gap (eV)  :          0.7136

------------------------------------------------------------------------
 * finished run on 2019/05/12 at 03:19:23.715     
------------------------------------------------------------------------
 total:
 * wall-time:     0 d,  0 h,  2 min,  1.594 sec
 *  cpu-time:     0 d,  0 h,  3 min, 46.551 sec
 * ratio c/w:     1.863 speedup
 SCF:
 * wall-time:     0 d,  0 h,  1 min, 58.052 sec
 *  cpu-time:     0 d,  0 h,  3 min, 43.836 sec
 * ratio c/w:     1.896 speedup

