      -----------------------------------------------------------      
     |                   =====================                   |     
     |                           x T B                           |     
     |                   =====================                   |     
     |                         S. Grimme                         |     
     |          Mulliken Center for Theoretical Chemistry        |     
     |                    University of Bonn                     |     
     |                 Version 6.0.1 (SAW181210)                 |     
      -----------------------------------------------------------      

   This program is distributed in the hope that it will be useful,
   but WITHOUT ANY WARRANTY; without even the implied warranty of
   MERCHANTABILITY or FITNESS FOR A PARTICULAR PURPOSE.
   
   FOR NON-COMMERCIAL, ACADEMIA USE ONLY.
   
   Cite this work as:
   S. Grimme, C. Bannwarth, P. Shushkov, J. Comput. Theory Chem., 2017,
   13, 1989-2009.
   C. Bannwarth, S. Ehlert and S. Grimme., ChemRxiv, 2018, preprint.
   http://doi.org/10.26434/chemrxiv.7246238.v1
   
   for sTDA-xTB:
   S. Grimme and C. Bannwarth, J. Chem. Phys., 2016, 145, 054103.
   
   in the mass-spec context:
   V. Asgeirsson, C. Bauer and S. Grimme, Chem. Sci., 2017, 8, 4879.
   
   if GBSA is used:
   P. Shushkov, F. März and S. Grimme, unpublished.
   
   for ANC optimizer:
   S. Grimme, unpublished.
   Rational Function algorithm used in ANCopt:
   F. Eckert, P. Pulay, H.-J. Werner, J. Comput. Chem., 1997, 18, 1473.
   
   with help from (in alphabetical order)
   C. Bannwarth, F. Bohle, G. Brandenburg, E. Caldeweyher, M. Checinski,
   S. Dohm, S. Ehlert, S. Ehrlich, F. März, H. Neugebauer, J. Pisarek,
   P. Pracht, P. Shushkov, and S. Spicher.
   
 * started run on 2019/05/10 at 08:26:44.483     
========================================================================
 # omp threads = 2
========================================================================
number of atoms            : 335
number of electrons        : 936
charge                     : -3
spin                       : .0
first test random number   : .2895

########################################################################
# WARNING! Please study the warnings concerning your input carefully
#  - Process number higher than OMP_NUM_THREADS, I hope you know what you are doing.
########################################################################

           ------------------------------------------------- 
          |                 G F N 2 - x T B                 |
          | Geometry, Frequencies, Noncovalent interactions |
          |            JCTC 2018 parametrisation            |
           ------------------------------------------------- 
 
      method parameters     
 k(s)        :  1.8500
 k(p)        :  2.2300
 k(d)        :  2.2300
 k(f)        :  2.0000
 kEN (H0ij)  : -2.0000
 D4 a1       :  0.5200
 D4 a2       :  5.0000
 D4 s6       :  1.0000
 D4 s8       :  2.7000
 D4 s9       :  5.0000
 alphaj      :  2.0000

 Solvent             : h2o
 Using internal parameter file: .param_gbsa2_h2o
 Gsolv ref. state (COSMO-RS): gsolv [1 M gas/solution]
 temperature (mdtemp)       :    298.150000000000     
 dielectric constant        :    80.2000000000000     
 rho                        :    1.00000000000000     
 mass                       :    18.0000000000000     
 surface tension            :    15.5689454083859     
 probe radius               :   0.975313790000000     
 vdW radii scaling          :    1.00000000000000     
 Gshift (Eh)                :   1.857443126794793E-003
 c1                         :    1.55243817000000     
 soset                      :   0.130326360000000     
 HB correction              :  T

            Z     q(EN)     CN     RAES       Cart. coordinates
     1  N   5.0   -0.21    3.24    1.96    73.70406    69.34885   168.25325
     2  C   4.0    0.02    4.14    3.88    74.25923    68.01045   165.92768
     3  C   4.0    0.06    3.21    3.04    72.72325    65.56739   165.91877
     4  O   6.0   -0.32    1.17    1.80    72.83792    64.04768   167.67121
     5  C   4.0   -0.08    4.10    3.80    77.08807    67.45069   165.78205
     6  H   1.0    0.12    1.06    1.44    74.16029    68.46561   169.91063
     7  H   1.0    0.02    1.05    1.44    73.66437    69.21005   164.35285
     8  H   1.0    0.03    1.00    1.43    77.49123    66.26817   164.15620
     9  H   1.0    0.03    1.00    1.43    78.13405    69.21127   165.61372
    10  H   1.0    0.05    1.00    1.43    77.69135    66.48711   167.49351
    11  N   5.0   -0.21    3.25    1.97    70.49581    58.71275   162.56972
    12  C   4.0    0.02    4.23    4.06    71.36138    56.56348   161.11711
    13  C   4.0    0.06    3.23    3.04    69.35605    54.50363   161.36657
    14  O   6.0   -0.32    1.15    1.80    67.97334    54.38411   163.21542
    15  C   4.0   -0.05    4.33    4.26    73.87867    55.49865   162.09570
    16  C   4.0   -0.05    4.07    3.75    75.94874    57.48884   161.94415
    17  S   6.0   -0.06    2.48    3.10    79.06992    56.06993   161.59371
    18  C   4.0   -0.06    3.88    3.44    79.47370    54.69145   164.69095
    19  H   1.0    0.09    1.04    1.43    69.70945    58.27471   164.25723
    20  H   1.0    0.02    1.05    1.44    71.59913    57.19778   159.16348
    21  H   1.0    0.04    1.03    1.43    73.65634    54.85998   164.04668
    22  H   1.0    0.03    1.05    1.44    74.42624    53.87456   160.94825
    23  H   1.0    0.03    1.08    1.44    75.70846    58.66706   160.27388
    24  H   1.0    0.04    1.06    1.44    75.98588    58.70002   163.61113
    25  H   1.0    0.05    1.05    1.44    81.36539    53.90411   164.77148
    26  H   1.0    0.05    1.04    1.43    79.29111    56.14417   166.13076
    27  H   1.0    0.04    1.04    1.43    78.11017    53.19139   165.00300
    28  N   5.0   -0.21    3.24    1.97    70.92413    64.92848   172.71828
    29  C   4.0    0.02    4.34    4.27    72.77736    64.40640   174.66567
    30  C   4.0    0.14    3.49    3.11    74.50301    66.69490   174.99106
    31  O   6.0   -0.32    1.32    1.80    75.21833    67.89503   173.12665
    32  C   4.0   -0.03    4.29    4.19    74.29874    62.06292   173.82125
    33  C   4.0   -0.03    3.68    3.22    75.69060    60.85546   175.94707
    34  C   4.0   -0.01    3.63    3.19    77.81786    61.73141   177.12330
    35  C   4.0   -0.00    3.89    3.45    74.97134    58.60810   177.25234
    36  N   5.0   -0.12    3.50    2.08    78.45359    60.19223   179.09053
    37  C   4.0    0.03    3.89    3.45    76.75170    58.26418   179.22636
    38  C   4.0   -0.06    3.40    3.08    73.02251    56.85562   176.94536
    39  C   4.0   -0.06    3.40    3.08    76.56910    56.24851   180.90346
    40  C   4.0   -0.06    3.37    3.07    72.85353    54.86720   178.61823
    41  C   4.0   -0.06    3.37    3.07    74.60412    54.57022   180.58172
    42  H   1.0    0.12    1.07    1.44    71.55128    64.63207   170.92648
    43  H   1.0    0.03    1.06    1.44    71.75081    64.03496   176.41784
    44  H   1.0    0.04    1.04    1.43    72.95100    60.72468   173.01982
    45  H   1.0    0.06    1.03    1.43    75.58873    62.65545   172.32316
    46  H   1.0    0.07    1.03    1.43    78.92676    63.38444   176.73591
    47  H   1.0    0.10    1.07    1.44    80.00922    60.41686   180.16469
    48  H   1.0    0.04    1.03    1.43    71.68862    57.10489   175.42570
    49  H   1.0    0.04    1.02    1.43    77.93840    56.00784   182.39975
    50  H   1.0    0.03    1.03    1.43    71.34119    53.51342   178.44777
    51  H   1.0    0.03    1.03    1.43    74.47639    52.97925   181.85045
    52  N   5.0   -0.10    3.66    2.22    75.17070    67.39597   177.32178
    53  C   4.0    0.03    4.58    4.64    76.79164    69.60506   177.70769
    54  C   4.0    0.15    3.44    3.09    79.43529    69.12062   176.63260
    55  O   6.0   -0.32    1.28    1.80    80.57635    67.13610   177.02787
    56  C   4.0   -0.06    4.33    4.26    76.85083    69.94080   180.58789
    57  C   4.0   -0.05    4.27    4.14    76.41361    67.26061   181.55985
    58  C   4.0   -0.02    4.36    4.31    74.47492    66.21215   179.70109
    59  H   1.0    0.03    1.05    1.44    75.98896    71.25001   176.74239
    60  H   1.0    0.03    1.02    1.43    78.62084    70.74718   181.26070
    61  H   1.0    0.02    1.02    1.43    75.31621    71.18526   181.17003
    62  H   1.0    0.05    1.03    1.43    78.16848    66.18510   181.42625
    63  H   1.0    0.02    1.02    1.43    75.76776    67.20281   183.50951
    64  H   1.0    0.04    1.03    1.43    74.56480    64.16094   179.58235
    65  H   1.0    0.02    1.02    1.43    72.56116    66.79348   180.23983
    66  N   5.0   -0.14    3.48    2.06    80.41998    71.00166   175.27994
    67  C   4.0    0.04    4.25    4.11    82.68780    70.63501   173.79234
    68  C   4.0    0.07    3.21    3.04    83.75336    73.21124   173.04953
    69  O   6.0   -0.32    1.14    1.80    82.66137    75.18967   173.55498
    70  C   4.0   -0.06    4.11    3.82    82.07384    69.05484   171.44694
    71  H   1.0    0.08    1.07    1.44    79.39451    72.55789   174.82456
    72  H   1.0    0.06    1.05    1.44    84.10207    69.63690   174.93067
    73  H   1.0    0.05    1.00    1.43    83.79414    68.47460   170.50215
    74  H   1.0    0.06    1.00    1.43    81.02614    67.37927   172.01042
    75  H   1.0    0.04    1.00    1.43    80.90328    70.12892   170.14354
    76  N   5.0   -0.22    3.21    1.96    94.89692    75.08360   165.19513
    77  C   4.0    0.04    4.26    4.12    97.46970    75.25086   166.07455
    78  C   4.0    0.08    3.23    3.04    99.43015    75.40461   163.95524
    79  O   6.0   -0.32    1.13    1.80   101.63419    75.85868   164.49359
    80  C   4.0   -0.03    4.26    4.12    98.14682    73.13954   167.90992
    81  C   4.0    0.25    3.12    3.03    97.94874    70.49977   166.59349
    82  O   6.0   -0.29    1.23    1.80    97.47327    70.50924   164.28359
    83  O   6.0   -0.31    1.17    1.80    98.24011    68.64026   168.00245
    84  H   1.0    0.12    1.05    1.44    94.43540    73.52275   164.18663
    85  H   1.0    0.03    1.06    1.44    97.62543    77.07683   167.06176
    86  H   1.0    0.05    1.03    1.43   100.09837    73.37098   168.52763
    87  H   1.0    0.03    1.02    1.43    96.90418    73.15960   169.55319
    88  N   5.0   -0.21    3.20    1.95    92.57654    70.71526   155.84289
    89  C   4.0    0.03    4.33    4.26    93.15337    68.72594   157.65215
    90  C   4.0    0.15    3.42    3.09    92.10441    69.49447   160.25587
    91  O   6.0   -0.30    1.23    1.80    92.49709    71.59838   161.16666
    92  C   4.0   -0.05    4.25    4.09    95.96301    68.09824   157.84804
    93  C   4.0   -0.03    4.27    4.13    96.30648    66.00162   159.80226
    94  C   4.0    0.15    3.21    3.04    98.88366    64.74196   159.74195
    95  O   6.0   -0.29    1.19    1.80   100.33579    64.75278   161.54066
    96  N   5.0   -0.20    3.20    1.96    99.33006    63.39884   157.62936
    97  H   1.0    0.08    1.02    1.43    93.65126    72.29163   155.90537
    98  H   1.0    0.05    1.06    1.44    92.12793    67.04633   157.01071
    99  H   1.0    0.03    1.03    1.43    96.68869    67.52593   156.00622
   100  H   1.0    0.05    1.02    1.43    97.02477    69.75740   158.46756
   101  H   1.0    0.08    1.03    1.43    96.07453    66.79751   161.69305
   102  H   1.0    0.05    1.03    1.43    94.89019    64.52544   159.51114
   103  H   1.0    0.08    1.07    1.44    98.22589    63.57286   156.07855
   104  H   1.0    0.08    1.03    1.43   101.07934    62.70006   157.34567
   105  N   5.0   -0.14    3.51    2.09    90.57909    67.78413   161.28618
   106  C   4.0    0.04    4.51    4.56    89.27144    68.13715   163.64989
   107  C   4.0    0.15    3.44    3.09    90.41871    66.42599   165.66727
   108  O   6.0   -0.31    1.27    1.80    91.06446    64.25798   165.16288
   109  C   4.0   -0.02    4.29    4.18    86.47911    67.42444   163.24776
   110  C   4.0   -0.08    4.14    3.88    85.04529    67.46208   165.73885
   111  C   4.0   -0.08    4.12    3.85    85.28678    69.24060   161.35856
   112  H   1.0    0.11    1.11    1.44    90.42454    66.03339   160.51881
   113  H   1.0    0.05    1.06    1.44    89.45840    70.11091   164.22429
   114  H   1.0    0.05    1.06    1.44    86.45039    65.50548   162.47209
   115  H   1.0    0.03    1.00    1.43    83.04002    67.15261   165.41764
   116  H   1.0    0.05    1.00    1.43    85.72008    65.98490   166.99946
   117  H   1.0    0.04    1.00    1.43    85.30130    69.28883   166.64496
   118  H   1.0    0.03    1.00    1.43    83.33747    68.70017   161.00325
   119  H   1.0    0.04    1.00    1.43    85.31004    71.15175   162.11847
   120  H   1.0    0.05    1.00    1.43    86.32467    69.22105   159.58560
   121  N   5.0   -0.14    3.48    2.06    90.53426    67.42717   167.98247
   122  C   4.0    0.04    4.43    4.43    91.27168    66.04513   170.21652
   123  C   4.0    0.15    3.48    3.11    89.00054    66.02853   171.99177
   124  O   6.0   -0.32    1.24    1.80    88.01750    68.03124   172.64370
   125  C   4.0   -0.03    4.35    4.29    93.44715    67.41139   171.54569
   126  C   4.0   -0.01    3.57    3.15    94.10095    66.25087   174.05180
   127  C   4.0   -0.03    3.46    3.10    95.94385    64.38477   174.20258
   128  C   4.0   -0.03    3.47    3.10    92.96940    67.09824   176.27380
   129  C   4.0   -0.04    3.37    3.07    96.73515    63.47269   176.51996
   130  C   4.0   -0.04    3.37    3.07    93.76465    66.19517   178.59797
   131  C   4.0   -0.05    3.38    3.07    95.67819    64.41293   178.72460
   132  H   1.0    0.08    1.07    1.44    89.97352    69.23956   168.24457
   133  H   1.0    0.06    1.06    1.44    91.79182    64.12375   169.67323
   134  H   1.0    0.07    1.04    1.43    95.10348    67.42828   170.31211
   135  H   1.0    0.05    1.04    1.43    92.80781    69.35707   171.80423
   136  H   1.0    0.05    1.03    1.43    96.80965    63.70416   172.48753
   137  H   1.0    0.06    1.03    1.43    91.45767    68.47329   176.20804
   138  H   1.0    0.05    1.03    1.43    98.22749    62.08655   176.61829
   139  H   1.0    0.04    1.03    1.43    92.90008    66.91160   180.30549
   140  H   1.0    0.04    1.03    1.43    96.34687    63.75372   180.53503
   141  N   5.0   -0.14    3.48    2.06    88.14385    63.75620   172.64786
   142  C   4.0    0.04    4.43    4.43    85.93731    63.40990   174.22241
   143  C   4.0    0.16    3.45    3.09    86.69780    63.32502   177.01000
   144  O   6.0   -0.30    1.28    1.80    88.31395    61.87049   177.81221
   145  C   4.0   -0.03    4.35    4.28    84.60980    60.92588   173.55825
   146  C   4.0   -0.01    3.57    3.15    83.55660    60.97421   170.93243
   147  C   4.0   -0.04    3.47    3.10    81.05556    61.64787   170.51902
   148  C   4.0   -0.03    3.48    3.10    85.05829    60.36491   168.87419
   149  C   4.0   -0.04    3.37    3.07    80.05459    61.65803   168.10527
   150  C   4.0   -0.04    3.38    3.07    84.07281    60.42247   166.45463
   151  C   4.0   -0.05    3.38    3.07    81.56723    61.05423   166.05946
   152  H   1.0    0.11    1.11    1.45    89.16760    62.19851   172.21747
   153  H   1.0    0.05    1.06    1.44    84.68191    65.01825   173.88728
   154  H   1.0    0.06    1.03    1.43    85.97003    59.38533   173.76620
   155  H   1.0    0.05    1.03    1.43    83.09320    60.60618   174.92074
   156  H   1.0    0.05    1.03    1.43    79.88268    62.12059   172.12096
   157  H   1.0    0.06    1.03    1.43    87.00390    59.81077   169.15161
   158  H   1.0    0.05    1.03    1.43    78.08465    62.11510   167.82999
   159  H   1.0    0.05    1.03    1.43    85.28754    59.93991   164.88908
   160  H   1.0    0.04    1.03    1.43    80.80880    61.03143   164.16707
   161  N   5.0   -0.13    3.48    2.07    85.50306    64.98109   178.49594
   162  C   4.0    0.04    4.37    4.33    86.05805    65.02266   181.16708
   163  C   4.0    0.07    3.26    3.04    85.13660    62.59096   182.40468
   164  O   6.0   -0.31    1.20    1.80    83.43691    61.29586   181.49035
   165  C   4.0   -0.05    4.34    4.27    84.84388    67.31196   182.41462
   166  C   4.0   -0.02    3.58    3.15    86.05056    69.72473   181.54050
   167  C   4.0   -0.06    3.47    3.10    88.44596    70.36744   182.39979
   168  C   4.0   -0.04    3.47    3.10    84.78443    71.37396   179.94653
   169  C   4.0   -0.06    3.38    3.07    89.52673    72.63165   181.67868
   170  C   4.0   -0.05    3.37    3.07    85.86817    73.63731   179.21249
   171  C   4.0   -0.06    3.38    3.07    88.24385    74.27126   180.08749
   172  H   1.0    0.10    1.09    1.44    83.92849    65.90501   177.88691
   173  H   1.0    0.04    1.06    1.44    88.11516    65.11603   181.40577
   174  H   1.0    0.04    1.03    1.43    82.82187    67.31457   182.00580
   175  H   1.0    0.02    1.04    1.43    85.13078    67.16070   184.44895
   176  H   1.0    0.03    1.03    1.43    89.41655    69.12089   183.69448
   177  H   1.0    0.05    1.04    1.43    82.90051    70.90721   179.32891
   178  H   1.0    0.03    1.03    1.43    91.36674    73.16423   182.38606
   179  H   1.0    0.05    1.03    1.43    84.82869    74.89485   177.98950
   180  H   1.0    0.03    1.03    1.43    89.12469    76.04202   179.59776
   181  N   5.0   -0.21    3.30    1.98    86.33361    56.84914   182.69020
   182  C   4.0    0.03    4.39    4.36    87.31649    54.57728   181.56014
   183  C   4.0    0.15    3.45    3.09    89.88547    54.95178   180.25417
   184  O   6.0   -0.31    1.22    1.80    91.26557    53.14986   179.81809
   185  C   4.0    0.06    4.25    4.10    85.46514    53.55356   179.57048
   186  O   6.0   -0.25    2.14    1.85    85.47984    55.28946   177.53673
   187  C   4.0   -0.08    4.08    3.77    82.84001    53.18864   180.70400
   188  H   1.0    0.12    1.06    1.44    85.42078    58.08774   181.55737
   189  H   1.0    0.03    1.05    1.44    87.57926    53.19055   183.07195
   190  H   1.0    0.04    1.04    1.43    86.19748    51.71803   178.91412
   191  H   1.0    0.15    1.08    1.44    84.79005    54.41430   176.03674
   192  H   1.0    0.05    1.00    1.43    81.56211    52.47838   179.26319
   193  H   1.0    0.02    1.00    1.43    82.91544    51.84465   182.24999
   194  H   1.0    0.04    1.00    1.43    82.11894    54.98408   181.38649
   195  N   5.0   -0.14    3.55    2.11    90.43738    57.34556   179.66752
   196  C   4.0    0.04    4.42    4.42    92.81077    58.11149   178.55365
   197  C   4.0    0.16    3.42    3.08    93.29784    56.78415   176.01711
   198  O   6.0   -0.30    1.23    1.80    95.42142    56.34510   175.22648
   199  C   4.0   -0.03    4.31    4.21    95.00871    57.68569   180.38969
   200  C   4.0    0.05    3.76    3.29    94.67585    58.97754   182.87709
   201  N   5.0   -0.20    2.52    1.90    95.91818    58.11323   184.97294
   202  C   4.0   -0.02    3.61    3.17    93.25438    61.04372   183.52750
   203  C   4.0    0.04    3.64    3.19    95.27375    59.63576   186.81591
   204  N   5.0   -0.14    3.44    2.04    93.66305    61.44875   186.04727
   205  H   1.0    0.11    1.10    1.44    89.11439    58.70480   179.83932
   206  H   1.0    0.06    1.06    1.44    92.64991    60.12768   178.10840
   207  H   1.0    0.06    1.03    1.43    95.20002    55.65688   180.70644
   208  H   1.0    0.04    1.03    1.43    96.73772    58.35496   179.47489
   209  H   1.0    0.05    1.02    1.43    91.99888    62.20229   182.44025
   210  H   1.0    0.02    1.02    1.43    95.91960    59.50011   188.72922
   211  H   1.0    0.05    1.04    1.43    92.83095    62.77543   187.16436
   212  N   5.0   -0.12    3.54    2.11    91.20717    56.17097   174.72714
   213  C   4.0    0.04    4.43    4.43    91.34525    55.26098   172.15453
   214  C   4.0    0.15    3.43    3.09    91.69571    57.49835   170.36204
   215  O   6.0   -0.32    1.31    1.80    91.18859    59.66535   171.04689
   216  C   4.0   -0.04    4.28    4.15    88.92974    53.81831   171.49822
   217  C   4.0   -0.03    4.19    3.98    88.56453    51.53879   173.21580
   218  C   4.0    0.24    3.11    3.02    85.75863    50.67860   173.33400
   219  O   6.0   -0.33    1.31    1.80    84.12322    52.39345   173.58327
   220  O   6.0   -0.31    1.16    1.80    85.32496    48.38193   173.23911
   221  H   1.0    0.10    1.08    1.44    89.49954    56.70734   175.39091
   222  H   1.0    0.06    1.06    1.44    92.99713    54.02439   171.99678
   223  H   1.0    0.06    1.03    1.43    87.30739    55.08644   171.70408
   224  H   1.0    0.06    1.03    1.43    89.02251    53.20357   169.53269
   225  H   1.0    0.05    1.03    1.43    89.69875    49.94919   172.56828
   226  H   1.0    0.06    1.03    1.43    89.12637    52.01561   175.14652
   227  N   5.0   -0.13    3.47    2.06    92.49627    56.94743   168.03638
   228  C   4.0    0.05    4.50    4.53    92.36970    58.77806   166.02186
   229  C   4.0    0.15    3.44    3.09    91.02405    57.61061   163.75638
   230  O   6.0   -0.30    1.25    1.80    90.91648    55.32368   163.43002
   231  C   4.0    0.06    4.24    4.07    94.95368    59.82178   165.14356
   232  O   6.0   -0.24    2.13    1.84    96.15345    57.99184   163.61931
   233  C   4.0   -0.06    4.08    3.76    96.56044    60.63183   167.38948
   234  H   1.0    0.12    1.08    1.44    92.88259    55.13793   167.54331
   235  H   1.0    0.07    1.08    1.44    91.29350    60.39755   166.71986
   236  H   1.0    0.06    1.04    1.43    94.54207    61.50718   163.98859
   237  H   1.0    0.12    1.03    1.43    97.88488    58.51971   163.38112
   238  H   1.0    0.05    1.00    1.43    98.31873    61.47714   166.74037
   239  H   1.0    0.06    1.00    1.43    95.53957    62.05351   168.45998
   240  H   1.0    0.06    1.00    1.43    96.93969    59.02557   168.61368
   241  N   5.0   -0.14    3.49    2.07    90.00135    59.30752   162.19274
   242  C   4.0    0.03    4.32    4.24    88.82748    58.64029   159.80874
   243  C   4.0    0.14    3.42    3.08    88.90008    60.97762   158.11505
   244  O   6.0   -0.32    1.31    1.80    89.72806    63.00081   158.88007
   245  C   4.0   -0.07    4.10    3.81    86.10322    57.71865   160.16365
   246  H   1.0    0.11    1.09    1.44    90.22851    61.18228   162.55163
   247  H   1.0    0.05    1.05    1.44    89.94053    57.10721   158.96153
   248  H   1.0    0.04    1.00    1.43    85.35855    56.89364   158.43724
   249  H   1.0    0.05    1.00    1.43    86.07137    56.25150   161.60464
   250  H   1.0    0.04    1.00    1.43    84.86855    59.25123   160.74961
   251  N   5.0   -0.14    3.47    2.06    87.98954    60.66638   155.78763
   252  C   4.0    0.03    4.43    4.43    87.74564    62.71295   153.99067
   253  C   4.0    0.14    3.45    3.10    84.96256    62.98703   153.25852
   254  O   6.0   -0.33    1.25    1.80    83.77634    61.20682   152.40011
   255  C   4.0   -0.04    4.35    4.30    89.18102    62.11942   151.53769
   256  C   4.0   -0.02    3.56    3.15    91.98480    62.30558   151.87723
   257  C   4.0   -0.05    3.47    3.10    93.15327    64.64915   151.69862
   258  C   4.0   -0.05    3.46    3.10    93.43463    60.16926   152.35496
   259  C   4.0   -0.06    3.38    3.07    95.75143    64.84015   151.89173
   260  C   4.0   -0.05    3.38    3.07    96.02899    60.37053   152.60170
   261  C   4.0   -0.06    3.42    3.08    97.20033    62.69703   152.31921
   262  H   1.0    0.08    1.07    1.44    87.29347    58.97370   155.24247
   263  H   1.0    0.05    1.06    1.44    88.46299    64.43097   154.88230
   264  H   1.0    0.04    1.03    1.43    88.63173    60.22696   150.93244
   265  H   1.0    0.03    1.04    1.43    88.58487    63.51406   150.14391
   266  H   1.0    0.04    1.03    1.43    92.03809    66.32896   151.38695
   267  H   1.0    0.04    1.03    1.43    92.54832    58.33931   152.53484
   268  H   1.0    0.03    1.03    1.43    96.66973    66.65035   151.66685
   269  H   1.0    0.04    1.03    1.43    97.15991    58.72424   153.00732
   270  H   1.0    0.03    1.03    1.43    99.23793    62.80317   152.32467
   271  N   5.0   -0.14    3.46    2.05    84.02553    65.32656   153.42906
   272  C   4.0    0.03    4.34    4.27    81.39160    65.77504   152.87680
   273  C   4.0    0.05    3.22    3.04    81.08201    68.15812   151.29328
   274  O   6.0   -0.32    1.13    1.80    82.55795    69.93136   151.38476
   275  C   4.0   -0.05    4.35    4.30    79.83544    66.08388   155.30431
   276  C   4.0   -0.02    4.18    3.97    79.85079    63.75323   157.01826
   277  C   4.0   -0.09    4.11    3.83    78.55143    64.44419   159.49897
   278  C   4.0   -0.08    4.10    3.80    78.54226    61.48093   155.81262
   279  H   1.0    0.08    1.06    1.44    85.05147    66.74298   154.20274
   280  H   1.0    0.04    1.07    1.44    80.72181    64.11901   151.84019
   281  H   1.0    0.04    1.03    1.43    80.59745    67.69010   156.35286
   282  H   1.0    0.02    1.03    1.43    77.88574    66.53768   154.80343
   283  H   1.0    0.05    1.05    1.44    81.81444    63.24483   157.44195
   284  H   1.0    0.03    1.00    1.43    78.63693    62.86585   160.81213
   285  H   1.0    0.03    1.00    1.43    79.45947    66.07094   160.36949
   286  H   1.0    0.03    1.00    1.43    76.57056    64.89493   159.17354
   287  H   1.0    0.04    1.00    1.43    78.48483    59.93609   157.16625
   288  H   1.0    0.03    1.00    1.43    76.61429    61.96778   155.28811
   289  H   1.0    0.05    1.00    1.43    79.57029    60.82226   154.16531
   290  O   6.0   -0.30    1.92    1.82    79.73262    52.61642   170.76700
   291  H   1.0    0.16    1.01    1.43    81.34277    52.35451   171.63282
   292  H   1.0    0.12    0.97    1.43    78.69246    53.41527   172.02292
   293  N   5.0   -0.20    3.26    1.97    94.24907    50.90224   156.28670
   294  C   4.0    0.03    4.32    4.24    93.53004    51.47682   158.85931
   295  C   4.0    0.14    3.42    3.08    95.64289    50.66164   160.65180
   296  O   6.0   -0.32    1.25    1.80    97.26600    49.13897   159.96695
   297  C   4.0   -0.04    4.28    4.15    91.07289    50.10626   159.51562
   298  C   4.0   -0.03    4.19    3.98    88.91617    50.92974   157.79804
   299  C   4.0    0.24    3.10    3.02    86.76827    48.92985   157.67984
   300  O   6.0   -0.32    1.17    1.80    87.43567    46.65612   157.43057
   301  O   6.0   -0.31    1.16    1.80    84.56246    49.70262   157.77474
   302  H   1.0    0.08    1.03    1.43    93.85976    49.15521   155.62294
   303  H   1.0    0.05    1.05    1.44    93.28506    53.52568   159.01706
   304  H   1.0    0.06    1.03    1.43    91.35995    48.06720   159.30977
   305  H   1.0    0.06    1.03    1.43    90.58690    50.49397   161.48116
   306  H   1.0    0.05    1.03    1.43    88.10665    52.70680   158.44556
   307  H   1.0    0.04    1.03    1.43    89.61003    51.17790   155.86732
   308  N   5.0   -0.13    3.47    2.06    95.56606    51.63040   162.97747
   309  C   4.0    0.04    4.38    4.35    97.08814    50.60547   164.99198
   310  C   4.0    0.08    3.25    3.04    95.40427    50.02383   167.25746
   311  O   6.0   -0.29    1.15    1.80    93.36995    51.07415   167.58382
   312  C   4.0    0.05    4.22    4.04    99.28402    52.32141   165.87028
   313  O   6.0   -0.24    2.13    1.84    98.29913    54.27541   167.39453
   314  C   4.0   -0.08    4.08    3.76   100.78892    53.30788   163.62436
   315  H   1.0    0.11    1.08    1.44    94.19215    52.86972   163.47053
   316  H   1.0    0.04    1.07    1.44    97.95256    48.86372   164.29398
   317  H   1.0    0.02    1.04    1.43   100.53782    51.12224   167.02525
   318  H   1.0    0.11    1.03    1.43    99.62200    55.51093   167.63273
   319  H   1.0    0.03    1.00    1.43   102.40013    54.40795   164.27348
   320  H   1.0    0.03    1.00    1.43   101.50970    51.71294   162.55386
   321  H   1.0    0.05    1.00    1.43    99.58748    54.43945   162.40016
   322  H   1.0    0.08    1.07    1.44    74.55209    70.82292   168.27625
   323  H   1.0    0.03    1.04    1.44    71.58756    65.17063   164.46143
   324  H   1.0    0.09    1.08    1.44    71.80829    59.74474   162.89367
   325  H   1.0    0.03    1.05    1.44    69.15128    53.21393   160.00063
   326  H   1.0    0.08    1.07    1.44    69.56851    63.92591   172.94121
   327  H   1.0    0.05    1.05    1.44    85.39441    73.32237   172.11911
   328  H   1.0    0.09    1.08    1.44    93.83931    75.10329   166.52691
   329  H   1.0    0.05    1.04    1.43    98.90414    75.13580   162.16021
   330  H   1.0    0.08    1.07    1.44    92.74866    70.11221   154.26198
   331  H   1.0    0.04    1.05    1.44    85.91933    61.99685   184.01881
   332  H   1.0    0.08    1.08    1.44    85.20828    56.44128   183.89844
   333  H   1.0    0.03    1.05    1.44    79.61773    68.32278   150.11013
   334  H   1.0    0.08    1.07    1.44    93.45687    51.96816   155.22425
   335  H   1.0    0.04    1.05    1.44    95.95126    48.74635   168.53805

  Z AO/shell   Hii/eV     exponent
  1     Wed Apr 25 08:07:45 CEST 2018   EN: 2.200 GM2: 0.406  GM3: 0.0800  RAES: 1.40
     1s    -10.707211    1.230000
  6     Wed Apr 25 08:07:45 CEST 2018   EN: 2.550 GM2: 0.538  GM3: 0.1500  RAES: 3.00
     2s    -13.970922    2.096432
     2p    -10.063292    1.800000
  7     Wed Apr 25 08:07:45 CEST 2018   EN: 3.040 GM2: 0.461  GM3:-0.0640  RAES: 1.90
     2s    -16.686243    2.339881
     2p    -12.523956    2.014332
  8     Wed Apr 25 08:07:45 CEST 2018   EN: 3.440 GM2: 0.452  GM3:-0.0517  RAES: 1.80
     2s    -20.229985    2.439742
     2p    -15.503117    2.137023
 16     Tue Apr 24 11:44:34 CEST 2018   EN: 2.580 GM2: 0.340  GM3:-0.0502  RAES: 3.10
     3s    -20.029654    1.981333
     3p    -11.377694    2.025643
     3d     -0.420282    1.702555
 no old-style atom pair restraining (fixing) potential

molecular fragmentation (1/2 indicates fragments):
111111111122222222222222222222222222222222222222222222222222222222222222
222222222222222222222222222222222222222222222222222222222222222222222222
222222222222222222222222222222222222222222222222222222222222222222222222
222222222222222222222222222222222222222222222222222222222222222222222222
22222222222222222222222222222222211222222222222
# atoms in fragment 1/2:    12   323
 fragment masses (1/2) :       73.09     2326.67
CMA distance (Bohr)    :  14.329
constraining FC (au)   :  0.0500
           ------------------------------------------------- 
          |        Self-Consistent Charge Iterations        |
           ------------------------------------------------- 

 Ncao       : 851
 Nao        : 850
 Nshell     : 506
 Nel        : 936
 T(el)      :   500.0
 intcut     :    35.0
 scfconv/Eh :  0.100E-06
   qconv/e  :  0.100E-04
 intneglect :  0.100E-08
 broydamp   :      0.400
 iter      E             dE          RMSdq      gap      omega  full diag
   1   -534.1843115 -0.534184E+03  0.476E+00    2.85       0.0  T
   2   -535.5114346 -0.132712E+01  0.228E+00    1.31       1.0  T
   3   -535.5917570 -0.803224E-01  0.129E+00    1.65       1.0  T
   4   -535.6765434 -0.847864E-01  0.275E-01    1.05       1.0  T
   5   -535.6819915 -0.544815E-02  0.142E-01    1.25       1.0  T
   6   -535.6832628 -0.127128E-02  0.697E-02    1.23       1.0  T
   7   -535.6836840 -0.421216E-03  0.358E-02    1.22       1.0  T
   8   -535.6837651 -0.810641E-04  0.190E-02    1.21       1.0  T
   9   -535.6837907 -0.256064E-04  0.896E-03    1.21       1.0  T
  10   -535.6837955 -0.481829E-05  0.451E-03    1.21       1.2  T
  11   -535.6837969 -0.134193E-05  0.192E-03    1.21       2.8  T
  12   -535.6837972 -0.309585E-06  0.893E-04    1.21       6.1  T
  13   -535.6837972 -0.509680E-07  0.326E-04    1.21      16.8  T
  14   -535.6837972 -0.423324E-08  0.155E-04    1.21      35.3  T
  15   -535.6837972 -0.224725E-08  0.545E-05    1.21     100.3  T
  16   -535.6837972 -0.240561E-09  0.262E-05    1.21     208.8  T
speedup  1.95
cpu  time for SCC   11.24 s
wall time for SCC    5.76 s

   *** convergence criteria satisfied after 16 iterations ***

          eigenvalues
 #    :         456        457        458        459        460        461        462        463
 occ. :        2.000      2.000      2.000      2.000      2.000      2.000      2.000      2.000
 eps  :       -10.221    -10.206    -10.183    -10.146    -10.128    -10.092    -10.011     -9.966
 #    :         464        465        466        467        468        469        470        471
 occ. :        2.000      2.000      2.000      2.000      2.000      0.000      0.000      0.000
 eps  :        -9.808     -9.697     -9.670     -9.536     -9.481     -8.273     -8.221     -8.004
 #    :         472        473        474        475        476        477        478        479
 occ. :        0.000      0.000      0.000      0.000      0.000      0.000      0.000      0.000
 eps  :        -7.823     -7.730     -7.714     -7.455     -6.739     -6.608     -6.574     -6.488


   #   Z            q   n(s)   n(p)   n(d)      C6AA      α(0)
   1   7 N     -0.405  1.322  4.083  0.000    30.500     8.202
   2   6 C      0.044  1.053  2.903  0.000    19.852     6.347
   3   6 C      0.201  1.091  2.708  0.000    23.731     7.978
   4   8 O     -0.376  1.756  4.621  0.000    21.216     6.175
   5   6 C     -0.116  1.042  3.074  0.000    22.774     6.804
   6   1 H      0.186  0.814  0.000  0.000     1.182     1.703
   7   1 H      0.054  0.946  0.000  0.000     2.267     2.355
   8   1 H      0.043  0.957  0.000  0.000     2.406     2.425
   9   1 H      0.053  0.947  0.000  0.000     2.288     2.366
  10   1 H      0.045  0.955  0.000  0.000     2.385     2.415
  11   7 N     -0.373  1.311  4.062  0.000    29.630     8.084
  12   6 C      0.031  1.060  2.909  0.000    20.071     6.382
  13   6 C      0.202  1.084  2.714  0.000    23.711     7.975
  14   8 O     -0.368  1.754  4.615  0.000    21.058     6.152
  15   6 C     -0.061  1.053  3.008  0.000    21.653     6.620
  16   6 C     -0.011  1.064  2.947  0.000    20.783     6.491
  17  16 S     -0.226  1.917  4.249  0.059   150.705    20.662
  18   6 C     -0.033  1.045  2.988  0.000    21.227     6.572
  19   1 H      0.168  0.832  0.000  0.000     1.287     1.777
  20   1 H      0.080  0.920  0.000  0.000     1.981     2.201
  21   1 H      0.040  0.960  0.000  0.000     2.454     2.450
  22   1 H      0.050  0.950  0.000  0.000     2.318     2.381
  23   1 H      0.090  0.910  0.000  0.000     1.875     2.142
  24   1 H      0.056  0.944  0.000  0.000     2.243     2.342
  25   1 H      0.015  0.985  0.000  0.000     2.804     2.619
  26   1 H      0.050  0.950  0.000  0.000     2.322     2.383
  27   1 H      0.044  0.956  0.000  0.000     2.394     2.420
  28   7 N     -0.394  1.322  4.072  0.000    30.194     8.161
  29   6 C      0.043  1.057  2.901  0.000    19.873     6.350
  30   6 C      0.258  1.052  2.689  0.000    22.650     7.794
  31   8 O     -0.497  1.743  4.753  0.000    23.710     6.528
  32   6 C     -0.057  1.051  3.006  0.000    21.587     6.614
  33   6 C     -0.045  1.069  2.977  0.000    29.065     8.841
  34   6 C     -0.013  1.071  2.943  0.000    28.305     8.726
  35   6 C     -0.025  1.075  2.950  0.000    28.464     8.739
  36   7 N     -0.116  1.228  3.888  0.000    23.524     7.204
  37   6 C      0.042  1.062  2.896  0.000    26.944     8.508
  38   6 C     -0.044  1.077  2.967  0.000    29.086     8.843
  39   6 C     -0.058  1.073  2.985  0.000    29.445     8.898
  40   6 C     -0.048  1.076  2.972  0.000    29.192     8.860
  41   6 C     -0.044  1.078  2.967  0.000    29.101     8.846
  42   1 H      0.174  0.826  0.000  0.000     1.246     1.749
  43   1 H      0.033  0.967  0.000  0.000     2.546     2.495
  44   1 H      0.039  0.961  0.000  0.000     2.458     2.452
  45   1 H      0.029  0.971  0.000  0.000     2.596     2.520
  46   1 H      0.045  0.955  0.000  0.000     2.377     2.411
  47   1 H      0.194  0.806  0.000  0.000     1.139     1.672
  48   1 H      0.021  0.979  0.000  0.000     2.713     2.576
  49   1 H      0.025  0.975  0.000  0.000     2.653     2.547
  50   1 H      0.025  0.975  0.000  0.000     2.665     2.553
  51   1 H      0.027  0.973  0.000  0.000     2.626     2.534
  52   7 N     -0.080  1.232  3.849  0.000    22.802     7.092
  53   6 C      0.019  1.067  2.914  0.000    20.237     6.401
  54   6 C      0.280  1.043  2.678  0.000    22.268     7.728
  55   8 O     -0.486  1.739  4.747  0.000    23.467     6.495
  56   6 C     -0.070  1.054  3.016  0.000    21.813     6.645
  57   6 C     -0.067  1.050  3.018  0.000    21.766     6.638
  58   6 C     -0.011  1.052  2.959  0.000    20.808     6.501
  59   1 H      0.064  0.936  0.000  0.000     2.152     2.294
  60   1 H      0.064  0.936  0.000  0.000     2.152     2.294
  61   1 H      0.077  0.923  0.000  0.000     2.008     2.216
  62   1 H      0.056  0.944  0.000  0.000     2.245     2.343
  63   1 H      0.076  0.924  0.000  0.000     2.020     2.222
  64   1 H      0.060  0.940  0.000  0.000     2.199     2.319
  65   1 H      0.068  0.932  0.000  0.000     2.113     2.273
  66   7 N     -0.161  1.242  3.919  0.000    24.484     7.349
  67   6 C      0.034  1.054  2.913  0.000    20.015     6.371
  68   6 C      0.201  1.085  2.714  0.000    23.717     7.976
  69   8 O     -0.351  1.745  4.606  0.000    20.723     6.103
  70   6 C     -0.115  1.038  3.077  0.000    22.761     6.802
  71   1 H      0.221  0.779  0.000  0.000     1.003     1.569
  72   1 H      0.098  0.902  0.000  0.000     1.799     2.098
  73   1 H      0.058  0.942  0.000  0.000     2.217     2.328
  74   1 H      0.061  0.939  0.000  0.000     2.188     2.313
  75   1 H      0.067  0.933  0.000  0.000     2.123     2.279
  76   7 N     -0.387  1.306  4.081  0.000    30.006     8.135
  77   6 C      0.052  1.054  2.894  0.000    19.723     6.326
  78   6 C      0.213  1.086  2.700  0.000    23.487     7.937
  79   8 O     -0.403  1.747  4.656  0.000    21.743     6.252
  80   6 C     -0.091  1.073  3.018  0.000    22.235     6.713
  81   6 C      0.371  1.023  2.606  0.000    20.707     7.447
  82   8 O     -0.625  1.774  4.851  0.000    26.733     6.932
  83   8 O     -0.645  1.774  4.871  0.000    27.253     6.999
  84   1 H      0.159  0.841  0.000  0.000     1.340     1.813
  85   1 H      0.068  0.932  0.000  0.000     2.113     2.273
  86   1 H      0.026  0.974  0.000  0.000     2.642     2.542
  87   1 H      0.026  0.974  0.000  0.000     2.637     2.539
  88   7 N     -0.382  1.317  4.065  0.000    29.879     8.118
  89   6 C      0.032  1.061  2.907  0.000    20.050     6.377
  90   6 C      0.278  1.045  2.677  0.000    22.302     7.733
  91   8 O     -0.494  1.750  4.744  0.000    23.660     6.522
  92   6 C     -0.060  1.053  3.008  0.000    21.658     6.625
  93   6 C     -0.083  1.053  3.030  0.000    22.080     6.689
  94   6 C      0.293  1.039  2.668  0.000    22.032     7.685
  95   8 O     -0.516  1.763  4.753  0.000    24.142     6.588
  96   7 N     -0.295  1.277  4.018  0.000    27.612     7.804
  97   1 H      0.165  0.835  0.000  0.000     1.303     1.788
  98   1 H      0.043  0.957  0.000  0.000     2.408     2.427
  99   1 H      0.054  0.946  0.000  0.000     2.272     2.357
 100   1 H      0.039  0.961  0.000  0.000     2.460     2.453
 101   1 H      0.037  0.963  0.000  0.000     2.487     2.466
 102   1 H      0.046  0.954  0.000  0.000     2.373     2.409
 103   1 H      0.218  0.782  0.000  0.000     1.019     1.581
 104   1 H      0.231  0.769  0.000  0.000     0.963     1.537
 105   7 N     -0.183  1.246  3.937  0.000    24.972     7.422
 106   6 C      0.026  1.060  2.914  0.000    20.134     6.388
 107   6 C      0.278  1.044  2.679  0.000    22.304     7.734
 108   8 O     -0.508  1.748  4.760  0.000    23.962     6.563
 109   6 C     -0.015  1.061  2.954  0.000    20.807     6.487
 110   6 C     -0.115  1.039  3.077  0.000    22.764     6.803
 111   6 C     -0.122  1.042  3.080  0.000    22.895     6.822
 112   1 H      0.222  0.778  0.000  0.000     0.999     1.565
 113   1 H      0.061  0.939  0.000  0.000     2.188     2.313
 114   1 H      0.040  0.960  0.000  0.000     2.452     2.449
 115   1 H      0.073  0.927  0.000  0.000     2.051     2.239
 116   1 H      0.012  0.988  0.000  0.000     2.854     2.642
 117   1 H      0.051  0.949  0.000  0.000     2.309     2.376
 118   1 H      0.067  0.933  0.000  0.000     2.115     2.274
 119   1 H      0.059  0.941  0.000  0.000     2.206     2.323
 120   1 H      0.050  0.950  0.000  0.000     2.316     2.380
 121   7 N     -0.179  1.250  3.930  0.000    24.886     7.409
 122   6 C      0.041  1.054  2.905  0.000    19.896     6.351
 123   6 C      0.268  1.044  2.688  0.000    22.475     7.764
 124   8 O     -0.479  1.728  4.751  0.000    23.314     6.474
 125   6 C     -0.065  1.051  3.014  0.000    21.737     6.636
 126   6 C      0.009  1.084  2.908  0.000    27.823     8.652
 127   6 C     -0.033  1.080  2.953  0.000    28.826     8.805
 128   6 C     -0.043  1.081  2.961  0.000    29.067     8.841
 129   6 C     -0.031  1.080  2.951  0.000    28.781     8.797
 130   6 C     -0.035  1.081  2.955  0.000    28.882     8.813
 131   6 C     -0.039  1.081  2.958  0.000    28.965     8.826
 132   1 H      0.205  0.795  0.000  0.000     1.079     1.627
 133   1 H      0.046  0.954  0.000  0.000     2.367     2.406
 134   1 H      0.054  0.946  0.000  0.000     2.274     2.358
 135   1 H      0.049  0.951  0.000  0.000     2.327     2.386
 136   1 H      0.009  0.991  0.000  0.000     2.900     2.663
 137   1 H      0.040  0.960  0.000  0.000     2.450     2.448
 138   1 H      0.031  0.969  0.000  0.000     2.568     2.506
 139   1 H      0.058  0.942  0.000  0.000     2.228     2.334
 140   1 H      0.057  0.943  0.000  0.000     2.237     2.339
 141   7 N     -0.182  1.253  3.929  0.000    24.950     7.419
 142   6 C      0.032  1.059  2.909  0.000    20.039     6.374
 143   6 C      0.274  1.043  2.684  0.000    22.376     7.747
 144   8 O     -0.502  1.748  4.754  0.000    23.829     6.545
 145   6 C     -0.057  1.047  3.009  0.000    21.579     6.612
 146   6 C      0.012  1.080  2.907  0.000    27.734     8.638
 147   6 C     -0.039  1.079  2.960  0.000    28.978     8.828
 148   6 C     -0.037  1.078  2.959  0.000    28.909     8.817
 149   6 C     -0.030  1.078  2.952  0.000    28.753     8.793
 150   6 C     -0.031  1.078  2.953  0.000    28.772     8.796
 151   6 C     -0.032  1.078  2.954  0.000    28.791     8.799
 152   1 H      0.215  0.785  0.000  0.000     1.034     1.593
 153   1 H      0.078  0.922  0.000  0.000     1.998     2.211
 154   1 H      0.032  0.968  0.000  0.000     2.556     2.500
 155   1 H      0.059  0.941  0.000  0.000     2.206     2.323
 156   1 H      0.045  0.955  0.000  0.000     2.378     2.411
 157   1 H     -0.004  1.004  0.000  0.000     3.130     2.767
 158   1 H      0.054  0.946  0.000  0.000     2.268     2.355
 159   1 H      0.017  0.983  0.000  0.000     2.778     2.606
 160   1 H      0.053  0.947  0.000  0.000     2.287     2.365
 161   7 N     -0.168  1.249  3.919  0.000    24.639     7.372
 162   6 C      0.037  1.053  2.909  0.000    19.944     6.358
 163   6 C      0.197  1.090  2.713  0.000    23.799     7.990
 164   8 O     -0.371  1.751  4.620  0.000    21.116     6.161
 165   6 C     -0.078  1.055  3.024  0.000    21.984     6.673
 166   6 C      0.010  1.077  2.913  0.000    27.787     8.647
 167   6 C     -0.042  1.081  2.961  0.000    29.046     8.838
 168   6 C     -0.043  1.079  2.964  0.000    29.066     8.841
 169   6 C     -0.032  1.082  2.950  0.000    28.795     8.800
 170   6 C     -0.033  1.080  2.953  0.000    28.812     8.802
 171   6 C     -0.033  1.081  2.953  0.000    28.833     8.806
 172   1 H      0.236  0.764  0.000  0.000     0.938     1.517
 173   1 H      0.085  0.915  0.000  0.000     1.926     2.170
 174   1 H      0.076  0.924  0.000  0.000     2.025     2.225
 175   1 H      0.091  0.909  0.000  0.000     1.865     2.136
 176   1 H      0.046  0.954  0.000  0.000     2.371     2.408
 177   1 H      0.036  0.964  0.000  0.000     2.509     2.477
 178   1 H      0.044  0.956  0.000  0.000     2.394     2.419
 179   1 H      0.037  0.963  0.000  0.000     2.491     2.468
 180   1 H      0.040  0.960  0.000  0.000     2.452     2.449
 181   7 N     -0.390  1.305  4.085  0.000    30.109     8.149
 182   6 C      0.026  1.061  2.913  0.000    20.154     6.394
 183   6 C      0.282  1.043  2.675  0.000    22.230     7.721
 184   8 O     -0.521  1.755  4.766  0.000    24.257     6.603
 185   6 C      0.138  1.037  2.825  0.000    18.444     6.131
 186   8 O     -0.506  1.722  4.785  0.000    23.029     6.478
 187   6 C     -0.121  1.041  3.079  0.000    22.872     6.820
 188   1 H      0.164  0.836  0.000  0.000     1.309     1.792
 189   1 H      0.049  0.951  0.000  0.000     2.327     2.385
 190   1 H     -0.029  1.029  0.000  0.000     3.611     2.972
 191   1 H      0.310  0.690  0.000  0.000     0.693     1.308
 192   1 H      0.039  0.961  0.000  0.000     2.456     2.451
 193   1 H      0.054  0.946  0.000  0.000     2.276     2.359
 194   1 H      0.066  0.934  0.000  0.000     2.129     2.282
 195   7 N     -0.172  1.239  3.933  0.000    24.717     7.384
 196   6 C      0.029  1.058  2.913  0.000    20.097     6.384
 197   6 C      0.284  1.044  2.673  0.000    22.193     7.714
 198   8 O     -0.494  1.743  4.752  0.000    23.661     6.522
 199   6 C     -0.065  1.045  3.020  0.000    21.738     6.637
 200   6 C      0.060  1.066  2.874  0.000    26.242     8.362
 201   7 N     -0.309  1.495  3.814  0.000    28.863     7.966
 202   6 C     -0.032  1.062  2.970  0.000    28.750     8.794
 203   6 C      0.084  1.061  2.854  0.000    25.854     8.316
 204   7 N     -0.097  1.245  3.852  0.000    23.136     7.144
 205   1 H      0.225  0.775  0.000  0.000     0.988     1.557
 206   1 H      0.072  0.928  0.000  0.000     2.065     2.247
 207   1 H      0.062  0.938  0.000  0.000     2.177     2.307
 208   1 H      0.060  0.940  0.000  0.000     2.202     2.320
 209   1 H      0.036  0.964  0.000  0.000     2.504     2.475
 210   1 H      0.060  0.940  0.000  0.000     2.203     2.321
 211   1 H      0.225  0.775  0.000  0.000     0.986     1.556
 212   7 N     -0.174  1.239  3.935  0.000    24.767     7.391
 213   6 C      0.041  1.054  2.905  0.000    19.893     6.350
 214   6 C      0.275  1.047  2.678  0.000    22.354     7.743
 215   8 O     -0.495  1.730  4.765  0.000    23.683     6.525
 216   6 C     -0.040  1.046  2.995  0.000    21.292     6.569
 217   6 C     -0.086  1.061  3.026  0.000    22.148     6.701
 218   6 C      0.372  1.026  2.602  0.000    20.692     7.444
 219   8 O     -0.622  1.760  4.862  0.000    26.675     6.925
 220   8 O     -0.611  1.768  4.843  0.000    26.396     6.888
 221   1 H      0.196  0.804  0.000  0.000     1.129     1.664
 222   1 H      0.062  0.938  0.000  0.000     2.177     2.308
 223   1 H      0.037  0.963  0.000  0.000     2.485     2.465
 224   1 H      0.031  0.969  0.000  0.000     2.578     2.511
 225   1 H      0.022  0.978  0.000  0.000     2.699     2.569
 226   1 H      0.035  0.965  0.000  0.000     2.511     2.478
 227   7 N     -0.164  1.241  3.923  0.000    24.558     7.360
 228   6 C      0.029  1.056  2.916  0.000    20.093     6.382
 229   6 C      0.282  1.039  2.679  0.000    22.227     7.720
 230   8 O     -0.492  1.746  4.746  0.000    23.603     6.514
 231   6 C      0.128  1.043  2.829  0.000    18.601     6.158
 232   8 O     -0.472  1.721  4.752  0.000    22.306     6.376
 233   6 C     -0.115  1.037  3.078  0.000    22.763     6.804
 234   1 H      0.212  0.788  0.000  0.000     1.046     1.602
 235   1 H      0.078  0.922  0.000  0.000     1.999     2.211
 236   1 H      0.023  0.977  0.000  0.000     2.685     2.563
 237   1 H      0.331  0.669  0.000  0.000     0.636     1.252
 238   1 H      0.055  0.945  0.000  0.000     2.255     2.348
 239   1 H      0.038  0.962  0.000  0.000     2.474     2.460
 240   1 H      0.058  0.942  0.000  0.000     2.219     2.329
 241   7 N     -0.179  1.242  3.937  0.000    24.884     7.409
 242   6 C      0.035  1.054  2.912  0.000    19.996     6.368
 243   6 C      0.270  1.041  2.690  0.000    22.445     7.758
 244   8 O     -0.479  1.732  4.747  0.000    23.321     6.475
 245   6 C     -0.106  1.037  3.070  0.000    22.586     6.777
 246   1 H      0.220  0.780  0.000  0.000     1.010     1.574
 247   1 H      0.057  0.943  0.000  0.000     2.229     2.335
 248   1 H      0.064  0.936  0.000  0.000     2.149     2.293
 249   1 H      0.042  0.958  0.000  0.000     2.424     2.435
 250   1 H      0.067  0.933  0.000  0.000     2.123     2.279
 251   7 N     -0.152  1.234  3.918  0.000    24.293     7.320
 252   6 C      0.017  1.064  2.919  0.000    20.293     6.414
 253   6 C      0.269  1.039  2.692  0.000    22.452     7.760
 254   8 O     -0.469  1.744  4.725  0.000    23.116     6.446
 255   6 C     -0.078  1.056  3.022  0.000    21.971     6.671
 256   6 C      0.014  1.081  2.906  0.000    27.707     8.634
 257   6 C     -0.042  1.081  2.961  0.000    29.047     8.838
 258   6 C     -0.038  1.081  2.957  0.000    28.944     8.823
 259   6 C     -0.037  1.081  2.956  0.000    28.909     8.817
 260   6 C     -0.034  1.083  2.951  0.000    28.851     8.808
 261   6 C     -0.048  1.081  2.967  0.000    29.196     8.861
 262   1 H      0.207  0.793  0.000  0.000     1.069     1.619
 263   1 H      0.076  0.924  0.000  0.000     2.023     2.224
 264   1 H      0.070  0.930  0.000  0.000     2.083     2.257
 265   1 H      0.079  0.921  0.000  0.000     1.991     2.207
 266   1 H      0.050  0.950  0.000  0.000     2.317     2.380
 267   1 H      0.028  0.972  0.000  0.000     2.615     2.529
 268   1 H      0.046  0.954  0.000  0.000     2.369     2.407
 269   1 H      0.043  0.957  0.000  0.000     2.412     2.429
 270   1 H      0.051  0.949  0.000  0.000     2.305     2.374
 271   7 N     -0.156  1.236  3.920  0.000    24.368     7.332
 272   6 C      0.018  1.058  2.924  0.000    20.279     6.412
 273   6 C      0.197  1.084  2.719  0.000    23.793     7.989
 274   8 O     -0.359  1.754  4.605  0.000    20.881     6.127
 275   6 C     -0.077  1.062  3.015  0.000    21.966     6.671
 276   6 C     -0.006  1.055  2.952  0.000    20.658     6.465
 277   6 C     -0.116  1.043  3.072  0.000    22.763     6.802
 278   6 C     -0.124  1.041  3.083  0.000    22.928     6.827
 279   1 H      0.210  0.790  0.000  0.000     1.055     1.609
 280   1 H      0.109  0.891  0.000  0.000     1.709     2.044
 281   1 H      0.062  0.938  0.000  0.000     2.178     2.308
 282   1 H      0.078  0.922  0.000  0.000     2.004     2.214
 283   1 H      0.018  0.982  0.000  0.000     2.769     2.602
 284   1 H      0.033  0.967  0.000  0.000     2.541     2.493
 285   1 H      0.040  0.960  0.000  0.000     2.450     2.448
 286   1 H      0.056  0.944  0.000  0.000     2.246     2.344
 287   1 H      0.038  0.962  0.000  0.000     2.477     2.461
 288   1 H      0.055  0.945  0.000  0.000     2.256     2.349
 289   1 H      0.050  0.950  0.000  0.000     2.326     2.385
 290   8 O     -0.656  1.771  4.885  0.000    26.563     6.956
 291   1 H      0.299  0.701  0.000  0.000     0.725     1.337
 292   1 H      0.325  0.675  0.000  0.000     0.649     1.265
 293   7 N     -0.373  1.304  4.070  0.000    29.641     8.086
 294   6 C      0.042  1.055  2.903  0.000    19.880     6.350
 295   6 C      0.266  1.050  2.684  0.000    22.513     7.770
 296   8 O     -0.478  1.739  4.739  0.000    23.297     6.471
 297   6 C     -0.041  1.047  2.993  0.000    21.293     6.569
 298   6 C     -0.084  1.065  3.020  0.000    22.110     6.695
 299   6 C      0.369  1.026  2.604  0.000    20.738     7.453
 300   8 O     -0.663  1.778  4.885  0.000    27.725     7.059
 301   8 O     -0.639  1.768  4.871  0.000    27.103     6.980
 302   1 H      0.160  0.840  0.000  0.000     1.333     1.809
 303   1 H      0.030  0.970  0.000  0.000     2.590     2.517
 304   1 H      0.027  0.973  0.000  0.000     2.637     2.539
 305   1 H      0.005  0.995  0.000  0.000     2.978     2.699
 306   1 H      0.011  0.989  0.000  0.000     2.880     2.654
 307   1 H      0.027  0.973  0.000  0.000     2.624     2.533
 308   7 N     -0.163  1.231  3.931  0.000    24.520     7.354
 309   6 C      0.023  1.058  2.919  0.000    20.195     6.399
 310   6 C      0.206  1.085  2.710  0.000    23.629     7.961
 311   8 O     -0.381  1.761  4.619  0.000    21.297     6.187
 312   6 C      0.122  1.047  2.831  0.000    18.684     6.172
 313   8 O     -0.487  1.736  4.751  0.000    22.616     6.420
 314   6 C     -0.140  1.044  3.096  0.000    23.255     6.877
 315   1 H      0.201  0.799  0.000  0.000     1.100     1.643
 316   1 H      0.104  0.896  0.000  0.000     1.749     2.068
 317   1 H      0.044  0.956  0.000  0.000     2.394     2.420
 318   1 H      0.334  0.666  0.000  0.000     0.628     1.245
 319   1 H      0.074  0.926  0.000  0.000     2.039     2.233
 320   1 H      0.075  0.925  0.000  0.000     2.030     2.228
 321   1 H      0.062  0.938  0.000  0.000     2.179     2.308
 322   1 H      0.178  0.822  0.000  0.000     1.228     1.735
 323   1 H      0.071  0.929  0.000  0.000     2.075     2.253
 324   1 H      0.174  0.826  0.000  0.000     1.246     1.749
 325   1 H      0.070  0.930  0.000  0.000     2.089     2.260
 326   1 H      0.180  0.820  0.000  0.000     1.213     1.725
 327   1 H      0.075  0.925  0.000  0.000     2.029     2.227
 328   1 H      0.180  0.820  0.000  0.000     1.215     1.727
 329   1 H      0.060  0.940  0.000  0.000     2.201     2.320
 330   1 H      0.193  0.807  0.000  0.000     1.141     1.673
 331   1 H      0.096  0.904  0.000  0.000     1.821     2.110
 332   1 H      0.200  0.800  0.000  0.000     1.106     1.647
 333   1 H      0.091  0.909  0.000  0.000     1.873     2.140
 334   1 H      0.179  0.821  0.000  0.000     1.219     1.729
 335   1 H      0.087  0.913  0.000  0.000     1.912     2.162

 Mol. C6AA /au·bohr⁶  :    1146444.535321
 Mol. C8AA /au·bohr⁸  :   26196628.538045
 Mol. α(0) /au        :       1624.412071

 
molecular dipole:
                 x           y           z       tot (Debye)
 q only:     -274.868    -162.444    -497.505
   full:     -273.725    -164.265    -497.286    1502.034
molecular quadrupole (traceless):
                xx          xy          yy          xz          yz          zz
 q only:    20447.867  -22717.844   44808.828  -68422.090  -40349.089  -65256.694
  q+dip:    20712.024  -22818.381   44472.120  -68126.415  -40791.714  -65184.144
   full:    20711.496  -22816.906   44468.403  -68130.297  -40789.636  -65179.899
speedup  1.96
cpu  time for grad   13.98 s
wall time for grad    7.14 s

SCC energy    :    -535.7000489
rep           :       6.7916272
ES            :       1.9240593
AES           :      -0.0697433
AXC           :       0.1843269
disp          :      -0.4616311
XB            :       0.0000000
fix           :       0.0000000
Gborn         :       0.0000000
Gsasa         :       0.0000000
Ghb           :       0.0000000
Gshift        :       0.0000000
Gsolv         :      -0.6498170     -407.77
Etot ala COSMO:    -535.7000489
grad norm     :       0.5928334
total E       :    -528.8597800
atomizationE  :      98.3064112    61688.20
(atE without considering molecular charge,
 total energy contains solvation terms)
H-L gap (eV)  :          1.2075

------------------------------------------------------------------------
 * finished run on 2019/05/10 at 08:26:52.367     
------------------------------------------------------------------------
 total:
 * wall-time:     0 d,  0 h,  0 min,  7.882 sec
 *  cpu-time:     0 d,  0 h,  0 min, 15.205 sec
 * ratio c/w:     1.929 speedup
 SCF:
 * wall-time:     0 d,  0 h,  0 min,  7.573 sec
 *  cpu-time:     0 d,  0 h,  0 min, 14.848 sec
 * ratio c/w:     1.961 speedup

