 
        ______________________________________
       |                                      |
       |           ==================         |
       |                 x T B                |
       |           ==================         |
       |               S. Grimme              |
       |        Universitaet Bonn, MCTC       |
       |         2015-18, Version 5.8.2       |
       |      Thu Jul 12 08:31:35 CEST 2018   |
       |______________________________________|
 
        This code comes without any warranty
        for non-commercial, academia use only.
        Preliminary GFN2 test version.
        Cite GFN-xTB work as:
        S. Grimme, C. Bannwarth, P. Shushkov
        JCTC, 13 (2017) 1989-2009
        for GFN2:
        C. Bannwarth, S. Ehlert, S. Grimme
        to be published.
        sTDA-xTB:
        S. Grimme  &  C. Bannwarth, JCP 145 (2016) 054103
        in the mass-spec context additionally:
        V. Asgeirsson, C.Bauer, S. Grimme, Chem. Sci. 8 (2017) 4879
 
        with help from
        P. Shushkov, G. Brandenburg, S. Dohm, J. Pisarek,
        F. März, M. Checinski, S. Ehrlich, S. Spicher, 
        P. Pracht, E. Caldeweyher, S. Ehlert, and C. Bannwarth.
 
        usage        :
        xtb <coord_file> [options]
        where <coord_file> is a valid file of TM)
        (*coord, Bohr) or xmol (*xyz, Angstroem)
        format.

        options:
        -chrg <int>   : molecular charge
        -uhf  <int>   : # of unpaired electrons(=2*S)
        -nox          : skip second, extended part in sTDA-xTB
        -pop          : do population analysis
                      : (default for -nox)
        -mowr <real>  : cut MO write above (def.3 Eh)
        -molden       : write formatted molden file
        -parx <file>  : read parameters for sTDA-xTB
                        calc (def:~/.param_stda2.xtb)
        -parv <file>  : read parameters for vTB part in
                        sTDA-xTB (def: ~/.param_stda1.xtb)
        -xtemp <real> : el. temp for xTB (def. 0 K)
        -etemp <real> : el. temp for GFN (def. 300 K)
        -fod          : calculate the FOD and write
                        molden.input file with
                        appropriate occupations
                        for plotting. Def. T=12500 K
 
        -gfn1         : use GFN-xTB
        -gfn2         : use GFN2-xTB
        -gfn2d3       : GFN2-xTB with D3 instead of D4
        -grad         : GFNn-xTB gradient
        -acc <real>   : GFNn-xTB accuracy (def. 1.0)
        -opt [level]  : optimize at GFNn-xTB
                      : level=crude,vloose,loose,
                      :       tight,vtight
        -hess         : compute Hessian at GFNn-xTB
        -ohess        : optimize and compute Hessian
        -omd          : optimize and do MD
        -siman        : conformational search
        -screen       : opt. loop over ensemble
        -gmd          : annealed MD for GMD procedure
        -modef        : vib mode following
        -gbsa [string1] [string2]
                        use GBSA implicit solvent
                        for solvent [string1] and
                        solvation state [string2]=
                        reference, bar1M (default=1M)
        additional GFN/opt/MD/siman options read from
        $XTBHOME/.xtbrc or $set in coordinate file
 
       spin and charge state information can be on:
       <.CHRG> (charge) and <.UHF> (=nalpha-nbeta)
       -uhf and -chrg override the file info.
       useful machine settings:
       setenv MKL_NUM_THREADS <NCORE_ON_YOUR_MACHINE>
       setenv OMP_STACKSIZE 500m
       limit stacksize unlimited
 
       total energies in Eh, gaps/HL energies in eV
       please read REVISION and HOWTO files carefully
          88  days left until this code expires
 =============================
  # OMP threads =           2
 =============================
 
 xtbhome directory:/home/kruse/Progs/XTB/
 
 argument            1 :-chrg
 argument            2 :0
 argument            3 :-grad
 argument            4 :-gfn2
 argument            5 :-gbsa
 argument            6 :h2o
 argument            7 :-acc
 argument            8 :1
 argument            9 :-etemp
 argument           10 :500
 
 name of molecule           :
 comment line               :
 number of atoms            :   105
 number of electrons        :   276
 charge                     :  0
 spin                       : 0.0
 first test random number   :  0.6555
 
 
 -----------------------------------------
  G F N (Geometry, Frequency, Non-covalent)
        parametrization, gfnver=           3
     D4 dispersion model
 /home/kruse/Progs/XTB/.param_gfn2.xtb
 -----------------------------------------
      method parameters     
 k(s)        :  1.8500
 k(p)        :  2.2300
 k(d)        :  2.2300
 k(f)        :  2.0000
 kEN (H0ij)  : -2.0000
 D3 a1       :  0.5200
 D3 a2       :  5.0000
 D3 s8       :  2.7000
 D3atm       :  5.0000
 alphaj      :  2.0000
 
 Solvent             : h2o
 GBSA parameter file : /home/kruse/Progs/XTB/.param_gbsa_h2o
 Gsolv ref. state (COSMO-RS): gsolv [1 M gas/solution]
 temperature (mdtemp)       :    298.150000000000     
 dielectric constant        :    78.5000000000000     
 rho                        :   0.998000000000000     
 mass                       :    18.0000000000000     
 surface tension            :    15.5689470637553     
 probe radius               :   0.976041290000000     
 vdW radii scaling          :    1.00000000000000     
 Gshift (Eh)                :   2.075470419022681E-003
 c1                         :    1.58079374000000     
 soset                      :   7.194512000000000E-002
 HB correction              :  T
 
 doing EN charges ...
 sum q :  0.1110223D-15
 point charge moment (au)
     X       Y       Z   
   0.0484  -1.5109   0.6976  total (Debye):    4.232
 
            Z     q(EN)     CN     RAES       Cart. coordinates
     1  N   5.0   -0.45    3.13    1.94   114.34313   165.95470   177.94675
     2  C   4.0   -0.00    4.15    3.90   116.67398   165.50621   179.30077
     3  C   4.0    0.09    3.13    3.03   117.40737   167.52864   181.20260
     4  O   6.0   -0.16    1.09    1.80   118.60670   169.34772   180.57286
     5  C   4.0   -0.11    4.23    4.07   118.90608   164.73140   177.63914
     6  C   4.0   -0.10    4.18    3.96   118.97327   162.24616   176.45456
     7  C   4.0   -0.09    4.22    4.04   121.05269   161.70198   174.79699
     8  C   4.0   -0.03    4.15    3.91   121.26493   159.21769   173.62537
     9  N   5.0   -0.34    4.08    3.08   123.53506   158.62633   172.59861
    10  H   1.0    0.21    1.04    1.43   113.01356   165.00281   178.33509
    11  H   1.0    0.04    1.03    1.43   116.22516   163.78329   180.42215
    12  H   1.0    0.05    1.03    1.43   118.95054   166.12353   176.17433
    13  H   1.0    0.06    1.04    1.43   120.58448   165.02216   178.64522
    14  H   1.0    0.05    1.03    1.43   118.89790   160.82041   177.90867
    15  H   1.0    0.05    1.03    1.43   117.23586   161.91680   175.44461
    16  H   1.0    0.05    1.03    1.43   121.13680   163.13843   173.35421
    17  H   1.0    0.05    1.03    1.43   122.79969   162.05577   175.82063
    18  H   1.0    0.05    1.03    1.43   120.73676   157.81752   174.98955
    19  H   1.0    0.05    1.03    1.43   119.78848   159.03402   172.22467
    20  H   1.0    0.09    1.01    1.43   123.69176   156.86581   171.74877
    21  H   1.0    0.09    1.02    1.43   124.09855   159.85054   171.16850
    22  H   1.0    0.09    1.02    1.43   125.01925   158.67426   173.84855
    23  N   5.0   -0.50    3.18    1.95   115.73257   160.18375   187.76399
    24  C   4.0   -0.38    4.31    4.21   112.99177   159.58321   187.10296
    25  C   4.0    0.22    3.37    3.07   112.46960   160.45123   184.40784
    26  O   6.0   -0.10    1.18    1.80   113.42801   162.61382   183.77309
    27  C   4.0   -0.02    4.25    4.10   111.39092   161.18149   188.93604
    28  O   6.0   -0.21    2.09    1.84   112.00357   163.75952   189.09168
    29  C   4.0   -0.29    4.08    3.77   111.93388   159.88892   191.43440
    30  H   1.0    0.27    1.04    1.43   116.10091   161.74571   187.94769
    31  H   1.0    0.42    1.12    1.45   112.70746   158.19541   187.15204
    32  H   1.0    0.08    1.05    1.44   109.59313   161.06030   188.47185
    33  H   1.0    0.14    1.05    1.44   110.47813   164.55754   189.36956
    34  H   1.0    0.02    0.89    1.42   110.40974   160.98502   192.81513
    35  H   1.0    0.12    1.03    1.43   111.23110   158.29914   191.63009
    36  H   1.0    0.15    1.03    1.43   113.46541   160.19109   192.02649
    37  N   5.0   -0.31    3.42    2.03   111.28212   159.19514   182.85420
    38  C   4.0    0.00    4.30    4.20   110.91222   159.58728   180.28447
    39  C   4.0    0.18    3.21    3.04   108.23612   159.97140   179.61629
    40  O   6.0   -0.10    1.08    1.80   106.96250   161.94538   180.31352
    41  C   4.0   -0.14    4.23    4.05   112.09850   157.71831   178.78221
    42  O   6.0   -0.08    1.11    1.80   107.12529   158.07804   178.34588
    43  H   1.0    0.13    1.09    1.44   110.51816   157.65196   183.48130
    44  H   1.0    0.05    1.07    1.44   111.76716   161.38615   179.86916
    45  H   1.0    0.05    1.00    1.43   111.87856   158.04743   176.75876
    46  H   1.0    0.05    1.01    1.43   114.07553   157.57972   179.07069
    47  H   1.0    0.06    1.02    1.43   111.33171   155.89538   179.09265
    48  N   5.0   -0.38    3.17    1.95   108.83737   147.62730   169.42654
    49  C   4.0    0.00    4.20    4.00   108.63644   150.17316   168.80778
    50  C   4.0    0.08    3.16    3.03   106.79719   150.79826   166.71271
    51  O   6.0   -0.15    1.08    1.80   105.64498   152.76294   166.60514
    52  C   4.0   -0.09    4.27    4.14   111.10479   151.50726   168.48339
    53  C   4.0   -0.09    4.19    3.99   112.51474   152.26533   170.63874
    54  C   4.0    0.24    3.09    3.02   115.34869   151.98444   170.56010
    55  O   6.0   -0.13    1.14    1.80   116.28022   151.93741   168.39374
    56  O   6.0   -0.12    1.10    1.80   116.57205   151.78301   172.58654
    57  H   1.0    0.13    1.03    1.43   110.39615   146.84982   168.89296
    58  H   1.0    0.05    1.05    1.44   107.77101   151.03938   170.48742
    59  H   1.0    0.05    1.04    1.43   112.27735   150.26939   167.36543
    60  H   1.0    0.05    1.03    1.43   110.85232   153.09390   167.22847
    61  H   1.0    0.05    1.02    1.43   112.07098   154.19690   171.14088
    62  H   1.0    0.05    1.03    1.43   111.81731   151.24868   172.26909
    63  N   5.0   -0.50    3.25    1.97   106.30066   151.65023   180.89805
    64  C   4.0   -0.15    4.14    3.88   107.95117   150.15626   181.98703
    65  C   4.0    0.16    3.38    3.07   109.65698   151.39530   183.91568
    66  O   6.0   -0.08    1.14    1.80   109.22811   153.93033   184.24115
    67  C   4.0   -0.13    4.07    3.75   110.08061   149.43150   179.58284
    68  O   6.0   -0.27    2.02    1.83   111.64692   151.79229   179.00829
    69  C   4.0   -0.28    4.14    3.88   108.62204   148.77803   177.24609
    70  H   1.0    0.22    1.05    1.44   106.59521   153.25021   180.52307
    71  H   1.0    0.23    1.10    1.44   107.65041   148.70715   182.49636
    72  H   1.0    0.17    1.06    1.44   111.23198   148.34610   180.02205
    73  H   1.0    0.22    1.04    1.43   112.60879   151.37292   177.78699
    74  H   1.0    0.09    1.03    1.43   109.79879   148.30632   175.92085
    75  H   1.0    0.09    1.03    1.43   107.67982   147.24206   177.57754
    76  H   1.0    0.11    1.03    1.43   107.60318   150.08118   176.63511
    77  N   5.0   -0.52    3.33    1.99   111.45222   150.32122   185.14919
    78  C   4.0   -0.44    4.22    4.03   112.97139   151.77125   187.06510
    79  C   4.0    0.00    3.22    3.04   115.39783   150.14556   187.22545
    80  O   6.0   -0.07    1.05    1.80   115.27233   147.60595   186.70238
    81  C   4.0   -0.25    4.27    4.14   111.62825   151.91328   189.61015
    82  C   4.0   -0.20    4.17    3.95   112.00742   150.11888   191.71591
    83  C   4.0   -0.19    4.14    3.89   109.98328   150.66500   193.83374
    84  C   4.0   -0.15    4.14    3.87   110.20578   148.66219   196.08530
    85  N   5.0   -0.77    4.08    3.07   108.25379   149.12449   197.99200
    86  H   1.0    0.39    1.12    1.45   111.66771   148.85069   184.83066
    87  H   1.0    0.47    1.14    1.45   113.52157   152.89631   186.47107
    88  H   1.0    0.18    1.09    1.44   111.85924   153.37993   190.29733
    89  H   1.0    0.08    1.06    1.44   109.79303   152.07212   189.21071
    90  H   1.0    0.10    1.05    1.44   111.71185   148.43826   191.09992
    91  H   1.0    0.11    1.05    1.44   113.64508   150.28932   192.36612
    92  H   1.0    0.09    1.04    1.43   110.28135   152.34353   194.51275
    93  H   1.0    0.11    1.04    1.43   108.33172   150.61801   193.16775
    94  H   1.0    0.10    1.04    1.43   110.09499   147.01481   195.34492
    95  H   1.0    0.09    1.04    1.43   111.89267   148.82641   196.77513
    96  H   1.0    0.18    1.06    1.44   108.53951   147.96115   199.24341
    97  H   1.0    0.31    1.05    1.44   108.41512   150.47820   198.80663
    98  H   1.0    0.23    1.05    1.44   106.74383   148.92720   197.30288
    99  H   1.0    0.20    1.10    1.44   105.87057   151.01149   179.38161
   100  H   1.0    0.07    1.02    1.43   117.04088   150.94533   187.70694
   101  H   1.0    0.20    1.05    1.44   113.83357   167.55607   178.20857
   102  H   1.0    0.07    1.03    1.43   116.89021   167.35619   183.01199
   103  H   1.0    0.20    1.04    1.43   116.13941   159.43307   189.23488
   104  H   1.0    0.20    1.05    1.44   108.74129   147.44404   171.11466
   105  H   1.0    0.07    1.03    1.43   106.48695   149.55348   165.32514
 
  Z AO/shell   Hii/eV     exponent
  1     Wed Apr 25 08:07:45 CEST 2018   EN: 2.200 GM2: 0.406  GM3: 0.0800  RAES: 1.40
     1s    -10.707211    1.230000
  6     Wed Apr 25 08:07:45 CEST 2018   EN: 2.550 GM2: 0.538  GM3: 0.1500  RAES: 3.00
     2s    -13.970922    2.096432
     2p    -10.063292    1.800000
  7     Wed Apr 25 08:07:45 CEST 2018   EN: 3.040 GM2: 0.461  GM3:-0.0640  RAES: 1.90
     2s    -16.686243    2.339881
     2p    -12.523956    2.014332
  8     Wed Apr 25 08:07:45 CEST 2018   EN: 3.440 GM2: 0.452  GM3:-0.0517  RAES: 1.80
     2s    -20.229985    2.439742
     2p    -15.503117    2.137023
 no old-style atom pair restraing (fixing) potential
 
 molecular fragmentation (1/2 indicates fragments):
11111111111111111111112222222222222222222222222222222222222222222222222222222222
2222222222222222222211222
# atoms in fragment 1/2:    24    81
 fragment masses (1/2) :      131.20      551.62
CMA distance (Bohr)    :  13.417
constraining FC (au)   :  0.0500
 
             =======================================
             |                                     |
             |        S C C  calculation           |
             |                                     |
             =======================================
 #proc     :            2
 Ncao      :          246
 Nao       :          246
 Nel       :          276
 T(el)     :   500.0
 intcut    :    25.0
 scfconv   :  0.100E-05
   qconv   :  0.100E-03
 intneglect:  0.100E-07
 broydamp  :      0.400
 Nshell    :          152
 iter      E             dE          RMSdq      gap      omega  full diag
   1   -158.5466435 -0.158547E+03  0.558E+00    0.95       0.0  T
   2   -159.5888803 -0.104224E+01  0.238E+00    0.10       1.0  T
   3   -159.6628398 -0.739595E-01  0.166E+00    2.23       1.0  T
   4   -159.7320124 -0.691726E-01  0.832E-01    1.14       1.0  T
   5   -159.7443506 -0.123382E-01  0.367E-01    0.72       1.0  T
   6   -159.7480871 -0.373648E-02  0.144E-01    0.43       1.0  T
   7   -159.7482414 -0.154313E-03  0.781E-02    0.55       1.0  T
   8   -159.7484089 -0.167525E-03  0.220E-02    0.55       1.0  T
   9   -159.7484155 -0.655141E-05  0.112E-02    0.54       1.0  T
  10   -159.7484177 -0.223200E-05  0.407E-03    0.54       2.4  T
  11   -159.7484180 -0.325493E-06  0.176E-03    0.54       5.5  T
  12   -159.7484181 -0.897554E-07  0.536E-04    0.54      18.2  T
  13   -159.7484181 -0.409182E-08  0.269E-04    0.54      36.2  T
speedup  1.97
cpu  time for SCC    0.38 s
wall time for SCC    0.19 s

          eigenvalues
 #    :         126        127        128        129        130        131        132        133
 occ. :        2.000      2.000      2.000      2.000      2.000      2.000      2.000      2.000
 eps  :       -11.128    -10.572    -10.543    -10.472    -10.418    -10.170    -10.158    -10.067
 #    :         134        135        136        137        138        139        140        141
 occ. :        2.000      2.000      2.000      2.000      1.996      0.004      0.000      0.000
 eps  :        -9.990     -9.919     -9.767     -9.742     -9.568     -9.025     -7.659     -7.519
 #    :         142        143        144        145        146        147        148        149
 occ. :        0.000      0.000      0.000      0.000      0.000      0.000      0.000      0.000
 eps  :        -6.537     -5.781     -5.505     -4.423     -1.937     -1.541     -1.103     -1.084
 

   #   Z            q   n(s)   n(p)   n(d)      C6AA      α(0)    relVol
   1   7 N     -0.376  1.273  4.103  0.000    30.130     8.156     1.082
   2   6 C      0.035  1.048  2.917  0.000    20.038     6.381     0.516
   3   6 C      0.210  1.083  2.707  0.000    23.485     7.926     0.642
   4   8 O     -0.367  1.739  4.629  0.000    21.158     6.173     1.188
   5   6 C     -0.073  1.029  3.043  0.000    21.898     6.660     0.539
   6   6 C     -0.055  1.016  3.039  0.000    21.593     6.617     0.536
   7   6 C     -0.077  1.022  3.055  0.000    21.989     6.674     0.540
   8   6 C     -0.027  0.998  3.028  0.000    21.182     6.574     0.532
   9   7 N     -0.114  1.200  3.914  0.000    23.754     7.242     0.961
  10   1 H      0.163  0.837  0.000  0.000     1.274     1.767     0.350
  11   1 H      0.038  0.962  0.000  0.000     2.468     2.456     0.486
  12   1 H      0.056  0.944  0.000  0.000     2.232     2.336     0.462
  13   1 H      0.056  0.944  0.000  0.000     2.237     2.338     0.463
  14   1 H      0.037  0.963  0.000  0.000     2.477     2.461     0.487
  15   1 H      0.034  0.966  0.000  0.000     2.518     2.481     0.491
  16   1 H      0.065  0.935  0.000  0.000     2.133     2.284     0.452
  17   1 H      0.071  0.929  0.000  0.000     2.058     2.243     0.444
  18   1 H      0.097  0.903  0.000  0.000     1.791     2.092     0.414
  19   1 H      0.089  0.911  0.000  0.000     1.872     2.139     0.423
  20   1 H      0.298  0.702  0.000  0.000     0.660     1.273     0.252
  21   1 H      0.298  0.702  0.000  0.000     0.659     1.271     0.251
  22   1 H      0.302  0.698  0.000  0.000     0.648     1.261     0.249
  23   7 N     -0.416  1.289  4.127  0.000    31.258     8.307     1.102
  24   6 C     -0.005  1.009  2.997  0.000    20.667     6.468     0.523
  25   6 C      0.247  1.045  2.708  0.000    22.810     7.827     0.633
  26   8 O     -0.609  1.778  4.831  0.000    26.280     6.880     1.324
  27   6 C      0.123  1.013  2.864  0.000    18.622     6.153     0.498
  28   8 O     -0.492  1.715  4.777  0.000    23.268     6.527     1.256
  29   6 C     -0.152  1.006  3.146  0.000    23.591     6.939     0.562
  30   1 H      0.174  0.826  0.000  0.000     1.207     1.720     0.340
  31   1 H      0.104  0.896  0.000  0.000     1.719     2.049     0.405
  32   1 H      0.015  0.985  0.000  0.000     2.800     2.616     0.518
  33   1 H      0.328  0.672  0.000  0.000     0.579     1.194     0.236
  34   1 H      0.017  0.983  0.000  0.000     2.798     2.620     0.518
  35   1 H      0.094  0.906  0.000  0.000     1.816     2.107     0.417
  36   1 H      0.103  0.897  0.000  0.000     1.732     2.057     0.407
  37   7 N     -0.126  1.212  3.914  0.000    24.006     7.280     0.966
  38   6 C      0.054  1.018  2.929  0.000    19.671     6.311     0.511
  39   6 C      0.324  1.051  2.625  0.000    21.385     7.561     0.612
  40   8 O     -0.646  1.796  4.850  0.000    27.246     7.005     1.348
  41   6 C     -0.098  1.009  3.089  0.000    22.411     6.742     0.546
  42   8 O     -0.663  1.811  4.852  0.000    27.660     7.058     1.358
  43   1 H      0.212  0.788  0.000  0.000     0.994     1.560     0.309
  44   1 H      0.042  0.958  0.000  0.000     2.419     2.431     0.481
  45   1 H      0.039  0.961  0.000  0.000     2.462     2.453     0.485
  46   1 H      0.047  0.953  0.000  0.000     2.355     2.399     0.475
  47   1 H      0.067  0.933  0.000  0.000     2.106     2.269     0.449
  48   7 N     -0.387  1.290  4.096  0.000    30.430     8.196     1.087
  49   6 C      0.043  1.037  2.920  0.000    19.889     6.354     0.514
  50   6 C      0.202  1.085  2.713  0.000    23.652     7.956     0.644
  51   8 O     -0.395  1.752  4.642  0.000    21.694     6.250     1.203
  52   6 C     -0.039  1.024  3.016  0.000    21.273     6.562     0.531
  53   6 C     -0.079  1.041  3.039  0.000    22.038     6.684     0.541
  54   6 C      0.364  1.022  2.614  0.000    20.688     7.428     0.601
  55   8 O     -0.653  1.773  4.880  0.000    27.388     7.023     1.351
  56   8 O     -0.649  1.771  4.878  0.000    27.318     7.014     1.350
  57   1 H      0.172  0.828  0.000  0.000     1.218     1.728     0.342
  58   1 H      0.054  0.946  0.000  0.000     2.264     2.352     0.465
  59   1 H      0.040  0.960  0.000  0.000     2.439     2.441     0.483
  60   1 H      0.017  0.983  0.000  0.000     2.773     2.603     0.515
  61   1 H      0.020  0.980  0.000  0.000     2.722     2.580     0.510
  62   1 H      0.031  0.969  0.000  0.000     2.564     2.503     0.495
  63   7 N     -0.348  1.213  4.135  0.000    29.359     8.051     1.068
  64   6 C      0.031  1.006  2.963  0.000    20.158     6.409     0.519
  65   6 C      0.229  1.074  2.698  0.000    23.159     7.887     0.638
  66   8 O     -0.634  1.823  4.812  0.000    26.924     6.964     1.340
  67   6 C      0.056  1.064  2.880  0.000    19.908     6.402     0.518
  68   8 O     -0.553  1.735  4.818  0.000    24.646     6.716     1.292
  69   6 C     -0.149  0.964  3.185  0.000    23.507     6.922     0.560
  70   1 H      0.163  0.837  0.000  0.000     1.274     1.767     0.350
  71   1 H      0.108  0.892  0.000  0.000     1.691     2.032     0.402
  72   1 H      0.077  0.923  0.000  0.000     1.991     2.206     0.436
  73   1 H      0.312  0.688  0.000  0.000     0.624     1.240     0.245
  74   1 H      0.069  0.931  0.000  0.000     2.085     2.258     0.447
  75   1 H      0.082  0.918  0.000  0.000     1.936     2.175     0.430
  76   1 H      0.068  0.932  0.000  0.000     2.098     2.264     0.448
  77   7 N     -0.148  1.192  3.956  0.000    24.491     7.353     0.975
  78   6 C      0.024  1.014  2.961  0.000    20.190     6.399     0.518
  79   6 C      0.167  1.127  2.706  0.000    24.347     8.078     0.654
  80   8 O     -0.413  1.831  4.582  0.000    22.062     6.303     1.213
  81   6 C     -0.098  0.976  3.121  0.000    22.363     6.729     0.545
  82   6 C     -0.097  0.998  3.099  0.000    22.398     6.741     0.546
  83   6 C     -0.116  1.022  3.094  0.000    22.759     6.797     0.550
  84   6 C     -0.071  1.010  3.061  0.000    22.032     6.709     0.543
  85   7 N     -0.139  1.134  4.005  0.000    24.289     7.323     0.971
  86   1 H      0.240  0.760  0.000  0.000     0.865     1.455     0.288
  87   1 H      0.137  0.863  0.000  0.000     1.445     1.878     0.372
  88   1 H      0.115  0.885  0.000  0.000     1.627     1.994     0.394
  89   1 H      0.082  0.918  0.000  0.000     1.943     2.179     0.431
  90   1 H      0.072  0.928  0.000  0.000     2.046     2.236     0.442
  91   1 H      0.085  0.915  0.000  0.000     1.914     2.162     0.428
  92   1 H      0.091  0.909  0.000  0.000     1.846     2.124     0.420
  93   1 H      0.086  0.914  0.000  0.000     1.897     2.153     0.426
  94   1 H      0.125  0.875  0.000  0.000     1.543     1.942     0.384
  95   1 H      0.129  0.871  0.000  0.000     1.514     1.924     0.381
  96   1 H      0.305  0.695  0.000  0.000     0.638     1.250     0.247
  97   1 H      0.299  0.701  0.000  0.000     0.655     1.267     0.251
  98   1 H      0.294  0.706  0.000  0.000     0.672     1.284     0.254
  99   1 H      0.211  0.789  0.000  0.000     0.999     1.564     0.309
 100   1 H      0.121  0.879  0.000  0.000     1.577     1.963     0.389
 101   1 H      0.174  0.826  0.000  0.000     1.204     1.718     0.340
 102   1 H      0.061  0.939  0.000  0.000     2.174     2.306     0.456
 103   1 H      0.209  0.791  0.000  0.000     1.013     1.576     0.312
 104   1 H      0.194  0.806  0.000  0.000     1.091     1.635     0.323
 105   1 H      0.068  0.932  0.000  0.000     2.091     2.261     0.447

 Mol. C6AA /au*bohr^6 :      90624.388845
 Mol. C8AA /au*bohr^6 :    1961798.087847
 Mol. a(0) /au        :        445.610173

 
molecular dipole:
                 x           y           z       tot (Debye)
 q only:        8.137      -9.967      22.282
   full:       25.602      -9.940      22.270      65.076
molecular quadrupole (traceless):
                xx          xy          yy          xz          yz          zz
 q only:     -691.069     353.364   -8230.824    5756.362    2254.843    8921.892
  q+dip:     -775.326     263.786   -8182.721    5654.201    2270.989    8958.047
   full:     -775.848     263.577   -8181.802    5652.144    2269.871    8957.650
 SCC converged in           13  cycles
speedup  1.98
cpu  time for grad    0.11 s
wall time for grad    0.06 s
 
SCC energy    :    -159.7176967
rep           :       3.3772693
ES            :       0.9356062
AES           :      -0.0374280
AXC           :       0.0353049
disp          :      -0.0921903
XB            :       0.0000000
fix           :       0.0000000
Gborn         :      -0.3685392
Gsasa         :       0.0286459
Ghb           :      -0.0400143
Gshift        :       0.0020755
Gsolv         :      -0.3778321     -237.09
Etot ala COSMO:    -156.3284009
grad norm     :       2.1171747
total E       :    -156.3376938
atomizationE  :      26.4059872    16570.01
(atE without considerung molecular charge,
 total energy contains solvation terms)
H-L gap (eV)  :          0.5436
 
speedup  1.78
cpu  time for all    0.65 s
wall time for all    0.36 s
