      -----------------------------------------------------------      
     |                   =====================                   |     
     |                           x T B                           |     
     |                   =====================                   |     
     |                         S. Grimme                         |     
     |          Mulliken Center for Theoretical Chemistry        |     
     |                    University of Bonn                     |     
     |                 Version 6.0.1 (SAW181210)                 |     
      -----------------------------------------------------------      

   This program is distributed in the hope that it will be useful,
   but WITHOUT ANY WARRANTY; without even the implied warranty of
   MERCHANTABILITY or FITNESS FOR A PARTICULAR PURPOSE.
   
   FOR NON-COMMERCIAL, ACADEMIA USE ONLY.
   
   Cite this work as:
   S. Grimme, C. Bannwarth, P. Shushkov, J. Comput. Theory Chem., 2017,
   13, 1989-2009.
   C. Bannwarth, S. Ehlert and S. Grimme., ChemRxiv, 2018, preprint.
   http://doi.org/10.26434/chemrxiv.7246238.v1
   
   for sTDA-xTB:
   S. Grimme and C. Bannwarth, J. Chem. Phys., 2016, 145, 054103.
   
   in the mass-spec context:
   V. Asgeirsson, C. Bauer and S. Grimme, Chem. Sci., 2017, 8, 4879.
   
   if GBSA is used:
   P. Shushkov, F. März and S. Grimme, unpublished.
   
   for ANC optimizer:
   S. Grimme, unpublished.
   Rational Function algorithm used in ANCopt:
   F. Eckert, P. Pulay, H.-J. Werner, J. Comput. Chem., 1997, 18, 1473.
   
   with help from (in alphabetical order)
   C. Bannwarth, F. Bohle, G. Brandenburg, E. Caldeweyher, M. Checinski,
   S. Dohm, S. Ehlert, S. Ehrlich, F. März, H. Neugebauer, J. Pisarek,
   P. Pracht, P. Shushkov, and S. Spicher.
   
 * started run on 2019/05/10 at 16:39:19.153     
========================================================================
 # omp threads = 2
========================================================================
number of atoms            : 857
number of electrons        : 2248
charge                     : -1
spin                       : .0
first test random number   : .2629

########################################################################
# WARNING! Please study the warnings concerning your input carefully
#  - Process number higher than OMP_NUM_THREADS, I hope you know what you are doing.
########################################################################

           ------------------------------------------------- 
          |                 G F N 2 - x T B                 |
          | Geometry, Frequencies, Noncovalent interactions |
          |            JCTC 2018 parametrisation            |
           ------------------------------------------------- 
 
      method parameters     
 k(s)        :  1.8500
 k(p)        :  2.2300
 k(d)        :  2.2300
 k(f)        :  2.0000
 kEN (H0ij)  : -2.0000
 D4 a1       :  0.5200
 D4 a2       :  5.0000
 D4 s6       :  1.0000
 D4 s8       :  2.7000
 D4 s9       :  5.0000
 alphaj      :  2.0000

 Solvent             : h2o
 Using internal parameter file: .param_gbsa2_h2o
 Gsolv ref. state (COSMO-RS): gsolv [1 M gas/solution]
 temperature (mdtemp)       :    298.150000000000     
 dielectric constant        :    80.2000000000000     
 rho                        :    1.00000000000000     
 mass                       :    18.0000000000000     
 surface tension            :    15.5689454083859     
 probe radius               :   0.975313790000000     
 vdW radii scaling          :    1.00000000000000     
 Gshift (Eh)                :   1.857443126794793E-003
 c1                         :    1.55243817000000     
 soset                      :   0.130326360000000     
 HB correction              :  T

            Z     q(EN)     CN     RAES       Cart. coordinates
     1  N   5.0   -0.21    3.22    1.96    12.57462    65.53514   -29.27720
     2  C   4.0    0.03    4.40    4.39    14.58490    64.09882   -28.09447
     3  C   4.0    0.15    3.50    3.11    13.74879    63.58112   -25.37020
     4  O   6.0   -0.32    1.28    1.80    13.18917    65.33583   -23.96833
     5  C   4.0   -0.04    4.17    3.93    17.06679    65.57694   -28.07476
     6  S   6.0   -0.03    2.47    3.10    19.59758    63.53873   -26.78391
     7  H   1.0    0.10    1.03    1.43    11.67122    66.78487   -28.14451
     8  H   1.0    0.04    1.06    1.44    14.82559    62.32324   -29.12344
     9  H   1.0    0.04    1.06    1.44    17.60021    66.12250   -29.98419
    10  H   1.0    0.05    1.07    1.44    16.92319    67.22986   -26.86032
    11  N   5.0   -0.14    3.47    2.06    13.63548    61.15255   -24.73124
    12  C   4.0    0.04    4.44    4.45    12.77493    60.38977   -22.25492
    13  C   4.0    0.14    3.40    3.08    13.57833    57.67945   -21.68649
    14  O   6.0   -0.30    1.23    1.80    14.15763    56.16128   -23.33851
    15  C   4.0   -0.03    4.36    4.31     9.89884    60.74438   -22.00606
    16  C   4.0   -0.03    4.06    3.73     8.38472    59.38178   -24.02323
    17  S   6.0   -0.05    2.51    3.10     5.18390    60.68655   -24.20657
    18  C   4.0   -0.07    3.89    3.44     3.85116    59.38208   -21.34878
    19  H   1.0    0.09    1.06    1.44    14.01442    59.75581   -25.99473
    20  H   1.0    0.06    1.07    1.44    13.64975    61.63312   -20.84841
    21  H   1.0    0.05    1.03    1.43     9.33068    60.14791   -20.12333
    22  H   1.0    0.05    1.05    1.44     9.51710    62.76156   -22.18079
    23  H   1.0    0.05    1.08    1.44     9.19427    59.69698   -25.88838
    24  H   1.0    0.05    1.06    1.44     8.23822    57.35473   -23.68925
    25  H   1.0    0.04    1.05    1.44     1.81699    59.60393   -21.48879
    26  H   1.0    0.04    1.04    1.43     4.29471    57.38028   -21.26830
    27  H   1.0    0.04    1.04    1.43     4.57657    60.38712   -19.71322
    28  N   5.0   -0.14    3.48    2.07    13.60990    57.16045   -19.22005
    29  C   4.0    0.04    4.34    4.27    14.41328    54.76049   -18.18114
    30  C   4.0    0.14    3.42    3.08    12.85315    54.19928   -15.82524
    31  O   6.0   -0.32    1.29    1.80    11.83947    55.90540   -14.63200
    32  C   4.0   -0.07    4.11    3.81    17.21542    54.82681   -17.44730
    33  H   1.0    0.11    1.09    1.44    13.08220    58.51796   -17.96694
    34  H   1.0    0.05    1.06    1.44    14.11327    53.29583   -19.60486
    35  H   1.0    0.05    1.00    1.43    17.85785    52.93998   -16.96584
    36  H   1.0    0.05    1.00    1.43    18.31464    55.52090   -19.03608
    37  H   1.0    0.04    1.00    1.43    17.51870    56.07552   -15.84368
    38  N   5.0   -0.14    3.47    2.06    12.76837    51.76707   -15.15786
    39  C   4.0    0.04    4.30    4.20    11.38476    50.87322   -12.96629
    40  C   4.0    0.08    3.23    3.04    12.67775    48.47678   -12.04627
    41  O   6.0   -0.29    1.14    1.80    13.27546    46.81709   -13.56756
    42  C   4.0   -0.04    4.26    4.12     8.61588    50.32669   -13.69041
    43  C   4.0   -0.05    4.17    3.94     6.93682    49.55884   -11.47418
    44  C   4.0   -0.04    4.17    3.94     4.25109    48.97957   -12.38850
    45  C   4.0   -0.03    4.11    3.83     2.67224    47.76549   -10.30502
    46  N   5.0   -0.11    3.98    2.80     0.27844    46.72701   -11.31611
    47  H   1.0    0.09    1.07    1.44    13.54049    50.45396   -16.32302
    48  H   1.0    0.06    1.06    1.44    11.44709    52.32906   -11.50540
    49  H   1.0    0.05    1.03    1.43     7.85054    52.03523   -14.55369
    50  H   1.0    0.05    1.03    1.43     8.60155    48.82636   -15.10861
    51  H   1.0    0.04    1.03    1.43     7.71040    47.87758   -10.55770
    52  H   1.0    0.05    1.02    1.43     6.88737    51.07601   -10.07973
    53  H   1.0    0.06    1.02    1.43     3.33603    50.71107   -13.03096
    54  H   1.0    0.04    1.03    1.43     4.37855    47.66944   -13.97823
    55  H   1.0    0.04    1.02    1.43     3.76480    46.23495    -9.44702
    56  H   1.0    0.05    1.02    1.43     2.20705    49.16103    -8.86234
    57  H   1.0    0.06    1.02    1.43    -0.54837    45.56309   -10.01721
    58  H   1.0    0.12    1.16    1.45    -1.24159    48.20460   -11.77051
    59  H   1.0    0.06    1.03    1.43     0.62871    45.71611   -12.92562
    60  N   5.0   -0.21    3.27    1.97    25.85759    63.66698   -27.92099
    61  C   4.0    0.04    4.38    4.35    26.18629    65.65550   -26.08039
    62  C   4.0    0.15    3.45    3.10    27.07311    64.69545   -23.49511
    63  O   6.0   -0.31    1.23    1.80    27.94085    66.20861   -21.95875
    64  C   4.0   -0.03    4.19    3.98    23.83125    67.27553   -25.71168
    65  S   6.0   -0.03    2.48    3.10    21.25830    65.67780   -24.07566
    66  H   1.0    0.09    1.07    1.44    24.13340    62.86281   -28.09707
    67  H   1.0    0.05    1.06    1.44    27.68374    66.90343   -26.79568
    68  H   1.0    0.06    1.08    1.44    24.27608    68.85635   -24.46480
    69  H   1.0    0.06    1.07    1.44    23.16936    68.01240   -27.51460
    70  N   5.0   -0.13    3.55    2.12    26.76194    62.24497   -23.06862
    71  C   4.0    0.03    4.39    4.35    27.41424    60.95102   -20.75722
    72  C   4.0    0.07    3.24    3.04    28.54578    58.38868   -21.47023
    73  O   6.0   -0.29    1.16    1.80    28.37582    57.57124   -23.62744
    74  C   4.0   -0.02    4.26    4.11    25.05274    60.59242   -19.07003
    75  C   4.0   -0.07    4.12    3.84    24.12440    63.14054   -18.10271
    76  C   4.0   -0.07    4.13    3.85    22.94557    59.21300   -20.47459
    77  H   1.0    0.10    1.10    1.44    26.31628    61.07147   -24.51795
    78  H   1.0    0.05    1.05    1.44    28.82113    62.05333   -19.72097
    79  H   1.0    0.04    1.06    1.44    25.66372    59.45201   -17.46182
    80  H   1.0    0.03    1.00    1.43    22.48335    62.89301   -16.89702
    81  H   1.0    0.04    1.00    1.43    25.59691    64.07455   -17.02346
    82  H   1.0    0.05    1.02    1.43    23.59909    64.37373   -19.65733
    83  H   1.0    0.04    1.00    1.43    21.38623    58.85702   -19.18790
    84  H   1.0    0.05    1.00    1.43    22.24477    60.35549   -22.03128
    85  H   1.0    0.05    1.00    1.43    23.62903    57.42046   -21.20678
    86  N   5.0   -0.19    3.27    1.97    32.04256    64.37114   -13.69927
    87  C   4.0    0.03    4.32    4.23    31.12051    66.29028   -15.40434
    88  C   4.0    0.09    3.23    3.04    33.21007    66.94944   -17.29266
    89  O   6.0   -0.27    1.12    1.80    35.33229    67.58610   -16.59385
    90  C   4.0   -0.01    4.34    4.27    30.36639    68.68052   -13.94534
    91  C   4.0   -0.05    4.19    3.98    28.67592    68.11125   -11.65898
    92  C   4.0   -0.06    4.13    3.86    29.13266    70.54581   -15.76504
    93  C   4.0   -0.08    4.01    3.65    26.22785    66.71883   -12.25991
    94  H   1.0    0.13    1.09    1.44    33.02763    64.99522   -12.17826
    95  H   1.0    0.04    1.05    1.44    29.49842    65.52266   -16.43423
    96  H   1.0    0.07    1.06    1.44    32.11540    69.53796   -13.22970
    97  H   1.0    0.05    1.03    1.43    29.76472    67.01794   -10.28915
    98  H   1.0    0.04    1.03    1.43    28.22686    69.92328   -10.78357
    99  H   1.0    0.05    1.00    1.43    28.48099    72.21159   -14.75496
   100  H   1.0    0.07    1.00    1.43    30.48439    71.17790   -17.17991
   101  H   1.0    0.05    1.00    1.43    27.53438    69.69755   -16.73644
   102  H   1.0    0.03    1.00    1.43    25.08187    66.59390   -10.56149
   103  H   1.0    0.04    1.00    1.43    25.14886    67.71843   -13.69225
   104  H   1.0    0.04    1.00    1.43    26.62651    64.81250   -12.91154
   105  N   5.0   -0.19    3.22    1.96    31.55517    70.64890   -23.13325
   106  C   4.0    0.03    4.31    4.22    31.01672    73.13028   -24.16768
   107  C   4.0    0.16    3.46    3.10    30.21510    74.91292   -22.04212
   108  O   6.0   -0.31    1.32    1.80    28.72343    74.26666   -20.39376
   109  C   4.0   -0.03    4.26    4.13    28.91747    73.00399   -26.17329
   110  C   4.0   -0.04    4.22    4.04    29.87505    71.75615   -28.59653
   111  C   4.0    0.15    3.21    3.04    27.75687    70.73931   -30.26759
   112  O   6.0   -0.31    1.22    1.80    25.52025    70.88193   -29.72699
   113  N   5.0   -0.19    3.18    1.95    28.58520    69.65197   -32.40695
   114  H   1.0    0.11    1.03    1.43    30.12586    69.74185   -22.24103
   115  H   1.0    0.04    1.05    1.44    32.78203    73.79875   -25.01535
   116  H   1.0    0.06    1.03    1.43    27.33276    71.92833   -25.40726
   117  H   1.0    0.06    1.02    1.43    28.21575    74.90503   -26.55873
   118  H   1.0    0.04    1.03    1.43    30.99466    73.09645   -29.68917
   119  H   1.0    0.04    1.03    1.43    31.08876    70.15794   -28.10164
   120  H   1.0    0.08    1.03    1.43    30.44885    69.39979   -32.68169
   121  H   1.0    0.09    1.02    1.43    27.39559    68.58965   -33.46513
   122  N   5.0   -0.13    3.47    2.06    31.32227    77.19774   -22.04146
   123  C   4.0    0.04    4.44    4.44    30.34278    79.15112   -20.37289
   124  C   4.0    0.16    3.47    3.10    27.53251    79.54292   -21.00101
   125  O   6.0   -0.29    1.26    1.80    26.73445    79.12452   -23.12170
   126  C   4.0   -0.03    4.31    4.21    31.74153    81.64696   -20.79074
   127  C   4.0    0.15    3.23    3.04    34.55239    81.37840   -20.21364
   128  O   6.0   -0.31    1.22    1.80    35.31619    80.60070   -18.17095
   129  N   5.0   -0.19    3.18    1.95    36.11246    82.00527   -22.09053
   130  H   1.0    0.08    1.07    1.44    32.24286    77.77216   -23.61113
   131  H   1.0    0.07    1.05    1.44    30.52622    78.51822   -18.41051
   132  H   1.0    0.05    1.03    1.43    31.42734    82.29074   -22.72335
   133  H   1.0    0.05    1.03    1.43    30.94085    83.04817   -19.50352
   134  H   1.0    0.10    1.03    1.43    37.99680    81.90674   -21.80233
   135  H   1.0    0.08    1.03    1.43    35.48020    82.75145   -23.72189
   136  N   5.0   -0.14    3.35    2.00    26.08759    80.44893   -19.12959
   137  C   4.0    0.03    4.30    4.20    23.46637    80.98502   -19.65746
   138  C   4.0    0.15    3.32    3.06    21.84628    81.12454   -17.30030
   139  O   6.0   -0.31    1.26    1.80    22.66759    80.75738   -15.16887
   140  H   1.0    0.11    1.07    1.44    26.65543    80.43372   -17.29716
   141  H   1.0    0.06    1.02    1.43    23.30546    82.77989   -20.68634
   142  H   1.0    0.06    1.03    1.43    22.70425    79.51950   -20.90976
   143  N   5.0   -0.14    3.49    2.07    19.45779    81.75828   -17.80496
   144  C   4.0    0.03    4.43    4.43    17.47704    81.75619   -15.91434
   145  C   4.0    0.15    3.42    3.09    16.16658    79.17794   -16.04796
   146  O   6.0   -0.33    1.30    1.80    15.27315    78.43617   -18.06198
   147  C   4.0   -0.04    4.35    4.30    15.58658    83.87233   -16.45080
   148  C   4.0   -0.03    4.18    3.96    13.61519    84.18205   -14.35129
   149  C   4.0   -0.07    4.11    3.82    14.85033    85.01149   -11.87569
   150  C   4.0   -0.08    4.10    3.81    11.62966    86.10698   -15.16974
   151  H   1.0    0.11    1.10    1.44    18.91202    81.90665   -19.63993
   152  H   1.0    0.05    1.06    1.44    18.38002    81.99839   -14.07532
   153  H   1.0    0.05    1.03    1.43    16.63128    85.63675   -16.68912
   154  H   1.0    0.05    1.03    1.43    14.64922    83.43861   -18.24038
   155  H   1.0    0.04    1.05    1.44    12.68796    82.35534   -14.05126
   156  H   1.0    0.04    1.00    1.43    13.41877    85.64709   -10.55129
   157  H   1.0    0.05    1.00    1.43    15.89656    83.47695   -11.00019
   158  H   1.0    0.05    1.00    1.43    16.14230    86.57862   -12.19867
   159  H   1.0    0.03    1.00    1.43    10.17675    86.27610   -13.73052
   160  H   1.0    0.04    1.00    1.43    12.50621    87.94665   -15.42909
   161  H   1.0    0.03    1.00    1.43    10.75459    85.53657   -16.93958
   162  N   5.0   -0.14    3.47    2.06    16.10265    77.88914   -13.90177
   163  C   4.0    0.04    4.41    4.40    15.18639    75.33718   -13.62869
   164  C   4.0    0.14    3.41    3.08    13.20889    75.19698   -11.51516
   165  O   6.0   -0.31    1.27    1.80    13.31424    76.49948    -9.60538
   166  C   4.0   -0.03    4.33    4.26    17.38184    73.57315   -12.86361
   167  C   4.0   -0.02    3.54    3.13    19.22026    73.10776   -14.97978
   168  C   4.0   -0.04    3.46    3.10    21.35588    74.60187   -15.29251
   169  C   4.0   -0.05    3.47    3.10    18.84408    71.12243   -16.65751
   170  C   4.0   -0.04    3.43    3.09    23.09465    74.10011   -17.18001
   171  C   4.0   -0.04    3.44    3.09    20.56732    70.59190   -18.53944
   172  C   4.0    0.07    3.44    3.09    22.73118    72.06853   -18.80904
   173  O   6.0   -0.24    2.12    1.84    24.38283    71.47168   -20.67491
   174  H   1.0    0.11    1.11    1.45    16.89554    78.60667   -12.30502
   175  H   1.0    0.07    1.06    1.44    14.35662    74.71849   -15.41629
   176  H   1.0    0.05    1.03    1.43    18.35238    74.44930   -11.26758
   177  H   1.0    0.04    1.03    1.43    16.56915    71.77848   -12.26052
   178  H   1.0    0.07    1.03    1.43    21.68163    76.18106   -14.03853
   179  H   1.0    0.05    1.03    1.43    17.17515    69.96290   -16.48734
   180  H   1.0    0.07    1.03    1.43    24.77093    75.25219   -17.38798
   181  H   1.0    0.05    1.04    1.43    20.28916    69.02140   -19.81110
   182  H   1.0    0.15    1.08    1.44    25.93019    72.47649   -20.51370
   183  N   5.0   -0.15    3.48    2.07    11.42349    73.46832   -11.91710
   184  C   4.0    0.03    4.41    4.40     9.50062    72.86802   -10.05490
   185  C   4.0    0.15    3.41    3.08     9.93786    70.13356    -9.22053
   186  O   6.0   -0.32    1.27    1.80     9.97182    68.41005   -10.77789
   187  C   4.0   -0.05    4.36    4.30     6.87446    73.20037   -11.23018
   188  C   4.0   -0.03    4.17    3.94     4.71863    73.57105    -9.33818
   189  C   4.0   -0.07    4.11    3.83     5.01174    76.02275    -7.85151
   190  C   4.0   -0.09    4.11    3.83     2.23035    73.61093   -10.79713
   191  H   1.0    0.10    1.09    1.44    11.38779    72.49164   -13.56910
   192  H   1.0    0.06    1.07    1.44     9.77901    74.14379    -8.45894
   193  H   1.0    0.04    1.03    1.43     6.95607    74.83616   -12.48241
   194  H   1.0    0.04    1.04    1.43     6.47887    71.54147   -12.38308
   195  H   1.0    0.05    1.05    1.44     4.72432    71.97488    -8.01484
   196  H   1.0    0.04    1.00    1.43     3.29432    76.44600    -6.81025
   197  H   1.0    0.06    1.00    1.43     6.54329    75.90579    -6.49553
   198  H   1.0    0.04    1.00    1.43     5.39109    77.58795    -9.12375
   199  H   1.0    0.04    1.00    1.43     0.64688    73.86502    -9.51669
   200  H   1.0    0.03    1.00    1.43     2.23444    75.16944   -12.13565
   201  H   1.0    0.03    1.00    1.43     1.96585    71.86059   -11.83964
   202  N   5.0   -0.14    3.49    2.07    10.37884    69.80614    -6.76674
   203  C   4.0    0.04    4.51    4.55    10.60789    67.33825    -5.59993
   204  C   4.0    0.14    3.46    3.10     8.07993    66.75711    -4.33654
   205  O   6.0   -0.31    1.28    1.80     6.88980    68.42479    -3.23823
   206  C   4.0   -0.02    4.34    4.27    12.73736    67.30234    -3.61754
   207  C   4.0   -0.05    4.19    3.99    15.27778    67.89780    -4.87210
   208  C   4.0   -0.08    4.14    3.88    12.79451    64.72468    -2.32452
   209  C   4.0   -0.08    4.01    3.64    17.32842    68.56750    -2.96731
   210  H   1.0    0.11    1.10    1.44    10.18938    71.27828    -5.54801
   211  H   1.0    0.06    1.06    1.44    10.98801    65.93986    -7.07023
   212  H   1.0    0.05    1.05    1.44    12.32610    68.78602    -2.23288
   213  H   1.0    0.04    1.03    1.43    15.86355    66.26621    -5.98776
   214  H   1.0    0.05    1.03    1.43    15.02752    69.49108    -6.16022
   215  H   1.0    0.03    1.00    1.43    14.36319    64.60460    -1.00842
   216  H   1.0    0.05    1.00    1.43    11.06141    64.36245    -1.28372
   217  H   1.0    0.05    1.00    1.43    13.01343    63.24773    -3.73390
   218  H   1.0    0.03    1.00    1.43    19.06629    69.04098    -3.95350
   219  H   1.0    0.04    1.00    1.43    16.76554    70.18471    -1.83172
   220  H   1.0    0.03    1.00    1.43    17.71150    66.98891    -1.71261
   221  N   5.0   -0.14    3.51    2.08     7.28721    64.38200    -4.53629
   222  C   4.0    0.04    4.44    4.44     4.95799    63.51313    -3.41187
   223  C   4.0    0.15    3.47    3.10     5.30159    60.78489    -2.59596
   224  O   6.0   -0.32    1.32    1.80     7.05828    59.49303    -3.36859
   225  C   4.0   -0.03    4.33    4.25     2.75216    63.67760    -5.32573
   226  C   4.0   -0.01    3.59    3.16     3.12545    61.82800    -7.44670
   227  C   4.0   -0.04    3.47    3.10     2.02840    59.44067    -7.35772
   228  C   4.0   -0.04    3.47    3.10     4.63661    62.43710    -9.50198
   229  C   4.0   -0.03    3.43    3.09     2.46363    57.68424    -9.23415
   230  C   4.0   -0.04    3.43    3.09     5.08368    60.70056   -11.40293
   231  C   4.0    0.07    3.45    3.10     4.02876    58.30032   -11.25676
   232  O   6.0   -0.24    2.11    1.84     4.49684    56.49167   -13.02210
   233  H   1.0    0.11    1.10    1.44     8.33896    63.07542    -5.47425
   234  H   1.0    0.07    1.06    1.44     4.54639    64.69910    -1.76627
   235  H   1.0    0.05    1.03    1.43     0.98254    63.30834    -4.33632
   236  H   1.0    0.05    1.03    1.43     2.71527    65.60736    -6.04625
   237  H   1.0    0.05    1.03    1.43     0.80542    58.96100    -5.79482
   238  H   1.0    0.06    1.03    1.43     5.49171    64.28685    -9.62651
   239  H   1.0    0.07    1.03    1.43     1.59579    55.83999    -9.22274
   240  H   1.0    0.06    1.03    1.43     6.28040    61.20363   -12.98251
   241  H   1.0    0.12    1.04    1.43     5.56825    57.17300   -14.33507
   242  N   5.0   -0.14    3.41    2.02     3.49309    59.86341    -1.09406
   243  C   4.0    0.02    4.17    3.94     3.45557    57.25242    -0.31324
   244  C   4.0    0.08    3.14    3.03     2.14770    57.03431     2.21446
   245  O   6.0   -0.30    1.20    1.80     1.26488    58.90545     3.27068
   246  H   1.0    0.10    1.08    1.44     2.25886    61.02056    -0.20557
   247  H   1.0    0.05    1.02    1.43     2.44925    56.08456    -1.69978
   248  H   1.0    0.06    1.03    1.43     5.38179    56.52158    -0.15847
   249  N   5.0   -0.19    3.26    1.97    19.87544    60.96281    12.67845
   250  C   4.0    0.03    4.23    4.05    20.44056    61.57802    10.07465
   251  C   4.0    0.08    3.23    3.04    22.76942    63.27435    10.14677
   252  O   6.0   -0.31    1.22    1.80    22.83219    65.11189    11.57371
   253  C   4.0   -0.05    4.36    4.30    18.17983    62.96047     8.90724
   254  C   4.0   -0.03    4.17    3.94    18.38521    63.45174     6.06437
   255  C   4.0   -0.08    4.11    3.81    18.22553    61.00913     4.54288
   256  C   4.0   -0.08    4.11    3.82    16.24803    65.22316     5.26558
   257  H   1.0    0.13    1.07    1.44    19.44079    62.44558    13.81165
   258  H   1.0    0.03    1.05    1.44    20.86832    59.82362     9.08174
   259  H   1.0    0.04    1.03    1.43    16.48666    61.84222     9.27599
   260  H   1.0    0.05    1.03    1.43    17.99270    64.77379     9.87393
   261  H   1.0    0.03    1.05    1.44    20.20675    64.35822     5.67529
   262  H   1.0    0.03    1.00    1.43    18.37837    61.40676     2.53366
   263  H   1.0    0.04    1.00    1.43    19.73240    59.70771     5.04073
   264  H   1.0    0.04    1.00    1.43    16.41862    60.09335     4.87912
   265  H   1.0    0.03    1.00    1.43    16.35075    65.59617     3.24820
   266  H   1.0    0.04    1.00    1.43    14.42688    64.36399     5.67839
   267  H   1.0    0.04    1.00    1.43    16.35223    67.01595     6.26039
   268  N   5.0   -0.20    3.23    1.96    28.37901    67.39530     5.83630
   269  C   4.0    0.02    4.22    4.05    29.49067    68.63352     3.64479
   270  C   4.0    0.08    3.26    3.05    32.32114    68.72047     4.19838
   271  O   6.0   -0.29    1.13    1.80    33.16334    69.81669     6.06604
   272  C   4.0   -0.05    4.26    4.12    28.44128    71.30975     3.31284
   273  C   4.0   -0.05    4.19    3.98    29.80911    72.76837     1.22800
   274  C   4.0   -0.05    4.16    3.92    28.76275    75.45704     0.96346
   275  C   4.0   -0.03    4.12    3.84    30.56182    77.12635    -0.55615
   276  N   5.0   -0.12    4.01    2.88    29.48392    79.70436    -0.91490
   277  H   1.0    0.10    1.03    1.43    28.94752    68.13149     7.52177
   278  H   1.0    0.03    1.05    1.44    29.15216    67.46562     1.98148
   279  H   1.0    0.03    1.03    1.43    26.43029    71.16678     2.89472
   280  H   1.0    0.05    1.03    1.43    28.69473    72.28745     5.11120
   281  H   1.0    0.05    1.03    1.43    31.81607    72.85070     1.69980
   282  H   1.0    0.03    1.02    1.43    29.64439    71.74590    -0.55407
   283  H   1.0    0.03    1.03    1.43    26.92221    75.36474     0.04631
   284  H   1.0    0.04    1.03    1.43    28.53534    76.24293     2.85611
   285  H   1.0    0.05    1.02    1.43    32.34815    77.30034     0.45484
   286  H   1.0    0.06    1.02    1.43    30.95305    76.30615    -2.40991
   287  H   1.0    0.07    1.02    1.43    30.80186    80.86363    -1.75634
   288  H   1.0    0.07    1.02    1.43    27.93174    79.65302    -2.09574
   289  H   1.0    0.06    1.02    1.43    28.95734    80.46339     0.80129
   290  N   5.0   -0.20    3.27    1.97    23.67115    70.13488    12.80872
   291  C   4.0    0.03    4.39    4.37    21.87957    71.99092    11.93940
   292  C   4.0    0.15    3.39    3.08    19.19847    71.46490    12.89292
   293  O   6.0   -0.29    1.23    1.80    17.70118    73.20472    13.13971
   294  C   4.0   -0.02    4.32    4.24    21.92238    72.37547     9.05154
   295  C   4.0   -0.05    4.19    3.98    21.58060    69.88553     7.61478
   296  C   4.0   -0.08    4.12    3.84    24.38828    73.67780     8.32328
   297  C   4.0   -0.08    4.02    3.65    20.77497    70.30795     4.88153
   298  H   1.0    0.12    1.08    1.44    23.54670    68.36020    12.10281
   299  H   1.0    0.05    1.06    1.44    22.42903    73.78886    12.81832
   300  H   1.0    0.06    1.06    1.44    20.32651    73.61501     8.60276
   301  H   1.0    0.04    1.03    1.43    23.34678    68.81221     7.65136
   302  H   1.0    0.05    1.03    1.43    20.14065    68.74525     8.55566
   303  H   1.0    0.04    1.00    1.43    24.43587    74.03687     6.30660
   304  H   1.0    0.04    1.00    1.43    24.58333    75.46329     9.32055
   305  H   1.0    0.04    1.00    1.43    25.98717    72.48182     8.82519
   306  H   1.0    0.03    1.00    1.43    20.62697    68.50914     3.90319
   307  H   1.0    0.05    1.00    1.43    18.95389    71.24949     4.81540
   308  H   1.0    0.03    1.00    1.43    22.13978    71.46277     3.87658
   309  N   5.0   -0.13    3.48    2.06    18.59682    69.06923    13.48989
   310  C   4.0    0.03    4.32    4.23    16.22601    68.48019    14.73559
   311  C   4.0    0.07    3.22    3.04    16.67296    66.34248    16.62817
   312  O   6.0   -0.30    1.19    1.80    18.24383    64.69954    16.20675
   313  C   4.0   -0.03    4.29    4.17    14.22889    67.65636    12.78497
   314  C   4.0   -0.04    4.23    4.05    11.54980    67.71437    13.83115
   315  C   4.0    0.15    3.22    3.04     9.65781    66.78638    11.87662
   316  O   6.0   -0.32    1.26    1.80    10.26677    66.19591     9.72630
   317  N   5.0   -0.19    3.18    1.95     7.28273    66.67576    12.73276
   318  H   1.0    0.11    1.08    1.44    19.85626    67.63339    13.34218
   319  H   1.0    0.06    1.06    1.44    15.58642    70.20462    15.68425
   320  H   1.0    0.06    1.03    1.43    14.34296    68.94230    11.17637
   321  H   1.0    0.05    1.03    1.43    14.64976    65.75171    12.12095
   322  H   1.0    0.04    1.03    1.43    11.37995    66.51269    15.50069
   323  H   1.0    0.05    1.03    1.43    11.03898    69.64123    14.36326
   324  H   1.0    0.08    1.03    1.43     6.89432    67.14723    14.53228
   325  H   1.0    0.09    1.02    1.43     5.83811    65.94954    11.69786
   326  N   5.0   -0.19    3.27    1.97     3.78161    62.34301     6.58556
   327  C   4.0    0.03    4.41    4.40     6.36409    63.20819     6.47844
   328  C   4.0    0.15    3.45    3.10     6.70398    64.97413     4.22393
   329  O   6.0   -0.29    1.25    1.80     5.35272    64.83603     2.35395
   330  C   4.0   -0.02    4.26    4.12     8.28780    61.00711     6.32242
   331  C   4.0   -0.07    4.15    3.90     7.44459    58.86810     8.06172
   332  C   4.0   -0.07    4.14    3.87     8.63151    60.01457     3.64078
   333  H   1.0    0.13    1.06    1.44     3.08454    61.43884     5.04416
   334  H   1.0    0.06    1.07    1.44     6.73198    64.24924     8.22030
   335  H   1.0    0.04    1.05    1.44    10.08779    61.76488     6.99922
   336  H   1.0    0.04    1.00    1.43     8.98059    57.53453     8.33547
   337  H   1.0    0.04    1.00    1.43     6.87158    59.62254     9.88261
   338  H   1.0    0.05    1.00    1.43     5.83990    57.86803     7.25583
   339  H   1.0    0.04    1.00    1.43     9.87759    58.38366     3.66028
   340  H   1.0    0.06    1.01    1.43     6.82241    59.44942     2.86025
   341  H   1.0    0.05    1.00    1.43     9.45022    61.43599     2.40430
   342  N   5.0   -0.14    3.36    2.00     8.65746    66.56618     4.47648
   343  C   4.0    0.02    4.26    4.13     9.51905    68.11645     2.41715
   344  C   4.0    0.15    3.30    3.05     9.08043    70.94024     2.78450
   345  O   6.0   -0.30    1.23    1.80     9.80921    72.07404     4.67160
   346  H   1.0    0.11    1.09    1.44     9.53765    66.70397     6.17212
   347  H   1.0    0.04    1.03    1.43    11.56166    67.84832     2.19159
   348  H   1.0    0.07    1.05    1.44     8.52667    67.48209     0.72732
   349  N   5.0   -0.13    3.39    2.02     7.94832    72.05405     0.82024
   350  C   4.0    0.02    4.25    4.09     7.76353    74.75898     0.54314
   351  C   4.0    0.15    3.32    3.06     9.17639    75.61024    -1.82935
   352  O   6.0   -0.32    1.28    1.80     9.97885    74.10661    -3.39138
   353  H   1.0    0.11    1.09    1.44     7.47073    71.00390    -0.71981
   354  H   1.0    0.05    1.02    1.43     5.78138    75.32456     0.36283
   355  H   1.0    0.06    1.03    1.43     8.57184    75.63602     2.22945
   356  N   5.0   -0.13    3.48    2.06     9.40679    78.11323    -2.06112
   357  C   4.0    0.04    4.49    4.52    10.50271    79.31141    -4.26458
   358  C   4.0    0.14    3.43    3.09    13.19416    80.16809    -3.62684
   359  O   6.0   -0.31    1.24    1.80    13.60625    81.52928    -1.80192
   360  C   4.0    0.05    4.24    4.08     8.91282    81.61968    -5.04447
   361  O   6.0   -0.26    2.13    1.84     6.34399    80.92252    -4.90040
   362  C   4.0   -0.08    4.08    3.76     9.67433    82.45318    -7.69579
   363  H   1.0    0.09    1.07    1.44     8.70491    79.27000    -0.72028
   364  H   1.0    0.06    1.06    1.44    10.54286    77.92015    -5.78828
   365  H   1.0    0.05    1.04    1.43     9.30125    83.14645    -3.68220
   366  H   1.0    0.11    1.03    1.43     5.32245    82.39484    -5.23552
   367  H   1.0    0.04    1.00    1.43     8.56144    84.07631    -8.28434
   368  H   1.0    0.04    1.00    1.43    11.66361    82.95011    -7.72869
   369  H   1.0    0.05    1.00    1.43     9.35694    80.92147    -9.02682
   370  N   5.0   -0.14    3.48    2.06    14.97444    79.30164    -5.18553
   371  C   4.0    0.04    4.42    4.42    17.62380    79.79858    -4.79056
   372  C   4.0    0.14    3.42    3.08    18.87300    80.48550    -7.30102
   373  O   6.0   -0.31    1.28    1.80    18.43098    79.32128    -9.24832
   374  C   4.0   -0.03    4.33    4.25    19.01411    77.43325    -3.77250
   375  C   4.0   -0.01    3.55    3.14    17.98503    76.59108    -1.26356
   376  C   4.0   -0.05    3.47    3.10    19.18182    77.22544     0.98791
   377  C   4.0   -0.03    3.48    3.11    15.78731    75.16141    -1.14321
   378  C   4.0   -0.04    3.45    3.10    18.20363    76.49259     3.30029
   379  C   4.0   -0.04    3.44    3.09    14.78790    74.42912     1.15400
   380  C   4.0    0.07    3.44    3.09    15.96037    75.11166     3.40612
   381  O   6.0   -0.23    2.11    1.84    15.01676    74.46519     5.70292
   382  H   1.0    0.11    1.10    1.44    14.52595    78.24827    -6.72899
   383  H   1.0    0.05    1.06    1.44    17.76482    81.34432    -3.42478
   384  H   1.0    0.05    1.03    1.43    18.78500    75.93133    -5.16831
   385  H   1.0    0.04    1.03    1.43    21.01486    77.89295    -3.61744
   386  H   1.0    0.05    1.03    1.43    20.90300    78.31764     0.94007
   387  H   1.0    0.06    1.03    1.43    14.83082    74.61243    -2.85981
   388  H   1.0    0.06    1.03    1.43    19.12179    76.99169     5.05113
   389  H   1.0    0.07    1.03    1.43    13.08111    73.31443     1.21079
   390  H   1.0    0.14    1.05    1.44    13.35595    73.69668     5.53654
   391  N   5.0   -0.14    3.47    2.06    20.50298    82.41800    -7.18099
   392  C   4.0    0.03    4.42    4.41    22.30342    82.98337    -9.17813
   393  C   4.0    0.15    3.43    3.09    24.70143    81.48000    -8.52933
   394  O   6.0   -0.31    1.23    1.80    25.70440    81.66549    -6.45477
   395  C   4.0   -0.04    4.27    4.15    22.82381    85.81437    -9.27241
   396  C   4.0   -0.03    4.18    3.97    24.52633    86.52852   -11.48268
   397  C   4.0    0.25    3.11    3.03    24.73803    89.42539   -11.70262
   398  O   6.0   -0.29    1.18    1.80    22.83520    90.74471   -11.49372
   399  O   6.0   -0.28    1.17    1.80    26.94216    90.28376   -12.08886
   400  H   1.0    0.08    1.07    1.44    20.95649    83.16024    -5.48126
   401  H   1.0    0.06    1.06    1.44    21.52458    82.31448   -10.96911
   402  H   1.0    0.05    1.03    1.43    21.03784    86.83430    -9.46216
   403  H   1.0    0.06    1.03    1.43    23.71672    86.38810    -7.49922
   404  H   1.0    0.06    1.02    1.43    26.41831    85.73837   -11.25456
   405  H   1.0    0.06    1.02    1.43    23.72815    85.81227   -13.25031
   406  N   5.0   -0.14    3.48    2.06    25.42812    79.84412   -10.30472
   407  C   4.0    0.04    4.43    4.43    27.50541    78.10249    -9.98507
   408  C   4.0    0.15    3.41    3.08    29.43906    78.46572   -12.09175
   409  O   6.0   -0.30    1.25    1.80    28.88591    79.41796   -14.14011
   410  C   4.0   -0.04    4.35    4.29    26.56585    75.35137    -9.98974
   411  C   4.0   -0.02    4.19    3.97    24.51351    74.83436    -8.00644
   412  C   4.0   -0.09    4.10    3.80    23.53293    72.13247    -8.26553
   413  C   4.0   -0.08    4.11    3.82    25.53105    75.27452    -5.34230
   414  H   1.0    0.11    1.09    1.44    24.65767    79.93396   -12.05449
   415  H   1.0    0.06    1.07    1.44    28.43032    78.53521    -8.19023
   416  H   1.0    0.04    1.03    1.43    25.83328    74.91224   -11.87108
   417  H   1.0    0.04    1.03    1.43    28.20236    74.14529    -9.63508
   418  H   1.0    0.05    1.05    1.44    22.94168    76.13580    -8.36427
   419  H   1.0    0.03    1.00    1.43    21.93029    71.83740    -7.01465
   420  H   1.0    0.04    1.00    1.43    22.93696    71.76160   -10.19769
   421  H   1.0    0.03    1.00    1.43    25.00740    70.79005    -7.77498
   422  H   1.0    0.03    1.00    1.43    24.21993    74.51201    -3.95752
   423  H   1.0    0.04    1.00    1.43    27.35479    74.34800    -5.14220
   424  H   1.0    0.06    1.00    1.43    25.76692    77.28909    -5.02208
   425  N   5.0   -0.13    3.50    2.08    31.74810    77.65608   -11.48770
   426  C   4.0    0.05    4.34    4.27    33.90472    78.02129   -13.10592
   427  C   4.0    0.09    3.20    3.04    35.19244    75.53161   -13.77492
   428  O   6.0   -0.30    1.17    1.80    34.88851    73.56806   -12.58001
   429  C   4.0   -0.03    4.28    4.16    35.86004    79.76959   -11.83293
   430  C   4.0    0.02    3.74    3.28    34.62415    82.13919   -10.97532
   431  N   5.0   -0.11    3.54    2.11    33.34490    83.73426   -12.56698
   432  C   4.0    0.04    3.65    3.20    34.35735    83.17316    -8.62782
   433  C   4.0    0.08    3.63    3.18    32.37061    85.61393   -11.12686
   434  N   5.0   -0.16    2.45    1.90    32.96174    85.33299    -8.74922
   435  H   1.0    0.11    1.12    1.45    32.08934    76.87073    -9.74500
   436  H   1.0    0.07    1.07    1.44    33.22849    78.90502   -14.85014
   437  H   1.0    0.06    1.03    1.43    36.66647    78.80249   -10.19896
   438  H   1.0    0.05    1.03    1.43    37.36239    80.17084   -13.18739
   439  H   1.0    0.09    1.05    1.44    33.12881    83.47779   -14.43951
   440  H   1.0    0.05    1.02    1.43    35.10639    82.50305    -6.87314
   441  H   1.0    0.06    1.02    1.43    31.24122    87.13020   -11.86489
   442  N   5.0   -0.17    3.23    1.96    37.37438    69.65007    -9.52033
   443  C   4.0    0.04    4.23    4.06    35.86337    69.34995    -7.26679
   444  C   4.0    0.08    3.22    3.04    34.79629    66.67863    -7.17244
   445  O   6.0   -0.30    1.21    1.80    34.07085    65.57421    -9.08679
   446  C   4.0   -0.03    4.27    4.14    33.67486    71.21582    -7.22297
   447  C   4.0    0.25    3.10    3.02    34.49450    73.96171    -6.53853
   448  O   6.0   -0.29    1.18    1.80    36.67317    74.31264    -5.73784
   449  O   6.0   -0.32    1.24    1.80    32.81626    75.61032    -6.75265
   450  H   1.0    0.12    1.05    1.44    36.78705    70.90131   -10.83968
   451  H   1.0    0.05    1.05    1.44    37.06828    69.64412    -5.60607
   452  H   1.0    0.06    1.03    1.43    32.73537    71.27751    -9.05549
   453  H   1.0    0.04    1.03    1.43    32.29520    70.62189    -5.80304
   454  N   5.0   -0.20    3.25    1.97    29.13706    61.93292    -3.12722
   455  C   4.0    0.03    4.31    4.21    26.91202    61.76665    -1.53613
   456  C   4.0    0.07    3.25    3.04    26.68765    59.02326    -0.67324
   457  O   6.0   -0.29    1.14    1.80    27.16492    57.28977    -2.14629
   458  C   4.0   -0.02    4.32    4.24    24.51078    62.58916    -2.98019
   459  C   4.0   -0.06    4.19    3.97    24.70526    65.33135    -3.90410
   460  C   4.0   -0.08    4.14    3.88    22.17760    62.18377    -1.34020
   461  C   4.0   -0.09    4.03    3.66    24.57312    67.30668    -1.81665
   462  H   1.0    0.10    1.03    1.43    29.43942    60.48441    -4.34316
   463  H   1.0    0.03    1.05    1.44    27.20377    62.98406     0.10017
   464  H   1.0    0.04    1.06    1.44    24.38143    61.36022    -4.64354
   465  H   1.0    0.03    1.03    1.43    26.48614    65.54375    -4.92471
   466  H   1.0    0.03    1.03    1.43    23.16538    65.65103    -5.24120
   467  H   1.0    0.03    1.00    1.43    20.51961    62.96054    -2.27131
   468  H   1.0    0.04    1.00    1.43    21.85225    60.17862    -1.02376
   469  H   1.0    0.03    1.00    1.43    22.43077    63.08784     0.48605
   470  H   1.0    0.03    1.00    1.43    24.94317    69.16053    -2.61362
   471  H   1.0    0.03    1.00    1.43    22.72297    67.32353    -0.93078
   472  H   1.0    0.03    1.00    1.43    25.98318    66.91718    -0.38420
   473  N   5.0   -0.20    3.24    1.97     5.84845    47.08019     1.63596
   474  C   4.0    0.03    4.33    4.25     7.09026    47.73338    -0.71405
   475  C   4.0    0.14    3.47    3.10     7.48187    50.57758    -0.83457
   476  O   6.0   -0.31    1.26    1.80     6.23131    52.02322     0.47097
   477  C   4.0   -0.04    4.34    4.27     5.42777    46.94131    -2.99676
   478  C   4.0   -0.01    3.58    3.15     2.92649    48.27872    -3.00131
   479  C   4.0   -0.04    3.48    3.11     2.65605    50.62813    -4.15120
   480  C   4.0   -0.04    3.47    3.10     0.83540    47.22345    -1.81407
   481  C   4.0   -0.03    3.43    3.09     0.36960    51.88586    -4.11938
   482  C   4.0   -0.04    3.42    3.09    -1.46652    48.46007    -1.76937
   483  C   4.0    0.07    3.45    3.09    -1.71233    50.80778    -2.92323
   484  O   6.0   -0.24    2.11    1.84    -3.92956    52.11350    -2.91250
   485  H   1.0    0.10    1.04    1.43     5.01314    48.52512     2.58539
   486  H   1.0    0.04    1.05    1.44     8.88352    46.71798    -0.87646
   487  H   1.0    0.04    1.03    1.43     6.47890    47.32777    -4.72469
   488  H   1.0    0.04    1.03    1.43     5.15940    44.90589    -2.84731
   489  H   1.0    0.05    1.03    1.43     4.24767    51.47799    -5.10479
   490  H   1.0    0.05    1.03    1.43     0.99861    45.40593    -0.90036
   491  H   1.0    0.06    1.03    1.43     0.14636    53.68075    -5.06023
   492  H   1.0    0.05    1.03    1.43    -3.06693    47.62444    -0.81335
   493  H   1.0    0.12    1.04    1.43    -5.24168    51.10640    -2.13792
   494  N   5.0   -0.15    3.46    2.05     9.16544    51.36653    -2.54950
   495  C   4.0    0.04    4.43    4.43     9.45748    54.02794    -3.11080
   496  C   4.0    0.14    3.45    3.09    10.39558    54.38603    -5.80240
   497  O   6.0   -0.31    1.25    1.80    11.53100    52.71057    -6.93454
   498  C   4.0   -0.03    4.28    4.15    11.22949    55.38480    -1.22614
   499  C   4.0   -0.01    3.69    3.23    13.97555    54.84809    -1.58429
   500  C   4.0   -0.01    3.61    3.17    15.39473    53.07811    -0.35321
   501  C   4.0    0.01    3.90    3.46    15.67983    56.20542    -3.18060
   502  N   5.0   -0.12    3.49    2.07    17.86857    53.22655    -1.08909
   503  C   4.0    0.03    3.91    3.48    18.10551    55.13767    -2.79366
   504  C   4.0   -0.04    3.41    3.08    15.42776    58.25598    -4.81381
   505  C   4.0   -0.05    3.40    3.08    20.24693    56.05886    -3.99984
   506  C   4.0   -0.05    3.38    3.07    17.55296    59.14657    -6.01637
   507  C   4.0   -0.04    3.38    3.07    19.93030    58.06469    -5.62834
   508  H   1.0    0.09    1.07    1.44    10.18232    50.11939    -3.58969
   509  H   1.0    0.06    1.07    1.44     7.59654    54.91381    -2.94437
   510  H   1.0    0.05    1.03    1.43    10.90239    57.41089    -1.42313
   511  H   1.0    0.05    1.03    1.43    10.65323    54.80590     0.66842
   512  H   1.0    0.05    1.02    1.43    14.79129    51.71607     1.01775
   513  H   1.0    0.07    1.05    1.44    19.36016    52.25025    -0.41177
   514  H   1.0    0.06    1.03    1.43    13.61897    59.15047    -5.09270
   515  H   1.0    0.06    1.02    1.43    22.08515    55.24434    -3.62988
   516  H   1.0    0.04    1.03    1.43    17.41080    60.74259    -7.27950
   517  H   1.0    0.05    1.03    1.43    21.54705    58.82752    -6.61001
   518  N   5.0   -0.14    3.41    2.03     9.79727    56.59797    -6.84501
   519  C   4.0    0.02    4.30    4.20    10.58786    57.24608    -9.35192
   520  C   4.0    0.14    3.34    3.06    11.00178    60.06711    -9.60973
   521  O   6.0   -0.32    1.28    1.80    10.70074    61.54658    -7.85108
   522  H   1.0    0.12    1.12    1.45     8.96458    57.97211    -5.81282
   523  H   1.0    0.06    1.03    1.43    12.37150    56.27807    -9.75637
   524  H   1.0    0.06    1.02    1.43     9.19772    56.62645   -10.75461
   525  N   5.0   -0.14    3.51    2.08    11.74126    60.73851   -11.91885
   526  C   4.0    0.04    4.51    4.55    12.54275    63.26939   -12.53668
   527  C   4.0    0.14    3.45    3.09    11.87612    63.78119   -15.28441
   528  O   6.0   -0.32    1.28    1.80    11.86317    62.08440   -16.85678
   529  C   4.0   -0.02    4.34    4.28    15.42304    63.54720   -12.07940
   530  C   4.0   -0.05    4.18    3.96    16.20920    66.32387   -11.95487
   531  C   4.0   -0.07    4.14    3.89    16.93434    62.09316   -14.05640
   532  C   4.0   -0.09    4.02    3.66    18.94249    66.63861   -11.09409
   533  H   1.0    0.11    1.10    1.44    11.91926    59.39009   -13.27517
   534  H   1.0    0.07    1.07    1.44    11.52969    64.58256   -11.30457
   535  H   1.0    0.04    1.06    1.44    15.77277    62.70253   -10.22286
   536  H   1.0    0.04    1.03    1.43    15.97522    67.18236   -13.81404
   537  H   1.0    0.05    1.03    1.43    14.96031    67.31402   -10.64286
   538  H   1.0    0.03    1.00    1.43    18.90811    62.02644   -13.51524
   539  H   1.0    0.05    1.00    1.43    16.23759    60.16778   -14.21071
   540  H   1.0    0.05    1.00    1.43    16.78419    62.99807   -15.89575
   541  H   1.0    0.03    1.00    1.43    19.35188    68.61497   -10.72080
   542  H   1.0    0.03    1.00    1.43    19.27814    65.57948    -9.36569
   543  H   1.0    0.03    1.00    1.43    20.24972    65.98813   -12.53473
   544  N   5.0   -0.15    3.49    2.07    11.38875    66.20371   -15.79182
   545  C   4.0    0.03    4.48    4.51    10.75160    67.14862   -18.27810
   546  C   4.0    0.14    3.44    3.09    12.00332    69.72429   -18.67011
   547  O   6.0   -0.32    1.27    1.80    11.95423    71.38082   -17.04373
   548  C   4.0   -0.02    4.33    4.26     7.85049    67.33799   -18.61310
   549  C   4.0   -0.04    4.20    4.00     7.21257    68.43327   -21.21125
   550  C   4.0   -0.07    4.15    3.89     6.66135    68.88117   -16.49716
   551  C   4.0   -0.08    4.02    3.66     4.39317    68.30816   -21.78463
   552  H   1.0    0.10    1.09    1.44    11.23880    67.44255   -14.33673
   553  H   1.0    0.06    1.06    1.44    11.50478    65.81720   -19.66761
   554  H   1.0    0.04    1.05    1.44     7.12040    65.40263   -18.51756
   555  H   1.0    0.06    1.03    1.43     7.85464    70.39221   -21.32732
   556  H   1.0    0.05    1.03    1.43     8.23540    67.37539   -22.66020
   557  H   1.0    0.03    1.00    1.43     4.61857    68.85951   -16.66906
   558  H   1.0    0.05    1.00    1.43     7.16207    68.09244   -14.66745
   559  H   1.0    0.05    1.00    1.43     7.31674    70.82562   -16.60295
   560  H   1.0    0.05    1.00    1.43     4.04963    68.89349   -23.72363
   561  H   1.0    0.04    1.00    1.43     3.71763    66.38361   -21.55095
   562  H   1.0    0.04    1.00    1.43     3.32507    69.55464   -20.55344
   563  N   5.0   -0.14    3.49    2.07    13.19995    69.99017   -20.87783
   564  C   4.0    0.03    4.42    4.41    14.32143    72.35673   -21.68950
   565  C   4.0    0.15    3.44    3.09    12.14822    74.07217   -22.56639
   566  O   6.0   -0.30    1.24    1.80    10.79844    73.42414   -24.33368
   567  C   4.0   -0.04    4.37    4.32    16.11096    71.79636   -23.88647
   568  C   4.0   -0.02    4.17    3.94    18.26079    73.69532   -24.26187
   569  C   4.0   -0.07    4.11    3.82    19.59282    73.12974   -26.75960
   570  C   4.0   -0.06    4.13    3.86    17.33269    76.41933   -24.22892
   571  H   1.0    0.10    1.10    1.44    13.05587    68.60490   -22.18320
   572  H   1.0    0.05    1.05    1.44    15.31900    73.19478   -20.08346
   573  H   1.0    0.05    1.04    1.43    16.95436    69.94268   -23.54550
   574  H   1.0    0.06    1.03    1.43    14.96402    71.70289   -25.60416
   575  H   1.0    0.05    1.06    1.44    19.62208    73.46188   -22.71973
   576  H   1.0    0.05    1.00    1.43    21.21905    74.36226   -27.00549
   577  H   1.0    0.05    1.00    1.43    20.26993    71.19423   -26.79786
   578  H   1.0    0.04    1.00    1.43    18.30334    73.41286   -28.33512
   579  H   1.0    0.06    1.00    1.43    18.83415    77.68743   -24.83710
   580  H   1.0    0.05    1.00    1.43    15.72095    76.66438   -25.48417
   581  H   1.0    0.06    1.00    1.43    16.79054    76.97833   -22.33098
   582  N   5.0   -0.15    3.46    2.05    11.78534    76.18152   -21.23114
   583  C   4.0    0.04    4.41    4.39     9.90110    78.03626   -21.92036
   584  C   4.0    0.14    3.42    3.09    10.86845    79.98118   -23.83250
   585  O   6.0   -0.30    1.23    1.80     9.55278    80.67545   -25.59572
   586  C   4.0   -0.05    4.37    4.33     8.97626    79.51584   -19.61281
   587  C   4.0   -0.02    4.17    3.93     7.47499    77.97159   -17.67095
   588  C   4.0   -0.08    4.11    3.82     7.17029    79.57503   -15.28641
   589  C   4.0   -0.08    4.10    3.79     4.88316    77.18848   -18.66598
   590  H   1.0    0.11    1.11    1.45    13.01203    76.66810   -19.83846
   591  H   1.0    0.06    1.06    1.44     8.34341    77.03993   -22.84993
   592  H   1.0    0.05    1.03    1.43    10.63600    80.31374   -18.67903
   593  H   1.0    0.04    1.03    1.43     7.80148    81.07164   -20.29002
   594  H   1.0    0.05    1.05    1.44     8.56322    76.26768   -17.21811
   595  H   1.0    0.03    1.00    1.43     5.91942    78.65503   -13.94423
   596  H   1.0    0.04    1.00    1.43     8.98882    79.88495   -14.37886
   597  H   1.0    0.03    1.00    1.43     6.36076    81.39918   -15.76913
   598  H   1.0    0.03    1.00    1.43     3.87848    76.10458   -17.23944
   599  H   1.0    0.04    1.00    1.43     3.76828    78.84791   -19.14086
   600  H   1.0    0.04    1.00    1.43     5.05742    76.02090   -20.34778
   601  N   5.0   -0.14    3.46    2.06    13.15493    80.98381   -23.36825
   602  C   4.0    0.04    4.24    4.08    14.12699    83.01287   -24.93787
   603  C   4.0    0.07    3.20    3.04    17.01109    83.17758   -24.82179
   604  O   6.0   -0.31    1.18    1.80    18.25055    82.19975   -23.12252
   605  C   4.0   -0.07    4.11    3.81    12.98299    85.53693   -24.08953
   606  H   1.0    0.10    1.07    1.44    14.25175    80.37224   -21.92663
   607  H   1.0    0.05    1.06    1.44    13.53242    82.62680   -26.88414
   608  H   1.0    0.04    1.00    1.43    13.80752    87.11123   -25.11884
   609  H   1.0    0.05    1.00    1.43    10.96146    85.49423   -24.43223
   610  H   1.0    0.04    1.00    1.43    13.32600    85.81192   -22.08172
   611  N   5.0   -0.19    3.24    1.96    -7.15270    60.44524   -17.80496
   612  C   4.0    0.03    4.24    4.07    -6.16414    62.16167   -15.91434
   613  C   4.0    0.08    3.23    3.04    -7.74174    64.58568   -16.04796
   614  O   6.0   -0.31    1.21    1.80    -7.93741    65.73030   -18.06198
   615  C   4.0   -0.05    4.35    4.30    -3.38628    62.74079   -16.45080
   616  C   4.0   -0.03    4.18    3.96    -2.13235    64.29320   -14.35129
   617  C   4.0   -0.08    4.11    3.82    -2.03161    62.80881   -11.87569
   618  C   4.0   -0.08    4.10    3.81     0.52745    65.05026   -15.16974
   619  H   1.0    0.12    1.06    1.44    -6.75133    60.84371   -19.63993
   620  H   1.0    0.03    1.05    1.44    -6.40587    61.25857   -14.07532
   621  H   1.0    0.04    1.03    1.43    -2.38059    60.95383   -16.68912
   622  H   1.0    0.05    1.03    1.43    -3.29321    63.76942   -18.24038
   623  H   1.0    0.03    1.05    1.44    -3.25072    66.00955   -14.05126
   624  H   1.0    0.04    1.00    1.43    -0.76538    63.73078   -10.55129
   625  H   1.0    0.03    1.00    1.43    -3.88367    62.67002   -11.00019
   626  H   1.0    0.04    1.00    1.43    -1.32041    60.90637   -12.19867
   627  H   1.0    0.03    1.00    1.43     1.40037    66.22395   -13.73052
   628  H   1.0    0.04    1.00    1.43     1.68238    63.37130   -15.42909
   629  H   1.0    0.03    1.00    1.43     0.47099    66.09329   -16.93958
   630  N   5.0   -0.20    3.23    1.96   -10.31487    71.54813   -11.91710
   631  C   4.0    0.03    4.22    4.03    -9.87331    73.51354   -10.05490
   632  C   4.0    0.08    3.21    3.04   -12.46004    74.50210    -9.22053
   633  O   6.0   -0.29    1.13    1.80   -13.96962    75.33445   -10.77789
   634  C   4.0   -0.05    4.36    4.30    -8.27241    75.62168   -11.23018
   635  C   4.0   -0.03    4.17    3.93    -6.87347    77.30334    -9.33818
   636  C   4.0   -0.08    4.11    3.83    -4.89679    75.82365    -7.85151
   637  C   4.0   -0.08    4.11    3.83    -5.59480    79.43832   -10.79713
   638  H   1.0    0.09    1.02    1.43   -11.14284    72.06739   -13.56910
   639  H   1.0    0.03    1.05    1.44    -8.90765    72.63456    -8.45894
   640  H   1.0    0.03    1.03    1.43    -6.89658    74.73311   -12.48241
   641  H   1.0    0.05    1.03    1.43    -9.51126    76.79372   -12.38308
   642  H   1.0    0.04    1.05    1.44    -8.25864    78.09650    -8.01484
   643  H   1.0    0.04    1.00    1.43    -3.67154    77.09936    -6.81025
   644  H   1.0    0.04    1.00    1.43    -5.76386    74.55577    -6.49553
   645  H   1.0    0.04    1.00    1.43    -3.73096    74.71253    -9.12375
   646  H   1.0    0.03    1.00    1.43    -4.58301    80.68259    -9.51669
   647  H   1.0    0.03    1.00    1.43    -4.24713    78.65552   -12.13565
   648  H   1.0    0.04    1.00    1.43    -6.97838    80.54255   -11.83964
   649  N   5.0   -0.20    3.24    1.96    -1.10862    91.33419   -11.91710
   650  C   4.0    0.03    4.32    4.23     0.37269    89.96909   -10.05490
   651  C   4.0    0.15    3.41    3.08     2.52218    91.71498    -9.22053
   652  O   6.0   -0.32    1.25    1.80     3.99780    92.60615   -10.77789
   653  C   4.0   -0.05    4.36    4.31     1.39795    87.52860   -11.23018
   654  C   4.0   -0.03    4.17    3.94     2.15484    85.47626    -9.33818
   655  C   4.0   -0.08    4.11    3.82    -0.11495    84.50424    -7.85151
   656  C   4.0   -0.09    4.11    3.83     3.36445    83.30140   -10.79713
   657  H   1.0    0.12    1.05    1.44    -0.24495    91.79162   -13.56910
   658  H   1.0    0.03    1.06    1.44    -0.87136    89.57230    -8.45894
   659  H   1.0    0.03    1.03    1.43    -0.05950    86.78138   -12.48241
   660  H   1.0    0.04    1.04    1.43     3.03239    88.01546   -12.38308
   661  H   1.0    0.05    1.05    1.44     3.53432    86.27926    -8.01484
   662  H   1.0    0.04    1.00    1.43     0.37722    82.80529    -6.81025
   663  H   1.0    0.04    1.00    1.43    -0.77943    85.88908    -6.49553
   664  H   1.0    0.03    1.00    1.43    -1.66012    84.05017    -9.12375
   665  H   1.0    0.04    1.00    1.43     3.93612    81.80303    -9.51669
   666  H   1.0    0.03    1.00    1.43     2.01269    82.52568   -12.13565
   667  H   1.0    0.03    1.00    1.43     5.01253    83.94750   -11.83964
   668  N   5.0   -0.14    3.48    2.07     2.58524    92.26059    -6.76674
   669  C   4.0    0.03    4.51    4.55     4.60797    93.69290    -5.59993
   670  C   4.0    0.14    3.46    3.10     6.37524    91.79420    -4.33654
   671  O   6.0   -0.30    1.24    1.80     5.52604    89.92967    -3.23823
   672  C   4.0   -0.02    4.34    4.27     3.57434    95.55503    -3.61754
   673  C   4.0   -0.05    4.19    3.99     1.78844    97.45737    -4.87210
   674  C   4.0   -0.07    4.14    3.88     5.77808    96.89336    -2.32452
   675  C   4.0   -0.08    4.01    3.64     0.18315    98.89842    -2.96731
   676  H   1.0    0.08    1.06    1.44     1.40506    91.36045    -5.54801
   677  H   1.0    0.05    1.06    1.44     5.62896    94.72129    -7.07023
   678  H   1.0    0.05    1.05    1.44     2.49506    94.45703    -2.23288
   679  H   1.0    0.04    1.03    1.43     2.90855    98.78046    -5.98776
   680  H   1.0    0.05    1.03    1.43     0.53376    96.44399    -6.16022
   681  H   1.0    0.04    1.00    1.43     5.09774    98.31192    -1.00842
   682  H   1.0    0.05    1.00    1.43     6.95833    95.57356    -1.28372
   683  H   1.0    0.05    1.00    1.43     6.94770    97.82143    -3.73390
   684  H   1.0    0.04    1.00    1.43    -1.09584   100.16673    -3.95350
   685  H   1.0    0.04    1.00    1.43    -0.93596    97.60235    -1.83172
   686  H   1.0    0.04    1.00    1.43     1.35871   100.01948    -1.71261
   687  N   5.0   -0.14    3.50    2.08     8.82850    92.29523    -4.53629
   688  C   4.0    0.04    4.33    4.26    10.74557    90.71251    -3.41187
   689  C   4.0    0.08    3.27    3.05    12.93650    92.37419    -2.59596
   690  O   6.0   -0.28    1.15    1.80    13.17694    94.54146    -3.36859
   691  C   4.0   -0.04    4.32    4.23    11.70606    88.71997    -5.32573
   692  C   4.0   -0.01    3.59    3.16    13.12122    89.96804    -7.44670
   693  C   4.0   -0.04    3.47    3.10    15.73722    90.21163    -7.35772
   694  C   4.0   -0.04    3.47    3.10    11.83813    90.97219    -9.50198
   695  C   4.0   -0.02    3.43    3.09    17.04072    91.46677    -9.23415
   696  C   4.0   -0.05    3.43    3.09    13.11849    92.22764   -11.40293
   697  C   4.0    0.07    3.45    3.10    15.72462    92.51417   -11.25676
   698  O   6.0   -0.23    2.11    1.84    17.05692    93.82386   -13.02210
   699  H   1.0    0.09    1.07    1.44     9.43416    93.85936    -5.47425
   700  H   1.0    0.05    1.05    1.44     9.92429    89.76306    -1.76627
   701  H   1.0    0.04    1.03    1.43    12.91066    87.37206    -4.33632
   702  H   1.0    0.04    1.03    1.43    10.05328    87.72314    -6.04625
   703  H   1.0    0.05    1.03    1.43    16.76412    89.39234    -5.79482
   704  H   1.0    0.05    1.03    1.43     9.80866    90.78786    -9.62651
   705  H   1.0    0.08    1.03    1.43    19.07181    91.63732    -9.22274
   706  H   1.0    0.05    1.03    1.43    12.08446    93.01250   -12.98251
   707  H   1.0    0.12    1.04    1.43    15.93116    94.41107   -14.33507
   708  N   5.0   -0.18    3.22    1.96    16.03830    86.25341    10.58177
   709  C   4.0    0.04    4.22    4.04    14.86289    86.84336     8.18425
   710  C   4.0    0.08    3.21    3.04    12.72244    88.76789     8.56042
   711  O   6.0   -0.27    1.13    1.80    11.45602    88.82364    10.50252
   712  C   4.0   -0.03    4.31    4.21    13.69110    84.51023     6.92712
   713  C   4.0    0.15    3.22    3.04    15.70131    82.60388     6.13763
   714  O   6.0   -0.29    1.21    1.80    17.19640    81.71578     7.65674
   715  N   5.0   -0.18    3.19    1.95    15.72655    82.00456     3.68267
   716  H   1.0    0.10    1.03    1.43    15.42033    84.70137    11.49582
   717  H   1.0    0.04    1.05    1.44    16.29672    87.66278     6.93981
   718  H   1.0    0.06    1.03    1.43    12.41075    83.59998     8.26722
   719  H   1.0    0.04    1.03    1.43    12.61085    85.12219     5.28576
   720  H   1.0    0.10    1.06    1.44    16.90702    80.62450     3.08370
   721  H   1.0    0.10    1.03    1.43    14.45620    82.63047     2.41153
   722  N   5.0   -0.19    3.24    1.97    -5.28391    70.97219    -2.06112
   723  C   4.0    0.03    4.29    4.18    -4.79421    69.42401    -4.26458
   724  C   4.0    0.07    3.22    3.04    -5.39804    66.66480    -3.62684
   725  O   6.0   -0.28    1.13    1.80    -4.42525    65.62733    -1.80192
   726  C   4.0    0.06    4.24    4.08    -2.00025    69.64675    -5.04447
   727  O   6.0   -0.27    2.14    1.84    -1.31959    72.22001    -4.90040
   728  C   4.0   -0.08    4.08    3.76    -1.65917    68.57052    -7.69579
   729  H   1.0    0.10    1.03    1.43    -3.93118    71.00165    -0.72028
   730  H   1.0    0.03    1.05    1.44    -6.01915    70.08486    -5.78828
   731  H   1.0    0.06    1.04    1.43    -0.87224    68.54698    -3.68220
   732  H   1.0    0.12    1.03    1.43     0.46624    72.36853    -5.23552
   733  H   1.0    0.04    1.00    1.43     0.30295    68.72275    -8.28434
   734  H   1.0    0.04    1.00    1.43    -2.22346    66.59928    -7.72869
   735  H   1.0    0.03    1.00    1.43    -2.82698    69.61124    -9.02682
   736  N   5.0   -0.19    3.24    1.96    -7.10396    59.21022    -7.18099
   737  C   4.0    0.02    4.22    4.05    -7.51456    57.36831    -9.17813
   738  C   4.0    0.08    3.22    3.04   -10.01552    56.04325    -8.52933
   739  O   6.0   -0.28    1.13    1.80   -10.35636    55.08191    -6.45477
   740  C   4.0   -0.04    4.28    4.15    -5.32303    55.50214    -9.27241
   741  C   4.0   -0.03    4.18    3.97    -5.55582    53.67064   -11.48268
   742  C   4.0    0.24    3.13    3.03    -3.15291    52.03887   -11.70262
   743  O   6.0   -0.31    1.19    1.80    -1.05893    53.02710   -11.49372
   744  O   6.0   -0.32    1.43    1.80    -3.51161    49.70085   -12.08886
   745  H   1.0    0.10    1.03    1.43    -6.68792    58.44635    -5.48126
   746  H   1.0    0.03    1.05    1.44    -7.70441    58.37725   -10.96911
   747  H   1.0    0.05    1.03    1.43    -3.54677    56.53887    -9.46216
   748  H   1.0    0.06    1.03    1.43    -5.27263    54.44199    -7.49922
   749  H   1.0    0.06    1.02    1.43    -7.18610    52.42722   -11.25456
   750  H   1.0    0.04    1.02    1.43    -5.77702    54.72000   -13.25031
   751  N   5.0   -0.20    3.24    1.97     5.20008    94.93641   -15.79182
   752  C   4.0    0.03    4.29    4.19     4.70035    93.91217   -18.27810
   753  C   4.0    0.07    3.24    3.04     1.84389    93.70836   -18.67011
   754  O   6.0   -0.31    1.16    1.80     0.43384    92.83758   -17.04373
   755  C   4.0   -0.02    4.33    4.26     5.98690    91.30505   -18.61310
   756  C   4.0   -0.05    4.20    4.00     5.35732    90.20495   -21.21125
   757  C   4.0   -0.07    4.15    3.89     5.24504    89.50364   -16.49716
   758  C   4.0   -0.08    4.02    3.66     6.87537    87.82584   -21.78463
   759  H   1.0    0.12    1.04    1.44     4.20219    94.18713   -14.33673
   760  H   1.0    0.03    1.05    1.44     5.47680    95.23016   -19.66761
   761  H   1.0    0.03    1.05    1.44     8.02802    91.64045   -18.51756
   762  H   1.0    0.04    1.03    1.43     3.33979    89.78154   -21.32732
   763  H   1.0    0.04    1.03    1.43     5.76205    91.61969   -22.66020
   764  H   1.0    0.03    1.00    1.43     6.28518    87.74537   -16.66906
   765  H   1.0    0.05    1.00    1.43     5.67774    90.33163   -14.66745
   766  H   1.0    0.05    1.00    1.43     3.23340    89.09900   -16.60295
   767  H   1.0    0.04    1.00    1.43     6.54023    87.23566   -23.72363
   768  H   1.0    0.04    1.00    1.43     8.87984    88.20308   -21.55095
   769  H   1.0    0.04    1.00    1.43     6.32993    86.27760   -20.55344
   770  N   5.0   -0.21    3.19    1.95    -3.63925    90.29097   -21.23114
   771  C   4.0    0.03    4.22    4.03    -4.30338    87.73179   -21.92036
   772  C   4.0    0.08    3.21    3.04    -6.47141    87.59709   -23.83250
   773  O   6.0   -0.29    1.12    1.80    -6.41483    86.11055   -25.59572
   774  C   4.0   -0.05    4.36    4.31    -5.12231    86.19108   -19.61281
   775  C   4.0   -0.03    4.17    3.93    -3.03432    85.66306   -17.67095
   776  C   4.0   -0.08    4.11    3.82    -4.27058    84.59746   -15.28641
   777  C   4.0   -0.08    4.10    3.79    -1.06021    83.81002   -18.66598
   778  H   1.0    0.09    1.02    1.43    -4.67398    91.11002   -19.83846
   779  H   1.0    0.05    1.05    1.44    -2.66169    86.88096   -22.84993
   780  H   1.0    0.04    1.03    1.43    -6.64319    87.22950   -18.67903
   781  H   1.0    0.05    1.03    1.43    -5.88229    84.39578   -20.29002
   782  H   1.0    0.04    1.05    1.44    -2.10281    87.45745   -17.21811
   783  H   1.0    0.03    1.00    1.43    -2.84841    83.97418   -13.94423
   784  H   1.0    0.04    1.00    1.43    -5.44826    86.01740   -14.37886
   785  H   1.0    0.04    1.00    1.43    -5.44558    82.98431   -15.76913
   786  H   1.0    0.03    1.00    1.43     0.38082    83.48189   -17.23944
   787  H   1.0    0.04    1.00    1.43    -1.93988    82.01479   -19.14086
   788  H   1.0    0.04    1.00    1.43    -0.13619    84.54472   -20.34778
   789  N   5.0   -0.20    3.23    1.96    -8.14609    69.87816   -21.23114
   790  C   4.0    0.03    4.31    4.21    -5.59772    70.58259   -21.92036
   791  C   4.0    0.15    3.42    3.08    -4.39704    68.77238   -23.83250
   792  O   6.0   -0.30    1.23    1.80    -3.13795    69.56465   -25.59572
   793  C   4.0   -0.05    4.37    4.33    -3.85395    70.64373   -19.61281
   794  C   4.0   -0.03    4.17    3.93    -4.44067    72.71599   -17.67095
   795  C   4.0   -0.09    4.11    3.82    -2.89971    72.17816   -15.28641
   796  C   4.0   -0.08    4.10    3.79    -3.82295    75.35214   -18.66598
   797  H   1.0    0.12    1.08    1.44    -8.33804    68.57253   -19.83846
   798  H   1.0    0.05    1.05    1.44    -5.68172    72.42975   -22.84993
   799  H   1.0    0.05    1.03    1.43    -3.99282    68.80741   -18.67903
   800  H   1.0    0.04    1.03    1.43    -1.91919    70.88322   -20.29002
   801  H   1.0    0.04    1.05    1.44    -6.46042    72.62551   -17.21811
   802  H   1.0    0.03    1.00    1.43    -3.07101    73.72144   -13.94423
   803  H   1.0    0.03    1.00    1.43    -3.54057    70.44830   -14.37886
   804  H   1.0    0.03    1.00    1.43    -0.91517    71.96715   -15.76913
   805  H   1.0    0.03    1.00    1.43    -4.25930    76.76418   -17.23944
   806  H   1.0    0.04    1.00    1.43    -1.82840    75.48794   -19.14086
   807  H   1.0    0.04    1.00    1.43    -4.92123    75.78502   -20.34778
   808  N   5.0   -0.13    3.46    2.05    -4.67198    66.29091   -23.36825
   809  C   4.0    0.04    4.24    4.08    -3.40080    64.43455   -24.93787
   810  C   4.0    0.07    3.20    3.04    -4.70021    61.85449   -24.82179
   811  O   6.0   -0.30    1.17    1.80    -6.16676    61.27001   -23.12252
   812  C   4.0   -0.07    4.11    3.83    -0.64289    64.16325   -24.08953
   813  H   1.0    0.11    1.07    1.44    -5.75003    65.64682   -21.92663
   814  H   1.0    0.06    1.06    1.44    -3.43785    65.14250   -26.88414
   815  H   1.0    0.04    1.01    1.43     0.30822    62.66204   -25.11884
   816  H   1.0    0.05    1.00    1.43     0.33089    65.93531   -24.43223
   817  H   1.0    0.04    1.00    1.43    -0.57625    63.72871   -22.08172
   818  H   1.0    0.09    1.08    1.44     6.83781    94.69966   -15.39894
   819  H   1.0    0.05    1.05    1.44     1.06844    94.29389   -20.29088
   820  H   1.0    0.10    1.07    1.44    -2.02740    90.33310   -20.69009
   821  H   1.0    0.05    1.05    1.44    -7.96595    88.73880   -23.64838
   822  H   1.0    0.09    1.07    1.44    -8.98850    71.25299   -20.69009
   823  H   1.0    0.05    1.05    1.44    -4.36691    60.56743   -26.16471
   824  H   1.0    0.09    1.08    1.44    13.20775    66.43741   -30.57242
   825  H   1.0    0.06    1.04    1.43    13.04333    48.24708   -10.20653
   826  H   1.0    0.10    1.07    1.44    26.21764    64.26406   -29.47226
   827  H   1.0    0.05    1.04    1.44    29.44040    57.35489   -20.16563
   828  H   1.0    0.09    1.07    1.44    30.73009    63.48604   -13.07751
   829  H   1.0    0.06    1.04    1.44    32.86608    66.86810   -19.14903
   830  H   1.0    0.09    1.08    1.44    32.04166    69.60534   -24.38500
   831  H   1.0    0.06    1.05    1.44     1.98965    55.34881     3.05422
   832  H   1.0    0.09    1.08    1.44    18.53796    59.91384    12.73655
   833  H   1.0    0.05    1.04    1.43    24.24914    62.89550     9.03413
   834  H   1.0    0.08    1.07    1.44    26.68557    67.53886     5.77124
   835  H   1.0    0.05    1.04    1.44    33.53921    67.87280     3.02840
   836  H   1.0    0.09    1.08    1.44    25.24822    70.64787    12.43157
   837  H   1.0    0.05    1.04    1.44    15.67567    66.27652    18.23196
   838  H   1.0    0.09    1.09    1.44     3.60462    61.24172     7.86946
   839  H   1.0    0.06    1.05    1.44    36.35819    75.43981   -15.25940
   840  H   1.0    0.10    1.07    1.44    38.93729    70.16574    -9.09142
   841  H   1.0    0.05    1.05    1.44    34.66901    65.76981    -5.52050
   842  H   1.0    0.09    1.09    1.44    29.04205    63.33042    -4.09186
   843  H   1.0    0.05    1.04    1.43    26.15093    58.62996     1.09546
   844  H   1.0    0.09    1.09    1.44     4.61740    45.94684     1.33165
   845  H   1.0    0.05    1.05    1.44    17.95908    84.10975   -26.16471
   846  H   1.0    0.09    1.07    1.44    -6.53642    58.88378   -17.53184
   847  H   1.0    0.05    1.04    1.43    -8.60992    65.23453   -14.49996
   848  H   1.0    0.08    1.07    1.44    -8.83244    70.84102   -12.35863
   849  H   1.0    0.05    1.04    1.43   -12.93702    74.47516    -7.39219
   850  H   1.0    0.09    1.07    1.44    -2.46222    90.40393   -12.35863
   851  H   1.0    0.05    1.05    1.44    14.23348    91.70550    -1.39522
   852  H   1.0    0.10    1.07    1.44    17.70584    86.01035    10.35197
   853  H   1.0    0.05    1.04    1.44    12.32890    90.02095     7.20173
   854  H   1.0    0.09    1.07    1.44    -5.49517    72.59044    -2.53986
   855  H   1.0    0.05    1.04    1.43    -6.60100    65.68676    -4.70730
   856  H   1.0    0.09    1.07    1.44    -5.80470    60.22381    -7.60184
   857  H   1.0    0.05    1.04    1.43   -11.39934    55.95592    -9.81326

  Z AO/shell   Hii/eV     exponent
  1     Wed Apr 25 08:07:45 CEST 2018   EN: 2.200 GM2: 0.406  GM3: 0.0800  RAES: 1.40
     1s    -10.707211    1.230000
  6     Wed Apr 25 08:07:45 CEST 2018   EN: 2.550 GM2: 0.538  GM3: 0.1500  RAES: 3.00
     2s    -13.970922    2.096432
     2p    -10.063292    1.800000
  7     Wed Apr 25 08:07:45 CEST 2018   EN: 3.040 GM2: 0.461  GM3:-0.0640  RAES: 1.90
     2s    -16.686243    2.339881
     2p    -12.523956    2.014332
  8     Wed Apr 25 08:07:45 CEST 2018   EN: 3.440 GM2: 0.452  GM3:-0.0517  RAES: 1.80
     2s    -20.229985    2.439742
     2p    -15.503117    2.137023
 16     Tue Apr 24 11:44:34 CEST 2018   EN: 2.580 GM2: 0.340  GM3:-0.0502  RAES: 3.10
     3s    -20.029654    1.981333
     3p    -11.377694    2.025643
     3d     -0.420282    1.702555
 no old-style atom pair restraining (fixing) potential

molecular fragmentation (1/2 indicates fragments):
111111111111111111111111111111111111111111111111111111111111111111111111
111111111111122222222222222222222222222222222222222222222222222222222222
222222222222222222222222222222222222222222222222222222222222222222222222
222222222222222222222222222222222222222222222222222222222222222222222222
222222222222222222222222222222222222222222222222222222222222222222222222
222222222222222222222222222222222222222222222222222222222222222222222222
222222222222222222222222222222222222222222222222222222222222222222222222
222222222222222222222222222222222222222222222222222222222222222222222222
222222222222222222222222222222222222222222222222222222222222222222222222
222222222222222222222222222222222222222222222222222222222222222222222222
222222222222222222222222222222222222222222222222222222222222222222222222
22222222222222222222222222222221111222222222222222222222222222222
# atoms in fragment 1/2:    89   768
 fragment masses (1/2) :      638.88     5038.24
CMA distance (Bohr)    :  18.579
constraining FC (au)   :  0.0500
           ------------------------------------------------- 
          |        Self-Consistent Charge Iterations        |
           ------------------------------------------------- 

 Ncao       : 2066
 Nao        : 2063
 Nshell     : 1257
 Nel        : 2248
 T(el)      :   500.0
 intcut     :    35.0
 scfconv/Eh :  0.100E-06
   qconv/e  :  0.100E-04
 intneglect :  0.100E-08
 broydamp   :      0.400
 iter      E             dE          RMSdq      gap      omega  full diag
   1  -1276.7494451 -0.127675E+04  0.445E+00    2.84       0.0  T
   2  -1279.7124469 -0.296300E+01  0.209E+00    1.48       1.0  T
   3  -1279.8998465 -0.187400E+00  0.121E+00    1.57       1.0  T
   4  -1280.0953161 -0.195470E+00  0.240E-01    0.91       1.0  T
   5  -1280.1058270 -0.105110E-01  0.117E-01    1.07       1.0  T
   6  -1280.1081864 -0.235938E-02  0.536E-02    1.10       1.0  T
   7  -1280.1087774 -0.590972E-03  0.248E-02    1.09       1.0  T
   8  -1280.1089077 -0.130375E-03  0.135E-02    1.09       1.0  T
   9  -1280.1089408 -0.330952E-04  0.738E-03    1.09       1.0  T
  10  -1280.1089487 -0.784128E-05  0.452E-03    1.09       1.0  T
  11  -1280.1089517 -0.304124E-05  0.264E-03    1.09       1.3  T
  12  -1280.1089529 -0.114096E-05  0.139E-03    1.10       2.5  T
  13  -1280.1089532 -0.293887E-06  0.672E-04    1.10       5.1  T
  14  -1280.1089532 -0.335258E-07  0.357E-04    1.10       9.6  T
  15  -1280.1089532 -0.319485E-07  0.149E-04    1.10      22.9  T
  16  -1280.1089532 -0.371620E-08  0.813E-05    1.10      42.0  T
  17  -1280.1089532 -0.113073E-08  0.376E-05    1.10      90.8  T
speedup  1.91
cpu  time for SCC    2 m  1.2 s
wall time for SCC    1 m  3.4 s

   *** convergence criteria satisfied after 17 iterations ***

          eigenvalues
 #    :        1112       1113       1114       1115       1116       1117       1118       1119
 occ. :        2.000      2.000      2.000      2.000      2.000      2.000      2.000      2.000
 eps  :        -9.864     -9.859     -9.785     -9.745     -9.734     -9.715     -9.685     -9.673
 #    :        1120       1121       1122       1123       1124       1125       1126       1127
 occ. :        2.000      2.000      2.000      2.000      2.000      0.000      0.000      0.000
 eps  :        -9.646     -9.639     -9.563     -9.554     -9.510     -8.414     -8.104     -8.066
 #    :        1128       1129       1130       1131       1132       1133       1134       1135
 occ. :        0.000      0.000      0.000      0.000      0.000      0.000      0.000      0.000
 eps  :        -8.060     -8.008     -7.974     -7.958     -7.958     -7.940     -7.841     -7.786


   #   Z            q   n(s)   n(p)   n(d)      C6AA      α(0)
   1   7 N     -0.381  1.320  4.061  0.000    29.837     8.112
   2   6 C      0.031  1.058  2.911  0.000    20.043     6.371
   3   6 C      0.279  1.040  2.680  0.000    22.271     7.729
   4   8 O     -0.491  1.736  4.755  0.000    23.585     6.511
   5   6 C     -0.027  1.083  2.944  0.000    21.054     6.534
   6  16 S     -0.127  1.924  4.124  0.079   146.382    20.363
   7   1 H      0.163  0.837  0.000  0.000     1.319     1.799
   8   1 H      0.052  0.948  0.000  0.000     2.296     2.369
   9   1 H      0.060  0.940  0.000  0.000     2.197     2.318
  10   1 H      0.053  0.947  0.000  0.000     2.282     2.362
  11   7 N     -0.162  1.242  3.920  0.000    24.505     7.352
  12   6 C      0.016  1.061  2.923  0.000    20.299     6.414
  13   6 C      0.270  1.039  2.692  0.000    22.447     7.758
  14   8 O     -0.487  1.747  4.740  0.000    23.502     6.500
  15   6 C     -0.063  1.050  3.013  0.000    21.680     6.624
  16   6 C     -0.011  1.063  2.948  0.000    20.781     6.492
  17  16 S     -0.221  1.920  4.250  0.051   150.491    20.647
  18   6 C     -0.063  1.053  3.010  0.000    21.782     6.657
  19   1 H      0.213  0.787  0.000  0.000     1.044     1.600
  20   1 H      0.081  0.919  0.000  0.000     1.965     2.192
  21   1 H      0.067  0.933  0.000  0.000     2.124     2.279
  22   1 H      0.063  0.937  0.000  0.000     2.167     2.302
  23   1 H      0.050  0.950  0.000  0.000     2.314     2.379
  24   1 H      0.049  0.951  0.000  0.000     2.335     2.390
  25   1 H      0.071  0.929  0.000  0.000     2.070     2.250
  26   1 H      0.063  0.937  0.000  0.000     2.159     2.298
  27   1 H      0.052  0.948  0.000  0.000     2.290     2.366
  28   7 N     -0.168  1.237  3.931  0.000    24.644     7.373
  29   6 C      0.017  1.058  2.925  0.000    20.300     6.416
  30   6 C      0.266  1.042  2.692  0.000    22.512     7.770
  31   8 O     -0.478  1.735  4.743  0.000    23.304     6.472
  32   6 C     -0.129  1.043  3.086  0.000    23.034     6.843
  33   1 H      0.223  0.777  0.000  0.000     0.995     1.562
  34   1 H      0.080  0.920  0.000  0.000     1.983     2.202
  35   1 H      0.072  0.928  0.000  0.000     2.064     2.246
  36   1 H      0.069  0.931  0.000  0.000     2.096     2.264
  37   1 H      0.059  0.941  0.000  0.000     2.207     2.323
  38   7 N     -0.158  1.239  3.920  0.000    24.424     7.340
  39   6 C      0.020  1.059  2.921  0.000    20.248     6.408
  40   6 C      0.202  1.087  2.711  0.000    23.704     7.974
  41   8 O     -0.356  1.757  4.599  0.000    20.822     6.118
  42   6 C     -0.071  1.058  3.013  0.000    21.858     6.656
  43   6 C     -0.066  1.050  3.016  0.000    21.764     6.642
  44   6 C     -0.083  1.053  3.029  0.000    22.074     6.689
  45   6 C     -0.021  1.050  2.971  0.000    21.035     6.546
  46   7 N     -0.205  1.269  3.936  0.000    25.445     7.492
  47   1 H      0.214  0.786  0.000  0.000     1.036     1.595
  48   1 H      0.099  0.901  0.000  0.000     1.796     2.096
  49   1 H      0.068  0.932  0.000  0.000     2.106     2.269
  50   1 H      0.068  0.932  0.000  0.000     2.106     2.270
  51   1 H      0.049  0.951  0.000  0.000     2.334     2.389
  52   1 H      0.049  0.951  0.000  0.000     2.335     2.390
  53   1 H      0.075  0.925  0.000  0.000     2.035     2.231
  54   1 H      0.065  0.935  0.000  0.000     2.144     2.290
  55   1 H      0.086  0.914  0.000  0.000     1.920     2.167
  56   1 H      0.083  0.917  0.000  0.000     1.951     2.185
  57   1 H      0.260  0.740  0.000  0.000     0.846     1.440
  58   1 H      0.301  0.699  0.000  0.000     0.708     1.317
  59   1 H      0.260  0.740  0.000  0.000     0.847     1.441
  60   7 N     -0.392  1.307  4.085  0.000    30.155     8.156
  61   6 C      0.043  1.052  2.905  0.000    19.855     6.343
  62   6 C      0.269  1.042  2.689  0.000    22.454     7.760
  63   8 O     -0.507  1.753  4.754  0.000    23.949     6.561
  64   6 C     -0.012  1.070  2.942  0.000    20.783     6.491
  65  16 S     -0.121  1.937  4.094  0.090   146.125    20.345
  66   1 H      0.170  0.830  0.000  0.000     1.273     1.767
  67   1 H      0.038  0.962  0.000  0.000     2.477     2.461
  68   1 H      0.055  0.945  0.000  0.000     2.255     2.348
  69   1 H      0.061  0.939  0.000  0.000     2.187     2.313
  70   7 N     -0.151  1.228  3.923  0.000    24.268     7.316
  71   6 C      0.020  1.062  2.918  0.000    20.242     6.407
  72   6 C      0.195  1.087  2.719  0.000    23.843     7.997
  73   8 O     -0.356  1.753  4.603  0.000    20.813     6.117
  74   6 C     -0.015  1.064  2.952  0.000    20.813     6.489
  75   6 C     -0.108  1.036  3.072  0.000    22.624     6.782
  76   6 C     -0.121  1.038  3.082  0.000    22.868     6.819
  77   1 H      0.227  0.773  0.000  0.000     0.979     1.550
  78   1 H      0.086  0.914  0.000  0.000     1.922     2.168
  79   1 H      0.060  0.940  0.000  0.000     2.195     2.317
  80   1 H      0.056  0.944  0.000  0.000     2.248     2.345
  81   1 H      0.040  0.960  0.000  0.000     2.448     2.447
  82   1 H      0.038  0.962  0.000  0.000     2.476     2.461
  83   1 H      0.060  0.940  0.000  0.000     2.199     2.319
  84   1 H      0.050  0.950  0.000  0.000     2.325     2.385
  85   1 H      0.048  0.952  0.000  0.000     2.348     2.396
  86   7 N     -0.408  1.320  4.088  0.000    30.607     8.216
  87   6 C      0.047  1.054  2.898  0.000    19.797     6.337
  88   6 C      0.203  1.090  2.707  0.000    23.685     7.970
  89   8 O     -0.377  1.760  4.617  0.000    21.219     6.176
  90   6 C     -0.009  1.063  2.946  0.000    20.693     6.470
  91   6 C     -0.055  1.047  3.007  0.000    21.553     6.610
  92   6 C     -0.095  1.035  3.060  0.000    22.368     6.743
  93   6 C     -0.109  1.035  3.074  0.000    22.655     6.788
  94   1 H      0.195  0.805  0.000  0.000     1.131     1.666
  95   1 H      0.036  0.964  0.000  0.000     2.497     2.471
  96   1 H      0.026  0.974  0.000  0.000     2.643     2.542
  97   1 H      0.038  0.962  0.000  0.000     2.472     2.459
  98   1 H      0.030  0.970  0.000  0.000     2.580     2.512
  99   1 H      0.023  0.977  0.000  0.000     2.693     2.566
 100   1 H      0.017  0.983  0.000  0.000     2.777     2.606
 101   1 H      0.042  0.958  0.000  0.000     2.419     2.432
[...]
 571   1 H      0.223  0.777  0.000  0.000     0.994     1.562
 572   1 H      0.052  0.948  0.000  0.000     2.290     2.366
 573   1 H      0.046  0.954  0.000  0.000     2.374     2.409
 574   1 H      0.051  0.949  0.000  0.000     2.310     2.377
 575   1 H      0.024  0.976  0.000  0.000     2.672     2.556
 576   1 H      0.039  0.961  0.000  0.000     2.457     2.451
 577   1 H      0.035  0.965  0.000  0.000     2.516     2.481
 578   1 H      0.042  0.958  0.000  0.000     2.417     2.431
 579   1 H      0.040  0.960  0.000  0.000     2.455     2.450
 580   1 H      0.030  0.970  0.000  0.000     2.582     2.513
 581   1 H      0.038  0.962  0.000  0.000     2.474     2.460
 582   7 N     -0.193  1.257  3.936  0.000    25.178     7.452
 583   6 C      0.023  1.058  2.918  0.000    20.190     6.398
 584   6 C      0.272  1.046  2.682  0.000    22.412     7.753
 585   8 O     -0.481  1.746  4.735  0.000    23.367     6.481
 586   6 C     -0.074  1.060  3.014  0.000    21.902     6.661
 587   6 C     -0.009  1.055  2.954  0.000    20.710     6.473
 588   6 C     -0.115  1.042  3.073  0.000    22.750     6.800
 589   6 C     -0.114  1.039  3.075  0.000    22.740     6.799
 590   1 H      0.228  0.772  0.000  0.000     0.974     1.546
 591   1 H      0.077  0.923  0.000  0.000     2.013     2.219
 592   1 H      0.050  0.950  0.000  0.000     2.320     2.382
 593   1 H      0.058  0.942  0.000  0.000     2.228     2.334
 594   1 H      0.028  0.972  0.000  0.000     2.613     2.528
 595   1 H      0.055  0.945  0.000  0.000     2.253     2.347
 596   1 H      0.030  0.970  0.000  0.000     2.592     2.518
 597   1 H      0.051  0.949  0.000  0.000     2.313     2.378
 598   1 H      0.052  0.948  0.000  0.000     2.293     2.368
 599   1 H      0.049  0.951  0.000  0.000     2.331     2.388
 600   1 H      0.029  0.971  0.000  0.000     2.605     2.524
 601   7 N     -0.173  1.233  3.939  0.000    24.739     7.387
 602   6 C      0.028  1.057  2.915  0.000    20.111     6.386
 603   6 C      0.195  1.091  2.714  0.000    23.842     7.997
 604   8 O     -0.371  1.750  4.621  0.000    21.102     6.159
 605   6 C     -0.127  1.043  3.084  0.000    22.996     6.837
 606   1 H      0.206  0.794  0.000  0.000     1.076     1.625
 607   1 H      0.100  0.900  0.000  0.000     1.783     2.088
 608   1 H      0.079  0.921  0.000  0.000     1.991     2.207
 609   1 H      0.088  0.912  0.000  0.000     1.899     2.155
 610   1 H      0.066  0.934  0.000  0.000     2.135     2.285
 611   7 N     -0.395  1.320  4.075  0.000    30.237     8.167
 612   6 C      0.043  1.054  2.904  0.000    19.877     6.351
 613   6 C      0.201  1.093  2.706  0.000    23.716     7.976
 614   8 O     -0.357  1.748  4.609  0.000    20.840     6.120
 615   6 C     -0.067  1.061  3.007  0.000    21.780     6.643
 616   6 C     -0.013  1.058  2.955  0.000    20.778     6.483
 617   6 C     -0.115  1.039  3.075  0.000    22.750     6.801
 618   6 C     -0.112  1.040  3.072  0.000    22.698     6.793
 619   1 H      0.183  0.817  0.000  0.000     1.196     1.713
 620   1 H      0.046  0.954  0.000  0.000     2.376     2.410
 621   1 H      0.044  0.956  0.000  0.000     2.391     2.418
 622   1 H      0.042  0.958  0.000  0.000     2.422     2.434
 623   1 H      0.026  0.974  0.000  0.000     2.638     2.540
 624   1 H      0.045  0.955  0.000  0.000     2.383     2.414
 625   1 H      0.032  0.968  0.000  0.000     2.555     2.500
 626   1 H      0.038  0.962  0.000  0.000     2.478     2.462
 627   1 H      0.044  0.956  0.000  0.000     2.398     2.422
 628   1 H      0.040  0.960  0.000  0.000     2.453     2.449
 629   1 H      0.041  0.959  0.000  0.000     2.441     2.443
 630   7 N     -0.379  1.315  4.064  0.000    29.797     8.107
 631   6 C      0.038  1.056  2.905  0.000    19.949     6.362
 632   6 C      0.204  1.089  2.707  0.000    23.667     7.967
 633   8 O     -0.375  1.761  4.613  0.000    21.183     6.171
 634   6 C     -0.071  1.061  3.010  0.000    21.857     6.654
 635   6 C     -0.013  1.057  2.956  0.000    20.776     6.483
 636   6 C     -0.116  1.041  3.075  0.000    22.765     6.803
 637   6 C     -0.112  1.041  3.071  0.000    22.700     6.792
 638   1 H      0.156  0.844  0.000  0.000     1.358     1.825
 639   1 H      0.055  0.945  0.000  0.000     2.261     2.351
 640   1 H      0.055  0.945  0.000  0.000     2.265     2.353
 641   1 H      0.039  0.961  0.000  0.000     2.463     2.454
 642   1 H      0.020  0.980  0.000  0.000     2.731     2.584
 643   1 H      0.049  0.951  0.000  0.000     2.333     2.389
 644   1 H      0.035  0.965  0.000  0.000     2.512     2.478
 645   1 H      0.048  0.952  0.000  0.000     2.346     2.395
 646   1 H      0.045  0.955  0.000  0.000     2.388     2.417
 647   1 H      0.044  0.956  0.000  0.000     2.390     2.418
 648   1 H      0.031  0.969  0.000  0.000     2.565     2.505
 649   7 N     -0.404  1.323  4.081  0.000    30.483     8.200
 650   6 C      0.035  1.059  2.907  0.000    20.007     6.371
 651   6 C      0.272  1.048  2.681  0.000    22.411     7.752
 652   8 O     -0.492  1.743  4.749  0.000    23.612     6.515
 653   6 C     -0.075  1.060  3.015  0.000    21.927     6.665
 654   6 C     -0.012  1.056  2.956  0.000    20.748     6.479
 655   6 C     -0.116  1.039  3.077  0.000    22.765     6.803
 656   6 C     -0.119  1.043  3.077  0.000    22.838     6.813
 657   1 H      0.173  0.827  0.000  0.000     1.252     1.753
 658   1 H      0.032  0.968  0.000  0.000     2.557     2.500
 659   1 H      0.046  0.954  0.000  0.000     2.374     2.409
 660   1 H      0.043  0.957  0.000  0.000     2.413     2.429
 661   1 H      0.011  0.989  0.000  0.000     2.873     2.651
 662   1 H      0.048  0.952  0.000  0.000     2.343     2.394
 663   1 H      0.029  0.971  0.000  0.000     2.599     2.521
 664   1 H      0.044  0.956  0.000  0.000     2.400     2.423
 665   1 H      0.054  0.946  0.000  0.000     2.277     2.360
 666   1 H      0.046  0.954  0.000  0.000     2.375     2.410
 667   1 H      0.034  0.966  0.000  0.000     2.532     2.488
 668   7 N     -0.168  1.246  3.921  0.000    24.627     7.370
 669   6 C      0.015  1.064  2.921  0.000    20.321     6.418
 670   6 C      0.269  1.043  2.688  0.000    22.459     7.761
 671   8 O     -0.488  1.745  4.743  0.000    23.521     6.502
 672   6 C     -0.022  1.066  2.956  0.000    20.928     6.506
 673   6 C     -0.064  1.050  3.014  0.000    21.723     6.635
 674   6 C     -0.119  1.039  3.080  0.000    22.834     6.813
 675   6 C     -0.112  1.038  3.074  0.000    22.702     6.795
 676   1 H      0.203  0.797  0.000  0.000     1.089     1.635
 677   1 H      0.069  0.931  0.000  0.000     2.101     2.267
 678   1 H      0.050  0.950  0.000  0.000     2.325     2.384
 679   1 H      0.042  0.958  0.000  0.000     2.421     2.433
 680   1 H      0.041  0.959  0.000  0.000     2.438     2.442
 681   1 H      0.062  0.938  0.000  0.000     2.172     2.305
 682   1 H      0.034  0.966  0.000  0.000     2.534     2.489
 683   1 H      0.044  0.956  0.000  0.000     2.398     2.422
 684   1 H      0.044  0.956  0.000  0.000     2.392     2.419
 685   1 H      0.042  0.958  0.000  0.000     2.428     2.437
 686   1 H      0.043  0.957  0.000  0.000     2.412     2.429
 687   7 N     -0.156  1.231  3.924  0.000    24.367     7.331
 688   6 C      0.024  1.059  2.917  0.000    20.171     6.395
 689   6 C      0.198  1.082  2.720  0.000    23.784     7.987
 690   8 O     -0.363  1.759  4.604  0.000    20.954     6.137
 691   6 C     -0.075  1.057  3.018  0.000    21.928     6.665
 692   6 C     -0.005  1.073  2.932  0.000    28.146     8.702
 693   6 C     -0.043  1.082  2.961  0.000    29.065     8.841
 694   6 C     -0.041  1.079  2.961  0.000    29.009     8.833
 695   6 C     -0.052  1.077  2.976  0.000    29.302     8.877
 696   6 C     -0.073  1.076  2.997  0.000    29.823     8.955
 697   6 C      0.149  1.045  2.805  0.000    24.753     8.154
 698   8 O     -0.449  1.738  4.712  0.000    21.830     6.307
 699   1 H      0.208  0.792  0.000  0.000     1.068     1.619
 700   1 H      0.106  0.894  0.000  0.000     1.733     2.059
 701   1 H      0.070  0.930  0.000  0.000     2.083     2.257
 702   1 H      0.078  0.922  0.000  0.000     2.005     2.214
 703   1 H      0.037  0.963  0.000  0.000     2.493     2.469
 704   1 H      0.050  0.950  0.000  0.000     2.319     2.381
 705   1 H      0.043  0.957  0.000  0.000     2.414     2.430
 706   1 H      0.044  0.956  0.000  0.000     2.392     2.418
 707   1 H      0.350  0.650  0.000  0.000     0.588     1.204
 708   7 N     -0.374  1.305  4.069  0.000    29.659     8.088
 709   6 C      0.047  1.053  2.900  0.000    19.800     6.339
 710   6 C      0.193  1.091  2.716  0.000    23.873     8.002
 711   8 O     -0.361  1.759  4.602  0.000    20.919     6.132
 712   6 C     -0.102  1.064  3.038  0.000    22.431     6.741
 713   6 C      0.291  1.033  2.676  0.000    22.061     7.691
 714   8 O     -0.492  1.750  4.742  0.000    23.608     6.514
 715   7 N     -0.277  1.261  4.016  0.000    27.161     7.740
 716   1 H      0.168  0.832  0.000  0.000     1.284     1.775
 717   1 H      0.057  0.943  0.000  0.000     2.240     2.341
 718   1 H      0.074  0.926  0.000  0.000     2.039     2.233
 719   1 H      0.059  0.941  0.000  0.000     2.207     2.323
 720   1 H      0.211  0.789  0.000  0.000     1.051     1.606
 721   1 H      0.225  0.775  0.000  0.000     0.988     1.557
 722   7 N     -0.378  1.309  4.068  0.000    29.754     8.101
 723   6 C      0.033  1.059  2.908  0.000    20.039     6.376
 724   6 C      0.195  1.091  2.714  0.000    23.832     7.995
 725   8 O     -0.362  1.757  4.604  0.000    20.931     6.134
 726   6 C      0.117  1.045  2.838  0.000    18.756     6.183
 727   8 O     -0.459  1.711  4.748  0.000    22.035     6.337
 728   6 C     -0.135  1.046  3.089  0.000    23.154     6.861
 729   1 H      0.166  0.834  0.000  0.000     1.296     1.784
 730   1 H      0.058  0.942  0.000  0.000     2.223     2.332
 731   1 H      0.016  0.984  0.000  0.000     2.802     2.618
 732   1 H      0.317  0.683  0.000  0.000     0.672     1.287
 733   1 H      0.052  0.948  0.000  0.000     2.299     2.371
 734   1 H      0.044  0.956  0.000  0.000     2.393     2.419
 735   1 H      0.065  0.935  0.000  0.000     2.144     2.290
 736   7 N     -0.380  1.318  4.062  0.000    29.808     8.109
 737   6 C      0.039  1.057  2.904  0.000    19.936     6.360
 738   6 C      0.204  1.089  2.707  0.000    23.662     7.967
 739   8 O     -0.363  1.754  4.608  0.000    20.948     6.136
 740   6 C     -0.052  1.051  3.001  0.000    21.497     6.600
 741   6 C     -0.093  1.061  3.032  0.000    22.267     6.718
 742   6 C      0.363  1.025  2.612  0.000    20.834     7.470
 743   8 O     -0.563  1.755  4.808  0.000    25.231     6.735
 744   8 O     -0.583  1.759  4.824  0.000    25.681     6.796
 745   1 H      0.166  0.834  0.000  0.000     1.295     1.783
 746   1 H      0.046  0.954  0.000  0.000     2.369     2.407
 747   1 H      0.051  0.949  0.000  0.000     2.302     2.373
 748   1 H      0.041  0.959  0.000  0.000     2.430     2.438
 749   1 H      0.022  0.978  0.000  0.000     2.697     2.568
 750   1 H      0.032  0.968  0.000  0.000     2.561     2.503
 751   7 N     -0.390  1.320  4.069  0.000    30.084     8.146
 752   6 C      0.037  1.059  2.904  0.000    19.969     6.365
 753   6 C      0.200  1.089  2.710  0.000    23.733     7.978
 754   8 O     -0.368  1.748  4.620  0.000    21.054     6.152
 755   6 C     -0.020  1.070  2.950  0.000    20.896     6.502
 756   6 C     -0.061  1.050  3.010  0.000    21.666     6.627
 757   6 C     -0.107  1.033  3.073  0.000    22.591     6.777
 758   6 C     -0.110  1.037  3.074  0.000    22.670     6.790
 759   1 H      0.181  0.819  0.000  0.000     1.207     1.721
 760   1 H      0.045  0.955  0.000  0.000     2.383     2.414
 761   1 H      0.039  0.961  0.000  0.000     2.458     2.452
 762   1 H      0.026  0.974  0.000  0.000     2.650     2.546
 763   1 H      0.035  0.965  0.000  0.000     2.514     2.480
 764   1 H      0.046  0.954  0.000  0.000     2.374     2.410
 765   1 H      0.051  0.949  0.000  0.000     2.313     2.378
 766   1 H      0.041  0.959  0.000  0.000     2.434     2.440
 767   1 H      0.038  0.962  0.000  0.000     2.474     2.460
 768   1 H      0.044  0.956  0.000  0.000     2.390     2.418
 769   1 H      0.041  0.959  0.000  0.000     2.432     2.439
 770   7 N     -0.383  1.315  4.069  0.000    29.911     8.123
 771   6 C      0.039  1.055  2.906  0.000    19.939     6.361
 772   6 C      0.201  1.090  2.709  0.000    23.728     7.978
 773   8 O     -0.384  1.759  4.625  0.000    21.361     6.197
 774   6 C     -0.069  1.061  3.008  0.000    21.813     6.647
 775   6 C     -0.005  1.055  2.949  0.000    20.630     6.461
 776   6 C     -0.111  1.041  3.070  0.000    22.674     6.789
 777   6 C     -0.111  1.038  3.073  0.000    22.684     6.791
 778   1 H      0.166  0.834  0.000  0.000     1.298     1.785
 779   1 H      0.058  0.942  0.000  0.000     2.217     2.329
 780   1 H      0.044  0.956  0.000  0.000     2.396     2.421
 781   1 H      0.038  0.962  0.000  0.000     2.473     2.459
 782   1 H      0.030  0.970  0.000  0.000     2.583     2.513
 783   1 H      0.049  0.951  0.000  0.000     2.337     2.391
 784   1 H      0.034  0.966  0.000  0.000     2.533     2.489
 785   1 H      0.042  0.958  0.000  0.000     2.428     2.437
 786   1 H      0.046  0.954  0.000  0.000     2.364     2.405
 787   1 H      0.042  0.958  0.000  0.000     2.420     2.433
 788   1 H      0.031  0.969  0.000  0.000     2.579     2.511
 789   7 N     -0.419  1.327  4.092  0.000    30.916     8.258
 790   6 C      0.034  1.056  2.909  0.000    20.012     6.372
 791   6 C      0.272  1.050  2.678  0.000    22.408     7.752
 792   8 O     -0.507  1.752  4.755  0.000    23.946     6.561
 793   6 C     -0.068  1.060  3.008  0.000    21.796     6.645
 794   6 C     -0.007  1.056  2.951  0.000    20.667     6.466
 795   6 C     -0.111  1.042  3.069  0.000    22.678     6.789
 796   6 C     -0.110  1.038  3.072  0.000    22.665     6.788
 797   1 H      0.190  0.810  0.000  0.000     1.160     1.687
 798   1 H      0.037  0.963  0.000  0.000     2.496     2.471
 799   1 H      0.038  0.962  0.000  0.000     2.472     2.459
 800   1 H      0.029  0.971  0.000  0.000     2.601     2.522
 801   1 H      0.026  0.974  0.000  0.000     2.640     2.541
 802   1 H      0.049  0.951  0.000  0.000     2.336     2.390
 803   1 H      0.032  0.968  0.000  0.000     2.555     2.500
 804   1 H      0.042  0.958  0.000  0.000     2.424     2.434
 805   1 H      0.044  0.956  0.000  0.000     2.392     2.419
 806   1 H      0.040  0.960  0.000  0.000     2.444     2.445
 807   1 H      0.027  0.973  0.000  0.000     2.633     2.537
 808   7 N     -0.170  1.234  3.936  0.000    24.681     7.378
 809   6 C      0.031  1.055  2.914  0.000    20.065     6.379
 810   6 C      0.195  1.089  2.716  0.000    23.834     7.995
 811   8 O     -0.362  1.749  4.612  0.000    20.929     6.134
 812   6 C     -0.120  1.042  3.078  0.000    22.854     6.816
 813   1 H      0.215  0.785  0.000  0.000     1.032     1.591
 814   1 H      0.091  0.909  0.000  0.000     1.869     2.138
 815   1 H      0.074  0.926  0.000  0.000     2.038     2.232
 816   1 H      0.077  0.923  0.000  0.000     2.011     2.217
 817   1 H      0.061  0.939  0.000  0.000     2.185     2.312
 818   1 H      0.175  0.825  0.000  0.000     1.244     1.747
 819   1 H      0.064  0.936  0.000  0.000     2.154     2.295
 820   1 H      0.172  0.828  0.000  0.000     1.258     1.757
 821   1 H      0.071  0.929  0.000  0.000     2.070     2.250
 822   1 H      0.173  0.827  0.000  0.000     1.256     1.756
 823   1 H      0.087  0.913  0.000  0.000     1.911     2.162
 824   1 H      0.189  0.811  0.000  0.000     1.161     1.688
 825   1 H      0.089  0.911  0.000  0.000     1.891     2.150
 826   1 H      0.184  0.816  0.000  0.000     1.189     1.708
 827   1 H      0.087  0.913  0.000  0.000     1.903     2.157
 828   1 H      0.183  0.817  0.000  0.000     1.199     1.715
 829   1 H      0.059  0.941  0.000  0.000     2.209     2.324
 830   1 H      0.182  0.818  0.000  0.000     1.204     1.719
 831   1 H      0.085  0.915  0.000  0.000     1.923     2.168
 832   1 H      0.180  0.820  0.000  0.000     1.215     1.727
 833   1 H      0.072  0.928  0.000  0.000     2.058     2.243
 834   1 H      0.183  0.817  0.000  0.000     1.196     1.713
 835   1 H      0.062  0.938  0.000  0.000     2.176     2.306
 836   1 H      0.176  0.824  0.000  0.000     1.235     1.741
 837   1 H      0.087  0.913  0.000  0.000     1.906     2.159
 838   1 H      0.183  0.817  0.000  0.000     1.196     1.713
 839   1 H      0.077  0.923  0.000  0.000     2.005     2.214
 840   1 H      0.171  0.829  0.000  0.000     1.265     1.762
 841   1 H      0.071  0.929  0.000  0.000     2.079     2.254
 842   1 H      0.174  0.826  0.000  0.000     1.251     1.752
 843   1 H      0.069  0.931  0.000  0.000     2.099     2.265
 844   1 H      0.185  0.815  0.000  0.000     1.186     1.706
 845   1 H      0.093  0.907  0.000  0.000     1.846     2.124
 846   1 H      0.173  0.827  0.000  0.000     1.252     1.753
 847   1 H      0.074  0.926  0.000  0.000     2.039     2.233
 848   1 H      0.178  0.822  0.000  0.000     1.224     1.733
 849   1 H      0.068  0.932  0.000  0.000     2.108     2.270
 850   1 H      0.176  0.824  0.000  0.000     1.238     1.743
 851   1 H      0.086  0.914  0.000  0.000     1.916     2.165
 852   1 H      0.185  0.815  0.000  0.000     1.188     1.707
 853   1 H      0.074  0.926  0.000  0.000     2.040     2.233
 854   1 H      0.192  0.808  0.000  0.000     1.149     1.679
 855   1 H      0.078  0.922  0.000  0.000     2.002     2.213
 856   1 H      0.175  0.825  0.000  0.000     1.241     1.745
 857   1 H      0.068  0.932  0.000  0.000     2.108     2.270

 Mol. C6AA /au·bohr⁶  :    6681439.001309
 Mol. C8AA /au·bohr⁸  :  149646040.216496
 Mol. α(0) /au        :       3888.435665

 
molecular dipole:
                 x           y           z       tot (Debye)
 q only:      -24.446     -90.197      16.628
   full:      -22.551     -89.412      13.774     236.985
molecular quadrupole (traceless):
                xx          xy          yy          xz          yz          zz
 q only:     3082.284   -3106.597   -7186.156     309.092    2026.450    4103.872
  q+dip:     3043.637   -2831.676   -7144.626     130.528    1649.989    4100.990
   full:     3050.252   -2832.090   -7144.180     133.324    1650.392    4093.927
speedup  1.93
cpu  time for grad    2 m 38.7 s
wall time for grad    1 m 22.4 s

SCC energy    :   -1280.1454914
rep           :      16.2359477
ES            :       3.0653116
AES           :      -0.0268146
AXC           :       0.4850383
disp          :      -1.1568602
XB            :       0.0000000
fix           :       0.0000000
Gborn         :       0.0000000
Gsasa         :       0.0000000
Ghb           :       0.0000000
Gshift        :       0.0000000
Gsolv         :      -0.5369370     -336.93
Etot ala COSMO:   -1280.1454914
grad norm     :       1.0061664
total E       :   -1263.7679227
atomizationE  :     236.7822000   148583.07
(atE without considering molecular charge,
 total energy contains solvation terms)
H-L gap (eV)  :          1.0962

------------------------------------------------------------------------
 * finished run on 2019/05/10 at 16:40:47.064     
------------------------------------------------------------------------
 total:
 * wall-time:     0 d,  0 h,  1 min, 27.908 sec
 *  cpu-time:     0 d,  0 h,  2 min, 46.553 sec
 * ratio c/w:     1.895 speedup
 SCF:
 * wall-time:     0 d,  0 h,  1 min, 25.503 sec
 *  cpu-time:     0 d,  0 h,  2 min, 43.875 sec
 * ratio c/w:     1.917 speedup

