      -----------------------------------------------------------      
     |                   =====================                   |     
     |                           x T B                           |     
     |                   =====================                   |     
     |                         S. Grimme                         |     
     |          Mulliken Center for Theoretical Chemistry        |     
     |                    University of Bonn                     |     
     |                 Version 6.0.1 (SAW181210)                 |     
      -----------------------------------------------------------      

   This program is distributed in the hope that it will be useful,
   but WITHOUT ANY WARRANTY; without even the implied warranty of
   MERCHANTABILITY or FITNESS FOR A PARTICULAR PURPOSE.
   
   FOR NON-COMMERCIAL, ACADEMIA USE ONLY.
   
   Cite this work as:
   S. Grimme, C. Bannwarth, P. Shushkov, J. Comput. Theory Chem., 2017,
   13, 1989-2009.
   C. Bannwarth, S. Ehlert and S. Grimme., ChemRxiv, 2018, preprint.
   http://doi.org/10.26434/chemrxiv.7246238.v1
   
   for sTDA-xTB:
   S. Grimme and C. Bannwarth, J. Chem. Phys., 2016, 145, 054103.
   
   in the mass-spec context:
   V. Asgeirsson, C. Bauer and S. Grimme, Chem. Sci., 2017, 8, 4879.
   
   if GBSA is used:
   P. Shushkov, F. März and S. Grimme, unpublished.
   
   for ANC optimizer:
   S. Grimme, unpublished.
   Rational Function algorithm used in ANCopt:
   F. Eckert, P. Pulay, H.-J. Werner, J. Comput. Chem., 1997, 18, 1473.
   
   with help from (in alphabetical order)
   C. Bannwarth, F. Bohle, G. Brandenburg, E. Caldeweyher, M. Checinski,
   S. Dohm, S. Ehlert, S. Ehrlich, F. März, H. Neugebauer, J. Pisarek,
   P. Pracht, P. Shushkov, and S. Spicher.
   
 * started run on 2019/05/10 at 08:26:56.009     
========================================================================
 # omp threads = 2
========================================================================
number of atoms            : 62
number of electrons        : 160
charge                     : 2
spin                       : .0
first test random number   : .7478

########################################################################
# WARNING! Please study the warnings concerning your input carefully
#  - Process number higher than OMP_NUM_THREADS, I hope you know what you are doing.
########################################################################

           ------------------------------------------------- 
          |                 G F N 2 - x T B                 |
          | Geometry, Frequencies, Noncovalent interactions |
          |            JCTC 2018 parametrisation            |
           ------------------------------------------------- 
 
      method parameters     
 k(s)        :  1.8500
 k(p)        :  2.2300
 k(d)        :  2.2300
 k(f)        :  2.0000
 kEN (H0ij)  : -2.0000
 D4 a1       :  0.5200
 D4 a2       :  5.0000
 D4 s6       :  1.0000
 D4 s8       :  2.7000
 D4 s9       :  5.0000
 alphaj      :  2.0000

 Solvent             : h2o
 Using internal parameter file: .param_gbsa2_h2o
 Gsolv ref. state (COSMO-RS): gsolv [1 M gas/solution]
 temperature (mdtemp)       :    298.150000000000     
 dielectric constant        :    80.2000000000000     
 rho                        :    1.00000000000000     
 mass                       :    18.0000000000000     
 surface tension            :    15.5689454083859     
 probe radius               :   0.975313790000000     
 vdW radii scaling          :    1.00000000000000     
 Gshift (Eh)                :   1.857443126794793E-003
 c1                         :    1.55243817000000     
 soset                      :   0.130326360000000     
 HB correction              :  T

            Z     q(EN)     CN     RAES       Cart. coordinates
     1  N   5.0   -0.18    3.22    1.96    63.24763    59.13947   189.93502
     2  C   4.0    0.04    4.33    4.25    62.64384    57.49773   187.82168
     3  C   4.0    0.15    3.44    3.09    63.20227    54.69551   188.19537
     4  O   6.0   -0.27    1.28    1.80    62.72107    53.19427   186.52826
     5  C   4.0   -0.01    4.32    4.24    63.98376    58.41816   185.40821
     6  C   4.0    0.19    3.23    3.04    62.60728    57.53523   183.04953
     7  O   6.0   -0.23    1.20    1.80    63.44439    55.91461   181.65287
     8  N   5.0   -0.14    3.20    1.95    60.40776    58.72841   182.64769
     9  H   1.0    0.12    1.02    1.43    65.10970    59.38194   190.29018
    10  H   1.0    0.07    1.06    1.44    60.59216    57.66542   187.56767
    11  H   1.0    0.08    1.03    1.43    64.02025    60.48086   185.41845
    12  H   1.0    0.08    1.03    1.43    65.92388    57.72772   185.34546
    13  H   1.0    0.15    1.03    1.43    59.33429    58.26388   181.14641
    14  H   1.0    0.12    1.03    1.43    59.82652    60.12581   183.79662
    15  N   5.0   -0.14    3.46    2.05    64.27295    54.02872   190.40266
    16  C   4.0    0.05    4.38    4.34    64.46489    51.39315   191.16359
    17  C   4.0    0.17    3.42    3.08    66.16344    49.77751   189.44598
    18  O   6.0   -0.25    1.26    1.80    66.20709    47.47912   189.70743
    19  C   4.0   -0.02    4.29    4.18    61.86908    50.05537   191.24829
    20  C   4.0   -0.03    4.15    3.91    60.01960    51.04272   193.23609
    21  C   4.0   -0.03    4.16    3.91    60.77095    50.52240   195.98254
    22  C   4.0   -0.01    4.13    3.85    60.77444    47.70239   196.58806
    23  N   5.0   -0.09    4.01    2.90    61.30910    47.29195   199.32160
    24  H   1.0    0.10    1.08    1.44    64.39152    55.37389   191.75200
    25  H   1.0    0.07    1.05    1.44    65.34799    51.35756   193.03197
    26  H   1.0    0.08    1.04    1.43    61.01322    50.27672   189.38610
    27  H   1.0    0.08    1.04    1.43    62.23393    48.04706   191.50843
    28  H   1.0    0.07    1.03    1.43    59.78417    53.07567   192.98215
    29  H   1.0    0.08    1.03    1.43    58.19036    50.16757   192.86570
    30  H   1.0    0.07    1.02    1.43    62.63107    51.33095   196.34731
    31  H   1.0    0.08    1.03    1.43    59.40590    51.49094   197.18855
    32  H   1.0    0.08    1.02    1.43    58.93453    46.89154   196.14579
    33  H   1.0    0.07    1.02    1.43    62.22128    46.73615   195.48431
    34  H   1.0    0.11    1.02    1.43    61.31103    45.39752   199.77074
    35  H   1.0    0.10    1.02    1.43    63.05214    48.04038   199.76228
    36  H   1.0    0.10    1.02    1.43    59.96008    48.18492   200.40533
    37  N   5.0   -0.11    3.51    2.08    67.54085    50.96584   187.69052
    38  C   4.0    0.05    4.33    4.25    69.22433    49.60158   186.02093
    39  C   4.0    0.12    3.21    3.04    71.93324    49.76473   187.00947
    40  O   6.0   -0.19    1.13    1.80    72.70751    51.61717   188.18644
    41  C   4.0   -0.02    4.26    4.11    69.11006    50.67175   183.33213
    42  C   4.0   -0.02    4.17    3.94    66.49068    50.42893   182.13240
    43  C   4.0    0.01    4.21    4.01    65.78714    47.70184   181.47353
    44  N   5.0   -0.12    3.38    2.01    67.31822    46.65056   179.44990
    45  C   4.0    0.13    3.34    3.06    66.82513    46.87019   176.99395
    46  N   5.0   -0.14    3.26    1.97    64.88093    48.23148   176.14596
    47  N   5.0   -0.13    3.24    1.97    68.30663    45.74225   175.30313
    48  H   1.0    0.11    1.08    1.44    67.64855    52.86621   187.66441
    49  H   1.0    0.08    1.07    1.44    68.61540    47.62839   186.09016
    50  H   1.0    0.08    1.03    1.43    69.61174    52.67063   183.41733
    51  H   1.0    0.07    1.03    1.43    70.53099    49.71151   182.19122
    52  H   1.0    0.08    1.03    1.43    65.07755    51.18645   183.42544
    53  H   1.0    0.08    1.03    1.43    66.44954    51.60634   180.44511
    54  H   1.0    0.07    1.03    1.43    66.03125    46.50069   183.12735
    55  H   1.0    0.07    1.03    1.43    63.79352    47.61900   180.95640
    56  H   1.0    0.11    1.06    1.44    68.88815    45.70612   179.99762
    57  H   1.0    0.12    1.03    1.43    63.64608    49.04233   177.34570
    58  H   1.0    0.13    1.03    1.43    64.43462    48.09518   174.29499
    59  H   1.0    0.13    1.03    1.43    69.83058    44.73771   175.82523
    60  H   1.0    0.14    1.03    1.43    67.91359    45.89146   173.43361
    61  H   1.0    0.13    1.07    1.44    62.61150    60.69058   189.64876
    62  H   1.0    0.10    1.04    1.44    73.13688    48.33967   186.70696

  Z AO/shell   Hii/eV     exponent
  1     Wed Apr 25 08:07:45 CEST 2018   EN: 2.200 GM2: 0.406  GM3: 0.0800  RAES: 1.40
     1s    -10.707211    1.230000
  6     Wed Apr 25 08:07:45 CEST 2018   EN: 2.550 GM2: 0.538  GM3: 0.1500  RAES: 3.00
     2s    -13.970922    2.096432
     2p    -10.063292    1.800000
  7     Wed Apr 25 08:07:45 CEST 2018   EN: 3.040 GM2: 0.461  GM3:-0.0640  RAES: 1.90
     2s    -16.686243    2.339881
     2p    -12.523956    2.014332
  8     Wed Apr 25 08:07:45 CEST 2018   EN: 3.440 GM2: 0.452  GM3:-0.0517  RAES: 1.80
     2s    -20.229985    2.439742
     2p    -15.503117    2.137023
 no old-style atom pair restraining (fixing) potential
           ------------------------------------------------- 
          |        Self-Consistent Charge Iterations        |
           ------------------------------------------------- 

 Ncao       : 146
 Nao        : 146
 Nshell     : 90
 Nel        : 160
 T(el)      :   500.0
 intcut     :    35.0
 scfconv/Eh :  0.100E-06
   qconv/e  :  0.100E-04
 intneglect :  0.100E-08
 broydamp   :      0.400
 iter      E             dE          RMSdq      gap      omega  full diag
   1    -91.5543537 -0.915544E+02  0.454E+00    3.64       0.0  T
   2    -91.7455237 -0.191170E+00  0.214E+00    2.37       1.0  T
   3    -91.7580190 -0.124953E-01  0.112E+00    2.62       1.0  T
   4    -91.7710441 -0.130251E-01  0.259E-01    2.28       1.0  T
   5    -91.7717767 -0.732584E-03  0.114E-01    2.45       1.0  T
   6    -91.7719360 -0.159328E-03  0.407E-02    2.43       1.0  T
   7    -91.7719550 -0.189428E-04  0.198E-02    2.43       1.0  T
   8    -91.7719572 -0.221398E-05  0.775E-03    2.43       1.6  T
   9    -91.7719579 -0.728881E-06  0.257E-03    2.44       4.9  T
  10    -91.7719580 -0.443430E-07  0.104E-03    2.44      12.3  T
  11    -91.7719580 -0.742388E-08  0.389E-04    2.44      32.6  T
  12    -91.7719580 -0.154010E-08  0.104E-04    2.44     122.1  T
  13    -91.7719580 -0.925695E-10  0.514E-05    2.44     247.0  T
  14    -91.7719580 -0.131450E-10  0.180E-05    2.44     703.6  T
speedup  1.98
cpu  time for SCC    0.20 s
wall time for SCC    0.10 s

   *** convergence criteria satisfied after 14 iterations ***

          eigenvalues
 #    :          68         69         70         71         72         73         74         75
 occ. :        2.000      2.000      2.000      2.000      2.000      2.000      2.000      2.000
 eps  :       -12.102    -12.024    -11.984    -11.944    -11.837    -11.614    -11.548    -11.393
 #    :          76         77         78         79         80         81         82         83
 occ. :        2.000      2.000      2.000      2.000      2.000      0.000      0.000      0.000
 eps  :       -11.195    -11.039    -10.962    -10.862    -10.443     -8.006     -6.173     -6.066
 #    :          84         85         86         87         88         89         90         91
 occ. :        0.000      0.000      0.000      0.000      0.000      0.000      0.000      0.000
 eps  :        -5.984     -5.702     -2.003     -1.500     -0.631     -0.408      0.267      0.327


   #   Z            q   n(s)   n(p)   n(d)      C6AA      α(0)
   1   7 N     -0.391  1.317  4.073  0.000    30.112     8.150
   2   6 C      0.025  1.061  2.914  0.000    20.166     6.396
   3   6 C      0.270  1.041  2.689  0.000    22.436     7.756
   4   8 O     -0.472  1.744  4.728  0.000    23.166     6.453
   5   6 C     -0.100  1.063  3.037  0.000    22.403     6.737
   6   6 C      0.292  1.034  2.675  0.000    22.055     7.689
   7   8 O     -0.477  1.742  4.735  0.000    23.282     6.469
   8   7 N     -0.295  1.263  4.032  0.000    27.603     7.803
   9   1 H      0.164  0.836  0.000  0.000     1.313     1.795
  10   1 H      0.063  0.937  0.000  0.000     2.161     2.299
  11   1 H      0.058  0.942  0.000  0.000     2.225     2.333
  12   1 H      0.055  0.945  0.000  0.000     2.260     2.351
  13   1 H      0.228  0.772  0.000  0.000     0.976     1.547
  14   1 H      0.218  0.782  0.000  0.000     1.018     1.581
  15   7 N     -0.188  1.251  3.937  0.000    25.082     7.438
  16   6 C      0.012  1.066  2.922  0.000    20.384     6.430
  17   6 C      0.274  1.043  2.683  0.000    22.365     7.744
  18   8 O     -0.488  1.745  4.743  0.000    23.518     6.502
  19   6 C     -0.078  1.052  3.026  0.000    21.990     6.676
  20   6 C     -0.075  1.050  3.025  0.000    21.925     6.667
  21   6 C     -0.093  1.053  3.040  0.000    22.278     6.720
  22   6 C     -0.050  1.059  2.991  0.000    21.563     6.628
  23   7 N     -0.148  1.230  3.918  0.000    24.183     7.304
  24   1 H      0.220  0.780  0.000  0.000     1.009     1.573
  25   1 H      0.087  0.913  0.000  0.000     1.905     2.159
  26   1 H      0.059  0.941  0.000  0.000     2.213     2.327
  27   1 H      0.078  0.922  0.000  0.000     1.996     2.209
  28   1 H      0.053  0.947  0.000  0.000     2.286     2.364
  29   1 H      0.061  0.939  0.000  0.000     2.182     2.310
  30   1 H      0.072  0.928  0.000  0.000     2.063     2.246
  31   1 H      0.079  0.921  0.000  0.000     1.987     2.204
  32   1 H      0.118  0.882  0.000  0.000     1.633     1.998
  33   1 H      0.116  0.884  0.000  0.000     1.648     2.007
  34   1 H      0.300  0.700  0.000  0.000     0.713     1.323
  35   1 H      0.296  0.704  0.000  0.000     0.725     1.334
  36   1 H      0.296  0.704  0.000  0.000     0.725     1.334
  37   7 N     -0.149  1.227  3.922  0.000    24.226     7.310
  38   6 C      0.020  1.059  2.921  0.000    20.247     6.408
  39   6 C      0.196  1.088  2.715  0.000    23.816     7.992
  40   8 O     -0.379  1.766  4.613  0.000    21.258     6.182
  41   6 C     -0.073  1.055  3.018  0.000    21.897     6.662
  42   6 C     -0.086  1.052  3.034  0.000    22.135     6.698
  43   6 C     -0.029  1.052  2.977  0.000    21.167     6.565
  44   7 N     -0.135  1.206  3.929  0.000    23.930     7.265
  45   6 C      0.233  1.018  2.748  0.000    23.111     7.871
  46   7 N     -0.247  1.233  4.014  0.000    26.434     7.636
  47   7 N     -0.258  1.233  4.025  0.000    26.704     7.675
  48   1 H      0.193  0.807  0.000  0.000     1.141     1.673
  49   1 H      0.106  0.894  0.000  0.000     1.729     2.057
  50   1 H      0.060  0.940  0.000  0.000     2.203     2.321
  51   1 H      0.074  0.926  0.000  0.000     2.044     2.236
  52   1 H      0.087  0.913  0.000  0.000     1.909     2.161
  53   1 H      0.080  0.920  0.000  0.000     1.976     2.198
  54   1 H      0.089  0.911  0.000  0.000     1.891     2.151
  55   1 H      0.086  0.914  0.000  0.000     1.920     2.167
  56   1 H      0.231  0.769  0.000  0.000     0.960     1.535
  57   1 H      0.245  0.755  0.000  0.000     0.902     1.488
  58   1 H      0.248  0.752  0.000  0.000     0.891     1.479
  59   1 H      0.248  0.752  0.000  0.000     0.891     1.479
  60   1 H      0.251  0.749  0.000  0.000     0.881     1.470
  61   1 H      0.186  0.814  0.000  0.000     1.179     1.701
  62   1 H      0.082  0.918  0.000  0.000     1.956     2.187

 Mol. C6AA /au·bohr⁶  :      31061.315245
 Mol. C8AA /au·bohr⁸  :     678705.801937
 Mol. α(0) /au        :        263.421506

 
molecular dipole:
                 x           y           z       tot (Debye)
 q only:      126.835      97.000     376.903
   full:      126.992      97.732     376.990    1041.209
molecular quadrupole (traceless):
                xx          xy          yy          xz          yz          zz
 q only:   -29947.420    9198.687  -34924.034   35760.406   27438.283   64871.453
  q+dip:   -29981.890    9277.908  -34870.254   35815.108   27649.973   64852.144
   full:   -29982.525    9278.796  -34870.835   35814.622   27649.413   64853.360
speedup  1.99
cpu  time for grad    0.28 s
wall time for grad    0.14 s

SCC energy    :     -91.7764925
rep           :       1.1391104
ES            :       0.4408292
AES           :      -0.0251838
AXC           :       0.0395679
disp          :      -0.0565362
XB            :       0.0000000
fix           :       0.0000000
Gborn         :       0.0000000
Gsasa         :       0.0000000
Ghb           :       0.0000000
Gshift        :       0.0000000
Gsolv         :      -0.2600212     -163.17
Etot ala COSMO:     -91.7764925
grad norm     :       0.2328060
total E       :     -90.6363129
atomizationE  :      15.9832449    10029.64
(atE without considering molecular charge,
 total energy contains solvation terms)
H-L gap (eV)  :          2.4368

------------------------------------------------------------------------
 * finished run on 2019/05/10 at 08:26:56.308     
------------------------------------------------------------------------
 total:
 * wall-time:     0 d,  0 h,  0 min,  0.296 sec
 *  cpu-time:     0 d,  0 h,  0 min,  0.437 sec
 * ratio c/w:     1.474 speedup
 SCF:
 * wall-time:     0 d,  0 h,  0 min,  0.163 sec
 *  cpu-time:     0 d,  0 h,  0 min,  0.324 sec
 * ratio c/w:     1.990 speedup

