      -----------------------------------------------------------      
     |                   =====================                   |     
     |                           x T B                           |     
     |                   =====================                   |     
     |                         S. Grimme                         |     
     |          Mulliken Center for Theoretical Chemistry        |     
     |                    University of Bonn                     |     
     |                 Version 6.0.1 (SAW181210)                 |     
      -----------------------------------------------------------      

   This program is distributed in the hope that it will be useful,
   but WITHOUT ANY WARRANTY; without even the implied warranty of
   MERCHANTABILITY or FITNESS FOR A PARTICULAR PURPOSE.
   
   FOR NON-COMMERCIAL, ACADEMIA USE ONLY.
   
   Cite this work as:
   S. Grimme, C. Bannwarth, P. Shushkov, J. Comput. Theory Chem., 2017,
   13, 1989-2009.
   C. Bannwarth, S. Ehlert and S. Grimme., ChemRxiv, 2018, preprint.
   http://doi.org/10.26434/chemrxiv.7246238.v1
   
   for sTDA-xTB:
   S. Grimme and C. Bannwarth, J. Chem. Phys., 2016, 145, 054103.
   
   in the mass-spec context:
   V. Asgeirsson, C. Bauer and S. Grimme, Chem. Sci., 2017, 8, 4879.
   
   if GBSA is used:
   P. Shushkov, F. März and S. Grimme, unpublished.
   
   for ANC optimizer:
   S. Grimme, unpublished.
   Rational Function algorithm used in ANCopt:
   F. Eckert, P. Pulay, H.-J. Werner, J. Comput. Chem., 1997, 18, 1473.
   
   with help from (in alphabetical order)
   C. Bannwarth, F. Bohle, G. Brandenburg, E. Caldeweyher, M. Checinski,
   S. Dohm, S. Ehlert, S. Ehrlich, F. März, H. Neugebauer, J. Pisarek,
   P. Pracht, P. Shushkov, and S. Spicher.
   
 * started run on 2019/05/05 at 17:08:06.756     
========================================================================
 # omp threads = 2
========================================================================
number of atoms            : 73
number of electrons        : 180
charge                     : 0
spin                       : .0
first test random number   : .4442

########################################################################
# WARNING! Please study the warnings concerning your input carefully
#  - Process number higher than OMP_NUM_THREADS, I hope you know what you are doing.
########################################################################

           ------------------------------------------------- 
          |                 G F N 2 - x T B                 |
          | Geometry, Frequencies, Noncovalent interactions |
          |            JCTC 2018 parametrisation            |
           ------------------------------------------------- 
 
      method parameters     
 k(s)        :  1.8500
 k(p)        :  2.2300
 k(d)        :  2.2300
 k(f)        :  2.0000
 kEN (H0ij)  : -2.0000
 D4 a1       :  0.5200
 D4 a2       :  5.0000
 D4 s6       :  1.0000
 D4 s8       :  2.7000
 D4 s9       :  5.0000
 alphaj      :  2.0000

 Solvent             : h2o
 Using internal parameter file: .param_gbsa2_h2o
 Gsolv ref. state (COSMO-RS): gsolv [1 M gas/solution]
 temperature (mdtemp)       :    298.150000000000     
 dielectric constant        :    80.2000000000000     
 rho                        :    1.00000000000000     
 mass                       :    18.0000000000000     
 surface tension            :    15.5689454083859     
 probe radius               :   0.975313790000000     
 vdW radii scaling          :    1.00000000000000     
 Gshift (Eh)                :   1.857443126794793E-003
 c1                         :    1.55243817000000     
 soset                      :   0.130326360000000     
 HB correction              :  T

            Z     q(EN)     CN     RAES       Cart. coordinates
     1  N   5.0   -0.20    3.19    1.95    43.71361    23.90263    22.03700
     2  C   4.0    0.04    4.17    3.93    45.41216    24.67132    24.02992
     3  C   4.0    0.09    3.21    3.04    45.23502    27.48852    24.60376
     4  O   6.0   -0.27    1.11    1.80    45.45726    28.26399    26.80520
     5  C   4.0    0.04    4.13    3.87    48.19967    24.07052    23.27216
     6  O   6.0   -0.23    2.04    1.83    49.00138    25.30319    21.07141
     7  H   1.0    0.09    1.02    1.43    44.37498    22.81234    20.58785
     8  H   1.0    0.05    1.05    1.44    44.98797    23.63070    25.77385
     9  H   1.0    0.06    1.01    1.43    49.40072    24.67187    24.84716
    10  H   1.0    0.05    1.01    1.43    48.35232    22.02043    23.07782
    11  H   1.0    0.15    1.08    1.44    49.48219    24.03360    19.78690
    12  O   6.0   -0.31    2.01    1.83    50.35058    21.61145    17.84717
    13  H   1.0    0.15    1.05    1.44    51.73440    20.82740    18.78552
    14  H   1.0    0.13    0.96    1.43    50.89107    21.91826    16.12022
    15  O   6.0   -0.33    2.05    1.83    53.40736    19.71776    21.14664
    16  H   1.0    0.15    1.03    1.43    53.99379    20.88863    22.42524
    17  H   1.0    0.15    1.01    1.43    52.50336    18.42392    22.08776
    18  O   6.0   -0.31    1.99    1.82    50.50083    16.28885    23.87031
    19  H   1.0    0.12    0.97    1.43    48.74557    16.52298    23.38609
    20  H   1.0    0.12    0.97    1.43    50.73210    14.48444    23.97962
    21  O   6.0   -0.28    1.92    1.82    58.07233    22.58652    19.53701
    22  H   1.0    0.14    0.98    1.43    57.22333    22.75314    21.14160
    23  H   1.0    0.14    0.97    1.43    58.16456    20.80463    19.21453
    24  O   6.0   -0.31    1.99    1.83    55.45279    22.45621    24.91059
    25  H   1.0    0.13    0.97    1.43    55.03245    24.12483    25.47988
    26  H   1.0    0.13    0.96    1.42    55.62947    21.41834    26.44855
    27  O   6.0   -0.29    1.93    1.82    51.52026    16.94802    28.69530
    28  H   1.0    0.13    0.97    1.43    50.08375    17.94452    29.20715
    29  H   1.0    0.12    0.97    1.43    51.08703    15.19794    29.02060
    30  N   5.0   -0.21    3.20    1.96    64.04586    14.26580    26.83113
    31  C   4.0    0.03    4.27    4.15    62.60397    14.77466    24.56183
    32  C   4.0    0.08    3.20    3.04    62.82432    17.61015    23.81612
    33  O   6.0   -0.28    1.11    1.80    62.99425    18.24185    21.60829
    34  C   4.0   -0.02    4.30    4.21    59.82774    13.93193    24.86221
    35  C   4.0   -0.05    4.17    3.94    59.68383    11.03570    25.04734
    36  C   4.0   -0.07    4.12    3.84    58.15757    14.94305    22.72316
    37  C   4.0   -0.08    4.00    3.62    57.07361    10.14231    26.01972
    38  H   1.0    0.08    1.02    1.43    63.10739    13.57108    28.35514
    39  H   1.0    0.05    1.05    1.44    63.47072    13.73463    22.98342
    40  H   1.0    0.04    1.06    1.44    59.15894    14.73244    26.65035
    41  H   1.0    0.04    1.02    1.43    60.05881    10.21270    23.19949
    42  H   1.0    0.04    1.03    1.43    61.11966    10.36645    26.36363
    43  H   1.0    0.04    1.00    1.43    56.22764    14.30043    22.96144
    44  H   1.0    0.06    1.00    1.43    58.14214    16.99495    22.72052
    45  H   1.0    0.05    1.00    1.43    58.87405    14.31019    20.90464
    46  H   1.0    0.04    1.00    1.43    57.07730     8.09430    26.20364
    47  H   1.0    0.04    1.00    1.43    56.72738    10.95802    27.86976
    48  H   1.0    0.04    1.00    1.43    55.57263    10.69596    24.74040
    49  N   5.0   -0.19    3.25    1.97    53.17423    17.22155     9.87338
    50  C   4.0    0.03    4.24    4.09    51.60626    15.17590    10.76383
    51  C   4.0    0.08    3.21    3.04    49.29739    15.03979     8.99556
    52  O   6.0   -0.27    1.12    1.80    48.03717    16.91503     8.47435
    53  C   4.0   -0.04    4.32    4.24    50.82952    15.56900    13.48864
    54  C   4.0   -0.03    4.19    3.99    52.86856    14.40967    15.24441
    55  C   4.0   -0.07    4.08    3.77    55.30573    16.00449    15.42711
    56  C   4.0   -0.07    4.12    3.83    51.83666    13.85722    17.80666
    57  H   1.0    0.09    1.03    1.43    52.77749    18.98336    10.49188
    58  H   1.0    0.04    1.06    1.44    52.66723    13.42152    10.50369
    59  H   1.0    0.05    1.03    1.43    50.56129    17.57475    13.86975
    60  H   1.0    0.05    1.03    1.43    49.04789    14.59710    13.83507
    61  H   1.0    0.04    1.06    1.44    53.40182    12.59512    14.38885
    62  H   1.0    0.04    1.00    1.43    56.69616    15.01917    16.56798
    63  H   1.0    0.04    1.00    1.43    56.10531    16.34725    13.56886
    64  H   1.0    0.05    1.00    1.43    54.90399    17.81368    16.31208
    65  H   1.0    0.04    1.00    1.43    53.26297    12.99316    19.00698
    66  H   1.0    0.05    1.00    1.43    51.21298    15.58232    18.73399
    67  H   1.0    0.04    1.00    1.43    50.23501    12.57506    17.69297
    68  H   1.0    0.10    1.07    1.44    42.43984    22.98944    22.69742
    69  H   1.0    0.07    1.04    1.43    44.93838    28.72136    23.20263
    70  H   1.0    0.09    1.07    1.44    65.25167    13.11546    26.49160
    71  H   1.0    0.06    1.04    1.43    62.82775    18.94216    25.15657
    72  H   1.0    0.09    1.08    1.44    54.78742    16.94240    10.33410
    73  H   1.0    0.05    1.04    1.44    48.78617    13.38732     8.23459

  Z AO/shell   Hii/eV     exponent
  1     Wed Apr 25 08:07:45 CEST 2018   EN: 2.200 GM2: 0.406  GM3: 0.0800  RAES: 1.40
     1s    -10.707211    1.230000
  6     Wed Apr 25 08:07:45 CEST 2018   EN: 2.550 GM2: 0.538  GM3: 0.1500  RAES: 3.00
     2s    -13.970922    2.096432
     2p    -10.063292    1.800000
  7     Wed Apr 25 08:07:45 CEST 2018   EN: 3.040 GM2: 0.461  GM3:-0.0640  RAES: 1.90
     2s    -16.686243    2.339881
     2p    -12.523956    2.014332
  8     Wed Apr 25 08:07:45 CEST 2018   EN: 3.440 GM2: 0.452  GM3:-0.0517  RAES: 1.80
     2s    -20.229985    2.439742
     2p    -15.503117    2.137023
 no old-style atom pair restraining (fixing) potential

molecular fragmentation (1/2 indicates fragments):
111111111112222222222222222222222222222222222222222222222222222222211222
2
# atoms in fragment 1/2:    13    60
 fragment masses (1/2) :       89.09      338.44
CMA distance (Bohr)    :  13.331
constraining FC (au)   :  0.0500
           ------------------------------------------------- 
          |        Self-Consistent Charge Iterations        |
           ------------------------------------------------- 

 Ncao       : 157
 Nao        : 157
 Nshell     : 101
 Nel        : 180
 T(el)      :   500.0
 intcut     :    35.0
 scfconv/Eh :  0.100E-06
   qconv/e  :  0.100E-04
 intneglect :  0.100E-08
 broydamp   :      0.400
 iter      E             dE          RMSdq      gap      omega  full diag
   1   -105.2169507 -0.105217E+03  0.492E+00    3.35       0.0  T
   2   -105.4325486 -0.215598E+00  0.236E+00    2.03       1.0  T
   3   -105.4493762 -0.168276E-01  0.120E+00    2.40       1.0  T
   4   -105.4727297 -0.233535E-01  0.313E-01    2.07       1.0  T
   5   -105.4733711 -0.641353E-03  0.936E-02    2.21       1.0  T
   6   -105.4735727 -0.201568E-03  0.320E-02    2.15       1.0  T
   7   -105.4735770 -0.432564E-05  0.146E-02    2.14       1.0  T
   8   -105.4735792 -0.217633E-05  0.555E-03    2.14       2.1  T
   9   -105.4735797 -0.502607E-06  0.213E-03    2.14       5.5  T
  10   -105.4735798 -0.900248E-07  0.729E-04    2.14      16.1  T
  11   -105.4735798 -0.425757E-08  0.296E-04    2.14      39.5  T
  12   -105.4735798 -0.115038E-08  0.130E-04    2.14      90.3  T
  13   -105.4735798 -0.452445E-09  0.308E-05    2.14     379.9  T
  14   -105.4735798 -0.622435E-11  0.152E-05    2.14     769.4  T
speedup  1.41
cpu  time for SCC    0.36 s
wall time for SCC    0.26 s

   *** convergence criteria satisfied after 14 iterations ***

          eigenvalues
 #    :          78         79         80         81         82         83         84         85
 occ. :        2.000      2.000      2.000      2.000      2.000      2.000      2.000      2.000
 eps  :       -11.647    -11.634    -11.614    -11.580    -11.465    -11.369    -11.264    -11.231
 #    :          86         87         88         89         90         91         92         93
 occ. :        2.000      2.000      2.000      2.000      2.000      0.000      0.000      0.000
 eps  :       -11.128    -10.977     -9.962     -9.939     -9.827     -7.687     -7.652     -7.506
 #    :          94         95         96         97         98         99        100        101
 occ. :        0.000      0.000      0.000      0.000      0.000      0.000      0.000      0.000
 eps  :         0.043      0.635      0.914      1.110      1.273      1.345      1.619      1.665


   #   Z            q   n(s)   n(p)   n(d)      C6AA      α(0)
   1   7 N     -0.391  1.310  4.081  0.000    30.121     8.151
   2   6 C      0.034  1.060  2.907  0.000    20.030     6.376
   3   6 C      0.203  1.094  2.703  0.000    23.678     7.969
   4   8 O     -0.401  1.765  4.635  0.000    21.696     6.245
   5   6 C      0.085  1.038  2.877  0.000    19.381     6.307
   6   8 O     -0.500  1.728  4.772  0.000    22.903     6.460
   7   1 H      0.175  0.825  0.000  0.000     1.241     1.745
   8   1 H      0.047  0.953  0.000  0.000     2.357     2.401
   9   1 H      0.030  0.970  0.000  0.000     2.592     2.518
  10   1 H      0.055  0.945  0.000  0.000     2.261     2.351
  11   1 H      0.351  0.649  0.000  0.000     0.585     1.202
  12   8 O     -0.651  1.761  4.890  0.000    26.444     6.940
  13   1 H      0.337  0.663  0.000  0.000     0.619     1.236
  14   1 H      0.305  0.695  0.000  0.000     0.705     1.319
  15   8 O     -0.642  1.758  4.884  0.000    26.213     6.910
  16   1 H      0.319  0.681  0.000  0.000     0.666     1.282
  17   1 H      0.321  0.679  0.000  0.000     0.660     1.276
  18   8 O     -0.607  1.761  4.845  0.000    25.346     6.795
  19   1 H      0.320  0.680  0.000  0.000     0.663     1.279
  20   1 H      0.313  0.687  0.000  0.000     0.682     1.297
  21   8 O     -0.635  1.764  4.871  0.000    26.051     6.889
  22   1 H      0.324  0.676  0.000  0.000     0.653     1.270
  23   1 H      0.305  0.695  0.000  0.000     0.707     1.321
  24   8 O     -0.628  1.762  4.867  0.000    25.875     6.865
  25   1 H      0.328  0.672  0.000  0.000     0.643     1.259
  26   1 H      0.338  0.662  0.000  0.000     0.619     1.236
  27   8 O     -0.639  1.771  4.868  0.000    26.151     6.902
  28   1 H      0.322  0.678  0.000  0.000     0.658     1.274
  29   1 H      0.317  0.683  0.000  0.000     0.671     1.287
  30   7 N     -0.393  1.316  4.077  0.000    30.173     8.158
  31   6 C      0.035  1.064  2.902  0.000    20.011     6.373
  32   6 C      0.200  1.094  2.706  0.000    23.732     7.978
  33   8 O     -0.375  1.757  4.618  0.000    21.192     6.172
  34   6 C     -0.021  1.070  2.951  0.000    20.921     6.506
  35   6 C     -0.061  1.053  3.008  0.000    21.665     6.627
  36   6 C     -0.113  1.038  3.075  0.000    22.726     6.798
  37   6 C     -0.113  1.041  3.073  0.000    22.734     6.800
  38   1 H      0.166  0.834  0.000  0.000     1.295     1.783
  39   1 H      0.043  0.957  0.000  0.000     2.416     2.431
  40   1 H      0.047  0.953  0.000  0.000     2.360     2.402
  41   1 H      0.037  0.963  0.000  0.000     2.493     2.469
  42   1 H      0.034  0.966  0.000  0.000     2.537     2.491
  43   1 H      0.061  0.939  0.000  0.000     2.187     2.313
  44   1 H      0.040  0.960  0.000  0.000     2.448     2.447
  45   1 H      0.036  0.964  0.000  0.000     2.503     2.474
  46   1 H      0.039  0.961  0.000  0.000     2.459     2.452
  47   1 H      0.042  0.958  0.000  0.000     2.421     2.433
  48   1 H      0.045  0.955  0.000  0.000     2.385     2.415
  49   7 N     -0.386  1.315  4.071  0.000    29.989     8.133
  50   6 C      0.042  1.056  2.902  0.000    19.887     6.352
  51   6 C      0.198  1.093  2.709  0.000    23.782     7.987
  52   8 O     -0.373  1.761  4.613  0.000    21.157     6.167
  53   6 C     -0.070  1.059  3.011  0.000    21.830     6.651
  54   6 C     -0.009  1.059  2.950  0.000    20.706     6.472
  55   6 C     -0.115  1.041  3.074  0.000    22.759     6.803
  56   6 C     -0.119  1.038  3.082  0.000    22.832     6.812
  57   1 H      0.161  0.839  0.000  0.000     1.326     1.804
  58   1 H      0.050  0.950  0.000  0.000     2.324     2.384
  59   1 H      0.056  0.944  0.000  0.000     2.242     2.342
  60   1 H      0.038  0.962  0.000  0.000     2.481     2.463
  61   1 H      0.027  0.973  0.000  0.000     2.636     2.539
  62   1 H      0.039  0.961  0.000  0.000     2.468     2.457
  63   1 H      0.031  0.969  0.000  0.000     2.568     2.506
  64   1 H      0.050  0.950  0.000  0.000     2.325     2.385
  65   1 H      0.044  0.956  0.000  0.000     2.399     2.422
  66   1 H      0.058  0.942  0.000  0.000     2.223     2.332
  67   1 H      0.034  0.966  0.000  0.000     2.530     2.488
  68   1 H      0.185  0.815  0.000  0.000     1.184     1.705
  69   1 H      0.078  0.922  0.000  0.000     1.999     2.211
  70   1 H      0.180  0.820  0.000  0.000     1.213     1.725
  71   1 H      0.073  0.927  0.000  0.000     2.055     2.242
  72   1 H      0.181  0.819  0.000  0.000     1.205     1.720
  73   1 H      0.065  0.935  0.000  0.000     2.141     2.288

 Mol. C6AA /au·bohr⁶  :      37014.902709
 Mol. C8AA /au·bohr⁸  :     759776.823665
 Mol. α(0) /au        :        283.270516

 
molecular dipole:
                 x           y           z       tot (Debye)
 q only:       -0.115      -4.725       2.757
   full:       -0.265      -5.955       3.560      17.647
molecular quadrupole (traceless):
                xx          xy          yy          xz          yz          zz
 q only:       13.617    -365.488    -224.980     218.506     -86.070     211.363
  q+dip:        1.374    -466.152    -275.349     274.741    -100.640     273.975
   full:        3.788    -465.701    -277.470     273.710    -101.832     273.682
speedup  1.42
cpu  time for grad    0.46 s
wall time for grad    0.32 s

SCC energy    :    -105.4760446
rep           :       1.1791994
ES            :       0.3704245
AES           :       0.0030225
AXC           :       0.0330282
disp          :      -0.0521419
XB            :       0.0000000
fix           :       0.0000000
Gborn         :       0.0000000
Gsasa         :       0.0000000
Ghb           :       0.0000000
Gshift        :       0.0000000
Gsolv         :      -0.0645049      -40.48
Etot ala COSMO:    -105.4760446
grad norm     :       0.3909916
total E       :    -104.2952382
atomizationE  :      16.9953646    10664.75
(atE without considering molecular charge,
 total energy contains solvation terms)
H-L gap (eV)  :          2.1404

------------------------------------------------------------------------
 * finished run on 2019/05/05 at 17:08:07.360     
------------------------------------------------------------------------
 total:
 * wall-time:     0 d,  0 h,  0 min,  0.602 sec
 *  cpu-time:     0 d,  0 h,  0 min,  0.579 sec
 * ratio c/w:     0.962 speedup
 SCF:
 * wall-time:     0 d,  0 h,  0 min,  0.370 sec
 *  cpu-time:     0 d,  0 h,  0 min,  0.496 sec
 * ratio c/w:     1.340 speedup

