      -----------------------------------------------------------      
     |                   =====================                   |     
     |                           x T B                           |     
     |                   =====================                   |     
     |                         S. Grimme                         |     
     |          Mulliken Center for Theoretical Chemistry        |     
     |                    University of Bonn                     |     
     |                 Version 6.0.1 (SAW181210)                 |     
      -----------------------------------------------------------      

   This program is distributed in the hope that it will be useful,
   but WITHOUT ANY WARRANTY; without even the implied warranty of
   MERCHANTABILITY or FITNESS FOR A PARTICULAR PURPOSE.
   
   FOR NON-COMMERCIAL, ACADEMIA USE ONLY.
   
   Cite this work as:
   S. Grimme, C. Bannwarth, P. Shushkov, J. Comput. Theory Chem., 2017,
   13, 1989-2009.
   C. Bannwarth, S. Ehlert and S. Grimme., ChemRxiv, 2018, preprint.
   http://doi.org/10.26434/chemrxiv.7246238.v1
   
   for sTDA-xTB:
   S. Grimme and C. Bannwarth, J. Chem. Phys., 2016, 145, 054103.
   
   in the mass-spec context:
   V. Asgeirsson, C. Bauer and S. Grimme, Chem. Sci., 2017, 8, 4879.
   
   if GBSA is used:
   P. Shushkov, F. März and S. Grimme, unpublished.
   
   for ANC optimizer:
   S. Grimme, unpublished.
   Rational Function algorithm used in ANCopt:
   F. Eckert, P. Pulay, H.-J. Werner, J. Comput. Chem., 1997, 18, 1473.
   
   with help from (in alphabetical order)
   C. Bannwarth, F. Bohle, G. Brandenburg, E. Caldeweyher, M. Checinski,
   S. Dohm, S. Ehlert, S. Ehrlich, F. März, H. Neugebauer, J. Pisarek,
   P. Pracht, P. Shushkov, and S. Spicher.
   
 * started run on 2019/05/11 at 23:18:56.744     
========================================================================
 # omp threads = 2
========================================================================
number of atoms            : 252
number of electrons        : 722
charge                     : -3
spin                       : .0
first test random number   : .2395

########################################################################
# WARNING! Please study the warnings concerning your input carefully
#  - Process number higher than OMP_NUM_THREADS, I hope you know what you are doing.
########################################################################

           ------------------------------------------------- 
          |                 G F N 2 - x T B                 |
          | Geometry, Frequencies, Noncovalent interactions |
          |            JCTC 2018 parametrisation            |
           ------------------------------------------------- 
 
      method parameters     
 k(s)        :  1.8500
 k(p)        :  2.2300
 k(d)        :  2.2300
 k(f)        :  2.0000
 kEN (H0ij)  : -2.0000
 D4 a1       :  0.5200
 D4 a2       :  5.0000
 D4 s6       :  1.0000
 D4 s8       :  2.7000
 D4 s9       :  5.0000
 alphaj      :  2.0000

 Solvent             : h2o
 Using internal parameter file: .param_gbsa2_h2o
 Gsolv ref. state (COSMO-RS): gsolv [1 M gas/solution]
 temperature (mdtemp)       :    298.150000000000     
 dielectric constant        :    80.2000000000000     
 rho                        :    1.00000000000000     
 mass                       :    18.0000000000000     
 surface tension            :    15.5689454083859     
 probe radius               :   0.975313790000000     
 vdW radii scaling          :    1.00000000000000     
 Gshift (Eh)                :   1.857443126794793E-003
 c1                         :    1.55243817000000     
 soset                      :   0.130326360000000     
 HB correction              :  T

            Z     q(EN)     CN     RAES       Cart. coordinates
     1  N   5.0   -0.23    3.18    1.95   -24.39238   155.20052    10.10974
     2  C   4.0    0.03    4.24    4.08   -22.67647   153.19132     9.40709
     3  C   4.0    0.06    3.24    3.04   -22.54186   152.77436     6.54978
     4  O   6.0   -0.33    1.12    1.80   -20.49964   152.69463     5.47533
     5  C   4.0   -0.05    4.33    4.26   -23.32704   150.66318    10.60071
     6  C   4.0   -0.03    4.18    3.96   -21.09886   148.79865    10.23534
     7  C   4.0   -0.08    4.06    3.73   -19.83064   148.21448    12.80755
     8  C   4.0   -0.09    4.06    3.73   -21.93579   146.44262     8.74594
     9  H   1.0    0.08    1.02    1.43   -25.90806   154.79376    11.19681
    10  H   1.0    0.04    1.06    1.44   -20.76417   153.75848     9.98463
    11  H   1.0    0.05    1.03    1.43   -23.67736   150.91670    12.61914
    12  H   1.0    0.03    1.03    1.43   -25.03062   149.87435     9.75406
    13  H   1.0    0.04    1.07    1.44   -19.64791   149.70549     9.06974
    14  H   1.0    0.03    1.00    1.43   -18.25202   146.92571    12.53927
    15  H   1.0    0.04    1.00    1.43   -19.12213   149.94215    13.65418
    16  H   1.0    0.05    1.00    1.43   -21.15989   147.34764    14.11167
    17  H   1.0    0.03    1.00    1.43   -20.35628   145.14828     8.48860
    18  H   1.0    0.03    1.00    1.43   -23.43578   145.43844     9.72607
    19  H   1.0    0.03    1.00    1.43   -22.59571   146.98019     6.87237
    20  N   5.0   -0.23    3.26    1.97   -14.26374   150.38734    21.17679
    21  C   4.0    0.03    4.39    4.36   -16.89797   150.32771    20.64331
    22  C   4.0    0.14    3.48    3.11   -17.86223   147.97003    19.40642
    23  O   6.0   -0.31    1.27    1.80   -20.13261   147.85938    18.99156
    24  C   4.0   -0.05    4.29    4.17   -17.75039   152.51730    19.04533
    25  C   4.0   -0.05    4.12    3.84   -17.79974   155.01913    20.61031
    26  C   4.0   -0.01    4.12    3.84   -20.38456   156.44535    20.65601
    27  N   5.0   -0.15    3.34    2.00   -20.70223   158.24624    18.55950
    28  C   4.0    0.08    3.32    3.06   -22.00801   157.88283    16.39302
    29  N   5.0   -0.18    3.27    1.97   -24.20594   156.69189    16.34978
    30  N   5.0   -0.20    3.25    1.97   -21.12946   158.87803    14.27187
    31  H   1.0    0.07    1.02    1.43   -13.04991   150.66673    19.72566
    32  H   1.0    0.04    1.07    1.44   -17.87368   150.37577    22.48142
    33  H   1.0    0.03    1.03    1.43   -16.46571   152.65775    17.43768
    34  H   1.0    0.06    1.04    1.44   -19.63854   152.08900    18.34213
    35  H   1.0    0.04    1.03    1.43   -17.31862   154.58960    22.56488
    36  H   1.0    0.03    1.02    1.43   -16.34011   156.28353    19.89127
    37  H   1.0    0.06    1.02    1.43   -21.91816   155.07043    20.64219
    38  H   1.0    0.05    1.02    1.43   -20.51758   157.49624    22.42573
    39  H   1.0    0.06    1.08    1.44   -19.14477   159.33894    18.33196
    40  H   1.0    0.12    1.06    1.44   -24.89058   155.54864    17.74776
    41  H   1.0    0.08    1.04    1.43   -25.02855   156.31908    14.68070
    42  H   1.0    0.06    1.03    1.43   -19.80691   160.25368    14.29398
    43  H   1.0    0.07    1.04    1.43   -22.23725   158.96472    12.71998
    44  N   5.0   -0.15    3.48    2.07   -16.23255   146.11010    18.97472
    45  C   4.0    0.03    4.35    4.28   -17.04620   143.49541    18.77171
    46  C   4.0    0.15    3.41    3.08   -18.10314   142.62798    21.39499
    47  O   6.0   -0.31    1.26    1.80   -20.02078   141.32937    21.60164
    48  C   4.0   -0.06    4.18    3.97   -14.93408   141.73381    17.83855
    49  C   4.0   -0.06    4.09    3.78   -14.08731   141.93940    15.03115
    50  C   4.0   -0.02    4.10    3.81   -15.80647   140.84155    12.94114
    51  N   5.0   -0.15    3.33    1.99   -16.36045   138.10572    13.09372
    52  C   4.0    0.08    3.31    3.05   -16.56375   136.32675    11.28463
    53  N   5.0   -0.21    3.21    1.96   -15.52362   136.56010     8.99928
    54  N   5.0   -0.21    3.23    1.96   -17.77639   134.16805    11.84163
    55  H   1.0    0.07    1.09    1.44   -14.42393   146.36979    19.52144
    56  H   1.0    0.05    1.05    1.44   -18.66809   143.41892    17.48163
    57  H   1.0    0.03    1.03    1.43   -13.27916   142.10469    19.00806
    58  H   1.0    0.04    1.03    1.43   -15.51034   139.79351    18.24144
    59  H   1.0    0.03    1.03    1.43   -13.84284   143.93535    14.59364
    60  H   1.0    0.03    1.03    1.43   -12.24554   141.01651    14.90791
    61  H   1.0    0.03    1.02    1.43   -17.62365   141.82669    12.99396
    62  H   1.0    0.03    1.03    1.43   -14.94340   141.23467    11.11558
    63  H   1.0    0.07    1.08    1.44   -17.11988   137.61776    14.78069
    64  H   1.0    0.06    1.03    1.43   -15.30897   138.34653     8.29848
    65  H   1.0    0.06    1.03    1.43   -15.93830   135.28235     7.64679
    66  H   1.0    0.07    1.03    1.43   -18.29773   133.77103    13.63189
    67  H   1.0    0.06    1.03    1.43   -17.70281   132.70988    10.61864
    68  N   5.0   -0.15    3.50    2.08   -16.88094   143.50771    23.42010
    69  C   4.0    0.03    4.45    4.47   -17.88560   142.97656    25.91061
    70  C   4.0    0.15    3.44    3.09   -20.26740   144.59573    26.34854
    71  O   6.0   -0.30    1.38    1.80   -22.31113   143.51397    26.32097
    72  C   4.0   -0.05    4.19    3.97   -15.72557   143.03027    27.82946
    73  C   4.0   -0.04    4.18    3.95   -14.10958   140.67290    27.28796
    74  C   4.0    0.24    3.04    3.02   -11.61586   140.16683    28.89640
    75  O   6.0   -0.32    1.15    1.80   -11.85203   139.51602    31.15473
    76  O   6.0   -0.32    1.16    1.80    -9.60482   140.38004    27.69297
    77  H   1.0    0.07    1.06    1.44   -15.19113   144.39346    23.30450
    78  H   1.0    0.06    1.08    1.44   -18.64682   141.04088    25.86659
    79  H   1.0    0.04    1.02    1.43   -14.59005   144.74540    27.63965
    80  H   1.0    0.04    1.02    1.43   -16.45254   142.95807    29.75816
    81  H   1.0    0.04    1.03    1.43   -15.29278   139.00535    27.57966
    82  H   1.0    0.05    1.03    1.43   -13.47736   140.72572    25.32750
    83  N   5.0   -0.15    3.43    2.04   -20.03861   147.10138    26.54885
    84  C   4.0    0.03    4.39    4.36   -22.18850   148.75791    27.08837
    85  C   4.0    0.17    3.51    3.12   -24.57600   147.66403    25.89584
    86  O   6.0   -0.31    1.25    1.80   -26.48372   147.44640    27.18927
    87  C   4.0   -0.04    4.17    3.94   -21.70404   151.55786    26.38233
    88  C   4.0   -0.04    4.16    3.93   -19.35148   152.47877    27.84277
    89  C   4.0    0.24    3.05    3.02   -18.47301   155.31992    27.68605
    90  O   6.0   -0.32    1.17    1.80   -20.14887   156.87395    27.14753
    91  O   6.0   -0.32    1.15    1.80   -16.18582   155.74829    28.16169
    92  H   1.0    0.07    1.06    1.44   -18.28521   147.86385    26.67193
    93  H   1.0    0.05    1.06    1.44   -22.53225   148.70291    29.14196
    94  H   1.0    0.05    1.02    1.43   -21.45934   151.73282    24.34420
    95  H   1.0    0.06    1.02    1.43   -23.35995   152.66377    26.89866
    96  H   1.0    0.04    1.03    1.43   -19.68349   152.11311    29.85472
    97  H   1.0    0.04    1.03    1.43   -17.68447   151.38985    27.31003
    98  N   5.0   -0.12    3.48    2.07   -24.46588   146.87058    23.49917
    99  C   4.0    0.05    4.42    4.41   -26.75573   145.97486    22.29251
   100  C   4.0    0.15    3.53    3.13   -27.34925   143.18893    22.68865
   101  O   6.0   -0.31    1.31    1.80   -29.54048   142.59186    23.19557
   102  C   4.0   -0.04    4.23    4.06   -26.82493   146.45988    19.43071
   103  C   4.0   -0.04    4.13    3.86   -28.35991   148.79840    18.64862
   104  C   4.0    0.24    3.07    3.02   -27.15115   151.45109    19.23762
   105  O   6.0   -0.33    1.24    1.80   -27.23442   152.94844    17.40348
   106  O   6.0   -0.30    1.15    1.80   -26.24049   151.93685    21.36273
   107  H   1.0    0.10    1.07    1.44   -22.99904   147.33914    22.37101
   108  H   1.0    0.07    1.07    1.44   -28.32066   146.98919    23.20810
   109  H   1.0    0.06    1.03    1.43   -24.88085   146.69728    18.77267
   110  H   1.0    0.04    1.04    1.43   -27.62123   144.80145    18.50014
   111  H   1.0    0.04    1.03    1.43   -28.65348   148.74579    16.60697
   112  H   1.0    0.04    1.02    1.43   -30.21897   148.78276    19.55098
   113  N   5.0   -0.15    3.44    2.04   -25.57080   141.42735    22.22537
   114  C   4.0    0.05    4.49    4.52   -26.42933   138.90282    22.77048
   115  C   4.0    0.16    3.43    3.09   -26.93342   138.35461    25.57224
   116  O   6.0   -0.30    1.24    1.80   -27.92279   136.35763    26.13928
   117  C   4.0    0.03    4.13    3.86   -25.06695   136.77642    21.42087
   118  O   6.0   -0.26    2.05    1.83   -26.83232   135.64319    19.74406
   119  H   1.0    0.12    1.08    1.44   -23.69596   141.81148    22.31421
   120  H   1.0    0.07    1.11    1.44   -28.36825   138.82447    22.00184
   121  H   1.0    0.05    1.01    1.43   -23.45565   137.55596    20.37423
   122  H   1.0    0.04    1.01    1.43   -24.38836   135.39825    22.80598
   123  H   1.0    0.11    1.02    1.43   -26.35029   133.90523    19.45945
   124  N   5.0   -0.13    3.46    2.05   -26.49424   140.21682    27.23933
   125  C   4.0    0.04    4.32    4.24   -27.93921   140.44083    29.58308
   126  C   4.0    0.16    3.53    3.13   -30.75730   140.56831    28.98073
   127  O   6.0   -0.30    1.35    1.80   -32.13181   138.69925    29.02296
   128  C   4.0   -0.07    4.14    3.89   -27.24676   142.76501    31.16725
   129  H   1.0    0.12    1.11    1.44   -25.40509   141.71092    26.75674
   130  H   1.0    0.05    1.05    1.44   -27.66583   138.69740    30.68275
   131  H   1.0    0.05    1.00    1.43   -28.64931   143.01319    32.64798
   132  H   1.0    0.04    1.00    1.43   -25.40655   142.51039    32.04409
   133  H   1.0    0.07    1.01    1.43   -27.15104   144.45030    29.99565
   134  N   5.0   -0.14    3.56    2.12   -31.64908   142.87761    28.53028
   135  C   4.0    0.03    4.40    4.38   -34.31749   143.29806    28.91628
   136  C   4.0    0.17    3.57    3.15   -35.76168   141.23550    27.52950
   137  O   6.0   -0.30    1.27    1.80   -37.57308   140.16073    28.49845
   138  C   4.0   -0.08    4.11    3.83   -35.08398   145.90220    28.01484
   139  H   1.0    0.09    1.08    1.44   -30.49128   144.39235    28.54034
   140  H   1.0    0.06    1.05    1.44   -34.74809   143.11582    30.94720
   141  H   1.0    0.04    1.00    1.43   -37.09829   146.17999    28.29337
   142  H   1.0    0.04    1.00    1.43   -34.06531   147.32217    29.09474
   143  H   1.0    0.04    1.00    1.43   -34.63843   146.12241    26.02068
   144  N   5.0   -0.14    3.51    2.08   -34.98508   140.86137    25.14795
   145  C   4.0    0.03    4.33    4.26   -36.17919   139.02692    23.47311
   146  C   4.0    0.17    3.50    3.11   -37.12395   136.71175    24.93614
   147  O   6.0   -0.31    1.28    1.80   -39.33140   135.99376    24.97307
   148  C   4.0   -0.07    4.14    3.88   -34.30660   138.12167    21.47355
   149  H   1.0    0.10    1.08    1.44   -33.35713   141.67237    24.54637
   150  H   1.0    0.04    1.05    1.44   -37.83413   139.91527    22.58605
   151  H   1.0    0.04    1.00    1.43   -35.19751   136.69601    20.29380
   152  H   1.0    0.04    1.00    1.43   -33.73750   139.70292    20.29030
   153  H   1.0    0.06    1.00    1.43   -32.63425   137.31240    22.34296
   154  N   5.0   -0.14    3.55    2.12   -35.22059   135.42823    25.97855
   155  C   4.0    0.04    4.37    4.32   -35.57052   133.14866    27.43620
   156  C   4.0    0.15    3.47    3.10   -37.56620   133.51210    29.49185
   157  O   6.0   -0.32    1.32    1.80   -39.47187   132.19426    29.44386
   158  C   4.0   -0.07    4.16    3.91   -33.03436   132.49247    28.62527
   159  H   1.0    0.11    1.10    1.44   -33.54351   136.29932    26.27308
   160  H   1.0    0.05    1.05    1.44   -36.28279   131.64831    26.19112
   161  H   1.0    0.04    1.00    1.43   -33.21709   130.91220    29.92262
   162  H   1.0    0.05    1.00    1.43   -31.67770   132.00955    27.16129
   163  H   1.0    0.06    1.01    1.43   -32.30811   134.11761    29.64644
   164  N   5.0   -0.14    3.52    2.09   -36.91329   135.27006    31.20375
   165  C   4.0    0.03    4.36    4.31   -38.32836   136.27124    33.32965
   166  C   4.0    0.15    3.44    3.09   -40.95796   137.23904    32.62132
   167  O   6.0   -0.33    1.26    1.80   -42.34075   138.15067    34.22810
   168  C   4.0   -0.03    4.29    4.17   -36.78095   138.39380    34.50951
   169  C   4.0   -0.03    4.12    3.85   -37.72191   139.35375    37.06049
   170  C   4.0    0.24    3.05    3.02   -36.16699   141.74354    38.09502
   171  O   6.0   -0.30    1.16    1.80   -34.81561   142.93788    36.55971
   172  O   6.0   -0.31    1.15    1.80   -36.42348   142.28255    40.38644
   173  H   1.0    0.10    1.10    1.44   -35.37086   136.31711    30.77016
   174  H   1.0    0.04    1.05    1.44   -38.58458   134.75469    34.73099
   175  H   1.0    0.05    1.03    1.43   -34.83374   137.73328    34.73774
   176  H   1.0    0.07    1.03    1.43   -36.73607   139.97304    33.17795
   177  H   1.0    0.06    1.03    1.43   -39.68196   139.95949    36.93637
   178  H   1.0    0.04    1.02    1.43   -37.57894   137.87492    38.48973
   179  N   5.0   -0.13    3.60    2.15   -41.70890   136.76232    30.24974
   180  C   4.0    0.04    4.57    4.63   -44.24025   137.28352    29.43770
   181  C   4.0    0.14    3.58    3.15   -45.38042   135.22415    27.79530
   182  O   6.0   -0.31    1.29    1.80   -47.67503   134.88486    27.83185
   183  C   4.0   -0.02    4.29    4.18   -44.36166   139.89133    28.26730
   184  C   4.0   -0.08    4.16    3.93   -46.82591   140.14965    26.81020
   185  C   4.0   -0.07    4.14    3.88   -44.03631   141.83380    30.37560
   186  H   1.0    0.12    1.12    1.45   -40.39637   136.63109    28.87777
   187  H   1.0    0.05    1.08    1.44   -45.42357   137.31696    31.14516
   188  H   1.0    0.05    1.06    1.44   -42.77455   140.06770    26.94842
   189  H   1.0    0.03    1.00    1.43   -47.07530   142.08466    26.16055
   190  H   1.0    0.05    1.01    1.43   -46.81475   138.91956    25.16556
   191  H   1.0    0.04    1.00    1.43   -48.42462   139.63452    27.99017
   192  H   1.0    0.03    1.00    1.43   -44.32415   143.72940    29.62425
   193  H   1.0    0.04    1.00    1.43   -45.37983   141.52683    31.89446
   194  H   1.0    0.06    1.01    1.43   -42.13872   141.75787    31.15274
   195  N   5.0   -0.14    3.52    2.09   -43.85729   133.72070    26.46572
   196  C   4.0    0.04    4.46    4.48   -44.88122   131.21683    26.00825
   197  C   4.0    0.16    3.46    3.10   -45.09118   129.79823    28.53004
   198  O   6.0   -0.29    1.23    1.80   -46.23896   127.80149    28.66083
   199  C   4.0   -0.04    4.16    3.93   -43.61528   129.61800    23.91886
   200  C   4.0   -0.03    4.13    3.86   -45.58769   128.59787    22.02568
   201  C   4.0    0.24    3.05    3.02   -44.61791   127.24099    19.53806
   202  O   6.0   -0.31    1.15    1.80   -42.98940   125.55198    19.77801
   203  O   6.0   -0.32    1.16    1.80   -45.65277   127.91979    17.52516
   204  H   1.0    0.12    1.10    1.44   -41.97547   134.00791    26.35330
   205  H   1.0    0.06    1.08    1.44   -46.85848   131.51173    25.44325
   206  H   1.0    0.05    1.02    1.43   -42.25165   130.79699    22.91714
   207  H   1.0    0.06    1.03    1.43   -42.59241   128.04016    24.75848
   208  H   1.0    0.05    1.02    1.43   -46.78668   127.21820    22.98686
   209  H   1.0    0.05    1.03    1.43   -46.78876   130.13987    21.36200
   210  N   5.0   -0.13    3.60    2.15   -44.18823   131.00361    30.57013
   211  C   4.0    0.05    4.46    4.48   -44.60147   129.92384    33.06497
   212  C   4.0    0.16    3.54    3.13   -47.33721   130.42601    33.69471
   213  O   6.0   -0.27    1.24    1.80   -48.86501   128.76564    34.16687
   214  C   4.0   -0.04    4.27    4.14   -43.00744   131.15414    35.17350
   215  C   4.0   -0.03    4.14    3.88   -40.73534   129.54717    35.93496
   216  C   4.0    0.24    3.07    3.02   -41.47850   127.02226    37.34315
   217  O   6.0   -0.31    1.16    1.80   -40.31030   126.60167    39.35035
   218  O   6.0   -0.30    1.17    1.80   -43.11424   125.63686    36.35673
   219  H   1.0    0.11    1.14    1.45   -42.65501   132.12700    30.35049
   220  H   1.0    0.08    1.07    1.44   -44.27087   127.87900    33.06125
   221  H   1.0    0.05    1.03    1.43   -42.37284   133.01758    34.54894
   222  H   1.0    0.05    1.04    1.43   -44.18731   131.41290    36.84906
   223  H   1.0    0.05    1.02    1.43   -39.65671   129.03064    34.24750
   224  H   1.0    0.04    1.02    1.43   -39.49573   130.59746    37.20704
   225  N   5.0   -0.14    3.54    2.10   -47.88735   132.90591    33.69423
   226  C   4.0    0.04    4.38    4.35   -50.26753   133.75969    34.69354
   227  C   4.0    0.09    3.31    3.06   -52.32395   132.54680    33.12079
   228  O   6.0   -0.30    1.11    1.80   -54.04091   131.28997    34.04346
   229  C   4.0   -0.06    4.28    4.16   -50.54161   136.60967    34.66146
   230  C   4.0   -0.05    4.22    4.04   -52.21104   137.36218    36.86270
   231  C   4.0   -0.02    4.20    4.00   -51.97383   140.16558    37.45040
   232  N   5.0   -0.15    3.40    2.02   -52.43746   140.63346    40.12459
   233  C   4.0    0.08    3.33    3.06   -54.28772   141.98270    41.16420
   234  N   5.0   -0.21    3.25    1.97   -56.17025   142.88593    39.77187
   235  N   5.0   -0.21    3.23    1.96   -54.28346   142.36415    43.66426
   236  H   1.0    0.08    1.08    1.44   -46.45192   134.15681    33.60089
   237  H   1.0    0.05    1.06    1.44   -50.45758   133.01522    36.62459
   238  H   1.0    0.04    1.03    1.43   -48.67072   137.45604    34.88480
   239  H   1.0    0.04    1.03    1.43   -51.34687   137.24548    32.87470
   240  H   1.0    0.04    1.02    1.43   -54.16947   136.84350    36.49532
   241  H   1.0    0.04    1.04    1.43   -51.60501   136.32063    38.53907
   242  H   1.0    0.03    1.03    1.43   -50.04104   140.78522    37.05531
   243  H   1.0    0.03    1.03    1.43   -53.22539   141.29587    36.27420
   244  H   1.0    0.07    1.07    1.44   -51.12520   139.88229    41.29165
   245  H   1.0    0.06    1.04    1.43   -56.38080   142.31081    37.96822
   246  H   1.0    0.06    1.03    1.43   -57.59829   143.89206    40.52490
   247  H   1.0    0.06    1.03    1.43   -52.76466   141.90397    44.71619
   248  H   1.0    0.06    1.03    1.43   -55.53732   143.56841    44.44269
   249  H   1.0    0.08    1.08    1.44   -23.54806   156.38673    10.98871
   250  H   1.0    0.03    1.04    1.44   -24.13144   152.56507     5.54953
   251  H   1.0    0.09    1.08    1.44   -13.93426   151.64797    22.26986
   252  H   1.0    0.06    1.05    1.44   -52.32247   132.75291    31.24234

  Z AO/shell   Hii/eV     exponent
  1     Wed Apr 25 08:07:45 CEST 2018   EN: 2.200 GM2: 0.406  GM3: 0.0800  RAES: 1.40
     1s    -10.707211    1.230000
  6     Wed Apr 25 08:07:45 CEST 2018   EN: 2.550 GM2: 0.538  GM3: 0.1500  RAES: 3.00
     2s    -13.970922    2.096432
     2p    -10.063292    1.800000
  7     Wed Apr 25 08:07:45 CEST 2018   EN: 3.040 GM2: 0.461  GM3:-0.0640  RAES: 1.90
     2s    -16.686243    2.339881
     2p    -12.523956    2.014332
  8     Wed Apr 25 08:07:45 CEST 2018   EN: 3.440 GM2: 0.452  GM3:-0.0517  RAES: 1.80
     2s    -20.229985    2.439742
     2p    -15.503117    2.137023
 no old-style atom pair restraining (fixing) potential

molecular fragmentation (1/2 indicates fragments):
111111111111111111122222222222222222222222222222222222222222222222222222
222222222222222222222222222222222222222222222222222222222222222222222222
222222222222222222222222222222222222222222222222222222222222222222222222
222222222222222222222222222222221122
# atoms in fragment 1/2:    21   231
 fragment masses (1/2) :      115.17     1712.77
CMA distance (Bohr)    :  22.596
constraining FC (au)   :  0.0500
           ------------------------------------------------- 
          |        Self-Consistent Charge Iterations        |
           ------------------------------------------------- 

 Ncao       : 636
 Nao        : 636
 Nshell     : 380
 Nel        : 722
 T(el)      :   500.0
 intcut     :    35.0
 scfconv/Eh :  0.100E-06
   qconv/e  :  0.100E-04
 intneglect :  0.100E-08
 broydamp   :      0.400
 iter      E             dE          RMSdq      gap      omega  full diag
   1   -417.2868498 -0.417287E+03  0.497E+00    3.38       0.0  T
   2   -418.5335411 -0.124669E+01  0.225E+00    2.28       1.0  T
   3   -418.6172254 -0.836843E-01  0.132E+00    2.54       1.0  T
   4   -418.6840391 -0.668137E-01  0.269E-01    1.68       1.0  T
   5   -418.6879218 -0.388270E-02  0.140E-01    1.82       1.0  T
   6   -418.6883613 -0.439495E-03  0.516E-02    1.81       1.0  T
   7   -418.6885252 -0.163862E-03  0.208E-02    1.84       1.0  T
   8   -418.6885365 -0.112807E-04  0.880E-03    1.85       1.0  T
   9   -418.6885407 -0.420502E-05  0.354E-03    1.85       1.8  T
  10   -418.6885410 -0.351652E-06  0.134E-03    1.85       4.7  T
  11   -418.6885411 -0.103112E-06  0.549E-04    1.85      11.5  T
  12   -418.6885411 -0.118711E-07  0.237E-04    1.85      26.6  T
  13   -418.6885411 -0.181677E-08  0.103E-04    1.85      61.0  T
  14   -418.6885411 -0.454918E-09  0.385E-05    1.85     163.5  T
  15   -418.6885411 -0.707701E-10  0.162E-05    1.85     388.2  T
speedup  1.57
cpu  time for SCC    4.23 s
wall time for SCC    2.69 s

   *** convergence criteria satisfied after 15 iterations ***

          eigenvalues
 #    :         349        350        351        352        353        354        355        356
 occ. :        2.000      2.000      2.000      2.000      2.000      2.000      2.000      2.000
 eps  :       -10.508    -10.477    -10.355    -10.254    -10.216    -10.210    -10.102     -9.984
 #    :         357        358        359        360        361        362        363        364
 occ. :        2.000      2.000      2.000      2.000      2.000      0.000      0.000      0.000
 eps  :        -9.957     -9.842     -9.780     -9.714     -9.541     -7.690     -7.689     -6.977
 #    :         365        366        367        368        369        370        371        372
 occ. :        0.000      0.000      0.000      0.000      0.000      0.000      0.000      0.000
 eps  :        -6.862     -6.781     -6.750     -6.575     -6.560     -6.558     -6.497     -6.436


   #   Z            q   n(s)   n(p)   n(d)      C6AA      α(0)
   1   7 N     -0.383  1.306  4.078  0.000    29.916     8.123
   2   6 C      0.035  1.057  2.908  0.000    20.000     6.370
   3   6 C      0.204  1.090  2.706  0.000    23.660     7.966
   4   8 O     -0.368  1.753  4.615  0.000    21.055     6.152
   5   6 C     -0.075  1.060  3.015  0.000    21.924     6.665
   6   6 C     -0.022  1.067  2.955  0.000    20.940     6.509
   7   6 C     -0.111  1.043  3.068  0.000    22.681     6.792
   8   6 C     -0.117  1.044  3.073  0.000    22.806     6.811
   9   1 H      0.159  0.841  0.000  0.000     1.342     1.815
  10   1 H      0.058  0.942  0.000  0.000     2.218     2.329
  11   1 H      0.046  0.954  0.000  0.000     2.373     2.409
  12   1 H      0.047  0.953  0.000  0.000     2.364     2.404
  13   1 H      0.046  0.954  0.000  0.000     2.372     2.409
  14   1 H      0.050  0.950  0.000  0.000     2.319     2.381
  15   1 H      0.031  0.969  0.000  0.000     2.568     2.506
  16   1 H      0.029  0.971  0.000  0.000     2.602     2.523
  17   1 H      0.055  0.945  0.000  0.000     2.261     2.352
  18   1 H      0.037  0.963  0.000  0.000     2.482     2.464
  19   1 H      0.037  0.963  0.000  0.000     2.496     2.471
  20   7 N     -0.401  1.309  4.092  0.000    30.392     8.188
  21   6 C      0.040  1.043  2.917  0.000    19.909     6.354
  22   6 C      0.267  1.042  2.691  0.000    22.498     7.768
  23   8 O     -0.507  1.752  4.755  0.000    23.946     6.561
  24   6 C     -0.074  1.057  3.017  0.000    21.907     6.662
  25   6 C     -0.071  1.060  3.011  0.000    21.874     6.660
  26   6 C     -0.007  1.055  2.952  0.000    20.797     6.510
  27   7 N     -0.168  1.251  3.917  0.000    24.628     7.371
  28   6 C      0.241  1.019  2.740  0.000    22.956     7.844
  29   7 N     -0.235  1.250  3.985  0.000    26.150     7.595
  30   7 N     -0.257  1.250  4.007  0.000    26.683     7.672
  31   1 H      0.184  0.816  0.000  0.000     1.190     1.709
  32   1 H      0.027  0.973  0.000  0.000     2.627     2.535
  33   1 H      0.065  0.935  0.000  0.000     2.140     2.288
  34   1 H      0.051  0.949  0.000  0.000     2.304     2.374
  35   1 H      0.031  0.969  0.000  0.000     2.577     2.511
  36   1 H      0.069  0.931  0.000  0.000     2.092     2.262
  37   1 H      0.057  0.943  0.000  0.000     2.239     2.340
  38   1 H      0.068  0.932  0.000  0.000     2.108     2.270
  39   1 H      0.234  0.766  0.000  0.000     0.948     1.525
  40   1 H      0.235  0.765  0.000  0.000     0.943     1.521
  41   1 H      0.237  0.763  0.000  0.000     0.934     1.514
  42   1 H      0.262  0.738  0.000  0.000     0.837     1.433
  43   1 H      0.241  0.759  0.000  0.000     0.919     1.501
  44   7 N     -0.174  1.246  3.928  0.000    24.776     7.393
  45   6 C      0.007  1.070  2.923  0.000    20.464     6.443
  46   6 C      0.264  1.052  2.684  0.000    22.554     7.777
  47   8 O     -0.483  1.750  4.733  0.000    23.404     6.486
  48   6 C     -0.082  1.056  3.026  0.000    22.063     6.688
  49   6 C     -0.088  1.057  3.030  0.000    22.180     6.706
  50   6 C     -0.024  1.057  2.968  0.000    21.106     6.559
  51   7 N     -0.140  1.215  3.926  0.000    24.043     7.283
  52   6 C      0.233  1.025  2.743  0.000    23.118     7.872
  53   7 N     -0.247  1.260  3.987  0.000    26.434     7.636
  54   7 N     -0.259  1.249  4.009  0.000    26.714     7.676
  55   1 H      0.219  0.781  0.000  0.000     1.016     1.579
  56   1 H      0.104  0.896  0.000  0.000     1.747     2.067
  57   1 H      0.063  0.937  0.000  0.000     2.163     2.300
  58   1 H      0.071  0.929  0.000  0.000     2.076     2.253
  59   1 H      0.085  0.915  0.000  0.000     1.925     2.170
  60   1 H      0.094  0.906  0.000  0.000     1.839     2.121
  61   1 H      0.078  0.922  0.000  0.000     1.997     2.210
  62   1 H      0.102  0.898  0.000  0.000     1.763     2.076
  63   1 H      0.215  0.785  0.000  0.000     1.033     1.592
  64   1 H      0.250  0.750  0.000  0.000     0.884     1.472
  65   1 H      0.257  0.743  0.000  0.000     0.855     1.449
  66   1 H      0.239  0.761  0.000  0.000     0.925     1.507
  67   1 H      0.259  0.741  0.000  0.000     0.849     1.444
  68   7 N     -0.178  1.245  3.932  0.000    24.850     7.404
  69   6 C      0.021  1.067  2.912  0.000    20.212     6.400
  70   6 C      0.272  1.046  2.682  0.000    22.411     7.752
  71   8 O     -0.483  1.743  4.740  0.000    23.413     6.487
  72   6 C     -0.056  1.052  3.004  0.000    21.585     6.615
  73   6 C     -0.101  1.077  3.024  0.000    22.434     6.744
  74   6 C      0.369  1.028  2.603  0.000    20.742     7.453
  75   8 O     -0.649  1.782  4.867  0.000    27.356     7.012
  76   8 O     -0.627  1.766  4.861  0.000    26.799     6.941
  77   1 H      0.212  0.788  0.000  0.000     1.048     1.603
  78   1 H      0.085  0.915  0.000  0.000     1.925     2.170
  79   1 H      0.042  0.958  0.000  0.000     2.423     2.434
  80   1 H      0.036  0.964  0.000  0.000     2.500     2.473
  81   1 H      0.019  0.981  0.000  0.000     2.744     2.591
  82   1 H      0.039  0.961  0.000  0.000     2.467     2.456
  83   7 N     -0.184  1.251  3.932  0.000    24.981     7.423
  84   6 C      0.029  1.068  2.902  0.000    20.092     6.384
  85   6 C      0.296  1.037  2.667  0.000    21.977     7.677
  86   8 O     -0.512  1.744  4.768  0.000    24.062     6.577
  87   6 C     -0.045  1.051  2.994  0.000    21.389     6.585
  88   6 C     -0.092  1.074  3.018  0.000    22.252     6.717
  89   6 C      0.371  1.024  2.605  0.000    20.705     7.446
  90   8 O     -0.621  1.768  4.853  0.000    26.644     6.920
  91   8 O     -0.641  1.775  4.866  0.000    27.152     6.986
  92   1 H      0.205  0.795  0.000  0.000     1.083     1.630
  93   1 H      0.052  0.948  0.000  0.000     2.291     2.367
  94   1 H      0.046  0.954  0.000  0.000     2.366     2.406
  95   1 H      0.048  0.952  0.000  0.000     2.345     2.395
  96   1 H      0.016  0.984  0.000  0.000     2.797     2.615
  97   1 H      0.018  0.982  0.000  0.000     2.763     2.599
  98   7 N     -0.166  1.245  3.921  0.000    24.595     7.366
  99   6 C      0.036  1.054  2.910  0.000    19.963     6.361
 100   6 C      0.272  1.050  2.678  0.000    22.404     7.754
 101   8 O     -0.505  1.745  4.761  0.000    23.905     6.555
 102   6 C     -0.060  1.057  3.003  0.000    21.642     6.623
 103   6 C     -0.099  1.072  3.027  0.000    22.391     6.738
 104   6 C      0.363  1.029  2.608  0.000    20.845     7.471
 105   8 O     -0.608  1.751  4.857  0.000    26.316     6.878
 106   8 O     -0.643  1.786  4.857  0.000    27.194     6.992
 107   1 H      0.199  0.801  0.000  0.000     1.109     1.649
 108   1 H      0.065  0.935  0.000  0.000     2.138     2.287
 109   1 H      0.064  0.936  0.000  0.000     2.155     2.296
 110   1 H      0.054  0.946  0.000  0.000     2.271     2.357
 111   1 H      0.050  0.950  0.000  0.000     2.320     2.382
 112   1 H      0.017  0.983  0.000  0.000     2.783     2.609
 113   7 N     -0.180  1.260  3.919  0.000    24.891     7.410
 114   6 C      0.014  1.059  2.927  0.000    20.320     6.414
 115   6 C      0.272  1.045  2.683  0.000    22.400     7.750
 116   8 O     -0.479  1.741  4.738  0.000    23.320     6.475
 117   6 C      0.070  1.038  2.892  0.000    19.627     6.348
 118   8 O     -0.484  1.730  4.754  0.000    22.547     6.410
 119   1 H      0.225  0.775  0.000  0.000     0.985     1.555
 120   1 H      0.112  0.888  0.000  0.000     1.683     2.029
 121   1 H      0.074  0.926  0.000  0.000     2.042     2.235
 122   1 H      0.043  0.957  0.000  0.000     2.412     2.429
 123   1 H      0.358  0.642  0.000  0.000     0.570     1.186
 124   7 N     -0.200  1.247  3.953  0.000    25.356     7.479
 125   6 C      0.031  1.059  2.910  0.000    20.066     6.379
 126   6 C      0.280  1.045  2.675  0.000    22.267     7.728
 127   8 O     -0.491  1.742  4.750  0.000    23.595     6.513
 128   6 C     -0.133  1.044  3.089  0.000    23.120     6.856
 129   1 H      0.217  0.783  0.000  0.000     1.024     1.585
 130   1 H      0.069  0.931  0.000  0.000     2.100     2.266
 131   1 H      0.057  0.943  0.000  0.000     2.230     2.335
 132   1 H      0.069  0.931  0.000  0.000     2.101     2.266
 133   1 H      0.074  0.926  0.000  0.000     2.042     2.235
 134   7 N     -0.177  1.252  3.925  0.000    24.837     7.402
 135   6 C      0.035  1.054  2.911  0.000    19.977     6.362
 136   6 C      0.291  1.037  2.672  0.000    22.062     7.692
 137   8 O     -0.510  1.750  4.760  0.000    24.008     6.569
 138   6 C     -0.132  1.042  3.090  0.000    23.086     6.850
 139   1 H      0.217  0.783  0.000  0.000     1.022     1.584
 140   1 H      0.052  0.948  0.000  0.000     2.299     2.371
 141   1 H      0.077  0.923  0.000  0.000     2.006     2.215
 142   1 H      0.073  0.927  0.000  0.000     2.056     2.242
 143   1 H      0.073  0.927  0.000  0.000     2.055     2.242
 144   7 N     -0.184  1.246  3.938  0.000    24.990     7.425
 145   6 C      0.022  1.062  2.916  0.000    20.207     6.401
 146   6 C      0.286  1.041  2.673  0.000    22.147     7.706
 147   8 O     -0.500  1.745  4.755  0.000    23.792     6.540
 148   6 C     -0.135  1.045  3.090  0.000    23.148     6.859
 149   1 H      0.225  0.775  0.000  0.000     0.989     1.558
 150   1 H      0.078  0.922  0.000  0.000     1.996     2.210
 151   1 H      0.078  0.922  0.000  0.000     1.999     2.211
 152   1 H      0.087  0.913  0.000  0.000     1.905     2.159
 153   1 H      0.062  0.938  0.000  0.000     2.176     2.307
 154   7 N     -0.180  1.253  3.928  0.000    24.903     7.412
 155   6 C      0.025  1.058  2.917  0.000    20.157     6.393
 156   6 C      0.277  1.042  2.681  0.000    22.313     7.735
 157   8 O     -0.490  1.745  4.745  0.000    23.568     6.509
 158   6 C     -0.138  1.045  3.093  0.000    23.199     6.866
 159   1 H      0.226  0.774  0.000  0.000     0.985     1.554
 160   1 H      0.074  0.926  0.000  0.000     2.038     2.233
 161   1 H      0.064  0.936  0.000  0.000     2.155     2.295
 162   1 H      0.093  0.907  0.000  0.000     1.850     2.127
 163   1 H      0.069  0.931  0.000  0.000     2.097     2.265
 164   7 N     -0.188  1.254  3.934  0.000    25.084     7.438
 165   6 C      0.032  1.060  2.908  0.000    20.055     6.378
 166   6 C      0.280  1.040  2.679  0.000    22.258     7.726
 167   8 O     -0.473  1.731  4.743  0.000    23.200     6.458
 168   6 C     -0.037  1.046  2.991  0.000    21.234     6.560
 169   6 C     -0.100  1.069  3.031  0.000    22.421     6.744
 170   6 C      0.365  1.035  2.600  0.000    20.809     7.465
 171   8 O     -0.644  1.774  4.870  0.000    27.222     6.995
 172   8 O     -0.634  1.770  4.865  0.000    26.981     6.964
 173   1 H      0.216  0.784  0.000  0.000     1.029     1.589
 174   1 H      0.055  0.945  0.000  0.000     2.263     2.352
 175   1 H      0.025  0.975  0.000  0.000     2.663     2.552
 176   1 H      0.039  0.961  0.000  0.000     2.463     2.454
 177   1 H      0.050  0.950  0.000  0.000     2.315     2.379
 178   1 H      0.017  0.983  0.000  0.000     2.784     2.609
 179   7 N     -0.191  1.250  3.941  0.000    25.148     7.448
 180   6 C      0.025  1.058  2.917  0.000    20.142     6.388
 181   6 C      0.273  1.044  2.683  0.000    22.394     7.751
 182   8 O     -0.482  1.737  4.745  0.000    23.381     6.483
 183   6 C     -0.010  1.055  2.954  0.000    20.710     6.472
 184   6 C     -0.123  1.042  3.081  0.000    22.900     6.823
 185   6 C     -0.112  1.040  3.072  0.000    22.694     6.792
 186   1 H      0.200  0.800  0.000  0.000     1.104     1.646
 187   1 H      0.078  0.922  0.000  0.000     2.002     2.213
 188   1 H      0.032  0.968  0.000  0.000     2.560     2.502
 189   1 H      0.069  0.931  0.000  0.000     2.095     2.263
 190   1 H      0.035  0.965  0.000  0.000     2.517     2.481
 191   1 H      0.066  0.934  0.000  0.000     2.125     2.280
 192   1 H      0.060  0.940  0.000  0.000     2.198     2.319
 193   1 H      0.060  0.940  0.000  0.000     2.195     2.317
 194   1 H      0.024  0.976  0.000  0.000     2.674     2.557
 195   7 N     -0.196  1.256  3.941  0.000    25.264     7.465
 196   6 C      0.025  1.067  2.908  0.000    20.138     6.386
 197   6 C      0.283  1.046  2.671  0.000    22.210     7.718
 198   8 O     -0.506  1.752  4.753  0.000    23.916     6.557
 199   6 C     -0.044  1.050  2.994  0.000    21.365     6.582
 200   6 C     -0.095  1.075  3.020  0.000    22.327     6.729
 201   6 C      0.370  1.029  2.601  0.000    20.733     7.451
 202   8 O     -0.642  1.772  4.870  0.000    27.177     6.989
 203   8 O     -0.634  1.767  4.867  0.000    26.958     6.961
 204   1 H      0.214  0.786  0.000  0.000     1.039     1.597
 205   1 H      0.088  0.912  0.000  0.000     1.899     2.155
 206   1 H      0.042  0.958  0.000  0.000     2.422     2.434
 207   1 H      0.028  0.972  0.000  0.000     2.615     2.529
 208   1 H      0.018  0.982  0.000  0.000     2.756     2.596
 209   1 H      0.025  0.975  0.000  0.000     2.657     2.549
 210   7 N     -0.227  1.274  3.953  0.000    25.970     7.569
 211   6 C      0.036  1.055  2.910  0.000    19.970     6.362
 212   6 C      0.286  1.040  2.675  0.000    22.162     7.710
 213   8 O     -0.479  1.748  4.731  0.000    23.325     6.475
 214   6 C     -0.047  1.054  2.993  0.000    21.408     6.587
 215   6 C     -0.091  1.068  3.023  0.000    22.237     6.715
 216   6 C      0.369  1.027  2.604  0.000    20.739     7.452
 217   8 O     -0.635  1.767  4.869  0.000    27.002     6.967
 218   8 O     -0.636  1.778  4.859  0.000    27.028     6.970
 219   1 H      0.227  0.773  0.000  0.000     0.977     1.549
 220   1 H      0.066  0.934  0.000  0.000     2.127     2.281
 221   1 H      0.029  0.971  0.000  0.000     2.607     2.525
 222   1 H      0.037  0.963  0.000  0.000     2.495     2.470
 223   1 H      0.010  0.990  0.000  0.000     2.890     2.659
 224   1 H      0.021  0.979  0.000  0.000     2.718     2.578
 225   7 N     -0.185  1.252  3.933  0.000    25.015     7.428
 226   6 C      0.032  1.055  2.912  0.000    20.025     6.370
 227   6 C      0.214  1.081  2.705  0.000    23.482     7.937
 228   8 O     -0.355  1.747  4.609  0.000    20.810     6.116
 229   6 C     -0.078  1.054  3.024  0.000    21.982     6.674
 230   6 C     -0.086  1.054  3.032  0.000    22.123     6.695
 231   6 C     -0.027  1.054  2.973  0.000    21.138     6.560
 232   7 N     -0.140  1.208  3.932  0.000    24.030     7.281
 233   6 C      0.234  1.018  2.747  0.000    23.088     7.867
 234   7 N     -0.243  1.225  4.018  0.000    26.336     7.622
 235   7 N     -0.259  1.240  4.019  0.000    26.726     7.678
 236   1 H      0.192  0.808  0.000  0.000     1.147     1.678
 237   1 H      0.082  0.918  0.000  0.000     1.963     2.191
 238   1 H      0.066  0.934  0.000  0.000     2.136     2.285
 239   1 H      0.079  0.921  0.000  0.000     1.986     2.204
 240   1 H      0.083  0.917  0.000  0.000     1.943     2.180
 241   1 H      0.070  0.930  0.000  0.000     2.081     2.256
 242   1 H      0.081  0.919  0.000  0.000     1.967     2.193
 243   1 H      0.102  0.898  0.000  0.000     1.771     2.081
 244   1 H      0.226  0.774  0.000  0.000     0.983     1.553
 245   1 H      0.245  0.755  0.000  0.000     0.904     1.489
 246   1 H      0.264  0.736  0.000  0.000     0.830     1.427
 247   1 H      0.243  0.757  0.000  0.000     0.911     1.495
 248   1 H      0.263  0.737  0.000  0.000     0.834     1.430
 249   1 H      0.181  0.819  0.000  0.000     1.208     1.722
 250   1 H      0.072  0.928  0.000  0.000     2.064     2.246
 251   1 H      0.174  0.826  0.000  0.000     1.251     1.752
 252   1 H      0.069  0.931  0.000  0.000     2.099     2.265

 Mol. C6AA /au·bohr⁶  :     611062.435356
 Mol. C8AA /au·bohr⁸  :   13477246.351289
 Mol. α(0) /au        :       1160.570747

 
molecular dipole:
                 x           y           z       tot (Debye)
 q only:      102.534    -397.050    -106.200
   full:      105.184    -396.301    -105.177    1075.935
molecular quadrupole (traceless):
                xx          xy          yy          xz          yz          zz
 q only:    24548.536   19573.343  -49402.564    4415.339  -21330.104   24854.028
  q+dip:    24215.598   20087.697  -49106.554    4517.181  -21071.690   24890.956
   full:    24213.843   20083.566  -49103.432    4517.489  -21071.304   24889.589
speedup  1.62
cpu  time for grad    4.91 s
wall time for grad    3.03 s

SCC energy    :    -418.6959491
rep           :       4.5851896
ES            :       2.3190965
AES           :      -0.0753261
AXC           :       0.1020592
disp          :      -0.3185436
XB            :       0.0000000
fix           :       0.0000000
Gborn         :       0.0000000
Gsasa         :       0.0000000
Ghb           :       0.0000000
Gshift        :       0.0000000
Gsolv         :      -0.9505447     -596.48
Etot ala COSMO:    -418.6959491
grad norm     :       0.3316481
total E       :    -414.0898189
atomizationE  :      72.7299740    45638.75
(atE without considering molecular charge,
 total energy contains solvation terms)
H-L gap (eV)  :          1.8520

------------------------------------------------------------------------
 * finished run on 2019/05/11 at 23:19:00.194     
------------------------------------------------------------------------
 total:
 * wall-time:     0 d,  0 h,  0 min,  3.450 sec
 *  cpu-time:     0 d,  0 h,  0 min,  5.419 sec
 * ratio c/w:     1.571 speedup
 SCF:
 * wall-time:     0 d,  0 h,  0 min,  3.225 sec
 *  cpu-time:     0 d,  0 h,  0 min,  5.224 sec
 * ratio c/w:     1.620 speedup

