      -----------------------------------------------------------      
     |                   =====================                   |     
     |                           x T B                           |     
     |                   =====================                   |     
     |                         S. Grimme                         |     
     |          Mulliken Center for Theoretical Chemistry        |     
     |                    University of Bonn                     |     
     |                 Version 6.0.1 (SAW181210)                 |     
      -----------------------------------------------------------      

   This program is distributed in the hope that it will be useful,
   but WITHOUT ANY WARRANTY; without even the implied warranty of
   MERCHANTABILITY or FITNESS FOR A PARTICULAR PURPOSE.
   
   FOR NON-COMMERCIAL, ACADEMIA USE ONLY.
   
   Cite this work as:
   S. Grimme, C. Bannwarth, P. Shushkov, J. Comput. Theory Chem., 2017,
   13, 1989-2009.
   C. Bannwarth, S. Ehlert and S. Grimme., ChemRxiv, 2018, preprint.
   http://doi.org/10.26434/chemrxiv.7246238.v1
   
   for sTDA-xTB:
   S. Grimme and C. Bannwarth, J. Chem. Phys., 2016, 145, 054103.
   
   in the mass-spec context:
   V. Asgeirsson, C. Bauer and S. Grimme, Chem. Sci., 2017, 8, 4879.
   
   if GBSA is used:
   P. Shushkov, F. März and S. Grimme, unpublished.
   
   for ANC optimizer:
   S. Grimme, unpublished.
   Rational Function algorithm used in ANCopt:
   F. Eckert, P. Pulay, H.-J. Werner, J. Comput. Chem., 1997, 18, 1473.
   
   with help from (in alphabetical order)
   C. Bannwarth, F. Bohle, G. Brandenburg, E. Caldeweyher, M. Checinski,
   S. Dohm, S. Ehlert, S. Ehrlich, F. März, H. Neugebauer, J. Pisarek,
   P. Pracht, P. Shushkov, and S. Spicher.
   
 * started run on 2019/02/18 at 08:32:48.039     
========================================================================
 # omp threads = 12
========================================================================
number of atoms            : 611
number of electrons        : 1578
charge                     : 2
spin                       : .0
first test random number   : .0871

########################################################################
# WARNING! Please study the warnings concerning your input carefully
#  - Process number higher than OMP_NUM_THREADS, I hope you know what you are doing.
########################################################################

           ------------------------------------------------- 
          |                 G F N 2 - x T B                 |
          | Geometry, Frequencies, Noncovalent interactions |
          |            JCTC 2018 parametrisation            |
           ------------------------------------------------- 
 
      method parameters     
 k(s)        :  1.8500
 k(p)        :  2.2300
 k(d)        :  2.2300
 k(f)        :  2.0000
 kEN (H0ij)  : -2.0000
 D4 a1       :  0.5200
 D4 a2       :  5.0000
 D4 s6       :  1.0000
 D4 s8       :  2.7000
 D4 s9       :  5.0000
 alphaj      :  2.0000

 Solvent             : h2o
 Using internal parameter file: .param_gbsa2_h2o
 Gsolv ref. state (COSMO-RS): gsolv [1 M gas/solution]
 temperature (mdtemp)       :    298.150000000000     
 dielectric constant        :    80.2000000000000     
 rho                        :    1.00000000000000     
 mass                       :    18.0000000000000     
 surface tension            :    15.5689454083859     
 probe radius               :   0.975313790000000     
 vdW radii scaling          :    1.00000000000000     
 Gshift (Eh)                :   1.857443126794793E-003
 c1                         :    1.55243817000000     
 soset                      :   0.130326360000000     
 HB correction              :  T

            Z     q(EN)     CN     RAES       Cart. coordinates
     1  N   5.0   -0.21    3.24    1.96    57.19512    28.05923     1.25396
     2  C   4.0    0.02    4.33    4.26    57.48664    29.83233     3.31782
     3  C   4.0    0.15    3.45    3.10    55.45427    29.35076     5.31989
     4  O   6.0   -0.32    1.26    1.80    55.94439    29.20095     7.57856
     5  C   4.0   -0.04    4.37    4.33    57.27142    32.53242     2.32787
     6  C   4.0   -0.04    4.07    3.74    58.19790    34.41434     4.29164
     7  S   6.0   -0.03    2.56    3.10    57.07336    37.58772     3.63654
     8  C   4.0   -0.06    3.89    3.45    58.20194    38.02822     0.44987
     9  H   1.0    0.09    1.03    1.43    57.34963    28.74143    -0.52684
    10  H   1.0    0.04    1.05    1.44    59.34927    29.57397     4.20702
    11  H   1.0    0.04    1.03    1.43    58.42520    32.67890     0.62086
    12  H   1.0    0.05    1.04    1.43    55.30538    32.90883     1.81992
    13  H   1.0    0.05    1.08    1.44    57.46689    33.94760     6.15843
    14  H   1.0    0.05    1.06    1.44    60.26117    34.44480     4.35619
    15  H   1.0    0.06    1.04    1.44    58.17645    40.03778     0.04760
    16  H   1.0    0.05    1.04    1.43    60.11743    37.29687     0.32608
    17  H   1.0    0.05    1.04    1.43    56.97999    37.03948    -0.87374
    18  N   5.0   -0.15    3.52    2.09    53.11080    29.19010     4.41700
    19  C   4.0    0.03    4.44    4.45    50.99020    28.82823     6.11511
    20  C   4.0    0.15    3.49    3.11    51.31433    26.35814     7.57338
    21  O   6.0   -0.33    1.29    1.80    50.86769    26.21272     9.84182
    22  C   4.0   -0.05    4.35    4.29    48.49901    28.84562     4.65201
    23  C   4.0   -0.02    4.18    3.96    46.16584    28.95739     6.37379
    24  C   4.0   -0.07    4.11    3.82    45.95489    31.51506     7.69100
    25  C   4.0   -0.08    4.10    3.81    43.78032    28.48160     4.82010
    26  H   1.0    0.08    1.07    1.44    52.76038    29.36601     2.54410
    27  H   1.0    0.05    1.06    1.44    51.02344    30.36629     7.50310
    28  H   1.0    0.04    1.03    1.43    48.49850    30.48203     3.39646
    29  H   1.0    0.04    1.03    1.43    48.42648    27.15184     3.47308
    30  H   1.0    0.04    1.05    1.44    46.33702    27.46617     7.79852
    31  H   1.0    0.04    1.00    1.43    44.26656    31.55436     8.85711
    32  H   1.0    0.04    1.00    1.43    47.57106    31.87185     8.90111
    33  H   1.0    0.05    1.00    1.43    45.81845    33.00065     6.27942
    34  H   1.0    0.04    1.00    1.43    42.13082    28.42283     6.04394
    35  H   1.0    0.05    1.00    1.43    43.51801    29.98614     3.44346
    36  H   1.0    0.04    1.00    1.43    43.90586    26.69038     3.82084
    37  N   5.0   -0.15    3.52    2.09    52.09092    24.40018     6.19878
    38  C   4.0    0.03    4.47    4.49    52.48465    21.93615     7.31593
    39  C   4.0    0.15    3.49    3.11    54.31623    22.10331     9.54093
    40  O   6.0   -0.32    1.29    1.80    53.97808    20.85082    11.46066
    41  C   4.0    0.05    4.23    4.05    53.43716    20.04680     5.29562
    42  O   6.0   -0.26    2.12    1.84    51.60879    19.72353     3.38012
    43  C   4.0   -0.06    4.10    3.80    53.91768    17.45693     6.47132
    44  H   1.0    0.08    1.07    1.44    52.39836    24.61858     4.32476
    45  H   1.0    0.05    1.05    1.44    50.67663    21.23592     8.05827
    46  H   1.0    0.04    1.03    1.43    55.19502    20.81747     4.49576
    47  H   1.0    0.12    1.02    1.43    51.47527    21.25018     2.38770
    48  H   1.0    0.05    1.00    1.43    54.40996    16.14213     4.97488
    49  H   1.0    0.05    1.00    1.43    55.44247    17.57444     7.83583
    50  H   1.0    0.05    1.00    1.43    52.19668    16.82490     7.39277
    51  N   5.0   -0.14    3.50    2.08    56.30423    23.61858     9.22859
    52  C   4.0    0.04    4.42    4.41    58.09826    24.01731    11.26092
    53  C   4.0    0.16    3.47    3.10    56.80260    25.18554    13.57901
    54  O   6.0   -0.31    1.29    1.80    57.23292    24.37428    15.70506
    55  C   4.0   -0.04    4.27    4.13    60.26605    25.73342    10.42892
    56  C   4.0   -0.05    4.17    3.95    61.91253    24.58491     8.32301
    57  C   4.0   -0.01    4.20    4.01    64.68390    24.37766     9.08489
    58  N   5.0   -0.14    3.40    2.02    65.03507    22.35994    10.90862
    59  C   4.0    0.10    3.33    3.06    66.96731    22.12581    12.50521
    60  N   5.0   -0.17    3.25    1.97    68.58725    23.99213    12.90518
    61  N   5.0   -0.18    3.24    1.97    67.28295    19.93298    13.70633
    62  H   1.0    0.09    1.07    1.44    56.57382    24.55612     7.58404
    63  H   1.0    0.05    1.05    1.44    58.82174    22.17369    11.87979
    64  H   1.0    0.06    1.03    1.43    59.45832    27.51693     9.78740
    65  H   1.0    0.05    1.03    1.43    61.42087    26.12313    12.09091
    66  H   1.0    0.04    1.03    1.43    61.19154    22.73419     7.77505
    67  H   1.0    0.04    1.03    1.43    61.80576    25.76530     6.63749
    68  H   1.0    0.05    1.02    1.43    65.82734    23.98311     7.41336
    69  H   1.0    0.05    1.03    1.43    65.28837    26.17568     9.88472
    70  H   1.0    0.08    1.07    1.44    63.98910    20.79743    10.55997
    71  H   1.0    0.09    1.02    1.43    68.39467    25.75565    12.15337
    72  H   1.0    0.10    1.03    1.43    69.93819    23.79170    14.24373
    73  H   1.0    0.08    1.03    1.43    66.08418    18.47719    13.44127
    74  H   1.0    0.10    1.03    1.43    68.62174    19.73221    15.04464
    75  N   5.0   -0.14    3.51    2.08    55.26217    27.12556    13.12679
    76  C   4.0    0.04    4.43    4.44    53.87797    28.31355    15.17991
    77  C   4.0    0.16    3.46    3.10    52.35639    26.32416    16.63354
    78  O   6.0   -0.32    1.28    1.80    52.28727    26.31491    18.95763
    79  C   4.0   -0.04    4.27    4.14    52.15065    30.39420    14.15389
    80  C   4.0   -0.04    4.19    3.98    53.69513    32.73100    13.43200
    81  C   4.0   -0.00    4.22    4.04    52.18651    34.65142    11.90858
    82  N   5.0   -0.14    3.41    2.03    50.09049    35.67147    13.34939
    83  C   4.0    0.10    3.34    3.06    48.43279    37.30009    12.41311
    84  N   5.0   -0.19    3.27    1.97    48.45239    37.92152     9.97079
    85  N   5.0   -0.18    3.26    1.97    46.67939    38.28134    13.92183
    86  H   1.0    0.11    1.08    1.44    55.03131    27.81366    11.35218
    87  H   1.0    0.06    1.05    1.44    55.22164    29.12057    16.54115
    88  H   1.0    0.06    1.03    1.43    51.13576    29.64344    12.52465
    89  H   1.0    0.05    1.03    1.43    50.77427    30.90193    15.60026
    90  H   1.0    0.05    1.03    1.43    54.40106    33.61514    15.15344
    91  H   1.0    0.05    1.03    1.43    55.31035    32.16071    12.28634
    92  H   1.0    0.05    1.02    1.43    53.45167    36.19013    11.34225
    93  H   1.0    0.05    1.03    1.43    51.46408    33.74940    10.19445
    94  H   1.0    0.11    1.11    1.44    50.02385    35.31610    15.25464
    95  H   1.0    0.10    1.07    1.44    49.68495    37.15702     8.70110
    96  H   1.0    0.09    1.03    1.43    47.17274    39.17130     9.32437
    97  H   1.0    0.13    1.10    1.44    46.74259    38.02688    15.85149
    98  H   1.0    0.09    1.03    1.43    45.43534    39.54148    13.24001
    99  N   5.0   -0.14    3.52    2.09    51.11552    24.67461    15.19035
   100  C   4.0    0.03    4.50    4.53    49.55188    22.67487    16.22899
   101  C   4.0    0.16    3.49    3.11    51.16702    20.91824    17.87191
   102  O   6.0   -0.32    1.30    1.80    50.53911    20.37825    20.04481
   103  C   4.0   -0.02    4.26    4.12    48.20357    21.23738    14.09687
   104  C   4.0   -0.07    4.12    3.85    46.79907    18.94304    15.14263
   105  C   4.0   -0.08    4.11    3.83    46.35834    22.99751    12.73735
   106  H   1.0    0.11    1.10    1.44    51.15352    24.89211    13.28365
   107  H   1.0    0.05    1.05    1.44    48.14558    23.50680    17.51148
   108  H   1.0    0.06    1.06    1.44    49.66181    20.57992    12.78629
   109  H   1.0    0.04    1.00    1.43    45.87540    17.91479    13.62624
   110  H   1.0    0.06    1.00    1.43    48.07103    17.65362    16.11679
   111  H   1.0    0.04    1.00    1.43    45.36129    19.53015    16.48908
   112  H   1.0    0.03    1.00    1.43    45.26255    21.93971    11.36182
   113  H   1.0    0.03    1.00    1.43    45.05374    23.82532    14.09084
   114  H   1.0    0.06    1.01    1.43    47.35333    24.51710    11.78320
   115  N   5.0   -0.13    3.51    2.09    53.27907    20.08457    16.79349
   116  C   4.0    0.04    4.43    4.43    55.02634    18.44202    18.13144
   117  C   4.0    0.16    3.52    3.12    55.70405    19.61026    20.67696
   118  O   6.0   -0.32    1.31    1.80    55.71431    18.37851    22.66048
   119  C   4.0   -0.04    4.37    4.32    57.41577    18.10443    16.54113
   120  C   4.0   -0.02    4.19    3.98    59.42156    16.43225    17.80115
   121  C   4.0   -0.07    4.10    3.80    58.59038    13.66908    17.91498
   122  C   4.0   -0.07    4.10    3.80    61.91561    16.68341    16.36232
   123  H   1.0    0.11    1.10    1.44    53.66167    20.49449    14.95466
   124  H   1.0    0.07    1.06    1.44    54.10164    16.62986    18.53128
   125  H   1.0    0.05    1.03    1.43    56.86806    17.28602    14.72987
   126  H   1.0    0.06    1.04    1.43    58.20941    19.98195    16.21893
   127  H   1.0    0.06    1.06    1.44    59.70707    17.09644    19.74028
   128  H   1.0    0.05    1.00    1.43    59.97510    12.56008    18.95212
   129  H   1.0    0.06    1.00    1.43    56.79189    13.47143    18.88757
   130  H   1.0    0.05    1.00    1.43    58.40792    12.88397    16.02522
   131  H   1.0    0.05    1.00    1.43    63.31803    15.43605    17.19519
   132  H   1.0    0.04    1.00    1.43    61.63274    16.14407    14.40053
   133  H   1.0    0.05    1.00    1.43    62.58669    18.62024    16.48961
   134  N   5.0   -0.13    3.53    2.10    56.37441    22.03332    20.58624
   135  C   4.0    0.04    4.46    4.47    57.16331    23.34677    22.85118
   136  C   4.0    0.16    3.50    3.11    55.03875    23.26814    24.80536
   137  O   6.0   -0.31    1.29    1.80    55.43814    22.65471    27.01268
   138  C   4.0   -0.03    4.28    4.17    57.96146    26.04986    22.22734
   139  C   4.0   -0.03    4.24    4.07    59.21011    27.32149    24.49197
   140  C   4.0    0.16    3.23    3.04    61.68660    26.05782    25.21613
   141  O   6.0   -0.30    1.25    1.80    62.80414    24.55886    23.84219
   142  N   5.0   -0.18    3.19    1.95    62.57325    26.73506    27.48214
   143  H   1.0    0.11    1.10    1.44    56.45223    22.97429    18.91288
   144  H   1.0    0.07    1.06    1.44    58.76557    22.32672    23.68841
   145  H   1.0    0.07    1.03    1.43    59.30822    25.95996    20.66876
   146  H   1.0    0.06    1.03    1.43    56.31519    27.13412    21.63526
   147  H   1.0    0.06    1.03    1.43    59.61000    29.29301    24.04615
   148  H   1.0    0.05    1.03    1.43    57.95801    27.28517    26.12728
   149  H   1.0    0.12    1.07    1.44    61.70764    28.07245    28.55133
   150  H   1.0    0.11    1.03    1.43    64.22053    26.00368    28.09977
   151  N   5.0   -0.14    3.50    2.08    52.76294    23.93001    23.95975
   152  C   4.0    0.04    4.44    4.45    50.57689    23.79880    25.59931
   153  C   4.0    0.16    3.52    3.12    50.45402    21.23096    26.91322
   154  O   6.0   -0.32    1.30    1.80    50.20720    21.06370    29.21431
   155  C   4.0   -0.05    4.38    4.35    48.12789    24.18355    24.12300
   156  C   4.0   -0.02    4.18    3.95    47.60708    26.93932    23.41117
   157  C   4.0   -0.08    4.11    3.82    45.39064    27.05951    21.57119
   158  C   4.0   -0.08    4.11    3.83    47.02054    28.51156    25.75343
   159  H   1.0    0.11    1.09    1.44    52.50249    24.46768    22.13554
   160  H   1.0    0.05    1.05    1.44    50.76241    25.20644    27.11155
   161  H   1.0    0.06    1.04    1.43    48.23533    23.01655    22.42798
   162  H   1.0    0.04    1.03    1.43    46.56971    23.47507    25.27888
   163  H   1.0    0.06    1.05    1.44    49.28189    27.71288    22.48040
   164  H   1.0    0.04    1.00    1.43    45.04203    28.99968    20.99429
   165  H   1.0    0.04    1.00    1.43    45.77881    25.92914    19.90046
   166  H   1.0    0.03    1.00    1.43    43.68657    26.34223    22.46479
   167  H   1.0    0.04    1.01    1.43    46.27926    30.33783    25.19875
   168  H   1.0    0.04    1.00    1.43    45.60684    27.57889    26.92095
   169  H   1.0    0.04    1.00    1.43    48.70321    28.81244    26.88917
   170  N   5.0   -0.14    3.53    2.10    50.49523    19.23581    25.37792
   171  C   4.0    0.03    4.44    4.45    50.32990    16.68401    26.35771
   172  C   4.0    0.17    3.50    3.11    52.22319    16.35792    28.51117
   173  O   6.0   -0.30    1.28    1.80    51.59545    15.55749    30.59341
   174  C   4.0   -0.03    4.27    4.14    50.79448    14.76478    24.24918
   175  C   4.0   -0.03    4.18    3.97    48.54451    14.61437    22.45674
   176  C   4.0    0.25    3.11    3.03    49.14506    13.48854    19.84357
   177  O   6.0   -0.32    1.29    1.80    51.35251    13.60648    19.03439
   178  O   6.0   -0.33    1.28    1.80    47.32113    12.63970    18.59683
   179  H   1.0    0.11    1.10    1.44    50.73739    19.47013    23.48916
   180  H   1.0    0.05    1.05    1.44    48.45491    16.37612    27.20131
   181  H   1.0    0.08    1.04    1.43    52.47178    15.33548    23.19198
   182  H   1.0    0.06    1.03    1.43    51.17594    12.92260    25.09223
   183  H   1.0    0.05    1.02    1.43    46.97709    13.56465    23.28988
   184  H   1.0    0.05    1.03    1.43    47.88187    16.53009    22.03808
   185  N   5.0   -0.13    3.54    2.11    54.56527    17.05524    27.91752
   186  C   4.0    0.04    4.46    4.48    56.67895    16.65566    29.60126
   187  C   4.0    0.16    3.49    3.11    56.16107    17.88714    32.15597
   188  O   6.0   -0.31    1.28    1.80    56.49209    16.78329    34.17919
   189  C   4.0    0.06    4.25    4.09    59.09177    17.78624    28.39972
   190  O   6.0   -0.24    2.12    1.84    59.64463    16.64950    26.06354
   191  C   4.0   -0.05    4.10    3.79    61.36346    17.40543    30.12782
   192  H   1.0    0.11    1.11    1.45    54.91382    17.64891    26.13078
   193  H   1.0    0.07    1.05    1.44    56.92335    14.61655    29.90684
   194  H   1.0    0.06    1.04    1.43    58.74890    19.82179    28.12581
   195  H   1.0    0.15    1.05    1.44    58.30986    17.02292    24.86001
   196  H   1.0    0.06    1.00    1.43    63.05182    18.10077    29.19266
   197  H   1.0    0.05    1.00    1.43    61.09165    18.41554    31.89111
   198  H   1.0    0.06    1.00    1.43    61.60205    15.40470    30.52568
   199  N   5.0   -0.14    3.53    2.10    55.46238    20.29928    32.04339
   200  C   4.0    0.04    4.51    4.55    55.10833    21.79112    34.31968
   201  C   4.0    0.16    3.49    3.11    52.86740    20.78305    35.84616
   202  O   6.0   -0.29    1.25    1.80    53.02667    20.38370    38.12308
   203  C   4.0   -0.02    4.27    4.13    54.77625    24.59879    33.64425
   204  C   4.0   -0.07    4.12    3.85    54.16377    26.13694    36.01004
   205  C   4.0   -0.07    4.11    3.83    57.17228    25.61014    32.38819
   206  H   1.0    0.11    1.10    1.44    55.13082    21.13490    30.34918
   207  H   1.0    0.06    1.06    1.44    56.78238    21.53287    35.51745
   208  H   1.0    0.05    1.05    1.44    53.20656    24.71983    32.30332
   209  H   1.0    0.04    1.00    1.43    53.89919    28.10467    35.49519
   210  H   1.0    0.05    1.00    1.43    52.44828    25.45672    36.90901
   211  H   1.0    0.05    1.00    1.43    55.70409    25.98113    37.35623
   212  H   1.0    0.05    1.00    1.43    56.95216    27.60535    31.95742
   213  H   1.0    0.04    1.00    1.43    58.78528    25.37466    33.63558
   214  H   1.0    0.06    1.00    1.43    57.55829    24.61765    30.63294
   215  N   5.0   -0.14    3.51    2.08    50.72979    20.50076    34.54093
   216  C   4.0    0.04    4.44    4.45    48.46980    19.54200    35.75303
   217  C   4.0    0.16    3.51    3.12    49.02218    17.07645    37.14184
   218  O   6.0   -0.32    1.32    1.80    48.29201    16.74420    39.31766
   219  C   4.0   -0.05    4.36    4.30    46.36720    19.20351    33.80630
   220  C   4.0   -0.02    4.18    3.97    43.87450    18.22935    34.92550
   221  C   4.0   -0.07    4.11    3.82    42.92603    19.90362    37.07642
   222  C   4.0   -0.07    4.11    3.81    41.89387    18.09098    32.83046
   223  H   1.0    0.11    1.11    1.45    50.71089    20.64949    32.63167
   224  H   1.0    0.05    1.06    1.44    47.88678    20.90494    37.20421
   225  H   1.0    0.04    1.03    1.43    46.04853    21.02940    32.90125
   226  H   1.0    0.06    1.03    1.43    47.03038    17.88744    32.35970
   227  H   1.0    0.05    1.05    1.44    44.18480    16.31901    35.66332
   228  H   1.0    0.05    1.00    1.43    41.00692    19.36719    37.57700
   229  H   1.0    0.05    1.00    1.43    44.09543    19.68417    38.74851
   230  H   1.0    0.04    1.00    1.43    42.93710    21.87297    36.50133
   231  H   1.0    0.05    1.00    1.43    40.10200    17.42469    33.57805
   232  H   1.0    0.04    1.00    1.43    41.60647    19.94441    31.99305
   233  H   1.0    0.04    1.00    1.43    42.50456    16.79598    31.35750
   234  N   5.0   -0.14    3.51    2.09    50.33904    15.35063    35.86682
   235  C   4.0    0.03    4.43    4.43    51.03148    12.96643    37.01931
   236  C   4.0    0.16    3.50    3.11    52.24782    13.40420    39.60823
   237  O   6.0   -0.30    1.25    1.80    51.65909    12.17176    41.47325
   238  C   4.0   -0.03    4.29    4.18    52.82162    11.55415    35.25570
   239  C   4.0   -0.02    4.19    3.99    53.68796     9.02784    36.32181
   240  C   4.0    0.24    3.14    3.03    53.98027     6.98021    34.28986
   241  O   6.0   -0.32    1.24    1.80    53.33340     7.37769    32.07414
   242  O   6.0   -0.30    1.46    1.80    54.82249     4.88249    35.07106
   243  H   1.0    0.11    1.10    1.44    50.86412    15.62926    34.04623
   244  H   1.0    0.05    1.05    1.44    49.31943    11.83448    37.36008
   245  H   1.0    0.07    1.04    1.43    51.83970    11.22973    33.46562
   246  H   1.0    0.07    1.03    1.43    54.44949    12.74686    34.84288
   247  H   1.0    0.07    1.02    1.43    55.47801     9.19123    37.32909
   248  H   1.0    0.05    1.03    1.43    52.30465     8.28231    37.66593
   249  N   5.0   -0.12    3.40    2.02    54.04538    15.17820    39.62787
   250  C   4.0    0.03    4.15    3.90    55.42906    15.78142    41.90806
   251  C   4.0    0.11    3.15    3.03    53.60916    16.59983    44.00814
   252  O   6.0   -0.27    1.11    1.80    53.65742    15.64168    46.11873
   253  H   1.0    0.11    1.07    1.44    54.57726    15.98550    37.98103
   254  H   1.0    0.07    1.02    1.43    56.48254    14.12927    42.57280
   255  H   1.0    0.06    1.03    1.43    56.72097    17.32435    41.47774
   256  N   5.0   -0.18    3.25    1.97    47.65301    15.69134    44.52996
   257  C   4.0    0.04    4.41    4.39    46.09535    13.59833    45.34680
   258  C   4.0    0.16    3.48    3.11    47.42476    12.14202    47.45119
   259  O   6.0   -0.26    1.25    1.80    46.37353    11.74267    49.47777
   260  C   4.0   -0.02    4.27    4.15    45.43234    11.87129    43.11615
   261  C   4.0   -0.07    4.14    3.88    44.19641     9.45188    44.08029
   262  C   4.0   -0.07    4.11    3.82    43.65969    13.22418    41.27966
   263  H   1.0    0.12    1.07    1.44    48.02280    15.85422    42.65754
   264  H   1.0    0.06    1.05    1.44    44.35481    14.35295    46.20112
   265  H   1.0    0.06    1.06    1.44    47.19786    11.39374    42.14950
   266  H   1.0    0.04    1.00    1.43    43.67706     8.27979    42.47932
   267  H   1.0    0.06    1.00    1.43    45.47165     8.37843    45.28565
   268  H   1.0    0.06    1.00    1.43    42.52223     9.90991    45.17932
   269  H   1.0    0.04    1.00    1.43    43.25403    12.00136    39.68071
   270  H   1.0    0.05    1.00    1.43    41.89486    13.70967    42.20885
   271  H   1.0    0.06    1.01    1.43    44.52488    14.94019    40.56356
   272  N   5.0   -0.13    3.46    2.05    49.77513    11.36823    46.95501
   273  C   4.0    0.06    4.32    4.24    51.09240     9.86829    48.82375
   274  C   4.0    0.11    3.25    3.04    51.32249    11.30411    51.32340
   275  O   6.0   -0.24    1.11    1.80    50.92214    10.27783    53.35855
   276  C   4.0    0.04    4.14    3.88    53.70457     9.06420    47.90056
   277  O   6.0   -0.24    2.04    1.83    53.44297     6.81659    46.47815
   278  H   1.0    0.11    1.08    1.44    50.54655    11.58960    45.21784
   279  H   1.0    0.08    1.06    1.44    49.98629     8.15579    49.21741
   280  H   1.0    0.06    1.01    1.43    54.51366    10.59308    46.75691
   281  H   1.0    0.06    1.01    1.43    54.92562     8.72220    49.54658
   282  H   1.0    0.13    1.02    1.43    55.00409     6.45300    45.60662
   283  O   6.0   -0.33    1.99    1.83    51.41932    35.92442     6.02333
   284  H   1.0    0.13    1.03    1.43    53.02227    36.69914     5.63594
   285  H   1.0    0.12    0.97    1.43    50.41897    36.04445     4.50725
   286  O   6.0   -0.29    1.92    1.82    64.73065    21.86234    19.44706
   287  H   1.0    0.13    0.97    1.43    65.21067    20.40964    20.43409
   288  H   1.0    0.16    1.00    1.43    64.01907    22.98876    20.69354
   289  O   6.0   -0.29    1.92    1.82    42.85117    11.10669    20.89324
   290  H   1.0    0.15    1.01    1.43    44.42447    11.63627    20.08902
   291  H   1.0    0.14    0.99    1.43    41.58637    12.30665    20.33427
   292  O   6.0   -0.28    1.92    1.82    59.93976    13.12804    36.00747
   293  H   1.0    0.14    0.97    1.43    61.26668    14.09503    36.75563
   294  H   1.0    0.15    1.01    1.43    58.74029    14.34424    35.33544
   295  O   6.0   -0.29    1.92    1.82    54.86601    10.64302    28.21297
   296  H   1.0    0.14    0.97    1.43    56.14205     9.62515    27.39915
   297  H   1.0    0.16    1.01    1.43    54.22441     9.62097    29.59597
   298  O   6.0   -0.30    1.92    1.82    53.09957    31.55686    20.89324
   299  H   1.0    0.15    1.01    1.43    51.85429    32.65458    20.08902
   300  H   1.0    0.14    0.99    1.43    52.69277    29.86153    20.33427
   301  N   5.0   -0.20    3.20    1.96    40.79588    12.28034     4.41700
   302  C   4.0    0.03    4.22    4.04    41.54279    14.29777     6.11511
   303  C   4.0    0.08    3.21    3.04    39.24156    15.25211     7.57338
   304  O   6.0   -0.33    1.17    1.80    39.33895    15.71162     9.84182
   305  C   4.0   -0.05    4.34    4.27    42.80344    16.44650     4.65201
   306  C   4.0   -0.02    4.18    3.96    44.06683    18.41121     6.37379
   307  C   4.0   -0.08    4.11    3.82    46.38731    17.31506     7.69100
   308  C   4.0   -0.08    4.10    3.81    44.84755    20.71502     4.82010
   309  H   1.0    0.09    1.02    1.43    41.12343    12.49586     2.54410
   310  H   1.0    0.04    1.05    1.44    42.85817    13.49995     7.50310
   311  H   1.0    0.04    1.03    1.43    44.22088    15.62874     3.39646
   312  H   1.0    0.04    1.03    1.43    41.37286    17.35621     3.47308
   313  H   1.0    0.04    1.05    1.44    42.68981    19.00857     7.79852
   314  H   1.0    0.04    1.00    1.43    47.26551    18.75754     8.85711
   315  H   1.0    0.04    1.00    1.43    45.88821    15.73702     8.90111
   316  H   1.0    0.05    1.00    1.43    47.74209    16.69042     6.27942
   317  H   1.0    0.04    1.00    1.43    45.62139    22.17292     6.04394
   318  H   1.0    0.05    1.00    1.43    46.28167    20.18992     3.44346
   319  H   1.0    0.04    1.00    1.43    43.23353    21.50191     3.82084
   320  N   5.0   -0.19    3.25    1.97    37.93225    11.44947    13.12679
   321  C   4.0    0.03    4.32    4.24    39.65318    12.05422    15.17991
   322  C   4.0    0.15    3.41    3.08    38.69111    14.36665    16.63354
   323  O   6.0   -0.32    1.28    1.80    38.71766    14.43114    18.95763
   324  C   4.0   -0.04    4.27    4.14    42.31874    12.50980    14.15389
   325  C   4.0   -0.04    4.19    3.98    43.57023    10.00384    13.43200
   326  C   4.0   -0.01    4.22    4.03    45.98767    10.35014    11.90858
   327  N   5.0   -0.14    3.41    2.03    47.91907    11.65532    13.34939
   328  C   4.0    0.10    3.34    3.06    50.15834    12.27662    12.41311
   329  N   5.0   -0.19    3.26    1.97    50.68671    11.94893     9.97079
   330  N   5.0   -0.18    3.26    1.97    51.88483    13.30448    13.92183
   331  H   1.0    0.09    1.03    1.43    38.64359    11.30535    11.35218
   332  H   1.0    0.06    1.05    1.44    39.68024    10.48706    16.54115
   333  H   1.0    0.06    1.03    1.43    42.17601    13.76410    12.52465
   334  H   1.0    0.05    1.03    1.43    43.44663    13.44792    15.60026
   335  H   1.0    0.06    1.03    1.43    43.98295     8.95042    15.15344
   336  H   1.0    0.04    1.03    1.43    42.26873     8.89017    12.28634
   337  H   1.0    0.05    1.02    1.43    46.68765     8.48512    11.34225
   338  H   1.0    0.04    1.02    1.43    45.56771    11.42679    10.19445
   339  H   1.0    0.11    1.11    1.44    47.64463    11.89072    15.25464
   340  H   1.0    0.08    1.02    1.43    49.40836    11.26375     8.70110
   341  H   1.0    0.08    1.03    1.43    52.40888    12.43226     9.32437
   342  H   1.0    0.13    1.10    1.44    51.63286    13.37698    15.85149
   343  H   1.0    0.08    1.03    1.43    53.59817    13.75179    13.24001
   344  N   5.0   -0.14    3.48    2.07    37.88300    16.26605    15.19035
   345  C   4.0    0.03    4.39    4.37    36.93298    18.62007    16.22899
   346  C   4.0    0.09    3.25    3.04    34.60413    18.09963    17.87191
   347  O   6.0   -0.29    1.13    1.80    34.45044    18.91342    20.04481
   348  C   4.0   -0.02    4.25    4.11    36.36224    20.50649    14.09687
   349  C   4.0   -0.07    4.12    3.85    35.07753    22.86999    15.14263
   350  C   4.0   -0.08    4.11    3.83    38.80917    21.22444    12.73735
   351  H   1.0    0.10    1.10    1.44    38.05235    16.12439    13.28365
   352  H   1.0    0.05    1.05    1.44    38.35661    19.42199    17.51148
   353  H   1.0    0.05    1.05    1.44    35.06374    19.57234    12.78629
   354  H   1.0    0.04    1.00    1.43    34.64888    24.18404    13.62624
   355  H   1.0    0.05    1.00    1.43    33.32488    22.41315    16.11679
   356  H   1.0    0.04    1.00    1.43    36.30487    23.82159    16.48908
   357  H   1.0    0.04    1.00    1.43    38.44098    22.70232    11.36182
   358  H   1.0    0.03    1.00    1.43    40.17838    21.94035    14.09084
   359  H   1.0    0.06    1.01    1.43    39.62768    19.60296    11.78320
   360  N   5.0   -0.18    3.21    1.96    36.41444    15.21164    23.95975
   361  C   4.0    0.04    4.23    4.05    37.39383    17.17042    25.59931
   362  C   4.0    0.09    3.22    3.04    35.23146    18.56075    26.91322
   363  O   6.0   -0.28    1.11    1.80    35.21001    18.85813    29.21431
   364  C   4.0   -0.04    4.36    4.32    38.95153    19.09894    24.12300
   365  C   4.0   -0.02    4.18    3.95    41.59851    18.17209    23.41117
   366  C   4.0   -0.08    4.11    3.82    42.81082    20.03149    21.57119
   367  C   4.0   -0.08    4.11    3.83    43.25338    17.89393    25.75343
   368  H   1.0    0.12    1.05    1.44    37.01030    15.16836    22.13554
   369  H   1.0    0.05    1.05    1.44    38.52013    16.30594    27.11155
   370  H   1.0    0.06    1.04    1.43    37.88716    19.58940    22.42798
   371  H   1.0    0.04    1.03    1.43    39.11707    20.80260    25.27888
   372  H   1.0    0.06    1.05    1.44    41.43103    16.33489    22.48040
   373  H   1.0    0.04    1.00    1.43    44.66535    19.36331    20.99429
   374  H   1.0    0.04    1.00    1.43    41.63780    20.26050    19.90046
   375  H   1.0    0.03    1.00    1.43    43.04167    21.86589    22.46479
   376  H   1.0    0.04    1.01    1.43    45.20561    17.62276    25.19875
   377  H   1.0    0.04    1.00    1.43    43.15252    19.58456    26.92095
   378  H   1.0    0.04    1.00    1.43    42.67262    16.28625    26.88917
   379  N   5.0   -0.21    3.20    1.96    36.96719    32.91197     6.19878
   380  C   4.0    0.03    4.26    4.12    38.90424    34.48497     7.31593
   381  C   4.0    0.07    3.22    3.04    37.84369    35.98758     9.54093
   382  O   6.0   -0.32    1.17    1.80    39.09744    36.32098    11.46066
   383  C   4.0    0.05    4.22    4.04    40.06421    36.25454     5.29562
   384  O   6.0   -0.26    2.12    1.84    41.25835    34.83275     3.38012
   385  C   4.0   -0.06    4.10    3.79    42.06684    37.96561     6.47132
   386  H   1.0    0.09    1.03    1.43    36.62434    33.06902     4.32476
   387  H   1.0    0.04    1.05    1.44    40.41467    33.26928     8.05827
   388  H   1.0    0.05    1.03    1.43    38.51786    37.39155     4.49576
   389  H   1.0    0.12    1.02    1.43    40.00300    33.95380     2.38770
   390  H   1.0    0.05    1.00    1.43    42.95935    39.04934     4.97488
   391  H   1.0    0.05    1.00    1.43    41.20268    39.22737     7.83583
   392  H   1.0    0.05    1.00    1.43    43.47470    36.79120     7.39277
   393  N   5.0   -0.20    3.24    1.97    37.21723    31.93003    15.19035
   394  C   4.0    0.03    4.40    4.38    39.73088    31.57576    16.22899
   395  C   4.0    0.15    3.45    3.10    40.44459    33.85282    17.87191
   396  O   6.0   -0.32    1.30    1.80    41.22619    33.57902    20.04481
   397  C   4.0   -0.02    4.26    4.12    41.64993    31.12682    14.09687
   398  C   4.0   -0.07    4.12    3.85    44.33914    31.05766    15.14263
   399  C   4.0   -0.08    4.11    3.83    41.04823    28.64875    12.73735
   400  H   1.0    0.09    1.03    1.43    37.00987    31.85419    13.28365
   401  H   1.0    0.04    1.05    1.44    39.71355    29.94190    17.51148
   402  H   1.0    0.06    1.06    1.44    41.49019    32.71843    12.78629
   403  H   1.0    0.04    1.00    1.43    45.69147    30.77186    13.62624
   404  H   1.0    0.06    1.00    1.43    44.81983    32.80392    16.11679
   405  H   1.0    0.04    1.00    1.43    44.54958    29.51896    16.48908
   406  H   1.0    0.03    1.00    1.43    42.51221    28.22867    11.36182
   407  H   1.0    0.03    1.00    1.43    40.98362    27.10502    14.09084
   408  H   1.0    0.04    1.00    1.43    39.23473    28.75063    11.78320
   409  N   5.0   -0.14    3.48    2.06    40.11055    36.09874    16.79349
   410  C   4.0    0.04    4.32    4.24    40.65940    38.43320    18.13144
   411  C   4.0    0.09    3.29    3.05    39.30882    38.43600    20.67696
   412  O   6.0   -0.28    1.12    1.80    40.37042    39.06075    22.66048
   413  C   4.0   -0.05    4.36    4.30    39.75705    40.67130    16.54113
   414  C   4.0   -0.02    4.19    3.98    40.20230    43.24446    17.80115
   415  C   4.0   -0.06    4.10    3.80    43.01087    43.90621    17.91498
   416  C   4.0   -0.07    4.10    3.80    38.73777    45.27879    16.36232
   417  H   1.0    0.11    1.10    1.44    39.56424    36.22513    14.95466
   418  H   1.0    0.07    1.06    1.44    42.69113    38.53846    18.53128
   419  H   1.0    0.05    1.03    1.43    40.73966    40.60618    14.72987
   420  H   1.0    0.05    1.03    1.43    37.73424    40.41986    16.21893
   421  H   1.0    0.06    1.06    1.44    39.48434    43.15961    19.74028
   422  H   1.0    0.05    1.00    1.43    43.27892    45.65992    18.95212
   423  H   1.0    0.06    1.00    1.43    44.08128    42.44751    18.88757
   424  H   1.0    0.05    1.00    1.43    43.78202    44.14076    16.02522
   425  H   1.0    0.05    1.00    1.43    39.11680    47.11700    17.19519
   426  H   1.0    0.05    1.00    1.43    39.34628    45.30348    14.40053
   427  H   1.0    0.05    1.00    1.43    36.72488    44.89155    16.48961
   428  N   5.0   -0.19    3.23    1.96    37.03836    33.72904    23.95975
   429  C   4.0    0.03    4.33    4.25    38.24502    31.90148    25.59931
   430  C   4.0    0.16    3.45    3.10    40.53026    33.07898    26.91322
   431  O   6.0   -0.31    1.30    1.80    40.79853    32.94886    29.21431
   432  C   4.0   -0.05    4.38    4.35    39.13632    29.58820    24.12300
   433  C   4.0   -0.03    4.18    3.95    37.01015    27.75928    23.41117
   434  C   4.0   -0.08    4.11    3.82    38.01428    25.77969    21.57119
   435  C   4.0   -0.07    4.11    3.83    35.94182    26.46520    25.75343
   436  H   1.0    0.09    1.02    1.43    36.70295    33.23465    22.13554
   437  H   1.0    0.05    1.05    1.44    36.93321    31.35831    27.11155
   438  H   1.0    0.06    1.04    1.43    40.09325    30.26475    22.42798
   439  H   1.0    0.04    1.03    1.43    40.52896    28.59302    25.27888
   440  H   1.0    0.04    1.05    1.44    35.50283    28.82293    22.48040
   441  H   1.0    0.05    1.00    1.43    36.50835    24.50770    20.99429
   442  H   1.0    0.03    1.00    1.43    38.79912    26.68104    19.90046
   443  H   1.0    0.03    1.00    1.43    39.48750    24.66257    22.46479
   444  H   1.0    0.05    1.00    1.43    34.73087    24.91010    25.19875
   445  H   1.0    0.04    1.00    1.43    37.45639    25.70723    26.92095
   446  H   1.0    0.05    1.00    1.43    34.83991    27.77200    26.88917
   447  N   5.0   -0.14    3.49    2.07    42.23752    34.11225    25.37792
   448  C   4.0    0.04    4.33    4.25    44.53010    35.24497    26.35771
   449  C   4.0    0.10    3.27    3.05    43.86586    37.04765    28.51117
   450  O   6.0   -0.28    1.11    1.80    44.87292    36.90422    30.59341
   451  C   4.0   -0.04    4.26    4.12    45.95992    36.60692    24.24918
   452  C   4.0   -0.03    4.18    3.97    47.21516    34.73359    22.45674
   453  C   4.0    0.25    3.11    3.03    47.88988    35.81660    19.84357
   454  O   6.0   -0.32    1.29    1.80    46.68401    37.66934    19.03439
   455  O   6.0   -0.33    1.28    1.80    49.53696    34.66145    18.59683
   456  H   1.0    0.11    1.10    1.44    41.91350    34.20480    23.48916
   457  H   1.0    0.05    1.05    1.44    45.73424    33.77512    27.20131
   458  H   1.0    0.08    1.04    1.43    44.62702    37.77415    23.19198
   459  H   1.0    0.05    1.03    1.43    47.36455    37.85837    25.09223
   460  H   1.0    0.05    1.02    1.43    48.90795    33.90103    23.28988
   461  H   1.0    0.05    1.03    1.43    45.88741    33.20187    22.03808
   462  N   5.0   -0.19    3.21    1.96    41.02475    33.68290    34.54093
   463  C   4.0    0.04    4.23    4.07    42.98506    32.20508    35.75303
   464  C   4.0    0.09    3.22    3.04    44.84410    33.91623    37.14184
   465  O   6.0   -0.27    1.12    1.80    45.49692    33.45000    39.31766
   466  C   4.0   -0.04    4.35    4.29    44.32950    30.55342    33.80630
   467  C   4.0   -0.02    4.18    3.97    46.41950    28.88175    34.92550
   468  C   4.0   -0.07    4.11    3.82    45.44377    27.22323    37.07642
   469  C   4.0   -0.08    4.11    3.82    47.52965    27.23567    32.83046
   470  H   1.0    0.13    1.07    1.44    40.90540    33.59217    32.63167
   471  H   1.0    0.05    1.06    1.44    42.09623    31.01870    37.20421
   472  H   1.0    0.05    1.03    1.43    42.90757    29.36450    32.90125
   473  H   1.0    0.06    1.03    1.43    45.13766    31.78578    32.35970
   474  H   1.0    0.05    1.05    1.44    47.91875    30.10566    35.66332
   475  H   1.0    0.04    1.00    1.43    46.86789    25.82944    37.57700
   476  H   1.0    0.06    1.00    1.43    45.04912    28.34568    38.74851
   477  H   1.0    0.04    1.00    1.43    43.73273    26.24813    36.50133
   478  H   1.0    0.04    1.00    1.43    49.00261    26.01700    33.57805
   479  H   1.0    0.04    1.00    1.43    46.06823    26.06006    31.99305
   480  H   1.0    0.04    1.00    1.43    48.34580    28.41204    31.35750
   481  N   5.0   -0.20    3.19    1.95    42.15177    -1.86205    42.34205
   482  C   4.0    0.03    4.21    4.03    43.62519    -0.87924    40.25436
   483  C   4.0    0.09    3.20    3.04    42.94668    -2.23874    37.78426
   484  O   6.0   -0.31    1.15    1.80    42.48833    -1.01478    35.86823
   485  C   4.0   -0.04    4.30    4.20    46.46848    -1.08125    40.76091
   486  C   4.0   -0.04    4.02    3.66    47.65315     1.32895    41.82108
   487  S   6.0   -0.02    2.48    3.10    49.08711     3.33038    39.39381
   488  C   4.0   -0.07    3.87    3.42    46.33551     4.72117    37.87301
   489  H   1.0    0.09    1.02    1.43    43.06729    -2.58460    43.86736
   490  H   1.0    0.05    1.06    1.44    43.08276     1.09969    39.94235
   491  H   1.0    0.05    1.03    1.43    46.74559    -2.64581    42.07023
   492  H   1.0    0.05    1.05    1.44    47.43465    -1.56216    39.00429
   493  H   1.0    0.05    1.06    1.44    46.32256     2.46613    42.90363
   494  H   1.0    0.06    1.08    1.44    49.23517     0.87807    43.05230
   495  H   1.0    0.04    1.05    1.44    47.06298     6.03576    36.47680
   496  H   1.0    0.05    1.03    1.43    45.22336     3.27366    36.93565
   497  H   1.0    0.04    1.04    1.43    45.23116     5.73735    39.27371
   498  N   5.0   -0.20    3.21    1.96    40.24612     0.80816    31.26100
   499  C   4.0    0.04    4.23    4.05    41.56791     0.55407    28.89302
   500  C   4.0    0.09    3.19    3.03    40.14541    -1.00786    26.90233
   501  O   6.0   -0.26    1.13    1.80    41.11254    -1.41150    24.84107
   502  C   4.0   -0.03    4.28    4.15    44.19205    -0.59460    29.29292
   503  C   4.0   -0.05    4.19    3.98    45.92322     1.13441    30.81935
   504  C   4.0   -0.05    4.16    3.91    48.65540     0.19343    30.84944
   505  C   4.0   -0.03    4.14    3.88    50.30378     2.01965    32.35006
   506  N   5.0   -0.11    3.99    2.84    53.01068     1.36024    32.30064
   507  H   1.0    0.12    1.04    1.44    40.49654    -0.58811    32.54554
   508  H   1.0    0.05    1.05    1.44    41.74424     2.45949    28.08539
   509  H   1.0    0.06    1.03    1.43    43.94380    -2.39252    30.27442
   510  H   1.0    0.06    1.03    1.43    44.98963    -0.95847    27.42612
   511  H   1.0    0.04    1.03    1.43    45.86951     3.02906    30.00573
   512  H   1.0    0.05    1.03    1.43    45.19858     1.24706    32.74446
   513  H   1.0    0.05    1.02    1.43    48.71847    -1.68712    31.68989
   514  H   1.0    0.05    1.03    1.43    49.33340     0.06877    28.90831
   515  H   1.0    0.06    1.03    1.43    50.13138     3.92248    31.57959
   516  H   1.0    0.05    1.04    1.43    49.70432     2.07231    34.32145
   517  H   1.0    0.12    1.20    1.47    54.02153     2.85202    33.47728
   518  H   1.0    0.07    1.02    1.43    53.31019    -0.39086    33.06485
   519  H   1.0    0.07    1.02    1.43    53.70489     1.40460    30.49653
   520  N   5.0   -0.21    3.23    1.96    69.52578    35.40381    36.14833
   521  C   4.0    0.03    4.32    4.23    70.02109    32.82996    35.34024
   522  C   4.0    0.15    3.47    3.10    67.68523    31.78658    34.00435
   523  O   6.0   -0.30    1.28    1.80    67.78299    30.74277    31.92636
   524  C   4.0   -0.03    4.29    4.18    70.64073    31.18271    37.62578
   525  C   4.0   -0.02    4.19    3.97    71.16157    28.44072    36.89800
   526  C   4.0    0.26    3.10    3.02    70.33939    26.53395    38.95508
   527  O   6.0   -0.27    1.19    1.80    68.57683    27.22446    40.39684
   528  O   6.0   -0.25    1.16    1.80    71.40079    24.45406    39.04039
   529  H   1.0    0.09    1.02    1.43    69.95036    35.88909    37.95426
   530  H   1.0    0.05    1.05    1.44    71.57982    32.81114    33.96569
   531  H   1.0    0.06    1.02    1.43    72.27533    31.98158    38.60147
   532  H   1.0    0.06    1.04    1.43    69.03045    31.22535    38.91849
   533  H   1.0    0.06    1.04    1.43    70.08814    27.93704    35.20346
   534  H   1.0    0.06    1.02    1.43    73.15144    28.11692    36.46231
   535  N   5.0   -0.15    3.53    2.10    65.53565    32.04995    35.28503
   536  C   4.0    0.03    4.42    4.42    63.17319    31.03675    34.35957
   537  C   4.0    0.15    3.42    3.08    62.41656    32.16776    31.79602
   538  O   6.0   -0.32    1.27    1.80    61.00793    30.98687    30.37453
   539  C   4.0   -0.05    4.25    4.11    61.08305    31.42131    36.32322
   540  C   4.0   -0.04    4.17    3.94    61.45818    29.68409    38.61098
   541  C   4.0   -0.01    4.17    3.94    59.28532    29.81605    40.52766
   542  N   5.0   -0.14    3.38    2.01    59.67801    31.76129    42.42593
   543  C   4.0    0.10    3.33    3.06    59.45837    31.56943    44.93524
   544  N   5.0   -0.17    3.25    1.97    59.14161    29.34857    46.08162
   545  N   5.0   -0.17    3.23    1.96    59.79074    33.59202    46.38937
   546  H   1.0    0.08    1.07    1.44    65.55533    32.87806    37.01526
   547  H   1.0    0.06    1.06    1.44    63.42217    29.00483    33.99600
   548  H   1.0    0.04    1.03    1.43    61.10956    33.40839    36.86693
   549  H   1.0    0.04    1.03    1.43    59.28094    31.00176    35.41209
   550  H   1.0    0.05    1.03    1.43    61.59807    27.75179    37.91469
   551  H   1.0    0.06    1.03    1.43    63.23569    30.14113    39.54560
   552  H   1.0    0.04    1.02    1.43    57.51522    30.21318    39.53257
   553  H   1.0    0.05    1.03    1.43    59.10238    27.99507    41.46620
   554  H   1.0    0.08    1.07    1.44    60.19306    33.46267    41.73298
   555  H   1.0    0.09    1.03    1.43    58.42974    27.84115    45.16380
   556  H   1.0    0.10    1.04    1.43    58.71169    29.40278    47.94613
   557  H   1.0    0.09    1.03    1.43    59.89291    35.32941    45.61828
   558  H   1.0    0.09    1.01    1.43    59.04505    33.59991    48.22142
   559  N   5.0   -0.14    3.52    2.09    63.32088    34.45008    31.26100
   560  C   4.0    0.04    4.41    4.40    62.88003    35.72183    28.89302
   561  C   4.0    0.15    3.40    3.08    64.94396    35.27087    26.90233
   562  O   6.0   -0.28    1.24    1.80    64.80995    36.31025    24.84107
   563  C   4.0   -0.04    4.28    4.15    62.56274    38.56874    29.29292
   564  C   4.0   -0.05    4.19    3.98    60.19979    39.20347    30.81935
   565  C   4.0   -0.05    4.16    3.91    59.64861    42.04010    30.84944
   566  C   4.0   -0.03    4.13    3.87    57.24287    42.55452    32.35006
   567  N   5.0   -0.11    3.94    2.72    56.46048    45.22848    32.30064
   568  H   1.0    0.08    1.08    1.44    64.40488    35.36509    32.54554
   569  H   1.0    0.06    1.06    1.44    61.14172    34.92183    28.08539
   570  H   1.0    0.05    1.03    1.43    64.24391    39.25271    30.27442
   571  H   1.0    0.06    1.03    1.43    62.47907    39.44139    27.42612
   572  H   1.0    0.05    1.03    1.43    58.58583    38.20963    30.00573
   573  H   1.0    0.04    1.03    1.43    60.46455    38.51959    32.74446
   574  H   1.0    0.05    1.02    1.43    61.24569    43.03499    31.68989
   575  H   1.0    0.05    1.03    1.43    59.41757    42.68960    28.90831
   576  H   1.0    0.04    1.03    1.43    55.68117    41.45381    31.57959
   577  H   1.0    0.04    1.02    1.43    57.49699    42.00905    34.32145
   578  H   1.0    0.06    0.93    1.42    54.66314    45.35800    33.47728
   579  H   1.0    0.07    1.02    1.43    57.82723    46.36341    33.06485
   580  H   1.0    0.06    1.02    1.43    56.07496    45.80750    30.49653
   581  N   5.0   -0.14    3.37    2.01    66.78224    33.64778    27.50553
   582  C   4.0    0.03    4.17    3.93    68.71126    32.96695    25.71673
   583  C   4.0    0.10    3.10    3.02    71.10313    34.58832    25.77236
   584  O   6.0   -0.25    1.11    1.80    72.63271    34.41058    24.02557
   585  H   1.0    0.11    1.11    1.45    66.90086    32.87655    29.25392
   586  H   1.0    0.06    1.03    1.43    69.29501    31.01726    26.06464
   587  H   1.0    0.08    1.03    1.43    67.90489    33.10847    23.81817
   588  H   1.0    0.10    1.07    1.44    58.38252    26.84757     1.37444
   589  H   1.0    0.07    1.05    1.44    52.33262    17.95348    43.67777
   590  H   1.0    0.10    1.07    1.44    46.90753    17.15709    44.96400
   591  H   1.0    0.08    1.05    1.44    51.81119    13.12956    51.32298
   592  H   1.0    0.10    1.07    1.44    41.17345    -0.62495    42.97847
   593  H   1.0    0.06    1.04    1.43    42.87713    -4.12649    37.73303
   594  H   1.0    0.10    1.08    1.44    40.74065     2.23871    32.03658
   595  H   1.0    0.07    1.04    1.43    38.42847    -1.69515    27.29071
   596  H   1.0    0.10    1.07    1.44    70.42014    36.48327    35.18529
   597  H   1.0    0.07    1.04    1.43    71.40868    35.77239    27.21309
   598  H   1.0    0.10    1.07    1.44    41.61482    10.85071     4.83896
   599  H   1.0    0.06    1.05    1.44    37.59894    15.51786     6.67770
   600  H   1.0    0.10    1.07    1.44    37.19952     9.94390    13.42502
   601  H   1.0    0.06    1.04    1.44    33.17007    17.08027    17.18240
   602  H   1.0    0.10    1.07    1.44    36.82576    13.68615    24.58925
   603  H   1.0    0.07    1.05    1.44    33.79533    19.24997    25.89657
   604  H   1.0    0.09    1.07    1.44    37.36385    31.27406     6.42788
   605  H   1.0    0.06    1.05    1.44    36.10270    36.71615     9.44492
   606  H   1.0    0.09    1.07    1.44    36.17840    30.72667    15.79478
   607  H   1.0    0.06    1.05    1.44    37.49449    37.91859    20.78452
   608  H   1.0    0.10    1.07    1.44    35.51159    34.13557    24.58925
   609  H   1.0    0.07    1.05    1.44    42.57208    38.39942    28.24676
   610  H   1.0    0.10    1.07    1.44    39.50243    33.18327    35.11143
   611  H   1.0    0.07    1.05    1.44    45.54873    35.44284    36.27926

  Z AO/shell   Hii/eV     exponent
  1     Wed Apr 25 08:07:45 CEST 2018   EN: 2.200 GM2: 0.406  GM3: 0.0800  RAES: 1.40
     1s    -10.707211    1.230000
  6     Wed Apr 25 08:07:45 CEST 2018   EN: 2.550 GM2: 0.538  GM3: 0.1500  RAES: 3.00
     2s    -13.970922    2.096432
     2p    -10.063292    1.800000
  7     Wed Apr 25 08:07:45 CEST 2018   EN: 3.040 GM2: 0.461  GM3:-0.0640  RAES: 1.90
     2s    -16.686243    2.339881
     2p    -12.523956    2.014332
  8     Wed Apr 25 08:07:45 CEST 2018   EN: 3.440 GM2: 0.452  GM3:-0.0517  RAES: 1.80
     2s    -20.229985    2.439742
     2p    -15.503117    2.137023
 16     Tue Apr 24 11:44:34 CEST 2018   EN: 2.580 GM2: 0.340  GM3:-0.0502  RAES: 3.10
     3s    -20.029654    1.981333
     3p    -11.377694    2.025643
     3d     -0.420282    1.702555
 no old-style atom pair restraining (fixing) potential

molecular fragmentation (1/2 indicates fragments):
111111111111111111111111111111111111111111111111111111111111111111111111
111111111111111111111111111111111111111111111111111111111111111111111111
111111111111111111111111111111111111111111111111111111111111111111111111
111111111111111111111111111111111111111222222222222222222222222222222222
222222222222222222222222222222222222222222222222222222222222222222222222
222222222222222222222222222222222222222222222222222222222222222222222222
222222222222222222222222222222222222222222222222222222222222222222222222
222222222222222222222222222222222222222222222222222222222222222222222222
22222222222112222222222222222222222
# atoms in fragment 1/2:   257   354
 fragment masses (1/2) :     1742.10     2198.85
CMA distance (Bohr)    :   8.108
constraining FC (au)   :  0.0500
           ------------------------------------------------- 
          |        Self-Consistent Charge Iterations        |
           ------------------------------------------------- 

 Ncao       : 1436
 Nao        : 1434
 Nshell     : 884
 Nel        : 1578
 T(el)      :   500.0
 intcut     :    35.0
 scfconv/Eh :  0.100E-06
   qconv/e  :  0.100E-04
 intneglect :  0.100E-08
 broydamp   :      0.400
 iter      E             dE          RMSdq      gap      omega  full diag
   1   -901.8671426 -0.901867E+03  0.447E+00    2.67       0.0  T
   2   -903.8545430 -0.198740E+01  0.210E+00    1.61       1.0  T
   3   -903.9826660 -0.128123E+00  0.118E+00    1.82       1.0  T
   4   -904.1336666 -0.151001E+00  0.253E-01    1.34       1.0  T
   5   -904.1402498 -0.658323E-02  0.120E-01    1.54       1.0  T
   6   -904.1417860 -0.153619E-02  0.491E-02    1.55       1.0  T
   7   -904.1420404 -0.254406E-03  0.241E-02    1.54       1.0  T
   8   -904.1420927 -0.523533E-04  0.101E-02    1.55       1.0  T
   9   -904.1421047 -0.119588E-04  0.524E-03    1.55       1.0  T
  10   -904.1421074 -0.265507E-05  0.234E-03    1.56       1.7  T
  11   -904.1421080 -0.599442E-06  0.112E-03    1.56       3.6  T
  12   -904.1421081 -0.125680E-06  0.467E-04    1.56       8.7  T
  13   -904.1421081 -0.138325E-07  0.226E-04    1.56      17.9  T
  14   -904.1421081 -0.479679E-08  0.835E-05    1.56      48.4  T
  15   -904.1421081 -0.454861E-09  0.370E-05    1.56     109.3  T
speedup 11.87
cpu  time for SCC   44.31 s
wall time for SCC    3.73 s

   *** convergence criteria satisfied after 15 iterations ***

          eigenvalues
 #    :         777        778        779        780        781        782        783        784
 occ. :        2.000      2.000      2.000      2.000      2.000      2.000      2.000      2.000
 eps  :       -10.104    -10.064    -10.039     -9.981     -9.889     -9.884     -9.870     -9.811
 #    :         785        786        787        788        789        790        791        792
 occ. :        2.000      2.000      2.000      2.000      2.000      0.000      0.000      0.000
 eps  :        -9.713     -9.707     -9.651     -9.565     -9.485     -7.929     -7.924     -7.915
 #    :         793        794        795        796        797        798        799        800
 occ. :        0.000      0.000      0.000      0.000      0.000      0.000      0.000      0.000
 eps  :        -7.840     -7.809     -7.682     -7.657     -7.605     -7.605     -7.538     -7.527


   #   Z            q   n(s)   n(p)   n(d)      C6AA      α(0)
   1   7 N     -0.394  1.308  4.086  0.000    30.201     8.162
   2   6 C      0.023  1.059  2.917  0.000    20.195     6.400
   3   6 C      0.259  1.048  2.693  0.000    22.634     7.791
   4   8 O     -0.485  1.741  4.744  0.000    23.447     6.492
   5   6 C     -0.072  1.058  3.015  0.000    21.852     6.650
   6   6 C     -0.018  1.065  2.953  0.000    20.896     6.509
   7  16 S     -0.221  1.913  4.255  0.054   150.512    20.649
   8   6 C     -0.057  1.051  3.006  0.000    21.664     6.639
   9   1 H      0.165  0.835  0.000  0.000     1.302     1.787
  10   1 H      0.040  0.960  0.000  0.000     2.450     2.448
  11   1 H      0.051  0.949  0.000  0.000     2.303     2.373
  12   1 H      0.066  0.934  0.000  0.000     2.131     2.283
  13   1 H      0.075  0.925  0.000  0.000     2.036     2.232
  14   1 H      0.048  0.952  0.000  0.000     2.348     2.396
  15   1 H      0.053  0.947  0.000  0.000     2.287     2.365
  16   1 H      0.049  0.951  0.000  0.000     2.330     2.387
  17   1 H      0.058  0.942  0.000  0.000     2.220     2.330
  18   7 N     -0.168  1.241  3.927  0.000    24.631     7.371
  19   6 C      0.005  1.064  2.930  0.000    20.490     6.445
  20   6 C      0.273  1.042  2.686  0.000    22.389     7.749
  21   8 O     -0.478  1.741  4.737  0.000    23.310     6.473
  22   6 C     -0.088  1.063  3.025  0.000    22.174     6.703
  23   6 C     -0.014  1.055  2.959  0.000    20.782     6.484
  24   6 C     -0.129  1.043  3.087  0.000    23.032     6.842
  25   6 C     -0.122  1.042  3.080  0.000    22.894     6.822
  26   1 H      0.222  0.778  0.000  0.000     1.000     1.566
  27   1 H      0.097  0.903  0.000  0.000     1.813     2.105
  28   1 H      0.078  0.922  0.000  0.000     1.997     2.210
  29   1 H      0.058  0.942  0.000  0.000     2.227     2.334
  30   1 H      0.034  0.966  0.000  0.000     2.536     2.490
  31   1 H      0.042  0.958  0.000  0.000     2.420     2.433
  32   1 H      0.044  0.956  0.000  0.000     2.399     2.422
  33   1 H      0.063  0.937  0.000  0.000     2.159     2.298
  34   1 H      0.037  0.963  0.000  0.000     2.485     2.465
  35   1 H      0.054  0.946  0.000  0.000     2.273     2.358
  36   1 H      0.040  0.960  0.000  0.000     2.442     2.444
  37   7 N     -0.175  1.235  3.940  0.000    24.790     7.395
  38   6 C     -0.007  1.072  2.935  0.000    20.703     6.479
  39   6 C      0.266  1.041  2.693  0.000    22.512     7.770
  40   8 O     -0.480  1.740  4.740  0.000    23.346     6.478
  41   6 C      0.109  1.049  2.842  0.000    18.889     6.206
  42   8 O     -0.460  1.722  4.738  0.000    22.044     6.338
  43   6 C     -0.141  1.043  3.098  0.000    23.279     6.880
  44   1 H      0.211  0.789  0.000  0.000     1.052     1.607
  45   1 H      0.096  0.904  0.000  0.000     1.819     2.109
  46   1 H      0.037  0.963  0.000  0.000     2.485     2.465
  47   1 H      0.328  0.672  0.000  0.000     0.642     1.259
  48   1 H      0.079  0.921  0.000  0.000     1.986     2.204
  49   1 H      0.058  0.942  0.000  0.000     2.221     2.331
  50   1 H      0.073  0.927  0.000  0.000     2.054     2.241
  51   7 N     -0.165  1.236  3.929  0.000    24.572     7.362
  52   6 C      0.005  1.067  2.928  0.000    20.491     6.445
  53   6 C      0.269  1.042  2.689  0.000    22.459     7.761
  54   8 O     -0.496  1.746  4.750  0.000    23.693     6.526
  55   6 C     -0.099  1.059  3.040  0.000    22.376     6.734
  56   6 C     -0.088  1.054  3.034  0.000    22.178     6.705
  57   6 C     -0.031  1.053  2.977  0.000    21.204     6.571
  58   7 N     -0.141  1.213  3.928  0.000    24.050     7.284
  59   6 C      0.233  1.018  2.749  0.000    23.110     7.871
  60   7 N     -0.243  1.228  4.015  0.000    26.343     7.623
  61   7 N     -0.245  1.228  4.018  0.000    26.391     7.630
  62   1 H      0.214  0.786  0.000  0.000     1.039     1.597
  63   1 H      0.093  0.907  0.000  0.000     1.854     2.129
  64   1 H      0.088  0.912  0.000  0.000     1.900     2.155
  65   1 H      0.083  0.917  0.000  0.000     1.949     2.183
  66   1 H      0.077  0.923  0.000  0.000     2.010     2.217
  67   1 H      0.076  0.924  0.000  0.000     2.020     2.222
  68   1 H      0.089  0.911  0.000  0.000     1.888     2.149
  69   1 H      0.089  0.911  0.000  0.000     1.890     2.150
  70   1 H      0.229  0.771  0.000  0.000     0.969     1.542
  71   1 H      0.249  0.751  0.000  0.000     0.887     1.475
  72   1 H      0.244  0.756  0.000  0.000     0.905     1.490
  73   1 H      0.239  0.761  0.000  0.000     0.929     1.510
  74   1 H      0.242  0.758  0.000  0.000     0.917     1.500
  75   7 N     -0.172  1.245  3.927  0.000    24.729     7.386
  76   6 C      0.014  1.064  2.922  0.000    20.333     6.420
  77   6 C      0.276  1.043  2.681  0.000    22.331     7.738
  78   8 O     -0.514  1.750  4.765  0.000    24.098     6.582
  79   6 C     -0.086  1.056  3.030  0.000    22.143     6.699
  80   6 C     -0.083  1.052  3.031  0.000    22.076     6.689
  81   6 C     -0.021  1.051  2.970  0.000    21.030     6.543
  82   7 N     -0.162  1.224  3.938  0.000    24.512     7.353
  83   6 C      0.231  1.020  2.749  0.000    23.150     7.878
  84   7 N     -0.271  1.237  4.034  0.000    27.022     7.720
  85   7 N     -0.282  1.254  4.028  0.000    27.279     7.757
  86   1 H      0.237  0.763  0.000  0.000     0.934     1.514
  87   1 H      0.081  0.919  0.000  0.000     1.964     2.192
  88   1 H      0.083  0.917  0.000  0.000     1.945     2.181
  89   1 H      0.067  0.933  0.000  0.000     2.119     2.276
  90   1 H      0.064  0.936  0.000  0.000     2.150     2.293
  91   1 H      0.077  0.923  0.000  0.000     2.013     2.219
  92   1 H      0.079  0.921  0.000  0.000     1.988     2.205
  93   1 H      0.086  0.914  0.000  0.000     1.914     2.164
  94   1 H      0.232  0.768  0.000  0.000     0.958     1.534
  95   1 H      0.259  0.741  0.000  0.000     0.848     1.443
  96   1 H      0.223  0.777  0.000  0.000     0.997     1.564
  97   1 H      0.241  0.759  0.000  0.000     0.919     1.502
  98   1 H      0.212  0.788  0.000  0.000     1.048     1.603
  99   7 N     -0.182  1.249  3.932  0.000    24.933     7.416
 100   6 C      0.023  1.064  2.913  0.000    20.189     6.398
 101   6 C      0.280  1.041  2.679  0.000    22.264     7.727
 102   8 O     -0.525  1.753  4.772  0.000    24.344     6.615
 103   6 C     -0.027  1.064  2.963  0.000    21.022     6.521
 104   6 C     -0.112  1.036  3.076  0.000    22.699     6.793
 105   6 C     -0.131  1.042  3.088  0.000    23.061     6.847
 106   1 H      0.243  0.757  0.000  0.000     0.911     1.495
 107   1 H      0.055  0.945  0.000  0.000     2.256     2.349
 108   1 H      0.066  0.934  0.000  0.000     2.126     2.280
 109   1 H      0.068  0.932  0.000  0.000     2.109     2.271
 110   1 H      0.019  0.981  0.000  0.000     2.754     2.595
 111   1 H      0.034  0.966  0.000  0.000     2.534     2.489
 112   1 H      0.070  0.930  0.000  0.000     2.081     2.256
 113   1 H      0.043  0.957  0.000  0.000     2.406     2.426
 114   1 H      0.070  0.930  0.000  0.000     2.090     2.261
 115   7 N     -0.188  1.255  3.933  0.000    25.086     7.439
 116   6 C      0.020  1.060  2.920  0.000    20.237     6.405
 117   6 C      0.289  1.042  2.669  0.000    22.107     7.700
 118   8 O     -0.540  1.751  4.789  0.000    24.691     6.662
 119   6 C     -0.093  1.066  3.028  0.000    22.273     6.718
 120   6 C     -0.010  1.054  2.957  0.000    20.725     6.475
 121   6 C     -0.121  1.041  3.080  0.000    22.869     6.819
 122   6 C     -0.140  1.047  3.093  0.000    23.249     6.875
 123   1 H      0.248  0.752  0.000  0.000     0.892     1.480
 124   1 H      0.081  0.919  0.000  0.000     1.969     2.194
 125   1 H      0.076  0.924  0.000  0.000     2.025     2.225
 126   1 H      0.079  0.921  0.000  0.000     1.989     2.205
 127   1 H      0.016  0.984  0.000  0.000     2.791     2.613
 128   1 H      0.036  0.964  0.000  0.000     2.507     2.476
 129   1 H      0.027  0.973  0.000  0.000     2.633     2.538
 130   1 H      0.056  0.944  0.000  0.000     2.252     2.347
 131   1 H      0.049  0.951  0.000  0.000     2.329     2.386
 132   1 H      0.061  0.939  0.000  0.000     2.186     2.312
 133   1 H      0.071  0.929  0.000  0.000     2.079     2.255
 134   7 N     -0.184  1.252  3.932  0.000    24.979     7.423
 135   6 C      0.032  1.055  2.913  0.000    20.030     6.372
 136   6 C      0.278  1.042  2.679  0.000    22.292     7.732
 137   8 O     -0.518  1.745  4.773  0.000    24.184     6.593
 138   6 C     -0.074  1.052  3.023  0.000    21.914     6.664
 139   6 C     -0.103  1.056  3.047  0.000    22.456     6.746
 140   6 C      0.286  1.040  2.674  0.000    22.155     7.707
 141   8 O     -0.506  1.739  4.767  0.000    23.908     6.556
 142   7 N     -0.287  1.268  4.019  0.000    27.413     7.776
 143   1 H      0.244  0.756  0.000  0.000     0.908     1.493
 144   1 H      0.066  0.934  0.000  0.000     2.128     2.281
 145   1 H      0.089  0.911  0.000  0.000     1.887     2.148
 146   1 H      0.072  0.928  0.000  0.000     2.062     2.246
 147   1 H      0.094  0.906  0.000  0.000     1.844     2.123
 148   1 H      0.062  0.938  0.000  0.000     2.180     2.309
 149   1 H      0.233  0.767  0.000  0.000     0.952     1.528
 150   1 H      0.211  0.789  0.000  0.000     1.050     1.605
 151   7 N     -0.181  1.250  3.931  0.000    24.928     7.415
 152   6 C      0.033  1.056  2.911  0.000    20.026     6.371
 153   6 C      0.283  1.042  2.675  0.000    22.211     7.718
 154   8 O     -0.510  1.740  4.770  0.000    24.008     6.569
 155   6 C     -0.073  1.058  3.015  0.000    21.883     6.658
 156   6 C     -0.011  1.055  2.956  0.000    20.733     6.476
 157   6 C     -0.107  1.040  3.067  0.000    22.592     6.777
 158   6 C     -0.112  1.038  3.074  0.000    22.697     6.792
 159   1 H      0.236  0.764  0.000  0.000     0.941     1.520
 160   1 H      0.065  0.935  0.000  0.000     2.136     2.286
 161   1 H      0.067  0.933  0.000  0.000     2.123     2.279
 162   1 H      0.035  0.965  0.000  0.000     2.510     2.478
 163   1 H      0.053  0.947  0.000  0.000     2.280     2.361
 164   1 H      0.049  0.951  0.000  0.000     2.337     2.391
 165   1 H      0.038  0.962  0.000  0.000     2.473     2.459
 166   1 H      0.036  0.964  0.000  0.000     2.499     2.472
 167   1 H      0.051  0.949  0.000  0.000     2.303     2.373
 168   1 H      0.025  0.975  0.000  0.000     2.653     2.547
 169   1 H      0.035  0.965  0.000  0.000     2.521     2.483
 170   7 N     -0.195  1.254  3.941  0.000    25.222     7.459
 171   6 C      0.040  1.056  2.904  0.000    19.898     6.351
 172   6 C      0.289  1.039  2.672  0.000    22.100     7.698
 173   8 O     -0.510  1.741  4.769  0.000    23.999     6.568
 174   6 C     -0.058  1.048  3.011  0.000    21.622     6.620
 175   6 C     -0.088  1.059  3.030  0.000    22.186     6.706
 176   6 C      0.367  1.026  2.607  0.000    20.774     7.459
 177   8 O     -0.575  1.750  4.825  0.000    25.519     6.773
 178   8 O     -0.591  1.752  4.839  0.000    25.903     6.824
 179   1 H      0.235  0.765  0.000  0.000     0.943     1.521
 180   1 H      0.043  0.957  0.000  0.000     2.405     2.425
 181   1 H      0.067  0.933  0.000  0.000     2.119     2.276
 182   1 H      0.036  0.964  0.000  0.000     2.503     2.474
 183   1 H      0.030  0.970  0.000  0.000     2.590     2.517
 184   1 H      0.044  0.956  0.000  0.000     2.397     2.421
 185   7 N     -0.189  1.249  3.940  0.000    25.090     7.439
 186   6 C      0.019  1.064  2.917  0.000    20.259     6.409
 187   6 C      0.278  1.043  2.679  0.000    22.302     7.733
 188   8 O     -0.515  1.740  4.775  0.000    24.121     6.585
 189   6 C      0.119  1.045  2.836  0.000    18.731     6.179
 190   8 O     -0.463  1.708  4.754  0.000    22.101     6.346
 191   6 C     -0.129  1.041  3.088  0.000    23.044     6.845
 192   1 H      0.227  0.773  0.000  0.000     0.977     1.548
 193   1 H      0.068  0.932  0.000  0.000     2.103     2.268
 194   1 H      0.030  0.970  0.000  0.000     2.583     2.513
 195   1 H      0.320  0.680  0.000  0.000     0.664     1.280
 196   1 H      0.080  0.920  0.000  0.000     1.974     2.197
 197   1 H      0.044  0.956  0.000  0.000     2.392     2.418
 198   1 H      0.063  0.937  0.000  0.000     2.166     2.302
 199   7 N     -0.182  1.251  3.931  0.000    24.950     7.419
 200   6 C      0.020  1.067  2.913  0.000    20.241     6.405
 201   6 C      0.277  1.041  2.683  0.000    22.319     7.736
 202   8 O     -0.493  1.746  4.747  0.000    23.635     6.518
 203   6 C     -0.020  1.062  2.958  0.000    20.888     6.500
 204   6 C     -0.125  1.041  3.084  0.000    22.957     6.832
 205   6 C     -0.127  1.042  3.085  0.000    22.989     6.836
 206   1 H      0.228  0.772  0.000  0.000     0.975     1.547
 207   1 H      0.071  0.929  0.000  0.000     2.078     2.254
 208   1 H      0.041  0.959  0.000  0.000     2.430     2.438
 209   1 H      0.077  0.923  0.000  0.000     2.015     2.220
 210   1 H      0.033  0.967  0.000  0.000     2.542     2.493
 211   1 H      0.063  0.937  0.000  0.000     2.159     2.298
 212   1 H      0.076  0.924  0.000  0.000     2.023     2.224
 213   1 H      0.052  0.948  0.000  0.000     2.300     2.372
 214   1 H      0.043  0.957  0.000  0.000     2.406     2.426
 215   7 N     -0.197  1.254  3.942  0.000    25.271     7.466
 216   6 C      0.032  1.058  2.910  0.000    20.038     6.373
 217   6 C      0.284  1.041  2.675  0.000    22.186     7.713
 218   8 O     -0.495  1.739  4.757  0.000    23.677     6.524
 219   6 C     -0.068  1.058  3.011  0.000    21.802     6.646
 220   6 C     -0.005  1.054  2.951  0.000    20.633     6.461
 221   6 C     -0.116  1.040  3.076  0.000    22.783     6.806
 222   6 C     -0.109  1.041  3.068  0.000    22.641     6.784
 223   1 H      0.227  0.773  0.000  0.000     0.978     1.549
 224   1 H      0.071  0.929  0.000  0.000     2.074     2.252
 225   1 H      0.061  0.939  0.000  0.000     2.184     2.311
 226   1 H      0.038  0.962  0.000  0.000     2.478     2.461
 227   1 H      0.017  0.983  0.000  0.000     2.775     2.605
 228   1 H      0.048  0.952  0.000  0.000     2.343     2.394
 229   1 H      0.038  0.962  0.000  0.000     2.472     2.459
 230   1 H      0.049  0.951  0.000  0.000     2.337     2.390
 231   1 H      0.048  0.952  0.000  0.000     2.351     2.398
 232   1 H      0.043  0.957  0.000  0.000     2.409     2.427
 233   1 H      0.030  0.970  0.000  0.000     2.590     2.517
 234   7 N     -0.195  1.251  3.943  0.000    25.227     7.460
 235   6 C      0.038  1.058  2.904  0.000    19.937     6.357
 236   6 C      0.284  1.040  2.677  0.000    22.195     7.715
 237   8 O     -0.480  1.735  4.745  0.000    23.351     6.479
 238   6 C     -0.062  1.048  3.014  0.000    21.679     6.628
 239   6 C     -0.093  1.057  3.036  0.000    22.270     6.719
 240   6 C      0.367  1.026  2.607  0.000    20.783     7.461
 241   8 O     -0.584  1.756  4.828  0.000    25.729     6.801
 242   8 O     -0.560  1.753  4.807  0.000    25.104     6.719
 243   1 H      0.221  0.779  0.000  0.000     1.006     1.571
 244   1 H      0.047  0.953  0.000  0.000     2.361     2.403
 245   1 H      0.059  0.941  0.000  0.000     2.210     2.325
 246   1 H      0.051  0.949  0.000  0.000     2.312     2.378
 247   1 H      0.046  0.954  0.000  0.000     2.370     2.407
 248   1 H      0.048  0.952  0.000  0.000     2.346     2.395
 249   7 N     -0.157  1.233  3.924  0.000    24.399     7.336
 250   6 C     -0.023  1.051  2.973  0.000    21.063     6.548
 251   6 C      0.212  1.083  2.706  0.000    23.518     7.942
 252   8 O     -0.353  1.749  4.604  0.000    20.764     6.109
 253   1 H      0.207  0.793  0.000  0.000     1.073     1.623
 254   1 H      0.094  0.906  0.000  0.000     1.842     2.122
 255   1 H      0.117  0.883  0.000  0.000     1.640     2.003
 256   7 N     -0.409  1.316  4.093  0.000    30.626     8.219
 257   6 C      0.038  1.059  2.903  0.000    19.949     6.361
 258   6 C      0.275  1.048  2.677  0.000    22.353     7.743
 259   8 O     -0.515  1.752  4.763  0.000    24.122     6.585
 260   6 C     -0.015  1.061  2.953  0.000    20.801     6.487
 261   6 C     -0.105  1.039  3.066  0.000    22.561     6.772
 262   6 C     -0.108  1.038  3.070  0.000    22.620     6.781
 263   1 H      0.181  0.819  0.000  0.000     1.209     1.722
 264   1 H      0.023  0.977  0.000  0.000     2.693     2.566
 265   1 H      0.038  0.962  0.000  0.000     2.470     2.458
 266   1 H      0.040  0.960  0.000  0.000     2.446     2.446
 267   1 H      0.026  0.974  0.000  0.000     2.640     2.541
 268   1 H      0.041  0.959  0.000  0.000     2.436     2.441
 269   1 H      0.033  0.967  0.000  0.000     2.538     2.491
 270   1 H      0.041  0.959  0.000  0.000     2.442     2.444
 271   1 H      0.048  0.952  0.000  0.000     2.349     2.397
 272   7 N     -0.167  1.245  3.922  0.000    24.610     7.368
 273   6 C      0.031  1.056  2.913  0.000    20.052     6.376
 274   6 C      0.208  1.086  2.706  0.000    23.586     7.954
 275   8 O     -0.362  1.750  4.612  0.000    20.942     6.135
 276   6 C      0.077  1.039  2.884  0.000    19.508     6.327
 277   8 O     -0.478  1.722  4.756  0.000    22.425     6.393
 278   1 H      0.226  0.774  0.000  0.000     0.982     1.552
 279   1 H      0.090  0.910  0.000  0.000     1.882     2.145
 280   1 H      0.058  0.942  0.000  0.000     2.220     2.330
 281   1 H      0.047  0.953  0.000  0.000     2.354     2.399
 282   1 H      0.352  0.648  0.000  0.000     0.583     1.199
 283   8 O     -0.607  1.742  4.865  0.000    25.342     6.794
 284   1 H      0.309  0.691  0.000  0.000     0.695     1.310
 285   1 H      0.329  0.671  0.000  0.000     0.641     1.257
 286   8 O     -0.623  1.743  4.880  0.000    25.754     6.849
 287   1 H      0.307  0.693  0.000  0.000     0.701     1.315
 288   1 H      0.307  0.693  0.000  0.000     0.700     1.315
 289   8 O     -0.659  1.772  4.887  0.000    26.641     6.966
 290   1 H      0.310  0.690  0.000  0.000     0.692     1.307
 291   1 H      0.298  0.702  0.000  0.000     0.729     1.341
 292   8 O     -0.652  1.768  4.885  0.000    26.469     6.944
 293   1 H      0.326  0.674  0.000  0.000     0.648     1.264
 294   1 H      0.304  0.696  0.000  0.000     0.710     1.323
 295   8 O     -0.658  1.773  4.886  0.000    26.627     6.964
 296   1 H      0.328  0.672  0.000  0.000     0.641     1.258
 297   1 H      0.309  0.691  0.000  0.000     0.694     1.309
 298   8 O     -0.652  1.766  4.886  0.000    26.457     6.942
 299   1 H      0.313  0.687  0.000  0.000     0.684     1.299
 300   1 H      0.289  0.711  0.000  0.000     0.754     1.364
 301   7 N     -0.400  1.317  4.083  0.000    30.381     8.186
 302   6 C      0.039  1.055  2.905  0.000    19.930     6.359
 303   6 C      0.196  1.096  2.709  0.000    23.824     7.994
 304   8 O     -0.369  1.746  4.623  0.000    21.072     6.154
 305   6 C     -0.076  1.063  3.014  0.000    21.952     6.669
 306   6 C     -0.016  1.056  2.960  0.000    20.826     6.491
 307   6 C     -0.126  1.042  3.084  0.000    22.968     6.833
 308   6 C     -0.123  1.043  3.080  0.000    22.905     6.824
 309   1 H      0.169  0.831  0.000  0.000     1.281     1.773
 310   1 H      0.050  0.950  0.000  0.000     2.321     2.383
 311   1 H      0.064  0.936  0.000  0.000     2.150     2.293
 312   1 H      0.048  0.952  0.000  0.000     2.348     2.396
 313   1 H      0.028  0.972  0.000  0.000     2.618     2.531
 314   1 H      0.048  0.952  0.000  0.000     2.351     2.398
 315   1 H      0.031  0.969  0.000  0.000     2.575     2.509
 316   1 H      0.062  0.938  0.000  0.000     2.173     2.305
 317   1 H      0.049  0.951  0.000  0.000     2.334     2.389
 318   1 H      0.057  0.943  0.000  0.000     2.229     2.335
 319   1 H      0.036  0.964  0.000  0.000     2.498     2.472
 320   7 N     -0.392  1.313  4.079  0.000    30.150     8.155
 321   6 C      0.032  1.058  2.910  0.000    20.050     6.377
 322   6 C      0.267  1.050  2.683  0.000    22.497     7.767
 323   8 O     -0.522  1.757  4.765  0.000    24.286     6.607
 324   6 C     -0.078  1.056  3.023  0.000    21.993     6.676
 325   6 C     -0.072  1.049  3.022  0.000    21.865     6.657
 326   6 C     -0.013  1.050  2.963  0.000    20.883     6.520
 327   7 N     -0.161  1.225  3.936  0.000    24.484     7.349
 328   6 C      0.233  1.019  2.749  0.000    23.122     7.873
 329   7 N     -0.255  1.226  4.029  0.000    26.622     7.663
 330   7 N     -0.275  1.253  4.022  0.000    27.111     7.733
 331   1 H      0.168  0.832  0.000  0.000     1.284     1.775
 332   1 H      0.031  0.969  0.000  0.000     2.577     2.510
 333   1 H      0.077  0.923  0.000  0.000     2.012     2.218
 334   1 H      0.049  0.951  0.000  0.000     2.336     2.390
 335   1 H      0.050  0.950  0.000  0.000     2.325     2.385
 336   1 H      0.061  0.939  0.000  0.000     2.191     2.315
 337   1 H      0.073  0.927  0.000  0.000     2.052     2.240
 338   1 H      0.073  0.927  0.000  0.000     2.054     2.241
 339   1 H      0.230  0.770  0.000  0.000     0.966     1.540
 340   1 H      0.242  0.758  0.000  0.000     0.916     1.499
 341   1 H      0.244  0.756  0.000  0.000     0.905     1.490
 342   1 H      0.240  0.760  0.000  0.000     0.925     1.507
 343   1 H      0.227  0.773  0.000  0.000     0.980     1.550
 344   7 N     -0.169  1.247  3.923  0.000    24.668     7.376
 345   6 C      0.027  1.062  2.911  0.000    20.127     6.389
 346   6 C      0.203  1.085  2.712  0.000    23.683     7.970
 347   8 O     -0.366  1.763  4.603  0.000    21.007     6.145
 348   6 C     -0.021  1.064  2.958  0.000    20.920     6.505
 349   6 C     -0.118  1.038  3.080  0.000    22.809     6.810
 350   6 C     -0.130  1.043  3.087  0.000    23.050     6.845
 351   1 H      0.251  0.749  0.000  0.000     0.881     1.471
 352   1 H      0.070  0.930  0.000  0.000     2.085     2.258
 353   1 H      0.060  0.940  0.000  0.000     2.202     2.321
 354   1 H      0.067  0.933  0.000  0.000     2.122     2.278
 355   1 H      0.027  0.973  0.000  0.000     2.631     2.536
 356   1 H      0.048  0.952  0.000  0.000     2.343     2.393
 357   1 H      0.074  0.926  0.000  0.000     2.047     2.237
 358   1 H      0.051  0.949  0.000  0.000     2.303     2.373
 359   1 H      0.065  0.935  0.000  0.000     2.138     2.287
 360   7 N     -0.396  1.311  4.085  0.000    30.270     8.171
 361   6 C      0.050  1.051  2.899  0.000    19.759     6.332
 362   6 C      0.202  1.094  2.704  0.000    23.712     7.975
 363   8 O     -0.392  1.760  4.632  0.000    21.524     6.220
 364   6 C     -0.067  1.059  3.008  0.000    21.781     6.643
 365   6 C     -0.004  1.053  2.951  0.000    20.611     6.457
 366   6 C     -0.105  1.040  3.064  0.000    22.557     6.771
 367   6 C     -0.102  1.036  3.066  0.000    22.500     6.763
 368   1 H      0.183  0.817  0.000  0.000     1.197     1.714
 369   1 H      0.028  0.972  0.000  0.000     2.617     2.530
 370   1 H      0.075  0.925  0.000  0.000     2.035     2.231
 371   1 H      0.030  0.970  0.000  0.000     2.593     2.518
 372   1 H      0.040  0.960  0.000  0.000     2.451     2.448
 373   1 H      0.035  0.965  0.000  0.000     2.515     2.480
 374   1 H      0.044  0.956  0.000  0.000     2.393     2.419
 375   1 H      0.041  0.959  0.000  0.000     2.435     2.440
 376   1 H      0.032  0.968  0.000  0.000     2.555     2.500
 377   1 H      0.028  0.972  0.000  0.000     2.613     2.528
 378   1 H      0.020  0.980  0.000  0.000     2.736     2.587
 379   7 N     -0.391  1.311  4.080  0.000    30.136     8.153
 380   6 C      0.021  1.064  2.915  0.000    20.240     6.409
 381   6 C      0.190  1.095  2.715  0.000    23.943     8.013
 382   8 O     -0.358  1.740  4.618  0.000    20.865     6.124
 383   6 C      0.117  1.047  2.836  0.000    18.758     6.184
 384   8 O     -0.454  1.712  4.742  0.000    21.929     6.322
 385   6 C     -0.138  1.043  3.095  0.000    23.224     6.872
 386   1 H      0.162  0.838  0.000  0.000     1.321     1.800
 387   1 H      0.073  0.927  0.000  0.000     2.050     2.239
 388   1 H      0.018  0.982  0.000  0.000     2.759     2.598
 389   1 H      0.319  0.681  0.000  0.000     0.666     1.282
 390   1 H      0.073  0.927  0.000  0.000     2.051     2.239
 391   1 H      0.046  0.954  0.000  0.000     2.372     2.408
 392   1 H      0.082  0.918  0.000  0.000     1.962     2.190
 393   7 N     -0.393  1.315  4.079  0.000    30.186     8.160
 394   6 C      0.032  1.062  2.907  0.000    20.055     6.378
 395   6 C      0.268  1.048  2.684  0.000    22.482     7.764
 396   8 O     -0.510  1.749  4.762  0.000    24.015     6.570
 397   6 C     -0.027  1.065  2.961  0.000    21.015     6.520
 398   6 C     -0.115  1.038  3.077  0.000    22.748     6.800
 399   6 C     -0.117  1.040  3.077  0.000    22.798     6.808
 400   1 H      0.162  0.838  0.000  0.000     1.324     1.803
 401   1 H      0.023  0.977  0.000  0.000     2.686     2.563
 402   1 H      0.057  0.943  0.000  0.000     2.237     2.339
 403   1 H      0.065  0.935  0.000  0.000     2.144     2.290
 404   1 H      0.026  0.974  0.000  0.000     2.637     2.540
[...]
   257  C   3.986    N  256 1.015    C  260 0.968    H  264 0.963    C  258 0.938
   258  C   3.939    O  259 1.614    N  272 1.308    C  257 0.938
   259  O   1.934    C  258 1.614    N  272 0.193
   260  C   3.994    C  262 1.008    C  261 1.008    C  257 0.968    H  265 0.962
   261  C   3.997    C  260 1.008    H  268 0.986    H  267 0.985    H  266 0.982
   262  C   3.995    C  260 1.008    H  270 0.986    H  269 0.985    H  271 0.977
   263  H   0.967    N  256 0.920
   264  H   0.999    C  257 0.963
   265  H   0.999    C  260 0.962
   266  H   0.998    C  261 0.982
   267  H   0.999    C  261 0.985
   268  H   0.998    C  261 0.986
   269  H   0.998    C  262 0.985
   270  H   0.998    C  262 0.986
   271  H   0.998    C  262 0.977
   272  N   3.475    C  258 1.308    C  273 0.984    H  278 0.902    O  259 0.193
   273  C   3.971    N  272 0.984    C  274 0.971    C  276 0.969    H  279 0.944    O  275 0.055
   274  C   3.901    O  275 1.898    C  273 0.971    H  591 0.953
   275  O   2.040    C  274 1.898    C  273 0.055
   276  C   3.960    O  277 1.004    C  273 0.969    H  281 0.965    H  280 0.964
   277  O   1.923    C  276 1.004    H  282 0.862
   278  H   0.949    N  272 0.902
   279  H   0.992    C  273 0.944
   280  H   0.997    C  276 0.964
   281  H   0.997    C  276 0.965
   282  H   0.876    O  277 0.862
   283  O   1.867    H  285 0.889    H  284 0.889
   284  H   0.905    O  283 0.889
   285  H   0.892    O  283 0.889
   286  O   1.806    H  287 0.904    H  288 0.888
   287  H   0.906    O  286 0.904
   288  H   0.906    O  286 0.888
   289  O   1.784    H  291 0.886    H  290 0.855
   290  H   0.904    O  289 0.855
   291  H   0.911    O  289 0.886
   292  O   1.788    H  293 0.893    H  294 0.874
   293  H   0.894    O  292 0.893
   294  H   0.908    O  292 0.874
   295  O   1.788    H  296 0.892    H  297 0.869
   296  H   0.892    O  295 0.892
   297  H   0.904    O  295 0.869
   298  O   1.788    H  300 0.891    H  299 0.853
   299  H   0.902    O  298 0.853
   300  H   0.916    O  298 0.891
   301  N   2.995    C  302 1.009    H  598 0.955    H  309 0.953
   302  C   3.982    N  301 1.009    C  303 0.980    C  305 0.961    H  310 0.950    O  304 0.054
   303  C   3.886    O  304 1.867    C  302 0.980    H  599 0.954
   304  O   2.057    C  303 1.867    C  302 0.054
   305  C   3.987    C  306 0.994    H  312 0.974    H  311 0.966    C  302 0.961
   306  C   3.995    C  307 1.010    C  308 1.008    C  305 0.994    H  313 0.967
   307  C   3.994    C  306 1.010    H  316 0.982    H  315 0.978    H  314 0.977
   308  C   3.994    C  306 1.008    H  319 0.986    H  318 0.984    H  317 0.984
   309  H   0.971    N  301 0.953
   310  H   0.997    C  302 0.950
   311  H   0.996    C  305 0.966
   312  H   0.998    C  305 0.974
   313  H   0.999    C  306 0.967
   314  H   0.998    C  307 0.977
   315  H   0.999    C  307 0.978
   316  H   0.996    C  307 0.982
   317  H   0.997    C  308 0.984
   318  H   0.997    C  308 0.984
   319  H   0.999    C  308 0.986
   320  N   2.995    C  321 1.013    H  600 0.959    H  331 0.949
   321  C   3.984    N  320 1.013    C  324 0.977    H  332 0.961    C  322 0.937
   322  C   3.939    O  323 1.587    N  344 1.330    C  321 0.937
   323  O   1.950    C  322 1.587    N  344 0.192
   324  C   3.989    C  325 1.005    C  321 0.977    H  334 0.972    H  333 0.962
   325  C   3.993    C  326 1.009    C  324 1.005    H  335 0.975    H  336 0.969
   326  C   3.963    C  325 1.009    N  327 0.986    H  337 0.962    H  338 0.954
   327  N   3.468    C  328 1.328    C  326 0.986    H  339 0.864    N  330 0.108    N  329 0.098
   328  C   3.976    N  327 1.328    N  330 1.324    N  329 1.293
   329  N   3.372    C  328 1.293    H  341 0.920    H  340 0.917    N  330 0.099    N  327 0.098
   330  N   3.388    C  328 1.324    H  343 0.926    H  342 0.847    N  327 0.108    N  329 0.099
   331  H   0.972    N  320 0.949
   332  H   0.998    C  321 0.961
   333  H   0.994    C  324 0.962
   334  H   0.998    C  324 0.972
   335  H   0.997    C  325 0.975
   336  H   0.996    C  325 0.969
   337  H   0.994    C  326 0.962
   338  H   0.995    C  326 0.954
   339  H   0.947    N  327 0.864
   340  H   0.941    N  329 0.917
   341  H   0.940    N  329 0.920
   342  H   0.943    N  330 0.847    O  177 0.074
   343  H   0.948    N  330 0.926
   344  N   3.481    C  322 1.330    C  345 0.977    H  351 0.879    O  323 0.192
   345  C   3.963    N  344 0.977    C  346 0.970    C  348 0.953    H  352 0.944    O  347 0.055
   346  C   3.897    O  347 1.893    C  345 0.970    H  601 0.955
   347  O   2.046    C  346 1.893    C  345 0.055
   348  C   3.983    C  349 1.008    C  350 1.005    H  353 0.964    C  345 0.953
   349  C   3.992    C  348 1.008    H  355 0.983    H  354 0.983    H  356 0.982
   350  C   3.988    C  348 1.005    H  358 0.984    H  357 0.980    H  359 0.974
   351  H   0.937    N  344 0.879
   352  H   0.995    C  345 0.944
   353  H   0.996    C  348 0.964
   354  H   0.995    C  349 0.983
   355  H   0.999    C  349 0.983
   356  H   0.998    C  349 0.982
   357  H   0.993    C  350 0.980
   358  H   0.997    C  350 0.984
   359  H   0.996    C  350 0.974
   360  N   2.999    C  361 1.013    H  602 0.960    H  368 0.925
   361  C   3.986    N  360 1.013    C  362 0.975    C  364 0.963    H  369 0.958    O  363 0.054
   362  C   3.887    O  363 1.882    C  361 0.975    H  603 0.954
   363  O   2.018    C  362 1.882    C  361 0.054
   364  C   3.989    C  365 0.992    H  371 0.971    C  361 0.963    H  370 0.960
   365  C   3.995    C  367 1.008    C  366 1.006    C  364 0.992    H  372 0.963
   366  C   3.995    C  365 1.006    H  373 0.980    H  375 0.980    H  374 0.979
   367  C   3.996    C  365 1.008    H  377 0.985    H  378 0.982    H  376 0.975
   368  H   0.966    N  360 0.925
   369  H   0.999    C  361 0.958
   370  H   0.994    C  364 0.960
   371  H   0.999    C  364 0.971
   372  H   0.998    C  365 0.963
   373  H   0.998    C  366 0.980
   374  H   0.998    C  366 0.979
   375  H   0.998    C  366 0.980
   376  H   0.999    C  367 0.975
   377  H   0.999    C  367 0.985
   378  H   1.000    C  367 0.982
   379  N   2.999    C  380 1.015    H  604 0.954    H  386 0.950
   380  C   3.981    N  379 1.015    C  381 0.985    H  387 0.947    C  383 0.928    O  382 0.057
   381  C   3.894    O  382 1.868    C  380 0.985    H  605 0.954
   382  O   2.063    C  381 1.868    C  380 0.057
   383  C   3.957    C  385 1.005    O  384 0.999    H  388 0.962    C  380 0.928
   384  O   1.967    C  383 0.999    H  389 0.877
   385  C   3.988    C  383 1.005    H  391 0.984    H  390 0.982    H  392 0.977
   386  H   0.974    N  379 0.950
   387  H   0.995    C  380 0.947
   388  H   0.999    C  383 0.962
   389  H   0.898    O  384 0.877
   390  H   0.995    C  385 0.982
   391  H   0.998    C  385 0.984
   392  H   0.993    C  385 0.977
   393  N   2.995    C  394 1.010    H  606 0.960    H  400 0.950
   394  C   3.981    N  393 1.010    C  397 0.967    H  401 0.957    C  395 0.934
   395  C   3.939    O  396 1.586    N  409 1.332    C  394 0.934
   396  O   1.964    C  395 1.586    N  409 0.196
   397  C   3.991    C  398 1.009    C  399 1.008    C  394 0.967    H  402 0.958
   398  C   3.994    C  397 1.009    H  405 0.984    H  404 0.983    H  403 0.981
   399  C   3.994    C  397 1.008    H  407 0.985    H  408 0.982    H  406 0.979
   400  H   0.974    N  393 0.950
   401  H   0.999    C  394 0.957
   402  H   0.996    C  397 0.958
   403  H   0.996    C  398 0.981
   404  H   0.999    C  398 0.983
   405  H   0.999    C  398 0.984
   406  H   0.995    C  399 0.979
   407  H   0.998    C  399 0.985
   408  H   0.998    C  399 0.982
   409  N   3.480    C  395 1.332    C  410 0.975    H  417 0.878    O  396 0.196
   410  C   3.962    C  411 0.979    N  409 0.975    C  413 0.965    H  418 0.932    O  412 0.054
   411  C   3.896    O  412 1.874    C  410 0.979    H  607 0.955
   412  O   2.028    C  411 1.874    C  410 0.054
   413  C   3.984    C  414 0.994    H  420 0.972    H  419 0.965    C  410 0.965
   414  C   3.994    C  415 1.010    C  416 1.007    C  413 0.994    H  421 0.967
   415  C   3.994    C  414 1.010    H  422 0.986    H  424 0.985    H  423 0.982
   416  C   3.995    C  414 1.007    H  427 0.987    H  425 0.986    H  426 0.985
   417  H   0.940    N  409 0.878
   418  H   0.989    C  410 0.932
   419  H   0.994    C  413 0.965
   420  H   0.996    C  413 0.972
   421  H   1.000    C  414 0.967
   422  H   0.998    C  415 0.986
   423  H   0.998    C  415 0.982
   424  H   0.997    C  415 0.985
   425  H   0.998    C  416 0.986
   426  H   0.997    C  416 0.985
   427  H   0.999    C  416 0.987
   428  N   2.998    C  429 1.013    H  608 0.959    H  436 0.953
   429  C   3.985    N  428 1.013    C  432 0.979    H  437 0.961    C  430 0.936
   430  C   3.943    O  431 1.590    N  447 1.330    C  429 0.936
   431  O   1.948    C  430 1.590    N  447 0.196
   432  C   3.991    C  433 0.995    C  429 0.979    H  439 0.972    H  438 0.960
   433  C   3.996    C  435 1.009    C  434 1.007    C  432 0.995    H  440 0.967
   434  C   3.994    C  433 1.007    H  441 0.983    H  443 0.981    H  442 0.979
   435  C   3.996    C  433 1.009    H  445 0.986    H  444 0.985    H  446 0.984
   436  H   0.975    N  428 0.953
   437  H   0.999    C  429 0.961
   438  H   0.995    C  432 0.960
   439  H   0.999    C  432 0.972
   440  H   0.999    C  433 0.967
   441  H   0.997    C  434 0.983
   442  H   0.998    C  434 0.979
   443  H   0.999    C  434 0.981
   444  H   0.998    C  435 0.985
   445  H   0.999    C  435 0.986
   446  H   0.999    C  435 0.984
   447  N   3.482    C  430 1.330    C  448 0.975    H  456 0.879    O  431 0.196
   448  C   3.967    N  447 0.975    C  449 0.974    C  451 0.966    H  457 0.946    O  450 0.055
   449  C   3.903    O  450 1.889    C  448 0.974    H  609 0.955
   450  O   2.034    C  449 1.889    C  448 0.055
   451  C   3.983    C  452 1.007    H  459 0.974    C  448 0.966    H  458 0.962
   452  C   3.987    C  451 1.007    H  460 0.971    H  461 0.946    C  453 0.937
   453  C   3.936    O  454 1.494    O  455 1.465    C  452 0.937
   454  O   1.901    C  453 1.494    O  455 0.203    H   97 0.075
   455  O   1.880    C  453 1.465    O  454 0.203
   456  H   0.942    N  447 0.879
   457  H   0.995    C  448 0.946
   458  H   0.994    C  451 0.962
   459  H   0.997    C  451 0.974
   460  H   0.998    C  452 0.971
   461  H   0.998    C  452 0.946
   462  N   2.992    C  463 1.011    H  610 0.959    H  470 0.923
   463  C   3.987    N  462 1.011    C  464 0.980    C  466 0.962    H  471 0.960    O  465 0.053
   464  C   3.889    O  465 1.887    C  463 0.980    H  611 0.953
   465  O   2.023    C  464 1.887    C  463 0.053
   466  C   3.992    C  467 0.995    H  473 0.972    H  472 0.971    C  463 0.962
   467  C   3.996    C  468 1.009    C  469 1.008    C  466 0.995    H  474 0.968
   468  C   3.996    C  467 1.009    H  475 0.984    H  477 0.984    H  476 0.984
   469  C   3.996    C  467 1.008    H  479 0.986    H  480 0.983    H  478 0.982
   470  H   0.966    N  462 0.923
   471  H   0.998    C  463 0.960
   472  H   0.998    C  466 0.971
   473  H   0.997    C  466 0.972
   474  H   0.999    C  467 0.968
   475  H   0.999    C  468 0.984
   476  H   0.998    C  468 0.984
   477  H   0.999    C  468 0.984
   478  H   0.998    C  469 0.982
   479  H   0.999    C  469 0.986
   480  H   0.998    C  469 0.983
   481  N   3.000    C  482 1.015    H  592 0.956    H  489 0.949
   482  C   3.985    N  481 1.015    C  483 0.971    C  485 0.965    H  490 0.957    O  484 0.054
   483  C   3.891    O  484 1.885    C  482 0.971    H  593 0.953
   484  O   2.044    C  483 1.885    C  482 0.054
   485  C   3.991    C  486 1.009    H  492 0.968    C  482 0.965    H  491 0.964
   486  C   3.977    C  485 1.009    S  487 0.990    H  493 0.973    H  494 0.967
   487  S   2.090    C  488 1.010    C  486 0.990
   488  C   3.980    S  487 1.010    H  497 0.981    H  495 0.981    H  496 0.978
   489  H   0.971    N  481 0.949
   490  H   0.997    C  482 0.957
   491  H   0.995    C  485 0.964
   492  H   0.996    C  485 0.968
   493  H   0.998    C  486 0.973
   494  H   0.994    C  486 0.967
   495  H   0.997    C  488 0.981
   496  H   0.995    C  488 0.978
   497  H   0.998    C  488 0.981
   498  N   2.997    C  499 1.030    H  594 0.955    H  507 0.938
   499  C   3.987    N  498 1.030    C  500 0.983    C  502 0.960    H  508 0.931    O  501 0.063
   500  C   3.893    O  501 1.883    C  499 0.983    H  595 0.953
   501  O   2.029    C  500 1.883    C  499 0.063
   502  C   3.993    C  503 1.006    H  509 0.975    H  510 0.972    C  499 0.960
   503  C   3.995    C  502 1.006    C  504 1.003    H  511 0.976    H  512 0.970
   504  C   3.991    C  505 1.007    C  503 1.003    H  513 0.974    H  514 0.973
   505  C   3.940    C  504 1.007    N  506 0.975    H  515 0.969    H  516 0.966
   506  N   3.595    C  505 0.975    H  519 0.919    H  518 0.916    H  517 0.671    O  242 0.079
   507  H   0.969    N  498 0.938
   508  H   0.996    C  499 0.931
   509  H   0.998    C  502 0.975
   510  H   0.997    C  502 0.972
   511  H   0.999    C  503 0.976
   512  H   0.997    C  503 0.970
   513  H   0.996    C  504 0.974
   514  H   0.996    C  504 0.973
   515  H   0.994    C  505 0.969
   516  H   0.993    C  505 0.966
   517  H   0.904    N  506 0.671    O  242 0.213
   518  H   0.930    N  506 0.916
   519  H   0.933    N  506 0.919
   520  N   2.986    C  521 1.012    H  596 0.954    H  529 0.952
   521  C   3.988    N  520 1.012    C  524 0.980    H  530 0.965    C  522 0.941
   522  C   3.943    O  523 1.590    N  535 1.322    C  521 0.941
   523  O   1.936    C  522 1.590    N  535 0.189
   524  C   3.993    C  525 1.008    C  521 0.980    H  531 0.975    H  532 0.964
   525  C   3.990    C  524 1.008    H  534 0.979    H  533 0.961    C  526 0.920    O  528 0.052    O  527 0.051
   526  C   3.933    O  528 1.508    O  527 1.482    C  525 0.920
   527  O   1.777    C  526 1.482    O  528 0.214    C  525 0.051
   528  O   1.796    C  526 1.508    O  527 0.214    C  525 0.052
   529  H   0.971    N  520 0.952
   530  H   0.999    C  521 0.965
   531  H   0.999    C  524 0.975
   532  H   0.996    C  524 0.964
   533  H   1.000    C  525 0.961
   534  H   1.000    C  525 0.979
   535  N   3.483    C  522 1.322    C  536 0.980    H  546 0.910    O  523 0.189
   536  C   3.960    N  535 0.980    C  539 0.978    H  547 0.944    C  537 0.935    O  538 0.051
   537  C   3.952    O  538 1.609    N  559 1.314    C  536 0.935
   538  O   1.966    C  537 1.609    N  559 0.191    C  536 0.051
   539  C   3.980    C  540 1.006    C  536 0.978    H  548 0.968    H  549 0.967
   540  C   3.989    C  539 1.006    C  541 0.998    H  550 0.972    H  551 0.970
   541  C   3.956    C  540 0.998    N  542 0.989    H  553 0.964    H  552 0.955
   542  N   3.474    C  543 1.319    C  541 0.989    H  554 0.909    N  545 0.101    N  544 0.099
   543  C   3.976    N  542 1.319    N  545 1.312    N  544 1.310
   544  N   3.384    C  543 1.310    H  556 0.917    H  555 0.916    N  542 0.099    N  545 0.095
   545  N   3.373    C  543 1.312    H  557 0.914    H  558 0.911    N  542 0.101    N  544 0.095
   546  H   0.948    N  535 0.910
   547  H   0.995    C  536 0.944
   548  H   0.992    C  539 0.968
   549  H   0.992    C  539 0.967
   550  H   0.996    C  540 0.972
   551  H   0.995    C  540 0.970
   552  H   0.990    C  541 0.955
   553  H   0.994    C  541 0.964
   554  H   0.940    N  542 0.909
   555  H   0.944    N  544 0.916
   556  H   0.939    N  544 0.917
   557  H   0.934    N  545 0.914
   558  H   0.935    N  545 0.911
   559  N   3.488    C  537 1.314    C  560 0.983    H  568 0.917    O  538 0.191
   560  C   3.955    N  559 0.983    C  563 0.977    H  569 0.933    C  561 0.933    O  562 0.056
   561  C   3.947    O  562 1.638    N  581 1.295    C  560 0.933
   562  O   1.957    C  561 1.638    N  581 0.195    C  560 0.056
   563  C   3.980    C  564 1.005    C  560 0.977    H  570 0.972    H  571 0.967
   564  C   3.990    C  563 1.005    C  565 1.003    H  573 0.974    H  572 0.974
   565  C   3.986    C  566 1.008    C  564 1.003    H  574 0.971    H  575 0.971
   566  C   3.917    C  565 1.008    H  576 0.965    H  577 0.963    N  567 0.963
   567  N   3.667    C  566 0.963    H  580 0.900    H  579 0.898    H  578 0.888
   568  H   0.955    N  559 0.917
   569  H   0.990    C  560 0.933
   570  H   0.996    C  563 0.972
   571  H   0.993    C  563 0.967
   572  H   0.996    C  564 0.974
   573  H   0.996    C  564 0.974
   574  H   0.993    C  565 0.971
   575  H   0.994    C  565 0.971
   576  H   0.988    C  566 0.965
   577  H   0.986    C  566 0.963
   578  H   0.902    N  567 0.888
   579  H   0.912    N  567 0.898
   580  H   0.914    N  567 0.900
   581  N   3.470    C  561 1.295    C  582 1.009    H  585 0.890    O  562 0.195
   582  C   3.968    N  581 1.009    C  583 1.000    H  587 0.934    H  586 0.927    O  584 0.067
   583  C   3.902    O  584 1.888    C  582 1.000    H  597 0.953
   584  O   2.035    C  583 1.888    C  582 0.067
   585  H   0.955    N  581 0.890
   586  H   0.988    C  582 0.927
   587  H   0.984    C  582 0.934
   588  H   0.966    N    1 0.955
   589  H   0.993    C  251 0.953
   590  H   0.969    N  256 0.959
   591  H   0.994    C  274 0.953
   592  H   0.967    N  481 0.956
   593  H   0.994    C  483 0.953
   594  H   0.969    N  498 0.955
   595  H   0.994    C  500 0.953
   596  H   0.964    N  520 0.954
   597  H   0.993    C  583 0.953
   598  H   0.966    N  301 0.955
   599  H   0.994    C  303 0.954
   600  H   0.970    N  320 0.959
   601  H   0.995    C  346 0.955
   602  H   0.971    N  360 0.960
   603  H   0.995    C  362 0.954
   604  H   0.966    N  379 0.954
   605  H   0.994    C  381 0.954
   606  H   0.970    N  393 0.960
   607  H   0.996    C  411 0.955
   608  H   0.969    N  428 0.959
   609  H   0.995    C  449 0.955
   610  H   0.970    N  462 0.959
   611  H   0.994    C  464 0.953
 
molecular dipole:
                 x           y           z       tot (Debye)
 q only:      115.918      82.257      -0.759
   full:      116.152      82.176      -3.121     361.739
molecular quadrupole (traceless):
                xx          xy          yy          xz          yz          zz
 q only:     5061.528    6940.923     378.908     436.189    1746.190   -5440.437
  q+dip:     5193.579    6960.627     356.520     271.231    1667.667   -5550.100
   full:     5196.339    6959.428     363.807     270.902    1668.121   -5560.146
speedup 11.53
cpu  time for grad   51.48 s
wall time for grad    4.47 s

SCC energy    :    -904.1714749
rep           :      10.7668741
ES            :       2.8542969
AES           :      -0.1637432
AXC           :       0.3184138
disp          :      -0.7647782
XB            :       0.0000000
fix           :       0.0000000
Gborn         :       0.0000000
Gsasa         :       0.0000000
Ghb           :       0.0000000
Gshift        :       0.0000000
Gsolv         :      -0.7899036     -495.67
Etot ala COSMO:    -904.1714749
grad norm     :       0.7761155
total E       :    -893.3270167
atomizationE  :     161.6932680   101464.06
(atE without considering molecular charge,
 total energy contains solvation terms)
H-L gap (eV)  :          1.5565

------------------------------------------------------------------------
 * finished run on 2019/02/18 at 08:32:53.284     
------------------------------------------------------------------------
 total:
 * wall-time:     0 d,  0 h,  0 min,  5.244 sec
 *  cpu-time:     0 d,  0 h,  0 min, 59.143 sec
 * ratio c/w:    11.279 speedup
 SCF:
 * wall-time:     0 d,  0 h,  0 min,  4.922 sec
 *  cpu-time:     0 d,  0 h,  0 min, 55.821 sec
 * ratio c/w:    11.340 speedup

