      -----------------------------------------------------------      
     |                   =====================                   |     
     |                           x T B                           |     
     |                   =====================                   |     
     |                         S. Grimme                         |     
     |          Mulliken Center for Theoretical Chemistry        |     
     |                    University of Bonn                     |     
     |                 Version 6.0.1 (SAW181210)                 |     
      -----------------------------------------------------------      

   This program is distributed in the hope that it will be useful,
   but WITHOUT ANY WARRANTY; without even the implied warranty of
   MERCHANTABILITY or FITNESS FOR A PARTICULAR PURPOSE.
   
   FOR NON-COMMERCIAL, ACADEMIA USE ONLY.
   
   Cite this work as:
   S. Grimme, C. Bannwarth, P. Shushkov, J. Comput. Theory Chem., 2017,
   13, 1989-2009.
   C. Bannwarth, S. Ehlert and S. Grimme., ChemRxiv, 2018, preprint.
   http://doi.org/10.26434/chemrxiv.7246238.v1
   
   for sTDA-xTB:
   S. Grimme and C. Bannwarth, J. Chem. Phys., 2016, 145, 054103.
   
   in the mass-spec context:
   V. Asgeirsson, C. Bauer and S. Grimme, Chem. Sci., 2017, 8, 4879.
   
   if GBSA is used:
   P. Shushkov, F. März and S. Grimme, unpublished.
   
   for ANC optimizer:
   S. Grimme, unpublished.
   Rational Function algorithm used in ANCopt:
   F. Eckert, P. Pulay, H.-J. Werner, J. Comput. Chem., 1997, 18, 1473.
   
   with help from (in alphabetical order)
   C. Bannwarth, F. Bohle, G. Brandenburg, E. Caldeweyher, M. Checinski,
   S. Dohm, S. Ehlert, S. Ehrlich, F. März, H. Neugebauer, J. Pisarek,
   P. Pracht, P. Shushkov, and S. Spicher.
   
 * started run on 2019/05/04 at 20:27:00.054     
========================================================================
 # omp threads = 2
========================================================================
number of atoms            : 849
number of electrons        : 2340
charge                     : -4
spin                       : .0
first test random number   : .9859

########################################################################
# WARNING! Please study the warnings concerning your input carefully
#  - Process number higher than OMP_NUM_THREADS, I hope you know what you are doing.
########################################################################

           ------------------------------------------------- 
          |                 G F N 2 - x T B                 |
          | Geometry, Frequencies, Noncovalent interactions |
          |            JCTC 2018 parametrisation            |
           ------------------------------------------------- 
 
      method parameters     
 k(s)        :  1.8500
 k(p)        :  2.2300
 k(d)        :  2.2300
 k(f)        :  2.0000
 kEN (H0ij)  : -2.0000
 D4 a1       :  0.5200
 D4 a2       :  5.0000
 D4 s6       :  1.0000
 D4 s8       :  2.7000
 D4 s9       :  5.0000
 alphaj      :  2.0000

 Solvent             : h2o
 Using internal parameter file: .param_gbsa2_h2o
 Gsolv ref. state (COSMO-RS): gsolv [1 M gas/solution]
 temperature (mdtemp)       :    298.150000000000     
 dielectric constant        :    80.2000000000000     
 rho                        :    1.00000000000000     
 mass                       :    18.0000000000000     
 surface tension            :    15.5689454083859     
 probe radius               :   0.975313790000000     
 vdW radii scaling          :    1.00000000000000     
 Gshift (Eh)                :   1.857443126794793E-003
 c1                         :    1.55243817000000     
 soset                      :   0.130326360000000     
 HB correction              :  T

            Z     q(EN)     CN     RAES       Cart. coordinates
     1  N   5.0   -0.22    3.19    1.95   -26.97206   139.80571    26.88891
     2  C   4.0    0.02    4.26    4.11   -28.27030   139.99846    29.29642
     3  C   4.0    0.14    3.42    3.09   -31.10300   140.33861    28.95060
     4  O   6.0   -0.31    1.28    1.80   -32.51462   138.48101    28.96950
     5  C   4.0   -0.09    4.14    3.88   -27.18371   142.15086    30.87434
     6  H   1.0    0.06    1.03    1.43   -25.62657   141.16064    26.62246
     7  H   1.0    0.03    1.06    1.44   -27.97928   138.23912    30.32632
     8  H   1.0    0.03    1.00    1.43   -28.19471   142.24534    32.66580
     9  H   1.0    0.02    1.00    1.43   -25.18438   141.78992    31.21449
    10  H   1.0    0.03    1.00    1.43   -27.41236   143.91964    29.84444
    11  N   5.0   -0.15    3.46    2.05   -31.91558   142.69888    28.58022
    12  C   4.0    0.03    4.36    4.31   -34.60088   143.34516    28.75218
    13  C   4.0    0.16    3.46    3.10   -36.34510   141.50457    27.39914
    14  O   6.0   -0.32    1.32    1.80   -38.38411   140.94332    28.36857
    15  C   4.0   -0.09    4.12    3.84   -35.06953   146.00590    27.85834
    16  H   1.0    0.06    1.06    1.44   -30.77419   144.19365    28.16070
    17  H   1.0    0.05    1.07    1.44   -35.08654   143.23556    30.75151
    18  H   1.0    0.04    1.00    1.43   -37.08209   146.41975    28.01141
    19  H   1.0    0.03    1.00    1.43   -33.99239   147.30792    29.03564
    20  H   1.0    0.03    1.00    1.43   -34.46671   146.17030    25.89491
    21  N   5.0   -0.14    3.48    2.06   -35.52118   140.55404    25.21083
    22  C   4.0    0.03    4.36    4.30   -36.94792   138.66620    23.77275
    23  C   4.0    0.16    3.50    3.11   -37.62822   136.44199    25.45461
    24  O   6.0   -0.32    1.49    1.80   -39.84487   136.05460    26.09334
    25  C   4.0   -0.09    4.15    3.91   -35.43803   137.76291    21.54288
    26  H   1.0    0.07    1.06    1.44   -33.85822   141.05670    24.37558
    27  H   1.0    0.04    1.06    1.44   -38.68458   139.52414    23.06977
    28  H   1.0    0.03    1.00    1.43   -36.53974   136.36262    20.50920
    29  H   1.0    0.03    1.00    1.43   -35.01851   139.36729    20.32211
    30  H   1.0    0.04    1.01    1.43   -33.68437   136.91820    22.21751
    31  N   5.0   -0.14    3.50    2.08   -35.69881   135.00202    26.18971
    32  C   4.0    0.04    4.38    4.34   -36.04085   132.91010    27.94527
    33  C   4.0    0.17    3.52    3.13   -37.88145   133.64142    30.00507
    34  O   6.0   -0.31    1.32    1.80   -39.85621   132.46790    30.25073
    35  C   4.0   -0.08    4.14    3.88   -33.54453   132.15232    29.08666
    36  H   1.0    0.08    1.06    1.44   -33.87901   135.24013    25.60201
    37  H   1.0    0.05    1.06    1.44   -36.77218   131.28304    26.91537
    38  H   1.0    0.04    1.00    1.43   -33.85066   130.58762    30.39057
    39  H   1.0    0.03    1.00    1.43   -32.26707   131.57028    27.57866
    40  H   1.0    0.05    1.00    1.43   -32.75273   133.76425    30.09578
    41  N   5.0   -0.14    3.51    2.08   -37.25217   135.63697    31.40536
    42  C   4.0    0.03    4.44    4.44   -38.77151   136.44388    33.52752
    43  C   4.0    0.15    3.46    3.10   -41.42657   137.19788    32.73950
    44  O   6.0   -0.32    1.25    1.80   -43.18024   137.05993    34.26262
    45  C   4.0   -0.04    4.27    4.15   -37.49972   138.56604    35.00528
    46  C   4.0   -0.03    4.18    3.96   -38.26884   138.54526    37.80397
    47  C   4.0    0.24    3.10    3.02   -37.40713   140.86395    39.30630
    48  O   6.0   -0.30    1.18    1.80   -35.81976   142.36250    38.36333
    49  O   6.0   -0.30    1.17    1.80   -38.32931   141.17765    41.46437
    50  H   1.0    0.10    1.07    1.44   -35.69314   136.72923    31.10489
    51  H   1.0    0.05    1.07    1.44   -38.92835   134.85462    34.82954
    52  H   1.0    0.05    1.03    1.43   -35.45504   138.33739    34.89568
    53  H   1.0    0.06    1.03    1.43   -38.04963   140.37829    34.19837
    54  H   1.0    0.06    1.03    1.43   -40.32297   138.46022    37.91924
    55  H   1.0    0.04    1.03    1.43   -37.44303   136.88419    38.69970
    56  N   5.0   -0.12    3.55    2.12   -41.75349   137.94621    30.36790
    57  C   4.0    0.04    4.57    4.63   -44.29896   138.48290    29.47784
    58  C   4.0    0.15    3.56    3.14   -45.61987   136.14531    28.47817
    59  O   6.0   -0.31    1.30    1.80   -47.77038   135.63508    29.19249
    60  C   4.0   -0.02    4.30    4.20   -44.39722   140.61451    27.56543
    61  C   4.0   -0.08    4.15    3.90   -46.95591   140.64663    26.20105
    62  C   4.0   -0.07    4.13    3.87   -43.95692   143.09194    28.91848
    63  H   1.0    0.13    1.13    1.45   -40.34943   138.18810    29.06965
    64  H   1.0    0.06    1.09    1.44   -45.32130   139.14808    31.13701
    65  H   1.0    0.05    1.06    1.44   -42.93457   140.34239    26.14058
    66  H   1.0    0.03    1.00    1.43   -46.97292   142.19432    24.84234
    67  H   1.0    0.05    1.01    1.43   -47.21858   138.85139    25.22406
    68  H   1.0    0.05    1.00    1.43   -48.45257   140.91497    27.59000
    69  H   1.0    0.03    1.00    1.43   -44.02495   144.62640    27.54654
    70  H   1.0    0.04    1.00    1.43   -45.42712   143.35083    30.33766
    71  H   1.0    0.06    1.00    1.43   -42.10687   143.04281    29.82365
    72  N   5.0   -0.14    3.57    2.13   -44.36699   134.69967    26.86245
    73  C   4.0    0.04    4.46    4.48   -45.47625   132.31672    26.08767
    74  C   4.0    0.17    3.48    3.11   -45.95436   130.67644    28.40636
    75  O   6.0   -0.32    1.28    1.80   -47.41511   128.87931    28.30432
    76  C   4.0   -0.04    4.29    4.18   -43.80007   130.91832    24.22629
    77  C   4.0   -0.03    4.19    3.98   -45.18713   128.79049    22.83545
    78  C   4.0    0.24    3.11    3.03   -43.39945   126.99147    21.46351
    79  O   6.0   -0.30    1.18    1.80   -41.38878   126.34141    22.54443
    80  O   6.0   -0.31    1.16    1.80   -44.00794   126.21669    19.30544
    81  H   1.0    0.12    1.18    1.46   -42.64922   135.11163    26.08767
    82  H   1.0    0.05    1.06    1.44   -47.24315   132.67766    25.09178
    83  H   1.0    0.04    1.03    1.43   -43.10654   132.25247    22.81844
    84  H   1.0    0.07    1.03    1.43   -42.21648   130.08495    25.24674
    85  H   1.0    0.06    1.03    1.43   -46.26994   127.69256    24.20172
    86  H   1.0    0.04    1.03    1.43   -46.45135   129.61819    21.43705
    87  N   5.0   -0.12    3.58    2.14   -44.71092   131.31895    30.49262
    88  C   4.0    0.04    4.46    4.48   -45.16634   130.05850    32.88312
    89  C   4.0    0.16    3.48    3.10   -47.74204   130.71045    33.91869
    90  O   6.0   -0.30    1.26    1.80   -49.21602   129.01726    34.56120
    91  C   4.0   -0.03    4.30    4.19   -43.13488   130.71045    34.83143
    92  C   4.0   -0.03    4.19    3.97   -41.21303   128.61097    35.22071
    93  C   4.0    0.24    3.14    3.03   -42.44702   126.09574    35.90668
    94  O   6.0   -0.30    1.18    1.80   -43.70180   125.97102    37.89656
    95  O   6.0   -0.30    1.17    1.80   -42.17112   124.24192    34.46104
    96  H   1.0    0.11    1.12    1.45   -43.37677   132.70600    30.58332
    97  H   1.0    0.07    1.08    1.44   -45.07185   128.03082    32.53730
    98  H   1.0    0.06    1.04    1.43   -42.12010   132.38664    34.19837
    99  H   1.0    0.06    1.04    1.43   -44.04384   131.07895    36.64179
   100  H   1.0    0.06    1.03    1.43   -40.14534   128.34452    33.48027
   101  H   1.0    0.04    1.03    1.43   -39.94125   129.13820    36.75328
   102  N   5.0   -0.13    3.50    2.08   -48.29195   133.15576    34.09255
   103  C   4.0    0.04    4.46    4.47   -50.67678   133.94755    35.19615
   104  C   4.0    0.16    3.48    3.11   -52.79327   132.83451    33.61256
   105  O   6.0   -0.31    1.26    1.80   -54.30128   131.34540    34.56120
   106  C   4.0   -0.05    4.29    4.18   -50.88276   136.81805    35.39268
   107  C   4.0   -0.05    4.21    4.01   -51.91455   137.64764    37.91924
   108  C   4.0   -0.01    4.21    4.02   -51.72369   140.48034    38.29719
   109  N   5.0   -0.14    3.37    2.01   -52.54194   141.22489    40.84076
   110  C   4.0    0.09    3.33    3.06   -54.86630   142.01857    41.46248
   111  N   5.0   -0.18    3.27    1.97   -56.66721   142.20944    39.72393
   112  N   5.0   -0.19    3.24    1.96   -55.41054   142.63840    43.84542
   113  H   1.0    0.10    1.06    1.44   -47.15244   134.59384    33.50106
   114  H   1.0    0.05    1.07    1.44   -50.80528   133.27670    37.13878
   115  H   1.0    0.05    1.04    1.43   -49.01193   137.64764    35.15646
   116  H   1.0    0.04    1.04    1.43   -52.14888   137.50780    33.92247
   117  H   1.0    0.04    1.03    1.43   -53.90065   137.11851    38.04396
   118  H   1.0    0.04    1.03    1.43   -50.84497   136.72923    39.41968
   119  H   1.0    0.04    1.03    1.43   -49.76593   141.07182    38.04774
   120  H   1.0    0.04    1.03    1.43   -52.92744   141.43465    36.92525
   121  H   1.0    0.08    1.06    1.44   -51.23425   141.13040    42.25238
   122  H   1.0    0.08    1.03    1.43   -56.28927   141.75023    37.89090
   123  H   1.0    0.09    1.03    1.43   -58.42844   142.81604    40.22282
   124  H   1.0    0.08    1.02    1.43   -54.05372   142.50990    45.20791
   125  H   1.0    0.08    1.04    1.44   -57.18311   143.24123    44.30462
   126  N   5.0   -0.14    3.51    2.09   -52.79516   133.43355    31.17292
   127  C   4.0    0.04    4.49    4.52   -54.73969   132.52081    29.43815
   128  C   4.0    0.15    3.44    3.09   -54.99858   129.65032    29.37957
   129  O   6.0   -0.31    1.24    1.80   -57.05083   128.68089    28.89769
   130  C   4.0    0.05    4.26    4.12   -54.24647   133.42221    26.76041
   131  O   6.0   -0.25    2.14    1.85   -52.90666   135.76547    26.85679
   132  C   4.0   -0.08    4.08    3.77   -56.72390   133.78693    25.35067
   133  H   1.0    0.11    1.09    1.44   -51.47236   134.55227    30.32821
   134  H   1.0    0.05    1.07    1.44   -56.51036   133.31828    30.12412
   135  H   1.0    0.04    1.05    1.44   -53.12965   132.02381    25.73996
   136  H   1.0    0.11    1.01    1.43   -52.56840   136.37396    25.14091
   137  H   1.0    0.03    1.00    1.43   -56.35352   134.43510    23.43071
   138  H   1.0    0.05    1.00    1.43   -57.75569   132.00681    25.26753
   139  H   1.0    0.04    1.00    1.43   -57.88420   135.18721    26.31632
   140  N   5.0   -0.13    3.49    2.07   -52.93311   128.30672    29.88413
   141  C   4.0    0.04    4.45    4.46   -52.92744   125.54016    29.81610
   142  C   4.0    0.15    3.48    3.10   -54.58284   124.35531    31.82298
   143  O   6.0   -0.33    1.30    1.80   -55.54660   122.28039    31.48850
   144  C   4.0   -0.04    4.31    4.23   -50.25348   124.51026    30.12601
   145  C   4.0   -0.05    4.19    3.98   -49.97947   121.73426    29.43248
   146  C   4.0   -0.01    4.24    4.08   -50.74481   121.29395    26.69049
   147  N   5.0   -0.15    3.38    2.01   -49.33508   119.20013    25.55287
   148  C   4.0    0.09    3.33    3.06   -47.07874   119.43257    24.44361
   149  N   5.0   -0.18    3.25    1.97   -45.93546   121.67756    24.31888
   150  N   5.0   -0.19    3.22    1.96   -45.95625   117.40678    23.46095
   151  H   1.0    0.11    1.07    1.44   -51.22669   129.07206    30.34900
   152  H   1.0    0.05    1.07    1.44   -53.65877   125.00537    27.96605
   153  H   1.0    0.07    1.06    1.44   -48.98737   125.58741    28.91092
   154  H   1.0    0.06    1.03    1.43   -49.68845   124.72191    32.09511
   155  H   1.0    0.05    1.03    1.43   -48.01605   121.15600    29.66681
   156  H   1.0    0.05    1.03    1.43   -51.19835   120.59664    30.64380
   157  H   1.0    0.04    1.02    1.43   -52.75170   120.83853    26.60923
   158  H   1.0    0.04    1.04    1.43   -50.36498   122.99659    25.59634
   159  H   1.0    0.07    1.06    1.44   -50.13065   117.44458    25.61146
   160  H   1.0    0.09    1.03    1.43   -46.78395   123.23470    25.07477
   161  H   1.0    0.10    1.02    1.43   -44.21392   121.83630    23.46851
   162  H   1.0    0.07    1.02    1.43   -46.81796   115.68524    23.55732
   163  H   1.0    0.08    1.02    1.43   -44.23471   117.57497    22.61246
   164  N   5.0   -0.14    3.59    2.15   -54.87386   125.65355    33.93759
   165  C   4.0    0.03    4.50    4.53   -56.37808   124.62932    35.97471
   166  C   4.0    0.15    3.50    3.11   -59.14275   125.07151    35.40213
   167  O   6.0   -0.32    1.32    1.80   -60.76792   123.57296    36.09755
   168  C   4.0   -0.05    4.28    4.15   -55.57306   125.78961    38.48238
   169  C   4.0   -0.04    4.20    4.00   -52.70824   125.66300    38.90190
   170  C   4.0   -0.05    4.19    3.98   -51.71991   122.95313    38.71859
   171  C   4.0   -0.02    4.13    3.86   -49.02516   122.87376    37.71515
   172  N   5.0   -0.12    3.99    2.84   -48.11998   120.23570    37.29374
   173  H   1.0    0.11    1.08    1.44   -54.10474   127.38643    34.28719
   174  H   1.0    0.05    1.07    1.44   -56.07573   122.60353    36.19770
   175  H   1.0    0.05    1.03    1.43   -56.13620   127.77004    38.51639
   176  H   1.0    0.04    1.03    1.43   -56.48958   124.76916    40.01873
   177  H   1.0    0.07    1.04    1.43   -51.75959   126.79494    37.46571
   178  H   1.0    0.05    1.03    1.43   -52.26226   126.38676    40.77840
   179  H   1.0    0.04    1.03    1.43   -51.73881   122.09330    40.58942
   180  H   1.0    0.04    1.04    1.43   -52.91989   121.87599    37.43547
   181  H   1.0    0.06    1.02    1.43   -48.94390   123.87532    35.91613
   182  H   1.0    0.06    1.02    1.43   -47.77038   123.77138    39.07764
   183  H   1.0    0.07    1.01    1.43   -46.27750   120.25838    36.60966
   184  H   1.0    0.05    1.01    1.43   -48.16156   119.23226    38.98316
   185  H   1.0    0.05    1.01    1.43   -49.27460   119.33052    35.98605
   186  N   5.0   -0.14    3.59    2.15   -59.64920   127.10864    34.03963
   187  C   4.0    0.04    4.48    4.50   -62.15876   127.58485    33.07209
   188  C   4.0    0.16    3.47    3.10   -62.90520   125.52316    31.23717
   189  O   6.0   -0.31    1.24    1.80   -65.06893   125.37954    30.43215
   190  C   4.0   -0.04    4.38    4.35   -62.24757   130.14921    31.79086
   191  C   4.0   -0.02    4.18    3.97   -62.88252   132.39609    33.49917
   192  C   4.0   -0.07    4.09    3.79   -61.84506   132.18633    36.22038
   193  C   4.0   -0.07    4.11    3.82   -61.96600   134.78848    32.21038
   194  H   1.0    0.09    1.07    1.44   -58.35663   128.46168    33.57665
   195  H   1.0    0.05    1.06    1.44   -63.52692   127.65099    34.61033
   196  H   1.0    0.06    1.05    1.44   -60.39942   130.51770    30.96127
   197  H   1.0    0.05    1.04    1.43   -63.68187   130.08118    30.31498
   198  H   1.0    0.04    1.07    1.44   -64.92531   132.44711    33.75806
   199  H   1.0    0.04    1.00    1.43   -62.39497   133.86630    37.27862
   200  H   1.0    0.04    1.00    1.43   -62.63497   130.50447    37.11044
   201  H   1.0    0.05    1.00    1.43   -59.79093   132.04271    36.14668
   202  H   1.0    0.05    1.00    1.43   -62.40631   136.40609    33.40658
   203  H   1.0    0.04    1.00    1.43   -59.93077   134.65998    31.92503
   204  H   1.0    0.04    1.00    1.43   -62.91843   134.97935    30.39435
   205  N   5.0   -0.13    3.57    2.13   -61.08539   123.93579    30.57577
   206  C   4.0    0.05    4.43    4.44   -61.64664   121.60198    29.26997
   207  C   4.0    0.16    3.47    3.10   -62.46867   119.65934    31.21260
   208  O   6.0   -0.31    1.28    1.80   -64.55871   118.65022    31.02930
   209  C   4.0   -0.05    4.28    4.16   -59.35629   120.65711    27.77519
   210  C   4.0   -0.03    4.22    4.05   -59.46212   117.87544    26.94938
   211  C   4.0    0.16    3.21    3.04   -61.31783   117.38978    24.80832
   212  O   6.0   -0.29    1.20    1.80   -63.62329   117.40678    25.18816
   213  N   5.0   -0.19    3.17    1.95   -60.31249   116.91734    22.54443
   214  H   1.0    0.10    1.10    1.44   -59.20889   124.21736    30.91970
   215  H   1.0    0.07    1.06    1.44   -63.14141   121.91000    27.88669
   216  H   1.0    0.05    1.03    1.43   -59.18244   121.79662    26.06877
   217  H   1.0    0.07    1.06    1.44   -57.67822   120.88388    28.94871
   218  H   1.0    0.04    1.03    1.43   -57.59129   117.30096    26.30687
   219  H   1.0    0.06    1.04    1.43   -60.03848   116.72459    28.55754
   220  H   1.0    0.07    1.02    1.43   -58.39820   116.89656    22.32522
   221  H   1.0    0.09    1.02    1.43   -61.45956   116.57719    21.03265
   222  N   5.0   -0.14    3.48    2.06   -60.85296   119.18124    33.09288
   223  C   4.0    0.03    4.37    4.33   -61.31972   117.15545    34.94292
   224  C   4.0    0.15    3.42    3.08   -63.71400   117.59198    36.50006
   225  O   6.0   -0.31    1.24    1.80   -64.83650   115.81563    37.51295
   226  C   4.0   -0.04    4.22    4.04   -58.98780   116.63955    36.63423
   227  C   4.0   -0.03    4.19    3.99   -58.59662   118.38944    38.93780
   228  C   4.0    0.14    3.18    3.03   -56.94122   117.23293    41.04863
   229  O   6.0   -0.30    1.20    1.80   -56.50092   114.94447    41.12989
   230  N   5.0   -0.19    3.17    1.95   -56.04360   118.83542    42.77017
   231  H   1.0    0.10    1.06    1.44   -59.21267   120.14878    33.39335
   232  H   1.0    0.05    1.06    1.44   -61.60696   115.40934    33.89035
   233  H   1.0    0.06    1.03    1.43   -59.14653   114.71959    37.36366
   234  H   1.0    0.05    1.03    1.43   -57.30405   116.81152    35.46071
   235  H   1.0    0.04    1.03    1.43   -57.68011   120.12043    38.30286
   236  H   1.0    0.05    1.05    1.44   -60.43722   118.82597    39.75605
   237  H   1.0    0.08    1.03    1.43   -56.46123   120.71380    42.64922
   238  H   1.0    0.09    1.02    1.43   -54.94000   118.18535    44.21014
   239  N   5.0   -0.13    3.54    2.11   -64.49635   119.97303    36.61533
   240  C   4.0    0.03    4.46    4.48   -66.69221   120.70625    38.05908
   241  C   4.0    0.15    3.50    3.11   -69.10539   120.39444    36.55108
   242  O   6.0   -0.33    1.53    1.80   -70.87795   119.20013    37.44681
   243  C   4.0   -0.04    4.34    4.27   -66.38985   123.39721    39.02095
   244  C   4.0   -0.01    3.51    3.12   -64.89130   123.57296    41.45492
   245  C   4.0   -0.05    3.44    3.09   -65.83616   124.89577    43.52039
   246  C   4.0   -0.04    3.46    3.10   -62.52536   122.40511    41.71381
   247  C   4.0   -0.04    3.49    3.11   -64.47178   125.07151    45.78239
   248  C   4.0   -0.05    3.40    3.08   -61.13452   122.57329    43.98337
   249  C   4.0    0.06    3.41    3.08   -62.12852   123.91500    46.01105
   250  O   6.0   -0.24    2.12    1.84   -60.81894   124.12854    48.26360
   251  H   1.0    0.11    1.11    1.45   -63.63085   121.44135    35.71582
   252  H   1.0    0.06    1.07    1.44   -66.84906   119.49304    39.71637
   253  H   1.0    0.05    1.04    1.43   -65.40719   124.50837    37.59232
   254  H   1.0    0.04    1.04    1.43   -68.25690   124.19279    39.37055
   255  H   1.0    0.04    1.03    1.43   -67.65786   125.80473    43.37677
   256  H   1.0    0.06    1.06    1.44   -61.75246   121.35631    40.14345
   257  H   1.0    0.05    1.11    1.44   -65.24657   126.11275    47.35653
   258  H   1.0    0.05    1.04    1.43   -59.31283   121.66623    44.14400
   259  H   1.0    0.12    1.03    1.43   -59.20889   123.22147    48.14833
   260  N   5.0   -0.14    3.56    2.13   -69.18854   121.43379    34.26451
   261  C   4.0    0.03    4.45    4.47   -71.28046   120.86876    32.56565
   262  C   4.0    0.16    3.52    3.12   -71.61872   118.02283    32.60722
   263  O   6.0   -0.32    1.25    1.80   -73.70687   117.08364    33.02107
   264  C   4.0   -0.05    4.29    4.18   -70.70977   121.77583    29.88602
   265  C   4.0   -0.05    4.17    3.95   -72.89807   121.50749    28.03408
   266  C   4.0   -0.01    4.21    4.01   -71.94565   121.46780    25.30154
   267  N   5.0   -0.14    3.38    2.01   -74.01490   121.43001    23.46095
   268  C   4.0    0.09    3.33    3.06   -73.72766   121.23915    20.96462
   269  N   5.0   -0.19    3.25    1.97   -71.43731   121.05584    19.94228
   270  N   5.0   -0.19    3.23    1.96   -75.75344   121.22781    19.48118
   271  H   1.0    0.09    1.08    1.44   -67.86951   122.64510    33.55019
   272  H   1.0    0.04    1.06    1.44   -72.99633   121.84764    33.14768
   273  H   1.0    0.05    1.04    1.43   -70.20521   123.77138    29.96349
   274  H   1.0    0.06    1.04    1.43   -69.13184   120.67790    29.14524
   275  H   1.0    0.04    1.03    1.43   -73.89584   119.74437    28.40258
   276  H   1.0    0.04    1.03    1.43   -74.18308   123.10242    28.25329
   277  H   1.0    0.05    1.03    1.43   -70.81370   123.15533    24.95761
   278  H   1.0    0.04    1.03    1.43   -70.80047   119.78028    25.01052
   279  H   1.0    0.07    1.06    1.44   -75.81392   121.56040    24.14125
   280  H   1.0    0.08    1.03    1.43   -69.87451   121.05962    21.07044
   281  H   1.0    0.07    1.02    1.43   -71.24456   120.91034    18.02988
   282  H   1.0    0.07    1.02    1.43   -77.51467   121.36387    20.25408
   283  H   1.0    0.07    1.02    1.43   -75.54746   121.08230    17.57067
   284  N   5.0   -0.14    3.52    2.09   -69.50790   116.68680    32.27085
   285  C   4.0    0.04    4.41    4.39   -69.43042   113.92969    32.28786
   286  C   4.0    0.16    3.43    3.09   -70.15041   112.76940    34.81064
   287  O   6.0   -0.32    1.35    1.80   -70.93086   110.57731    34.89757
   288  C   4.0   -0.03    4.29    4.17   -66.82449   112.95648    31.51118
   289  C   4.0   -0.03    4.18    3.97   -66.40875   112.82987    28.66525
   290  C   4.0    0.24    3.12    3.03   -64.36596   110.94203    27.92637
   291  O   6.0   -0.29    1.17    1.80   -62.42143   111.75839    26.86434
   292  O   6.0   -0.30    1.17    1.80   -64.69666   108.64412    28.41014
   293  H   1.0    0.11    1.10    1.44   -67.77691   117.48048    31.97416
   294  H   1.0    0.05    1.06    1.44   -70.80425   113.29663    30.88946
   295  H   1.0    0.06    1.03    1.43   -65.39208   114.21126    32.29542
   296  H   1.0    0.06    1.04    1.43   -66.58260   111.05352    32.26329
   297  H   1.0    0.05    1.03    1.43   -68.16619   112.25728    27.75441
   298  H   1.0    0.08    1.03    1.43   -65.83616   114.68747    27.98684
   299  N   5.0   -0.12    3.51    2.09   -69.85561   114.19425    36.86288
   300  C   4.0    0.04    4.51    4.55   -70.66819   113.23427    39.29874
   301  C   4.0    0.16    3.45    3.09   -73.40451   113.94481    39.88834
   302  O   6.0   -0.30    1.35    1.80   -74.81236   112.38578    40.86154
   303  C   4.0   -0.04    4.32    4.23   -68.86539   114.03929    41.40201
   304  C   4.0   -0.04    4.06    3.73   -69.43987   112.89412    43.98715
   305  S   6.0   -0.02    2.62    3.10   -70.70599   109.71371    43.96447
   306  C   4.0   -0.06    3.88    3.43   -70.70410   108.97861    47.28283
   307  H   1.0    0.12    1.10    1.44   -69.08460   115.96114    36.88745
   308  H   1.0    0.06    1.11    1.45   -70.55292   111.17825    39.25906
   309  H   1.0    0.06    1.03    1.43   -66.95677   113.46859    40.88044
   310  H   1.0    0.05    1.03    1.43   -68.95988   116.08775    41.59665
   311  H   1.0    0.04    1.07    1.44   -67.69187   112.84499    45.07374
   312  H   1.0    0.06    1.10    1.44   -70.82315   114.09220    44.93201
   313  H   1.0    0.05    1.04    1.43   -71.43920   107.07187    47.54739
   314  H   1.0    0.04    1.04    1.43   -68.77469   109.09199    47.99337
   315  H   1.0    0.05    1.04    1.43   -71.89840   110.33543    48.27116
   316  N   5.0   -0.14    3.52    2.09   -74.15852   116.27295    39.30630
   317  C   4.0    0.04    4.48    4.50   -76.79090   117.04963    39.61244
   318  C   4.0    0.16    3.54    3.13   -78.49166   115.20903    38.26506
   319  O   6.0   -0.31    1.36    1.80   -79.99210   113.85032    39.42535
   320  C   4.0   -0.05    4.45    4.46   -77.24822   119.63855    38.45403
   321  C   4.0   -0.03    4.20    4.01   -77.52790   121.92323    40.17935
   322  C   4.0   -0.08    4.16    3.92   -79.92974   123.27060    39.45559
   323  C   4.0   -0.08    4.17    3.93   -77.57325   121.23159    42.95536
   324  H   1.0    0.13    1.22    1.47   -73.00200   117.65434    38.62411
   325  H   1.0    0.05    1.08    1.44   -77.21609   117.11766    41.62688
   326  H   1.0    0.05    1.04    1.43   -75.65896   120.04484    37.20870
   327  H   1.0    0.05    1.07    1.44   -78.98865   119.52328    37.35988
   328  H   1.0    0.04    1.06    1.44   -75.89139   123.15155    39.94314
   329  H   1.0    0.03    1.00    1.43   -80.16784   124.91655    40.67068
   330  H   1.0    0.04    1.00    1.43   -79.79935   123.86398    37.48649
   331  H   1.0    0.05    1.02    1.43   -81.51900   121.98370    39.69747
   332  H   1.0    0.04    1.00    1.43   -77.77734   122.95124    44.07219
   333  H   1.0    0.04    1.01    1.43   -79.16440   119.97303    43.30685
   334  H   1.0    0.04    1.01    1.43   -75.80825   120.28484    43.43913
   335  N   5.0   -0.14    3.54    2.11   -78.21954   115.21848    35.77440
   336  C   4.0    0.03    4.47    4.50   -79.43652   113.40434    34.13223
   337  C   4.0    0.15    3.48    3.11   -79.10393   110.72849    35.19615
   338  O   6.0   -0.32    1.33    1.80   -80.95775   109.36600    35.51929
   339  C   4.0   -0.02    4.32    4.24   -78.40473   113.65568    31.39024
   340  C   4.0   -0.05    4.19    3.98   -79.32125   116.14256    30.20916
   341  C   4.0   -0.08    4.12    3.85   -79.15117   111.39179    29.76129
   342  C   4.0   -0.08    4.01    3.64   -78.31024   116.65656    27.56732
   343  H   1.0    0.10    1.09    1.44   -77.13861   116.49594    34.81631
   344  H   1.0    0.05    1.06    1.44   -81.45664   113.79930    34.06609
   345  H   1.0    0.06    1.06    1.44   -76.34682   113.68591    31.48283
   346  H   1.0    0.04    1.03    1.43   -81.37727   116.09153    30.08822
   347  H   1.0    0.05    1.03    1.43   -78.72409   117.70158    31.41669
   348  H   1.0    0.03    1.00    1.43   -78.38961   111.65068    27.86401
   349  H   1.0    0.04    1.00    1.43   -78.37827   109.67780    30.60222
   350  H   1.0    0.04    1.00    1.43   -81.20530   111.27084    29.68193
   351  H   1.0    0.03    1.00    1.43   -79.06424   118.45369    26.89836
   352  H   1.0    0.04    1.00    1.43   -76.25422   116.74160    27.64102
   353  H   1.0    0.03    1.00    1.43   -78.90551   115.13533    26.31443
   354  N   5.0   -0.14    3.46    2.05   -76.76067   110.02551    35.81409
   355  C   4.0    0.04    4.33    4.26   -76.17107   107.48383    36.77785
   356  C   4.0    0.16    3.43    3.09   -77.39373   106.89991    39.31197
   357  O   6.0   -0.30    1.24    1.80   -77.42774   104.72294    40.13400
   358  C   4.0   -0.05    4.16    3.92   -73.31759   107.05298    36.93658
   359  H   1.0    0.10    1.06    1.44   -75.21676   111.17069    35.67236
   360  H   1.0    0.05    1.06    1.44   -76.91185   106.13457    35.40968
   361  H   1.0    0.05    1.00    1.43   -72.96421   105.15569    37.65657
   362  H   1.0    0.07    1.03    1.43   -72.50312   107.25329    35.05442
   363  H   1.0    0.07    1.01    1.43   -72.49745   108.44948    38.21026
   364  N   5.0   -0.13    3.61    2.17   -78.36127   108.84066    40.56864
   365  C   4.0    0.05    4.50    4.53   -79.81635   108.38901    42.82875
   366  C   4.0    0.16    3.42    3.08   -82.50543   109.27907    42.38277
   367  O   6.0   -0.30    1.25    1.80   -83.87360   109.91402    44.14400
   368  C   4.0   -0.02    4.29    4.18   -78.58614   109.62300    45.12477
   369  C   4.0    0.24    3.13    3.03   -78.15907   107.76351    47.27527
   370  O   6.0   -0.30    1.21    1.80   -79.19841   105.63568    47.17323
   371  O   6.0   -0.32    1.22    1.80   -76.76634   108.42114    49.06862
   372  H   1.0    0.13    1.12    1.45   -78.16473   110.69259    40.06786
   373  H   1.0    0.08    1.10    1.44   -79.87494   106.38023    43.27850
   374  H   1.0    0.07    1.04    1.43   -76.75689   110.39590    44.57486
   375  H   1.0    0.05    1.06    1.44   -79.80880   111.12911    45.81641
   376  N   5.0   -0.13    3.46    2.05   -83.22731   109.28474    39.97148
   377  C   4.0    0.02    4.25    4.10   -85.82001   109.76473    39.14756
   378  C   4.0    0.15    3.35    3.06   -86.76110   112.36122    39.86755
   379  O   6.0   -0.31    1.23    1.80   -88.98908   112.69759    40.44769
   380  H   1.0    0.12    1.16    1.45   -82.02922   108.95404    38.49750
   381  H   1.0    0.05    1.03    1.43   -85.92017   109.58899    37.09721
   382  H   1.0    0.05    1.03    1.43   -87.06912   108.36822    40.00172
   383  N   5.0   -0.13    3.51    2.09   -85.06601   114.20559    39.80897
   384  C   4.0    0.04    4.48    4.51   -85.65939   116.64522    40.88233
   385  C   4.0    0.07    3.29    3.05   -86.16205   118.65967    38.92646
   386  O   6.0   -0.31    1.13    1.80   -84.59547   119.16234    37.27673
   387  C   4.0   -0.02    4.39    4.37   -83.59203   117.51639    42.67757
   388  C   4.0   -0.04    4.24    4.08   -83.60337   115.85154    45.03595
   389  C   4.0   -0.09    4.25    4.09   -84.02288   120.22625    43.39567
   390  C   4.0   -0.07    4.04    3.69   -81.04090   115.37533    46.15089
   391  H   1.0    0.12    1.11    1.45   -83.30290   114.05630    39.04174
   392  H   1.0    0.05    1.09    1.44   -87.45463   116.39011    41.85743
   393  H   1.0    0.06    1.07    1.44   -81.76466   117.35387    41.74216
   394  H   1.0    0.03    1.04    1.43   -84.75043   116.76806    46.48159
   395  H   1.0    0.07    1.05    1.44   -84.41784   114.02417    44.54462
   396  H   1.0    0.03    1.01    1.43   -82.53000   120.82530    44.68068
   397  H   1.0    0.04    1.03    1.43   -83.99076   121.38466    41.69302
   398  H   1.0    0.03    1.03    1.43   -85.85592   120.39066    44.32163
   399  H   1.0    0.04    1.00    1.43   -81.24499   114.17724    47.81385
   400  H   1.0    0.06    1.01    1.43   -79.86360   114.43424    44.74682
   401  H   1.0    0.04    1.00    1.43   -80.19619   117.17624    46.68379
   402  N   5.0   -0.16    3.45    2.05   -85.81057   125.43434    37.49783
   403  C   4.0    0.02    4.38    4.34   -84.40650   127.56406    38.50695
   404  C   4.0    0.06    3.20    3.04   -86.16394   129.49347    39.72771
   405  O   6.0   -0.33    1.19    1.80   -86.03166   129.87520    42.01806
   406  C   4.0   -0.05    4.37    4.32   -83.10259   128.68278    36.16746
   407  C   4.0   -0.05    4.31    4.21   -84.24776   127.36186    33.92814
   408  C   4.0   -0.01    4.33    4.25   -85.09247   124.87120    34.86922
   409  H   1.0    0.04    1.06    1.44   -82.97787   126.93289    39.85054
   410  H   1.0    0.03    1.03    1.43   -83.45786   130.71045    36.07865
   411  H   1.0    0.04    1.02    1.43   -81.07680   128.32562    36.26762
   412  H   1.0    0.03    1.03    1.43   -85.84269   128.45412    33.21760
   413  H   1.0    0.04    1.03    1.43   -82.83047   127.14265    32.45037
   414  H   1.0    0.04    1.02    1.43   -86.70819   124.18334    33.79208
   415  H   1.0    0.04    1.02    1.43   -83.56179   123.49548    34.79930
   416  N   5.0   -0.21    3.25    1.97   -88.43728   129.74669    46.55340
   417  C   4.0    0.03    4.35    4.28   -86.37181   128.86041    48.15967
   418  C   4.0    0.15    3.42    3.08   -84.27044   130.78037    48.49604
   419  O   6.0   -0.30    1.23    1.80   -82.86259   130.72368    50.35364
   420  C   4.0   -0.05    4.36    4.31   -85.33813   126.35464    47.17323
   421  C   4.0   -0.03    4.22    4.04   -86.84991   124.12287    48.21636
   422  C   4.0   -0.09    4.11    3.83   -88.79444   123.13454    46.33608
   423  C   4.0   -0.08    4.12    3.85   -85.08491   122.02338    49.03839
   424  H   1.0    0.09    1.04    1.43   -88.66405   128.70545    44.94713
   425  H   1.0    0.04    1.07    1.44   -87.13715   128.51648    50.03994
   426  H   1.0    0.05    1.04    1.43   -85.46475   126.32629    45.11721
   427  H   1.0    0.04    1.04    1.43   -83.37471   126.14677    47.76093
   428  H   1.0    0.03    1.07    1.44   -87.90438   124.78805    49.85664
   429  H   1.0    0.03    1.00    1.43   -89.80545   121.55473    47.18646
   430  H   1.0    0.03    1.00    1.43   -90.11347   124.64821    45.87877
   431  H   1.0    0.03    1.02    1.43   -87.82123   122.51093    44.63155
   432  H   1.0    0.03    1.00    1.43   -86.20174   120.45680    49.77349
   433  H   1.0    0.03    1.03    1.43   -83.98320   121.39788    47.41322
   434  H   1.0    0.04    1.00    1.43   -83.82824   122.73959    50.50482
   435  N   5.0   -0.14    3.51    2.09   -84.09280   132.50380    46.69513
   436  C   4.0    0.03    4.32    4.24   -82.27867   134.54282    46.85953
   437  C   4.0    0.08    3.22    3.04   -82.84748   136.18688    49.18390
   438  O   6.0   -0.30    1.11    1.80   -81.19774   136.63663    50.76371
   439  C   4.0   -0.06    4.32    4.23   -82.29568   136.06594    44.39155
   440  C   4.0   -0.02    4.20    4.01   -82.55268   134.53904    41.91790
   441  C   4.0   -0.08    4.08    3.76   -82.60937   136.23979    39.58598
   442  C   4.0   -0.07    4.09    3.78   -80.52500   132.48869    41.62121
   443  H   1.0    0.09    1.10    1.44   -85.17751   132.53971    45.10209
   444  H   1.0    0.05    1.06    1.44   -80.37193   133.79638    47.07874
   445  H   1.0    0.03    1.03    1.43   -83.88305   137.37552    44.46147
   446  H   1.0    0.03    1.03    1.43   -80.52500   137.11096    44.27628
   447  H   1.0    0.05    1.09    1.44   -84.36682   133.57150    42.04451
   448  H   1.0    0.04    1.00    1.43   -82.79267   135.06627    37.90412
   449  H   1.0    0.03    1.00    1.43   -84.21753   137.51914    39.72771
   450  H   1.0    0.04    1.00    1.43   -80.85759   137.32072    39.50094
   451  H   1.0    0.04    1.00    1.43   -80.82925   131.49847    39.84109
   452  H   1.0    0.04    1.00    1.43   -78.66740   133.37875    41.62121
   453  H   1.0    0.05    1.00    1.43   -80.67240   131.16777    43.19536
   454  N   5.0   -0.21    3.20    1.96   -81.80435   133.49402    56.97902
   455  C   4.0    0.03    4.24    4.08   -79.50455   133.94378    58.39442
   456  C   4.0    0.07    3.20    3.04   -79.06991   136.75947    58.81016
   457  O   6.0   -0.31    1.11    1.80   -77.81514   137.49835    60.63186
   458  C   4.0   -0.04    4.39    4.36   -77.26711   132.75136    57.03760
   459  C   4.0   -0.05    4.06    3.73   -76.83815   130.01126    57.74058
   460  S   6.0   -0.05    2.65    3.10   -75.23944   128.27082    55.29338
   461  C   4.0   -0.07    3.90    3.46   -72.76390   130.40999    54.37875
   462  H   1.0    0.10    1.03    1.43   -81.51144   132.85151    55.18567
   463  H   1.0    0.04    1.06    1.44   -79.63872   133.02537    60.23312
   464  H   1.0    0.05    1.06    1.44   -77.59782   132.83829    55.00614
   465  H   1.0    0.04    1.04    1.43   -75.56069   133.80205    57.51948
   466  H   1.0    0.03    1.07    1.44   -75.68352   129.92622    59.44322
   467  H   1.0    0.04    1.07    1.44   -78.65984   129.10986    58.07884
   468  H   1.0    0.04    1.04    1.43   -71.64896   129.54449    52.87831
   469  H   1.0    0.04    1.04    1.43   -73.60861   132.16365    53.70412
   470  H   1.0    0.04    1.05    1.44   -71.56770   130.78982    56.01148
   471  N   5.0   -0.23    3.22    1.96   -79.15200   114.34409    60.53202
   472  C   4.0    0.03    4.26    4.13   -77.64203   115.02813    58.34749
   473  C   4.0    0.07    3.22    3.04   -76.92232   117.79405    58.47033
   474  O   6.0   -0.33    1.22    1.80   -74.74156   118.46830    58.03569
   475  C   4.0   -0.05    4.31    4.21   -79.08314   114.48981    55.90786
   476  C   4.0   -0.05    4.24    4.09   -78.40225   112.01064    54.69087
   477  C   4.0   -0.06    4.22    4.05   -78.84213   109.81633    56.46344
   478  C   4.0   -0.05    4.15    3.90   -76.55764   108.10024    56.51446
   479  N   5.0   -0.11    4.05    2.99   -75.73221   107.33783    53.92364
   480  H   1.0    0.07    1.03    1.43   -80.78399   113.41847    60.09360
   481  H   1.0    0.04    1.06    1.44   -75.93302   113.87996    58.32671
   482  H   1.0    0.03    1.04    1.43   -81.09957   114.45168    56.32549
   483  H   1.0    0.04    1.04    1.43   -78.67238   115.98740    54.55481
   484  H   1.0    0.04    1.03    1.43   -79.56702   111.73174    53.01469
   485  H   1.0    0.04    1.04    1.44   -76.40887   112.03153    54.16931
   486  H   1.0    0.03    1.06    1.44   -79.17557   110.52381    58.36828
   487  H   1.0    0.03    1.03    1.43   -80.46876   108.72614    55.82282
   488  H   1.0    0.04    1.02    1.43   -74.99312   109.08663    57.42153
   489  H   1.0    0.03    1.02    1.43   -77.01996   106.39239    57.56893
   490  H   1.0    0.05    1.01    1.43   -74.84252   105.58693    53.98979
   491  H   1.0    0.08    1.04    1.43   -77.28959   107.21796    52.72934
   492  H   1.0    0.06    1.02    1.43   -74.47487   108.66523    53.20177
   493  N   5.0   -0.21    3.21    1.96   -71.50086   119.40997    62.87339
   494  C   4.0    0.02    4.32    4.24   -69.15398   118.64852    61.62995
   495  C   4.0    0.14    3.42    3.08   -68.38132   120.40632    59.47566
   496  O   6.0   -0.33    1.52    1.80   -66.15135   121.02597    59.15441
   497  C   4.0   -0.03    4.34    4.28   -69.42372   115.97411    60.60572
   498  C   4.0   -0.04    4.24    4.08   -69.34322   113.94414    62.59371
   499  C   4.0    0.14    3.23    3.04   -68.68205   111.40435    61.46743
   500  O   6.0   -0.31    1.21    1.80   -69.00666   110.98951    59.18086
   501  N   5.0   -0.20    3.16    1.95   -67.73291   109.68459    63.06236
   502  H   1.0    0.08    1.03    1.43   -72.89575   118.08998    62.71087
   503  H   1.0    0.04    1.06    1.44   -67.66574   118.71666    63.05291
   504  H   1.0    0.06    1.04    1.43   -71.23274   115.82278    59.63251
   505  H   1.0    0.06    1.04    1.43   -67.88230   115.61660    59.28669
   506  H   1.0    0.04    1.03    1.43   -67.91504   114.42227    63.99966
   507  H   1.0    0.03    1.03    1.43   -71.19115   113.79345    63.49133
   508  H   1.0    0.07    1.02    1.43   -67.49398   110.12489    64.92374
   509  H   1.0    0.08    1.02    1.43   -67.24871   107.93433    62.41607
   510  N   5.0   -0.14    3.53    2.10   -70.24256   121.16232    57.97333
   511  C   4.0    0.03    4.43    4.43   -69.80201   122.87401    55.87384
   512  C   4.0    0.15    3.49    3.11   -69.08274   125.43508    56.96232
   513  O   6.0   -0.32    1.38    1.80   -67.11522   126.49211    56.28580
   514  C   4.0   -0.04    4.37    4.33   -72.19660   123.08039    54.26380
   515  C   4.0   -0.02    3.49    3.11   -72.60201   120.99492    52.31927
   516  C   4.0   -0.05    3.44    3.09   -73.01985   121.59402    49.78515
   517  C   4.0   -0.03    3.45    3.10   -72.61341   118.43539    53.00713
   518  C   4.0   -0.04    3.41    3.08   -73.41663   119.70868    47.97668
   519  C   4.0   -0.05    3.41    3.08   -73.00114   116.53173    51.20433
   520  C   4.0    0.06    3.42    3.09   -73.39855   117.18886    48.69288
   521  O   6.0   -0.25    2.12    1.84   -73.77946   115.34236    46.89386
   522  H   1.0    0.11    1.11    1.45   -72.08262   120.62086    58.16230
   523  H   1.0    0.05    1.06    1.44   -68.30124   122.17774    54.64741
   524  H   1.0    0.05    1.05    1.44   -73.82433   123.05787    55.52613
   525  H   1.0    0.04    1.07    1.44   -72.12678   124.86429    53.23578
   526  H   1.0    0.05    1.03    1.43   -73.03691   123.55245    49.20878
   527  H   1.0    0.07    1.05    1.44   -72.31919   117.92076    54.95921
   528  H   1.0    0.05    1.03    1.43   -73.73761   120.21476    46.02648
   529  H   1.0    0.05    1.03    1.43   -72.99113   114.56863    51.76369
   530  H   1.0    0.11    1.03    1.43   -73.71239   113.66708    47.68188
   531  N   5.0   -0.15    3.56    2.12   -70.68769   126.37043    58.68197
   532  C   4.0    0.03    4.39    4.37   -70.19874   128.63460    60.20509
   533  C   4.0    0.16    3.51    3.12   -67.41397   128.56736    60.87406
   534  O   6.0   -0.31    1.22    1.80   -66.03597   130.40989    60.46777
   535  C   4.0   -0.06    4.27    4.14   -71.85499   128.63073    62.60316
   536  C   4.0   -0.05    4.15    3.90   -72.28189   131.19456    63.86171
   537  C   4.0   -0.02    4.20    4.00   -74.27235   131.03887    65.95931
   538  N   5.0   -0.15    3.38    2.01   -73.26128   130.06890    68.34792
   539  C   4.0    0.08    3.33    3.06   -74.48342   130.11771    70.55512
   540  N   5.0   -0.20    3.23    1.96   -73.38193   129.18718    72.60926
   541  N   5.0   -0.20    3.25    1.97   -76.79939   131.08388    70.72898
   542  H   1.0    0.07    1.07    1.44   -72.39808   125.57735    59.07693
   543  H   1.0    0.04    1.06    1.44   -70.68773   130.36145    59.19598
   544  H   1.0    0.03    1.03    1.43   -73.70814   127.88517    62.10238
   545  H   1.0    0.04    1.03    1.43   -70.95964   127.41117    63.99966
   546  H   1.0    0.04    1.03    1.43   -70.51564   131.84628    64.69508
   547  H   1.0    0.04    1.03    1.43   -72.93569   132.54523    62.45009
   548  H   1.0    0.04    1.03    1.43   -75.02363   132.92370    66.30891
   549  H   1.0    0.03    1.03    1.43   -75.78559   129.77848    65.35271
   550  H   1.0    0.07    1.06    1.44   -71.49479   129.29996    68.32336
   551  H   1.0    0.07    1.02    1.43   -71.60996   128.43908    72.49776
   552  H   1.0    0.07    1.02    1.43   -74.30951   129.22085    74.29867
   553  H   1.0    0.07    1.03    1.43   -77.66486   131.79959    69.16239
   554  H   1.0    0.06    1.02    1.43   -77.70897   131.10715    72.42784
   555  N   5.0   -0.13    3.51    2.09   -66.59725   126.37636    61.80002
   556  C   4.0    0.03    4.40    4.39   -63.96313   125.95748    62.41229
   557  C   4.0    0.16    3.41    3.08   -62.29873   125.84319    60.03880
   558  O   6.0   -0.33    1.42    1.80   -60.78044   127.55454    59.64385
   559  C   4.0   -0.04    4.26    4.12   -63.64707   123.66277    64.15840
   560  C   4.0   -0.04    4.18    3.96   -64.85878   124.05468    66.76622
   561  C   4.0    0.24    3.11    3.03   -63.85784   122.28101    68.80524
   562  O   6.0   -0.31    1.17    1.80   -64.32046   122.82523    71.06346
   563  O   6.0   -0.30    1.18    1.80   -62.63070   120.35493    68.18163
   564  H   1.0    0.08    1.07    1.44   -67.72912   124.85432    62.14395
   565  H   1.0    0.05    1.07    1.44   -63.26166   127.57309    63.47999
   566  H   1.0    0.06    1.03    1.43   -64.53942   122.02645    63.28157
   567  H   1.0    0.05    1.03    1.43   -61.63826   123.30598    64.43619
   568  H   1.0    0.04    1.03    1.43   -64.49226   125.98586    67.38227
   569  H   1.0    0.04    1.03    1.43   -66.88839   123.74049    66.60560
   570  N   5.0   -0.14    3.48    2.06   -62.63163   123.93624    58.41741
   571  C   4.0    0.04    4.41    4.40   -60.88749   123.57078    56.27257
   572  C   4.0    0.16    3.43    3.09   -60.62850   125.88263    54.53592
   573  O   6.0   -0.30    1.28    1.80   -58.72739   126.18591    53.23012
   574  C   4.0   -0.04    4.24    4.07   -61.49711   121.15807    54.77591
   575  C   4.0   -0.03    4.01    3.64   -59.56062   120.45681    52.66131
   576  S   6.0   -0.00    2.52    3.10   -56.16918   120.87722    53.21500
   577  C   4.0   -0.05    3.87    3.43   -54.77774   119.05048    50.69977
   578  H   1.0    0.13    1.29    1.49   -64.05151   122.63722    58.52324
   579  H   1.0    0.05    1.08    1.44   -59.02523   123.25497    57.09461
   580  H   1.0    0.05    1.03    1.43   -61.56579   119.57645    56.09494
   581  H   1.0    0.05    1.03    1.43   -63.33156   121.40110    53.87262
   582  H   1.0    0.04    1.07    1.44   -59.82523   118.46025    52.22856
   583  H   1.0    0.06    1.10    1.44   -60.01586   121.60339    51.01158
   584  H   1.0    0.06    1.04    1.43   -52.72629   119.16440    50.84339
   585  H   1.0    0.04    1.04    1.43   -55.38558   117.09061    50.87930
   586  H   1.0    0.06    1.04    1.43   -55.39805   119.81667    48.89130
   587  N   5.0   -0.13    3.54    2.10   -62.52496   127.51871    54.55292
   588  C   4.0    0.04    4.51    4.55   -62.28761   129.92160    53.26035
   589  C   4.0    0.16    3.47    3.10   -60.48141   131.64783    54.64930
   590  O   6.0   -0.29    1.27    1.80   -58.67647   132.61980    53.55137
   591  C   4.0   -0.05    4.40    4.37   -64.84068   131.22541    52.97689
   592  C   4.0   -0.03    4.21    4.02   -66.33030   130.58418    50.58639
   593  C   4.0   -0.08    4.12    3.84   -67.65779   132.92606    49.57161
   594  C   4.0   -0.08    4.32    4.24   -64.59645   129.53950    48.60974
   595  H   1.0    0.13    1.15    1.45   -64.21806   127.23935    55.42976
   596  H   1.0    0.06    1.10    1.44   -61.56361   129.54287    51.36874
   597  H   1.0    0.06    1.04    1.43   -66.01359   130.69809    54.58694
   598  H   1.0    0.05    1.05    1.44   -64.52550   133.26042    52.97122
   599  H   1.0    0.04    1.06    1.44   -67.75469   129.16775    51.04181
   600  H   1.0    0.04    1.00    1.43   -68.70333   132.41903    47.87085
   601  H   1.0    0.04    1.00    1.43   -68.95269   133.63876    51.00591
   602  H   1.0    0.04    1.01    1.43   -66.24598   134.35848    49.12752
   603  H   1.0    0.04    1.03    1.43   -65.69328   129.09482    46.92410
   604  H   1.0    0.04    1.01    1.43   -63.16155   130.94768    48.16376
   605  H   1.0    0.05    1.04    1.43   -63.70327   127.83242    49.33728
   606  N   5.0   -0.13    3.53    2.10   -60.96586   132.02572    57.07949
   607  C   4.0    0.04    4.49    4.52   -59.39929   133.73756    58.54025
   608  C   4.0    0.16    3.41    3.08   -56.76420   132.58714    58.96921
   609  O   6.0   -0.31    1.25    1.80   -54.90284   133.96295    59.24889
   610  C   4.0   -0.02    4.29    4.19   -60.75816   134.61157    61.00256
   611  C   4.0   -0.05    4.17    3.93   -59.80682   137.23067    61.81514
   612  C   4.0   -0.07    4.09    3.78   -60.62931   132.59732    63.08882
   613  C   4.0   -0.08    4.00    3.62   -61.79469   138.86716    63.11149
   614  H   1.0    0.11    1.07    1.44   -62.39586   131.19296    58.06781
   615  H   1.0    0.07    1.07    1.44   -59.11103   135.46517    57.45554
   616  H   1.0    0.05    1.07    1.44   -62.76714   134.82444    60.60383
   617  H   1.0    0.04    1.03    1.43   -58.24616   136.98206    63.13606
   618  H   1.0    0.05    1.03    1.43   -59.16100   138.24343    60.14273
   619  H   1.0    0.04    1.00    1.43   -61.60383   133.30179    64.76122
   620  H   1.0    0.07    1.00    1.43   -61.54033   130.87577    62.41607
   621  H   1.0    0.04    1.00    1.43   -58.65482   132.21889    63.53479
   622  H   1.0    0.03    1.00    1.43   -60.94868   140.67643    63.61605
   623  H   1.0    0.04    1.00    1.43   -63.36849   139.16481    61.81514
   624  H   1.0    0.03    1.00    1.43   -62.45459   137.90181    64.80847
   625  N   5.0   -0.14    3.53    2.10   -56.62889   130.07384    58.92008
   626  C   4.0    0.04    4.36    4.30   -54.26207   128.68553    59.24700
   627  C   4.0    0.15    3.47    3.10   -52.54175   129.02337    56.97933
   628  O   6.0   -0.30    1.22    1.80   -50.23914   129.21704    57.24389
   629  C   4.0   -0.07    4.12    3.85   -54.79947   125.91035    59.67597
   630  H   1.0    0.12    1.16    1.46   -58.14845   128.91965    58.65363
   631  H   1.0    0.05    1.06    1.44   -53.29357   129.41815    60.90996
   632  H   1.0    0.05    1.00    1.43   -53.01386   124.90998    59.91408
   633  H   1.0    0.05    1.00    1.43   -55.95056   125.70429    61.37105
   634  H   1.0    0.06    1.00    1.43   -55.81116   125.16339    58.04514
   635  N   5.0   -0.12    3.56    2.12   -53.68244   129.04696    54.74379
   636  C   4.0    0.05    4.45    4.47   -52.37221   129.83104    52.46856
   637  C   4.0    0.15    3.48    3.11   -52.65270   132.69002    52.23234
   638  O   6.0   -0.33    1.42    1.80   -52.89312   133.70601    50.15931
   639  C   4.0   -0.02    4.30    4.19   -53.43704   128.46668    50.14797
   640  C   4.0    0.25    3.14    3.03   -52.85472   125.64292    50.14041
   641  O   6.0   -0.29    1.21    1.80   -51.49151   124.74241    51.84684
   642  O   6.0   -0.30    1.18    1.80   -53.76165   124.31396    48.40753
   643  H   1.0    0.11    1.07    1.44   -55.51677   128.53056    54.45844
   644  H   1.0    0.07    1.06    1.44   -50.38196   129.30604    52.52903
   645  H   1.0    0.06    1.03    1.43   -55.48417   128.69285    50.11774
   646  H   1.0    0.05    1.03    1.43   -52.61205   129.29089    48.44911
   647  N   5.0   -0.12    3.44    2.04   -52.66162   133.95203    54.40930
   648  C   4.0    0.02    4.25    4.10   -52.75580   136.69908    54.57371
   649  C   4.0    0.16    3.33    3.06   -55.11594   137.90242    53.47200
   650  O   6.0   -0.28    1.25    1.80   -56.00412   139.89029    54.40175
   651  H   1.0    0.11    1.11    1.45   -52.60353   133.10022    56.13651
   652  H   1.0    0.06    1.03    1.43   -52.64344   137.24519    56.55603
   653  H   1.0    0.05    1.03    1.43   -51.13198   137.47449    53.57216
   654  N   5.0   -0.11    3.55    2.11   -56.13188   136.67567    51.50291
   655  C   4.0    0.04    4.49    4.53   -58.16753   137.74185    49.98168
   656  C   4.0    0.16    3.52    3.12   -59.97295   139.39956    51.49535
   657  O   6.0   -0.28    1.23    1.80   -60.94940   138.61915    53.46444
   658  C   4.0   -0.02    4.35    4.30   -59.62828   135.63506    48.56816
   659  C   4.0   -0.05    4.23    4.06   -58.16451   134.78777    46.23246
   660  C   4.0   -0.07    4.19    3.97   -62.24597   136.48304    47.79904
   661  C   4.0   -0.07    4.03    3.67   -57.21511   132.12739    46.37230
   662  H   1.0    0.12    1.21    1.47   -55.57150   134.92507    50.91898
   663  H   1.0    0.04    1.07    1.44   -57.27026   139.00874    48.62863
   664  H   1.0    0.06    1.08    1.44   -59.82212   134.05587    49.87774
   665  H   1.0    0.03    1.06    1.44   -59.40243   134.92642    44.59218
   666  H   1.0    0.05    1.04    1.43   -56.53513   136.02257    45.99058
   667  H   1.0    0.03    1.00    1.43   -63.18948   134.93953    46.81639
   668  H   1.0    0.06    1.01    1.43   -63.30831   136.99382    49.48846
   669  H   1.0    0.04    1.02    1.43   -62.08283   138.11486    46.55182
   670  H   1.0    0.04    1.00    1.43   -56.20027   131.68549    44.63564
   671  H   1.0    0.06    1.02    1.43   -55.95158   131.94996    47.98991
   672  H   1.0    0.04    1.00    1.43   -58.81888   130.85381    46.59151
   673  N   5.0   -0.14    3.45    2.05   -60.33956   141.71255    50.56938
   674  C   4.0    0.03    4.42    4.41   -62.28611   143.41682    51.52558
   675  C   4.0    0.15    3.50    3.12   -64.88970   142.48264    50.66954
   676  O   6.0   -0.30    1.27    1.80   -65.12060   141.37217    48.62863
   677  C   4.0   -0.03    4.27    4.14   -61.83814   146.11270    50.56938
   678  C   4.0    0.24    3.16    3.03   -63.87291   147.95519    51.45377
   679  O   6.0   -0.31    1.18    1.80   -63.60854   149.00269    53.56271
   680  O   6.0   -0.29    1.17    1.80   -65.75246   148.33554    50.05538
   681  H   1.0    0.07    1.06    1.44   -59.30413   142.47417    49.13319
   682  H   1.0    0.05    1.06    1.44   -62.23831   143.46560    53.58349
   683  H   1.0    0.05    1.03    1.43   -60.02164   146.78342    51.27236
   684  H   1.0    0.05    1.03    1.43   -61.83701   146.10332    48.50958
   685  N   5.0   -0.09    3.65    2.21   -66.85738   142.91823    52.22856
   686  C   4.0    0.03    4.56    4.62   -69.40432   142.12372    51.52747
   687  C   4.0    0.15    3.40    3.08   -70.35224   143.32781    49.07650
   688  O   6.0   -0.29    1.26    1.80   -69.83077   142.36775    47.01103
   689  C   4.0   -0.05    4.43    4.44   -71.02075   143.00896    53.78381
   690  C   4.0   -0.04    4.30    4.20   -69.41936   144.90581    55.16142
   691  C   4.0   -0.01    4.38    4.35   -66.79673   143.95679    54.81560
   692  H   1.0    0.05    1.05    1.44   -69.45893   140.07138    51.35362
   693  H   1.0    0.05    1.05    1.44   -72.75937   143.87529    53.09972
   694  H   1.0    0.04    1.02    1.43   -71.46340   141.40322    54.99701
   695  H   1.0    0.05    1.03    1.43   -69.65176   146.77473    54.32427
   696  H   1.0    0.04    1.03    1.43   -69.93527   144.95710    57.15508
   697  H   1.0    0.06    1.04    1.43   -65.43041   145.49185    54.96299
   698  H   1.0    0.04    1.02    1.43   -66.35582   142.48682    56.19132
   699  N   5.0   -0.14    3.50    2.08   -71.67345   145.45003    49.36185
   700  C   4.0    0.04    4.38    4.35   -73.20736   146.65204    47.39275
   701  C   4.0    0.16    3.42    3.08   -72.20674   146.43874    44.68289
   702  O   6.0   -0.30    1.26    1.80   -73.19959   144.97609    43.16166
   703  C   4.0   -0.04    4.31    4.22   -73.71559   149.42648    48.10329
   704  C   4.0    0.14    3.26    3.05   -74.35820   149.76476    50.89819
   705  O   6.0   -0.31    1.21    1.80   -76.00258   148.47752    51.92431
   706  N   5.0   -0.19    3.17    1.95   -73.05351   151.51432    52.13218
   707  H   1.0    0.08    1.11    1.45   -71.72765   146.43707    51.01536
   708  H   1.0    0.05    1.07    1.44   -74.97424   145.59482    47.32850
   709  H   1.0    0.04    1.04    1.43   -72.03236   150.54290    47.69700
   710  H   1.0    0.04    1.03    1.43   -75.30614   150.12221    46.99591
   711  H   1.0    0.08    1.02    1.43   -73.39432   151.83110    54.00301
   712  H   1.0    0.08    1.03    1.43   -71.70914   152.54272    51.21000
   713  N   5.0   -0.14    3.44    2.04   -70.23230   147.89327    44.11219
   714  C   4.0    0.03    4.38    4.34   -69.08477   147.98356    41.59507
   715  C   4.0    0.16    3.46    3.10   -69.00885   145.39762    40.29305
   716  O   6.0   -0.31    1.23    1.80   -70.11416   145.05165    38.26538
   717  C   4.0   -0.05    4.26    4.12   -66.40659   149.08852    41.77460
   718  C   4.0   -0.04    4.12    3.84   -65.05548   149.52387    39.21591
   719  C   4.0    0.24    3.08    3.02   -62.12423   149.40041    39.55795
   720  O   6.0   -0.30    1.15    1.80   -61.10928   147.35245    40.33274
   721  O   6.0   -0.30    1.15    1.80   -60.82690   151.33753    39.03260
   722  H   1.0    0.08    1.06    1.44   -69.36149   149.05761    45.37641
   723  H   1.0    0.05    1.06    1.44   -70.24559   149.22328    40.43100
   724  H   1.0    0.04    1.03    1.43   -66.51989   150.91050    42.72702
   725  H   1.0    0.06    1.03    1.43   -65.24156   147.79182    42.87064
   726  H   1.0    0.05    1.02    1.43   -65.62242   148.06190    37.87987
   727  H   1.0    0.04    1.02    1.43   -65.55349   151.38248    38.48080
   728  N   5.0   -0.13    3.47    2.06   -67.73968   143.59346    41.50626
   729  C   4.0    0.03    4.43    4.43   -67.18406   141.14298    40.36486
   730  C   4.0    0.14    3.48    3.10   -69.52223   139.59514    39.75637
   731  O   6.0   -0.31    1.69    1.81   -69.58658   138.19867    37.89877
   732  C   4.0   -0.05    4.38    4.34   -65.39439   139.63184    42.04861
   733  C   4.0   -0.02    4.22    4.05   -62.64371   140.43528    41.73302
   734  C   4.0   -0.06    4.13    3.86   -61.76735   142.05901    43.93455
   735  C   4.0   -0.08    4.13    3.87   -60.98557   138.12943    41.44389
   736  H   1.0    0.09    1.06    1.44   -67.06196   143.76952    43.30150
   737  H   1.0    0.05    1.07    1.44   -66.24224   141.51569    38.57151
   738  H   1.0    0.06    1.04    1.43   -65.92332   139.91758    44.01770
   739  H   1.0    0.04    1.04    1.43   -65.53876   137.63568    41.56106
   740  H   1.0    0.05    1.07    1.44   -62.47311   141.58493    40.03227
   741  H   1.0    0.04    1.03    1.43   -59.80006   142.59030    43.63409
   742  H   1.0    0.06    1.00    1.43   -62.94352   143.74837    44.03282
   743  H   1.0    0.05    1.02    1.43   -61.94492   140.97667    45.67877
   744  H   1.0    0.04    1.01    1.43   -59.02826   138.73413    41.22091
   745  H   1.0    0.03    1.02    1.43   -61.17034   136.95524    43.12575
   746  H   1.0    0.04    1.00    1.43   -61.58820   137.07430    39.78094
   747  N   5.0   -0.13    3.56    2.12   -71.44665   139.84865    41.32673
   748  C   4.0    0.03    4.44    4.45   -73.77507   138.49156    40.89398
   749  C   4.0    0.15    3.46    3.10   -74.78812   139.17464    38.28049
   750  O   6.0   -0.31    1.22    1.80   -75.63786   137.52899    36.86698
   751  C   4.0   -0.05    4.35    4.29   -75.68476   139.10316    42.97079
   752  C   4.0   -0.02    4.22    4.03   -74.65515   139.40118    45.67688
   753  C   4.0   -0.07    4.10    3.81   -76.81278   139.97263    47.49102
   754  C   4.0   -0.07    4.10    3.80   -73.18593   137.09312    46.60474
   755  H   1.0    0.10    1.09    1.44   -71.44893   140.96719    42.89709
   756  H   1.0    0.05    1.06    1.44   -73.45597   136.45912    40.97524
   757  H   1.0    0.05    1.03    1.43   -76.60505   140.88045    42.48135
   758  H   1.0    0.03    1.03    1.43   -77.07141   137.58202    43.02182
   759  H   1.0    0.07    1.08    1.44   -73.31986   140.96942    45.64853
   760  H   1.0    0.05    1.00    1.43   -76.05290   140.17762    49.39397
   761  H   1.0    0.04    1.00    1.43   -77.73226   141.72108    46.90898
   762  H   1.0    0.05    1.00    1.43   -78.16255   138.41710    47.43811
   763  H   1.0    0.04    1.00    1.43   -72.52126   137.44691    48.52281
   764  H   1.0    0.04    1.00    1.43   -74.43154   135.45346    46.58395
   765  H   1.0    0.05    1.00    1.43   -71.58129   136.77329    45.35374
   766  N   5.0   -0.14    3.50    2.08   -74.61560   141.59751    37.63232
   767  C   4.0    0.04    4.43    4.43   -75.38835   142.50407    35.14922
   768  C   4.0    0.16    3.47    3.10   -73.69189   141.48534    33.05918
   769  O   6.0   -0.30    1.34    1.80   -74.59088   140.93734    30.98426
   770  C   4.0   -0.03    4.31    4.21   -75.43571   145.39647    35.07363
   771  C   4.0    0.14    3.21    3.04   -77.05542   146.43853    32.92123
   772  O   6.0   -0.29    1.22    1.80   -77.01581   145.49046    30.79340
   773  N   5.0   -0.20    3.17    1.95   -78.47872   148.42549    33.47870
   774  H   1.0    0.10    1.07    1.44   -73.94631   142.98730    38.78883
   775  H   1.0    0.05    1.07    1.44   -77.30331   141.82910    34.80907
   776  H   1.0    0.04    1.03    1.43   -76.20795   146.09981    36.84808
   777  H   1.0    0.06    1.03    1.43   -73.51363   146.09132    34.81663
   778  H   1.0    0.08    1.02    1.43   -79.60569   149.21362    32.12755
   779  H   1.0    0.07    1.03    1.43   -78.44707   149.16440    35.25882
   780  N   5.0   -0.14    3.50    2.08   -71.25325   141.22298    33.61665
   781  C   4.0    0.03    4.41    4.39   -69.41839   140.28145    31.77606
   782  C   4.0    0.16    3.47    3.10   -70.27992   137.77633    30.64600
   783  O   6.0   -0.31    1.21    1.80   -69.85098   137.24938    28.41045
   784  C   4.0    0.03    4.17    3.94   -66.84820   139.92568    33.02328
   785  O   6.0   -0.26    2.14    1.85   -66.88962   137.78280    34.62387
   786  H   1.0    0.10    1.08    1.44   -70.47951   141.64472    35.33063
   787  H   1.0    0.05    1.06    1.44   -69.23405   141.67410    30.26995
   788  H   1.0    0.04    1.01    1.43   -65.41938   139.65281    31.56441
   789  H   1.0    0.04    1.02    1.43   -66.40244   141.59727    34.14199
   790  H   1.0    0.17    1.38    1.53   -68.41919   137.80180    35.66700
   791  N   5.0   -0.14    3.55    2.11   -71.49433   136.24740    32.22581
   792  C   4.0    0.04    4.43    4.44   -72.55785   133.86108    31.40378
   793  C   4.0    0.15    3.39    3.07   -75.37778   134.03373    30.81041
   794  O   6.0   -0.29    1.22    1.80   -76.51580   132.18356    29.96570
   795  C   4.0   -0.04    4.42    4.42   -72.04654   131.82895    33.37099
   796  C   4.0   -0.04    4.07    3.75   -69.68026   130.31876    32.83430
   797  S   6.0   -0.04    2.63    3.10   -69.74482   127.29677    34.37821
   798  C   4.0   -0.07    3.96    3.55   -73.06446   126.57743    34.20813
   799  H   1.0    0.10    1.07    1.44   -71.76901   136.62201    34.09664
   800  H   1.0    0.06    1.07    1.44   -71.60111   133.26943    29.67846
   801  H   1.0    0.05    1.04    1.43   -71.82434   132.72405    35.21347
   802  H   1.0    0.05    1.10    1.44   -73.63874   130.52250    33.41067
   803  H   1.0    0.05    1.07    1.44   -69.51876   130.00513    30.80474
   804  H   1.0    0.04    1.08    1.44   -68.03886   131.35896    33.51838
   805  H   1.0    0.04    1.04    1.43   -73.40029   124.74854    35.09442
   806  H   1.0    0.04    1.05    1.44   -74.11951   128.04194    35.19835
   807  H   1.0    0.05    1.04    1.43   -73.63713   126.51529    32.22959
   808  N   5.0   -0.13    3.51    2.09   -76.47867   136.25787    31.24126
   809  C   4.0    0.04    4.32    4.24   -79.12921   136.72768    30.61765
   810  C   4.0    0.16    3.37    3.07   -79.49794   137.72174    27.90968
   811  O   6.0   -0.30    1.21    1.80   -81.59153   137.56887    26.86466
   812  C   4.0   -0.07    4.10    3.80   -80.31618   138.51928    32.53951
   813  H   1.0    0.11    1.13    1.45   -75.58238   137.77627    32.02172
   814  H   1.0    0.06    1.06    1.44   -80.17523   134.95750    30.74994
   815  H   1.0    0.04    1.00    1.43   -82.28672   138.83652    32.03117
   816  H   1.0    0.05    1.00    1.43   -80.20231   137.66581    34.41033
   817  H   1.0    0.06    1.01    1.43   -79.28791   140.30406    32.51683
   818  N   5.0   -0.13    3.46    2.05   -77.47648   138.73236    26.77962
   819  C   4.0    0.04    4.34    4.26   -77.61806   139.73057    24.19637
   820  C   4.0    0.15    3.37    3.07   -76.31107   138.04860    22.24050
   821  O   6.0   -0.30    1.22    1.80   -76.89387   138.18433    19.98795
   822  C   4.0   -0.07    4.09    3.79   -76.58649   142.41682    24.08298
   823  H   1.0    0.10    1.07    1.44   -75.73684   138.88447    27.59409
   824  H   1.0    0.06    1.07    1.44   -79.59459   139.86360    23.62945
   825  H   1.0    0.04    1.00    1.43   -76.71797   143.10371    22.14601
   826  H   1.0    0.05    1.00    1.43   -77.70225   143.61743    25.33020
   827  H   1.0    0.05    1.00    1.43   -74.61950   142.40712    24.69336
   828  N   5.0   -0.13    3.45    2.05   -74.54535   136.47709    23.10410
   829  C   4.0    0.04    4.31    4.22   -73.17548   134.75664    21.42981
   830  C   4.0    0.26    3.21    3.04   -74.21334   132.07838    21.65468
   831  O   6.0   -0.28    1.19    1.80   -75.46615   131.13678    19.92181
   832  C   4.0   -0.07    4.11    3.82   -70.36416   134.80717    22.02129
   833  O   6.0   -0.28    1.21    1.80   -73.80730   130.83147    23.57654
   834  H   1.0    0.09    1.06    1.44   -74.01876   136.34982    24.95415
   835  H   1.0    0.06    1.07    1.44   -73.41602   135.37557    19.47961
   836  H   1.0    0.04    1.00    1.43   -69.38782   133.51248    20.75140
   837  H   1.0    0.04    1.00    1.43   -69.65737   136.72301    21.75295
   838  H   1.0    0.07    1.00    1.43   -70.07847   134.22108    23.97527
   839  H   1.0    0.08    1.07    1.44   -26.19700   138.29566    26.78115
   840  H   1.0    0.04    1.05    1.44   -87.79156   119.61628    38.95255
   841  H   1.0    0.09    1.15    1.45   -85.29306   124.00262    38.25607
   842  H   1.0    0.04    1.04    1.43   -87.41207   130.43768    38.66860
   843  H   1.0    0.08    1.07    1.44   -89.90025   129.67319    47.41763
   844  H   1.0    0.05    1.04    1.43   -84.57649   136.90848    49.43058
   845  H   1.0    0.09    1.07    1.44   -82.74543   132.32630    57.78110
   846  H   1.0    0.06    1.04    1.44   -79.80254   138.01675    57.60452
   847  H   1.0    0.08    1.07    1.44   -78.25020   113.32025    61.54743
   848  H   1.0    0.04    1.05    1.44   -78.22529   119.09089    58.90796
   849  H   1.0    0.09    1.07    1.44   -71.21097   119.65655    64.53101

  Z AO/shell   Hii/eV     exponent
  1     Wed Apr 25 08:07:45 CEST 2018   EN: 2.200 GM2: 0.406  GM3: 0.0800  RAES: 1.40
     1s    -10.707211    1.230000
  6     Wed Apr 25 08:07:45 CEST 2018   EN: 2.550 GM2: 0.538  GM3: 0.1500  RAES: 3.00
     2s    -13.970922    2.096432
     2p    -10.063292    1.800000
  7     Wed Apr 25 08:07:45 CEST 2018   EN: 3.040 GM2: 0.461  GM3:-0.0640  RAES: 1.90
     2s    -16.686243    2.339881
     2p    -12.523956    2.014332
  8     Wed Apr 25 08:07:45 CEST 2018   EN: 3.440 GM2: 0.452  GM3:-0.0517  RAES: 1.80
     2s    -20.229985    2.439742
     2p    -15.503117    2.137023
 16     Tue Apr 24 11:44:34 CEST 2018   EN: 2.580 GM2: 0.340  GM3:-0.0502  RAES: 3.10
     3s    -20.029654    1.981333
     3p    -11.377694    2.025643
     3d     -0.420282    1.702555
 no old-style atom pair restraining (fixing) potential

molecular fragmentation (1/2 indicates fragments):
111111111111111111111111111111111111111111111111111111111111111111111111
111111111111111111111111111111111111111111111111111111111111111111111111
111111111111111111111111111111111111111111111111111111111111111111111111
111111111111111111111111111111111111111111111111111111111111111111111111
111111111111111111111111111111111111111111111111111111111111111111111111
111111111111111111111111111111111111111112222222222222222222222222222222
222222222222222222222222222222222222222222222222222222222222222222222222
222222222222222222222222222222222222222222222222222222222222222222222222
222222222222222222222222222222222222222222222222222222222222222222222222
222222222222222222222222222222222222222222222222222222222222222222222222
222222222222222222222222222222222222222222222222222222222222222222222222
222222222222222222222222222222222222222222222211222222222
# atoms in fragment 1/2:   403   446
 fragment masses (1/2) :     2845.24     3123.70
CMA distance (Bohr)    :  19.559
constraining FC (au)   :  0.0500
           ------------------------------------------------- 
          |        Self-Consistent Charge Iterations        |
           ------------------------------------------------- 

 Ncao       : 2118
 Nao        : 2114
 Nshell     : 1268
 Nel        : 2340
 T(el)      :   500.0
 intcut     :    35.0
 scfconv/Eh :  0.100E-06
   qconv/e  :  0.100E-04
 intneglect :  0.100E-08
 broydamp   :      0.400
 iter      E             dE          RMSdq      gap      omega  full diag
   1  -1340.6728971 -0.134067E+04  0.471E+00    3.13       0.0  T
   2  -1344.1765034 -0.350361E+01  0.219E+00    1.39       1.0  T
   3  -1344.3901379 -0.213635E+00  0.123E+00    1.52       1.0  T
   4  -1344.5946726 -0.204535E+00  0.266E-01    0.91       1.0  T
   5  -1344.6073307 -0.126580E-01  0.136E-01    1.15       1.0  T
   6  -1344.6090139 -0.168330E-02  0.567E-02    1.17       1.0  T
   7  -1344.6097700 -0.756033E-03  0.241E-02    1.20       1.0  T
   8  -1344.6098284 -0.584028E-04  0.131E-02    1.21       1.0  T
   9  -1344.6098621 -0.336722E-04  0.587E-03    1.21       1.0  T
  10  -1344.6098668 -0.475773E-05  0.302E-03    1.22       1.1  T
  11  -1344.6098681 -0.131594E-05  0.128E-03    1.22       2.7  T
  12  -1344.6098683 -0.201506E-06  0.634E-04    1.22       5.4  T
  13  -1344.6098684 -0.652660E-07  0.305E-04    1.22      11.3  T
  14  -1344.6098684 -0.161374E-07  0.135E-04    1.22      25.4  T
  15  -1344.6098684 -0.400087E-08  0.595E-05    1.22      57.7  T
  16  -1344.6098684 -0.600949E-09  0.273E-05    1.22     125.5  T
speedup  1.29
cpu  time for SCC    1 m  9.6 s
wall time for SCC    0 m 54.0 s

   *** convergence criteria satisfied after 16 iterations ***

          eigenvalues
 #    :        1158       1159       1160       1161       1162       1163       1164       1165
 occ. :        2.000      2.000      2.000      2.000      2.000      2.000      2.000      2.000
 eps  :        -9.757     -9.700     -9.699     -9.680     -9.650     -9.641     -9.590     -9.518
 #    :        1166       1167       1168       1169       1170       1171       1172       1173
 occ. :        2.000      2.000      2.000      2.000      2.000      0.000      0.000      0.000
 eps  :        -9.516     -9.501     -9.437     -9.202     -9.146     -7.927     -7.665     -7.663
 #    :        1174       1175       1176       1177       1178       1179       1180       1181
 occ. :        0.000      0.000      0.000      0.000      0.000      0.000      0.000      0.000
 eps  :        -7.606     -7.580     -6.957     -6.893     -6.793     -6.772     -6.682     -6.669


   #   Z            q   n(s)   n(p)   n(d)      C6AA      α(0)
   1   7 N     -0.396  1.324  4.072  0.000    30.262     8.170
   2   6 C      0.034  1.050  2.916  0.000    20.020     6.373
   3   6 C      0.268  1.051  2.681  0.000    22.476     7.764
   4   8 O     -0.514  1.755  4.759  0.000    24.090     6.581
   5   6 C     -0.132  1.049  3.083  0.000    23.090     6.852
   6   1 H      0.180  0.820  0.000  0.000     1.217     1.728
   7   1 H      0.035  0.965  0.000  0.000     2.516     2.480
   8   1 H      0.037  0.963  0.000  0.000     2.485     2.465
   9   1 H      0.067  0.933  0.000  0.000     2.123     2.278
  10   1 H      0.061  0.939  0.000  0.000     2.186     2.312
  11   7 N     -0.183  1.252  3.931  0.000    24.960     7.420
  12   6 C      0.024  1.054  2.922  0.000    20.170     6.395
  13   6 C      0.282  1.039  2.680  0.000    22.233     7.721
  14   8 O     -0.500  1.756  4.744  0.000    23.794     6.540
  15   6 C     -0.135  1.044  3.091  0.000    23.157     6.861
  16   1 H      0.232  0.768  0.000  0.000     0.958     1.533
  17   1 H      0.056  0.944  0.000  0.000     2.252     2.347
  18   1 H      0.070  0.930  0.000  0.000     2.088     2.260
  19   1 H      0.079  0.921  0.000  0.000     1.989     2.205
  20   1 H      0.083  0.917  0.000  0.000     1.947     2.182
  21   7 N     -0.171  1.245  3.926  0.000    24.693     7.380
  22   6 C      0.021  1.055  2.924  0.000    20.232     6.405
  23   6 C      0.277  1.042  2.682  0.000    22.318     7.736
  24   8 O     -0.495  1.745  4.750  0.000    23.681     6.525
  25   6 C     -0.148  1.048  3.100  0.000    23.402     6.896
  26   1 H      0.232  0.768  0.000  0.000     0.958     1.533
  27   1 H      0.081  0.919  0.000  0.000     1.968     2.194
  28   1 H      0.077  0.923  0.000  0.000     2.014     2.219
  29   1 H      0.098  0.902  0.000  0.000     1.802     2.099
  30   1 H      0.074  0.926  0.000  0.000     2.042     2.235
  31   7 N     -0.162  1.249  3.914  0.000    24.506     7.352
  32   6 C      0.024  1.053  2.923  0.000    20.170     6.394
  33   6 C      0.291  1.033  2.676  0.000    22.062     7.692
  34   8 O     -0.496  1.748  4.749  0.000    23.706     6.528
  35   6 C     -0.138  1.045  3.093  0.000    23.216     6.869
  36   1 H      0.240  0.760  0.000  0.000     0.924     1.506
  37   1 H      0.073  0.927  0.000  0.000     2.052     2.240
  38   1 H      0.063  0.937  0.000  0.000     2.168     2.303
  39   1 H      0.091  0.909  0.000  0.000     1.872     2.140
  40   1 H      0.074  0.926  0.000  0.000     2.038     2.233
  41   7 N     -0.188  1.247  3.941  0.000    25.068     7.436
  42   6 C      0.035  1.053  2.911  0.000    19.979     6.364
  43   6 C      0.279  1.038  2.683  0.000    22.287     7.731
  44   8 O     -0.533  1.750  4.783  0.000    24.533     6.641
  45   6 C     -0.045  1.050  2.995  0.000    21.370     6.581
  46   6 C     -0.087  1.063  3.024  0.000    22.158     6.702
  47   6 C      0.368  1.027  2.606  0.000    20.768     7.458
  48   8 O     -0.647  1.768  4.879  0.000    27.304     7.006
  49   8 O     -0.656  1.777  4.879  0.000    27.541     7.036
  50   1 H      0.217  0.783  0.000  0.000     1.021     1.583
  51   1 H      0.045  0.955  0.000  0.000     2.379     2.412
  52   1 H      0.048  0.952  0.000  0.000     2.345     2.395
  53   1 H      0.038  0.962  0.000  0.000     2.482     2.463
  54   1 H      0.029  0.971  0.000  0.000     2.597     2.520
  55   1 H      0.022  0.978  0.000  0.000     2.708     2.574
  56   7 N     -0.189  1.257  3.932  0.000    25.093     7.440
  57   6 C      0.025  1.057  2.918  0.000    20.139     6.387
  58   6 C      0.276  1.041  2.683  0.000    22.333     7.739
  59   8 O     -0.509  1.739  4.770  0.000    23.993     6.567
  60   6 C     -0.018  1.057  2.961  0.000    20.850     6.494
  61   6 C     -0.123  1.046  3.077  0.000    22.917     6.826
  62   6 C     -0.119  1.043  3.075  0.000    22.825     6.811
  63   1 H      0.243  0.757  0.000  0.000     0.910     1.495
  64   1 H      0.066  0.934  0.000  0.000     2.133     2.284
  65   1 H      0.049  0.951  0.000  0.000     2.329     2.387
  66   1 H      0.068  0.932  0.000  0.000     2.108     2.271
  67   1 H      0.036  0.964  0.000  0.000     2.501     2.473
  68   1 H      0.053  0.947  0.000  0.000     2.278     2.360
  69   1 H      0.063  0.937  0.000  0.000     2.165     2.301
  70   1 H      0.040  0.960  0.000  0.000     2.446     2.446
  71   1 H      0.045  0.955  0.000  0.000     2.384     2.415
  72   7 N     -0.215  1.265  3.951  0.000    25.693     7.528
  73   6 C      0.033  1.055  2.912  0.000    20.012     6.368
  74   6 C      0.283  1.041  2.676  0.000    22.211     7.718
  75   8 O     -0.501  1.728  4.773  0.000    23.805     6.542
  76   6 C     -0.049  1.047  3.002  0.000    21.450     6.593
  77   6 C     -0.094  1.064  3.030  0.000    22.299     6.723
  78   6 C      0.365  1.024  2.610  0.000    20.805     7.465
  79   8 O     -0.653  1.776  4.877  0.000    27.466     7.026
  80   8 O     -0.642  1.771  4.870  0.000    27.166     6.988
  81   1 H      0.253  0.747  0.000  0.000     0.871     1.461
  82   1 H      0.064  0.936  0.000  0.000     2.157     2.297
  83   1 H      0.042  0.958  0.000  0.000     2.424     2.435
  84   1 H      0.038  0.962  0.000  0.000     2.477     2.461
  85   1 H      0.039  0.961  0.000  0.000     2.457     2.452
  86   1 H      0.031  0.969  0.000  0.000     2.574     2.509
  87   7 N     -0.189  1.253  3.936  0.000    25.099     7.441
  88   6 C      0.041  1.050  2.909  0.000    19.886     6.349
  89   6 C      0.271  1.043  2.686  0.000    22.420     7.754
  90   8 O     -0.487  1.734  4.753  0.000    23.496     6.499
  91   6 C     -0.047  1.049  2.998  0.000    21.407     6.586
  92   6 C     -0.087  1.059  3.028  0.000    22.149     6.700
  93   6 C      0.363  1.025  2.612  0.000    20.844     7.472
  94   8 O     -0.637  1.765  4.872  0.000    27.042     6.972
  95   8 O     -0.640  1.761  4.879  0.000    27.116     6.982
  96   1 H      0.214  0.786  0.000  0.000     1.038     1.596
  97   1 H      0.068  0.932  0.000  0.000     2.108     2.271
  98   1 H      0.038  0.962  0.000  0.000     2.470     2.458
  99   1 H      0.030  0.970  0.000  0.000     2.592     2.518
 100   1 H      0.022  0.978  0.000  0.000     2.704     2.571
 101   1 H      0.014  0.986  0.000  0.000     2.833     2.632
 102   7 N     -0.174  1.247  3.927  0.000    24.763     7.391
 103   6 C      0.017  1.059  2.924  0.000    20.280     6.411
 104   6 C      0.276  1.039  2.684  0.000    22.325     7.738
 105   8 O     -0.486  1.732  4.754  0.000    23.478     6.496
 106   6 C     -0.085  1.055  3.030  0.000    22.112     6.694
 107   6 C     -0.088  1.052  3.035  0.000    22.165     6.702
 108   6 C     -0.028  1.057  2.971  0.000    21.153     6.563
 109   7 N     -0.145  1.214  3.931  0.000    24.144     7.298
 110   6 C      0.229  1.021  2.749  0.000    23.180     7.882
 111   7 N     -0.233  1.228  4.005  0.000    26.106     7.588
[...]
 563   8 O     -0.659  1.781  4.878  0.000    27.609     7.045
 564   1 H      0.208  0.792  0.000  0.000     1.068     1.619
 565   1 H      0.065  0.935  0.000  0.000     2.140     2.287
 566   1 H      0.055  0.945  0.000  0.000     2.257     2.350
 567   1 H      0.030  0.970  0.000  0.000     2.589     2.516
 568   1 H      0.034  0.966  0.000  0.000     2.529     2.487
 569   1 H      0.046  0.954  0.000  0.000     2.373     2.409
 570   7 N     -0.229  1.284  3.946  0.000    26.020     7.576
 571   6 C      0.035  1.059  2.906  0.000    19.996     6.368
 572   6 C      0.288  1.037  2.675  0.000    22.118     7.701
 573   8 O     -0.530  1.766  4.764  0.000    24.466     6.632
 574   6 C     -0.069  1.060  3.009  0.000    21.817     6.650
 575   6 C     -0.020  1.068  2.951  0.000    20.938     6.517
 576  16 S     -0.257  1.930  4.253  0.073   152.082    20.756
 577   6 C     -0.036  1.048  2.988  0.000    21.290     6.582
 578   1 H      0.282  0.718  0.000  0.000     0.765     1.368
 579   1 H      0.048  0.952  0.000  0.000     2.351     2.398
 580   1 H      0.076  0.924  0.000  0.000     2.022     2.224
 581   1 H      0.066  0.934  0.000  0.000     2.132     2.284
 582   1 H      0.067  0.933  0.000  0.000     2.122     2.278
 583   1 H      0.062  0.938  0.000  0.000     2.181     2.309
 584   1 H      0.052  0.948  0.000  0.000     2.291     2.367
 585   1 H      0.063  0.937  0.000  0.000     2.164     2.301
 586   1 H      0.043  0.957  0.000  0.000     2.409     2.427
 587   7 N     -0.206  1.261  3.945  0.000    25.484     7.497
 588   6 C      0.030  1.052  2.918  0.000    20.069     6.378
 589   6 C      0.283  1.038  2.679  0.000    22.212     7.718
 590   8 O     -0.525  1.758  4.767  0.000    24.351     6.616
 591   6 C     -0.076  1.056  3.019  0.000    21.930     6.665
 592   6 C     -0.010  1.051  2.959  0.000    20.718     6.474
 593   6 C     -0.126  1.047  3.078  0.000    22.960     6.831
 594   6 C     -0.130  1.050  3.080  0.000    23.038     6.842
 595   1 H      0.252  0.748  0.000  0.000     0.876     1.466
 596   1 H      0.076  0.924  0.000  0.000     2.018     2.221
 597   1 H      0.059  0.941  0.000  0.000     2.212     2.326
 598   1 H      0.040  0.960  0.000  0.000     2.455     2.450
 599   1 H      0.039  0.961  0.000  0.000     2.459     2.452
 600   1 H      0.060  0.940  0.000  0.000     2.201     2.320
 601   1 H      0.040  0.960  0.000  0.000     2.453     2.449
 602   1 H      0.043  0.957  0.000  0.000     2.410     2.428
 603   1 H      0.073  0.927  0.000  0.000     2.048     2.238
 604   1 H      0.035  0.965  0.000  0.000     2.512     2.478
 605   1 H      0.056  0.944  0.000  0.000     2.250     2.346
 606   7 N     -0.180  1.249  3.931  0.000    24.904     7.412
 607   6 C      0.031  1.063  2.906  0.000    20.056     6.376
 608   6 C      0.283  1.046  2.671  0.000    22.206     7.716
 609   8 O     -0.528  1.751  4.777  0.000    24.414     6.625
 610   6 C     -0.024  1.070  2.954  0.000    20.963     6.512
 611   6 C     -0.059  1.050  3.009  0.000    21.635     6.622
 612   6 C     -0.118  1.044  3.074  0.000    22.819     6.813
 613   6 C     -0.115  1.044  3.070  0.000    22.761     6.804
 614   1 H      0.225  0.775  0.000  0.000     0.989     1.558
 615   1 H      0.058  0.942  0.000  0.000     2.227     2.334
 616   1 H      0.062  0.938  0.000  0.000     2.178     2.308
 617   1 H      0.038  0.962  0.000  0.000     2.476     2.461
 618   1 H      0.019  0.981  0.000  0.000     2.751     2.594
 619   1 H      0.066  0.934  0.000  0.000     2.128     2.281
 620   1 H      0.060  0.940  0.000  0.000     2.201     2.320
 621   1 H      0.021  0.979  0.000  0.000     2.713     2.576
 622   1 H      0.050  0.950  0.000  0.000     2.325     2.385
 623   1 H      0.042  0.958  0.000  0.000     2.417     2.431
 624   1 H      0.060  0.940  0.000  0.000     2.199     2.319
 625   7 N     -0.212  1.263  3.948  0.000    25.608     7.516
 626   6 C      0.032  1.054  2.914  0.000    20.038     6.374
 627   6 C      0.281  1.038  2.681  0.000    22.251     7.725
 628   8 O     -0.511  1.748  4.764  0.000    24.040     6.574
 629   6 C     -0.115  1.041  3.074  0.000    22.757     6.801
 630   1 H      0.244  0.756  0.000  0.000     0.907     1.492
 631   1 H      0.070  0.930  0.000  0.000     2.089     2.260
 632   1 H      0.068  0.932  0.000  0.000     2.104     2.269
 633   1 H      0.074  0.926  0.000  0.000     2.041     2.234
 634   1 H      0.044  0.956  0.000  0.000     2.396     2.421
 635   7 N     -0.170  1.243  3.927  0.000    24.671     7.377
 636   6 C      0.044  1.050  2.906  0.000    19.832     6.341
 637   6 C      0.270  1.046  2.684  0.000    22.444     7.758
 638   8 O     -0.473  1.732  4.741  0.000    23.192     6.457
 639   6 C     -0.087  1.062  3.025  0.000    22.147     6.700
 640   6 C      0.375  1.021  2.604  0.000    20.648     7.436
 641   8 O     -0.648  1.775  4.873  0.000    27.339     7.010
 642   8 O     -0.632  1.752  4.880  0.000    26.920     6.956
 643   1 H      0.200  0.800  0.000  0.000     1.106     1.648
 644   1 H      0.066  0.934  0.000  0.000     2.129     2.282
 645   1 H      0.042  0.958  0.000  0.000     2.421     2.433
 646   1 H      0.045  0.955  0.000  0.000     2.387     2.416
 647   7 N     -0.172  1.243  3.929  0.000    24.721     7.384
 648   6 C     -0.025  1.051  2.974  0.000    21.083     6.550
 649   6 C      0.279  1.041  2.680  0.000    22.287     7.730
 650   8 O     -0.527  1.764  4.764  0.000    24.400     6.623
 651   1 H      0.204  0.796  0.000  0.000     1.086     1.632
 652   1 H      0.095  0.905  0.000  0.000     1.832     2.117
 653   1 H      0.088  0.912  0.000  0.000     1.900     2.156
 654   7 N     -0.190  1.266  3.924  0.000    25.124     7.444
 655   6 C      0.028  1.066  2.906  0.000    20.115     6.386
 656   6 C      0.301  1.036  2.663  0.000    21.887     7.661
 657   8 O     -0.507  1.752  4.754  0.000    23.930     6.559
 658   6 C     -0.022  1.061  2.961  0.000    20.925     6.506
 659   6 C     -0.085  1.057  3.028  0.000    22.106     6.693
 660   6 C     -0.117  1.046  3.072  0.000    22.802     6.808
 661   6 C     -0.111  1.039  3.072  0.000    22.687     6.792
 662   1 H      0.258  0.742  0.000  0.000     0.852     1.446
 663   1 H      0.035  0.965  0.000  0.000     2.512     2.479
 664   1 H      0.053  0.947  0.000  0.000     2.282     2.362
 665   1 H      0.073  0.927  0.000  0.000     2.057     2.243
 666   1 H      0.043  0.957  0.000  0.000     2.407     2.426
 667   1 H      0.064  0.936  0.000  0.000     2.157     2.297
 668   1 H      0.026  0.974  0.000  0.000     2.642     2.542
 669   1 H      0.067  0.933  0.000  0.000     2.122     2.278
 670   1 H      0.047  0.953  0.000  0.000     2.363     2.404
 671   1 H      0.036  0.964  0.000  0.000     2.502     2.474
 672   1 H      0.029  0.971  0.000  0.000     2.600     2.521
 673   7 N     -0.184  1.249  3.934  0.000    24.979     7.423
 674   6 C      0.046  1.052  2.902  0.000    19.811     6.338
 675   6 C      0.261  1.050  2.689  0.000    22.600     7.785
 676   8 O     -0.484  1.743  4.741  0.000    23.435     6.490
 677   6 C     -0.092  1.065  3.027  0.000    22.243     6.714
 678   6 C      0.368  1.023  2.610  0.000    20.766     7.458
 679   8 O     -0.632  1.770  4.862  0.000    26.923     6.957
 680   8 O     -0.636  1.763  4.873  0.000    27.013     6.968
 681   1 H      0.195  0.805  0.000  0.000     1.133     1.668
 682   1 H      0.045  0.955  0.000  0.000     2.384     2.415
 683   1 H      0.033  0.967  0.000  0.000     2.540     2.492
 684   1 H      0.025  0.975  0.000  0.000     2.657     2.549
 685   7 N     -0.099  1.244  3.855  0.000    23.187     7.152
 686   6 C      0.026  1.062  2.912  0.000    20.125     6.384
 687   6 C      0.280  1.040  2.680  0.000    22.255     7.725
 688   8 O     -0.475  1.748  4.726  0.000    23.236     6.463
 689   6 C     -0.092  1.060  3.032  0.000    22.213     6.704
 690   6 C     -0.064  1.042  3.021  0.000    21.694     6.626
 691   6 C      0.000  1.048  2.952  0.000    20.606     6.468
 692   1 H      0.068  0.932  0.000  0.000     2.109     2.271
 693   1 H      0.075  0.925  0.000  0.000     2.033     2.230
 694   1 H      0.082  0.918  0.000  0.000     1.963     2.191
 695   1 H      0.045  0.955  0.000  0.000     2.381     2.413
 696   1 H      0.086  0.914  0.000  0.000     1.914     2.164
 697   1 H      0.057  0.943  0.000  0.000     2.236     2.339
 698   1 H      0.057  0.943  0.000  0.000     2.231     2.336
 699   7 N     -0.174  1.243  3.931  0.000    24.769     7.392
 700   6 C      0.022  1.061  2.917  0.000    20.216     6.403
 701   6 C      0.278  1.040  2.682  0.000    22.298     7.732
 702   8 O     -0.473  1.740  4.734  0.000    23.201     6.458
 703   6 C     -0.115  1.066  3.050  0.000    22.702     6.783
 704   6 C      0.284  1.033  2.683  0.000    22.195     7.714
 705   8 O     -0.486  1.749  4.737  0.000    23.481     6.497
 706   7 N     -0.275  1.269  4.006  0.000    27.101     7.732
 707   1 H      0.214  0.786  0.000  0.000     1.039     1.597
 708   1 H      0.099  0.901  0.000  0.000     1.797     2.096
 709   1 H      0.061  0.939  0.000  0.000     2.185     2.312
 710   1 H      0.110  0.890  0.000  0.000     1.693     2.035
 711   1 H      0.249  0.751  0.000  0.000     0.886     1.474
 712   1 H      0.223  0.777  0.000  0.000     0.995     1.563
 713   7 N     -0.173  1.247  3.926  0.000    24.754     7.389
 714   6 C      0.017  1.066  2.917  0.000    20.291     6.415
 715   6 C      0.283  1.040  2.676  0.000    22.202     7.716
 716   8 O     -0.495  1.739  4.756  0.000    23.666     6.522
 717   6 C     -0.055  1.053  3.002  0.000    21.564     6.611
 718   6 C     -0.091  1.068  3.023  0.000    22.248     6.717
 719   6 C      0.354  1.039  2.607  0.000    20.995     7.498
 720   8 O     -0.643  1.773  4.869  0.000    27.193     6.991
 721   8 O     -0.643  1.783  4.860  0.000    27.202     6.993
 722   1 H      0.204  0.796  0.000  0.000     1.087     1.633
 723   1 H      0.083  0.917  0.000  0.000     1.950     2.184
 724   1 H      0.047  0.953  0.000  0.000     2.359     2.402
 725   1 H      0.033  0.967  0.000  0.000     2.537     2.491
 726   1 H      0.024  0.976  0.000  0.000     2.668     2.554
 727   1 H      0.036  0.964  0.000  0.000     2.506     2.476
 728   7 N     -0.169  1.245  3.924  0.000    24.656     7.375
 729   6 C      0.025  1.059  2.916  0.000    20.163     6.394
 730   6 C      0.276  1.037  2.687  0.000    22.328     7.738
 731   8 O     -0.481  1.726  4.755  0.000    23.265     6.472
 732   6 C     -0.087  1.059  3.027  0.000    22.147     6.698
 733   6 C     -0.019  1.054  2.965  0.000    20.882     6.499
 734   6 C     -0.119  1.047  3.072  0.000    22.833     6.813
 735   6 C     -0.147  1.051  3.096  0.000    23.382     6.894
 736   1 H      0.205  0.795  0.000  0.000     1.080     1.628
 737   1 H      0.072  0.928  0.000  0.000     2.064     2.247
 738   1 H      0.081  0.919  0.000  0.000     1.972     2.196
 739   1 H      0.077  0.923  0.000  0.000     2.011     2.217
 740   1 H      0.037  0.963  0.000  0.000     2.493     2.469
 741   1 H      0.044  0.956  0.000  0.000     2.392     2.419
 742   1 H      0.025  0.975  0.000  0.000     2.659     2.550
 743   1 H      0.063  0.937  0.000  0.000     2.166     2.301
 744   1 H      0.054  0.946  0.000  0.000     2.276     2.359
 745   1 H      0.065  0.935  0.000  0.000     2.143     2.289
 746   1 H      0.058  0.942  0.000  0.000     2.224     2.332
 747   7 N     -0.159  1.245  3.914  0.000    24.442     7.343
 748   6 C      0.016  1.059  2.925  0.000    20.307     6.415
 749   6 C      0.273  1.040  2.686  0.000    22.377     7.746
 750   8 O     -0.483  1.747  4.736  0.000    23.408     6.487
 751   6 C     -0.084  1.060  3.025  0.000    22.100     6.692
 752   6 C     -0.023  1.059  2.965  0.000    20.952     6.511
 753   6 C     -0.117  1.044  3.073  0.000    22.797     6.808
 754   6 C     -0.117  1.043  3.074  0.000    22.794     6.808
 755   1 H      0.235  0.765  0.000  0.000     0.944     1.522
 756   1 H      0.087  0.913  0.000  0.000     1.907     2.159
 757   1 H      0.060  0.940  0.000  0.000     2.196     2.318
 758   1 H      0.072  0.928  0.000  0.000     2.059     2.244
 759   1 H      0.042  0.958  0.000  0.000     2.421     2.433
 760   1 H      0.044  0.956  0.000  0.000     2.391     2.418
 761   1 H      0.042  0.958  0.000  0.000     2.416     2.431
 762   1 H      0.059  0.941  0.000  0.000     2.212     2.326
 763   1 H      0.036  0.964  0.000  0.000     2.502     2.474
 764   1 H      0.055  0.945  0.000  0.000     2.258     2.350
 765   1 H      0.033  0.967  0.000  0.000     2.548     2.496
 766   7 N     -0.181  1.245  3.936  0.000    24.921     7.414
 767   6 C      0.027  1.056  2.917  0.000    20.130     6.388
 768   6 C      0.280  1.038  2.682  0.000    22.260     7.726
 769   8 O     -0.472  1.749  4.723  0.000    23.181     6.455
 770   6 C     -0.110  1.063  3.047  0.000    22.599     6.767
 771   6 C      0.285  1.033  2.682  0.000    22.176     7.711
 772   8 O     -0.501  1.764  4.738  0.000    23.813     6.543
 773   7 N     -0.279  1.270  4.009  0.000    27.221     7.749
 774   1 H      0.219  0.781  0.000  0.000     1.014     1.577
 775   1 H      0.091  0.909  0.000  0.000     1.867     2.137
 776   1 H      0.089  0.911  0.000  0.000     1.893     2.152
 777   1 H      0.085  0.915  0.000  0.000     1.924     2.169
 778   1 H      0.251  0.749  0.000  0.000     0.878     1.468
 779   1 H      0.240  0.760  0.000  0.000     0.922     1.504
 780   7 N     -0.188  1.248  3.940  0.000    25.067     7.436
 781   6 C      0.013  1.063  2.924  0.000    20.369     6.427
 782   6 C      0.288  1.035  2.678  0.000    22.122     7.702
 783   8 O     -0.503  1.754  4.749  0.000    23.854     6.548
 784   6 C      0.076  1.038  2.886  0.000    19.505     6.325
 785   8 O     -0.536  1.721  4.815  0.000    23.676     6.568
 786   1 H      0.211  0.789  0.000  0.000     1.050     1.605
 787   1 H      0.071  0.929  0.000  0.000     2.076     2.253
 788   1 H      0.060  0.940  0.000  0.000     2.195     2.317
 789   1 H      0.028  0.972  0.000  0.000     2.621     2.532
 790   1 H      0.359  0.641  0.000  0.000     0.555     1.163
 791   7 N     -0.173  1.243  3.930  0.000    24.748     7.388
 792   6 C      0.025  1.057  2.919  0.000    20.161     6.393
 793   6 C      0.270  1.041  2.689  0.000    22.443     7.758
 794   8 O     -0.498  1.753  4.745  0.000    23.742     6.533
 795   6 C     -0.076  1.049  3.027  0.000    21.917     6.659
 796   6 C     -0.007  1.060  2.947  0.000    20.710     6.480
 797  16 S     -0.210  1.905  4.251  0.054   150.007    20.614
 798   6 C     -0.071  1.056  3.015  0.000    21.934     6.681
 799   1 H      0.210  0.790  0.000  0.000     1.056     1.610
 800   1 H      0.075  0.925  0.000  0.000     2.032     2.229
 801   1 H      0.060  0.940  0.000  0.000     2.199     2.319
 802   1 H      0.085  0.915  0.000  0.000     1.929     2.172
 803   1 H      0.034  0.966  0.000  0.000     2.525     2.485
 804   1 H      0.056  0.944  0.000  0.000     2.250     2.346
 805   1 H      0.074  0.926  0.000  0.000     2.040     2.233
 806   1 H      0.072  0.928  0.000  0.000     2.060     2.245
 807   1 H      0.060  0.940  0.000  0.000     2.197     2.318
 808   7 N     -0.190  1.252  3.938  0.000    25.123     7.444
 809   6 C      0.025  1.059  2.916  0.000    20.162     6.394
 810   6 C      0.273  1.048  2.679  0.000    22.379     7.746
 811   8 O     -0.502  1.752  4.750  0.000    23.823     6.544
 812   6 C     -0.128  1.045  3.082  0.000    23.013     6.841
 813   1 H      0.217  0.783  0.000  0.000     1.025     1.586
 814   1 H      0.086  0.914  0.000  0.000     1.923     2.169
 815   1 H      0.081  0.919  0.000  0.000     1.964     2.191
 816   1 H      0.081  0.919  0.000  0.000     1.970     2.195
 817   1 H      0.057  0.943  0.000  0.000     2.229     2.335
 818   7 N     -0.173  1.246  3.927  0.000    24.755     7.390
 819   6 C      0.020  1.060  2.921  0.000    20.253     6.409
 820   6 C      0.273  1.042  2.686  0.000    22.394     7.749
 821   8 O     -0.509  1.749  4.760  0.000    23.988     6.567
 822   6 C     -0.122  1.044  3.078  0.000    22.902     6.824
 823   1 H      0.198  0.802  0.000  0.000     1.116     1.655
 824   1 H      0.089  0.911  0.000  0.000     1.889     2.149
 825   1 H      0.073  0.927  0.000  0.000     2.053     2.241
 826   1 H      0.081  0.919  0.000  0.000     1.973     2.196
 827   1 H      0.050  0.950  0.000  0.000     2.319     2.382
 828   7 N     -0.176  1.251  3.925  0.000    24.804     7.397
 829   6 C      0.018  1.065  2.917  0.000    20.286     6.414
 830   6 C      0.371  1.018  2.611  0.000    20.718     7.449
 831   8 O     -0.640  1.759  4.881  0.000    27.115     6.982
 832   6 C     -0.109  1.042  3.067  0.000    22.645     6.785
 833   8 O     -0.629  1.757  4.872  0.000    26.846     6.947
 834   1 H      0.179  0.821  0.000  0.000     1.217     1.728
 835   1 H      0.042  0.958  0.000  0.000     2.416     2.431
 836   1 H      0.050  0.950  0.000  0.000     2.323     2.384
 837   1 H      0.049  0.951  0.000  0.000     2.327     2.385
 838   1 H      0.046  0.954  0.000  0.000     2.368     2.406
 839   1 H      0.188  0.812  0.000  0.000     1.168     1.693
 840   1 H      0.085  0.915  0.000  0.000     1.926     2.170
 841   1 H      0.172  0.828  0.000  0.000     1.261     1.759
 842   1 H      0.080  0.920  0.000  0.000     1.981     2.201
 843   1 H      0.179  0.821  0.000  0.000     1.217     1.728
 844   1 H      0.081  0.919  0.000  0.000     1.968     2.194
 845   1 H      0.192  0.808  0.000  0.000     1.145     1.676
 846   1 H      0.074  0.926  0.000  0.000     2.036     2.231
 847   1 H      0.186  0.814  0.000  0.000     1.177     1.700
 848   1 H      0.094  0.906  0.000  0.000     1.844     2.124
 849   1 H      0.184  0.816  0.000  0.000     1.192     1.710

 Mol. C6AA /au·bohr⁶  :    6818576.744152
 Mol. C8AA /au·bohr⁸  :  153601566.273648
 Mol. α(0) /au        :       3898.814470

 
molecular dipole:
                 x           y           z       tot (Debye)
 q only:      222.551    -520.456    -153.369
   full:      230.290    -516.367    -153.657    1489.242
molecular quadrupole (traceless):
                xx          xy          yy          xz          yz          zz
 q only:    24542.565   42918.170  -59331.070   11222.883  -30152.979   34788.506
  q+dip:    23094.802   44059.898  -57757.265   11721.943  -29984.133   34662.463
   full:    23092.147   44060.230  -57754.900   11720.008  -29982.447   34662.754
speedup  1.28
cpu  time for grad    1 m 19.7 s
wall time for grad    1 m  2.2 s

SCC energy    :   -1344.6427845
rep           :      15.3581060
ES            :       5.2394372
AES           :      -0.1835746
AXC           :       0.3986412
disp          :      -1.2144742
XB            :       0.0000000
fix           :       0.0000000
Gborn         :       0.0000000
Gsasa         :       0.0000000
Ghb           :       0.0000000
Gshift        :       0.0000000
Gsolv         :      -1.5687379     -984.40
Etot ala COSMO:   -1344.6427845
grad norm     :       0.6376489
total E       :   -1329.1619492
atomizationE  :     239.8710376   150521.35
(atE without considering molecular charge,
 total energy contains solvation terms)
H-L gap (eV)  :          1.2190

------------------------------------------------------------------------
 * finished run on 2019/05/04 at 20:28:05.391     
------------------------------------------------------------------------
 total:
 * wall-time:     0 d,  0 h,  1 min,  5.335 sec
 *  cpu-time:     0 d,  0 h,  1 min, 22.329 sec
 * ratio c/w:     1.260 speedup
 SCF:
 * wall-time:     0 d,  0 h,  1 min,  3.733 sec
 *  cpu-time:     0 d,  0 h,  1 min, 21.418 sec
 * ratio c/w:     1.277 speedup

