      -----------------------------------------------------------      
     |                   =====================                   |     
     |                           x T B                           |     
     |                   =====================                   |     
     |                         S. Grimme                         |     
     |          Mulliken Center for Theoretical Chemistry        |     
     |                    University of Bonn                     |     
     |                 Version 6.0.1 (SAW181210)                 |     
      -----------------------------------------------------------      

   This program is distributed in the hope that it will be useful,
   but WITHOUT ANY WARRANTY; without even the implied warranty of
   MERCHANTABILITY or FITNESS FOR A PARTICULAR PURPOSE.
   
   FOR NON-COMMERCIAL, ACADEMIA USE ONLY.
   
   Cite this work as:
   S. Grimme, C. Bannwarth, P. Shushkov, J. Comput. Theory Chem., 2017,
   13, 1989-2009.
   C. Bannwarth, S. Ehlert and S. Grimme., ChemRxiv, 2018, preprint.
   http://doi.org/10.26434/chemrxiv.7246238.v1
   
   for sTDA-xTB:
   S. Grimme and C. Bannwarth, J. Chem. Phys., 2016, 145, 054103.
   
   in the mass-spec context:
   V. Asgeirsson, C. Bauer and S. Grimme, Chem. Sci., 2017, 8, 4879.
   
   if GBSA is used:
   P. Shushkov, F. März and S. Grimme, unpublished.
   
   for ANC optimizer:
   S. Grimme, unpublished.
   Rational Function algorithm used in ANCopt:
   F. Eckert, P. Pulay, H.-J. Werner, J. Comput. Chem., 1997, 18, 1473.
   
   with help from (in alphabetical order)
   C. Bannwarth, F. Bohle, G. Brandenburg, E. Caldeweyher, M. Checinski,
   S. Dohm, S. Ehlert, S. Ehrlich, F. März, H. Neugebauer, J. Pisarek,
   P. Pracht, P. Shushkov, and S. Spicher.
   
 * started run on 2019/05/05 at 12:29:09.028     
========================================================================
 # omp threads = 2
========================================================================
number of atoms            : 221
number of electrons        : 632
charge                     : -1
spin                       : .0
first test random number   : .0212

########################################################################
# WARNING! Please study the warnings concerning your input carefully
#  - Process number higher than OMP_NUM_THREADS, I hope you know what you are doing.
########################################################################

           ------------------------------------------------- 
          |                 G F N 2 - x T B                 |
          | Geometry, Frequencies, Noncovalent interactions |
          |            JCTC 2018 parametrisation            |
           ------------------------------------------------- 
 
      method parameters     
 k(s)        :  1.8500
 k(p)        :  2.2300
 k(d)        :  2.2300
 k(f)        :  2.0000
 kEN (H0ij)  : -2.0000
 D4 a1       :  0.5200
 D4 a2       :  5.0000
 D4 s6       :  1.0000
 D4 s8       :  2.7000
 D4 s9       :  5.0000
 alphaj      :  2.0000

 Solvent             : h2o
 Using internal parameter file: .param_gbsa2_h2o
 Gsolv ref. state (COSMO-RS): gsolv [1 M gas/solution]
 temperature (mdtemp)       :    298.150000000000     
 dielectric constant        :    80.2000000000000     
 rho                        :    1.00000000000000     
 mass                       :    18.0000000000000     
 surface tension            :    15.5689454083859     
 probe radius               :   0.975313790000000     
 vdW radii scaling          :    1.00000000000000     
 Gshift (Eh)                :   1.857443126794793E-003
 c1                         :    1.55243817000000     
 soset                      :   0.130326360000000     
 HB correction              :  T

            Z     q(EN)     CN     RAES       Cart. coordinates
     1  N   5.0   -0.21    3.19    1.95    28.46116    82.80401   182.29997
     2  C   4.0    0.03    4.29    4.19    30.58144    81.29790   181.38912
     3  C   4.0    0.15    3.45    3.10    29.68948    78.72598   180.38568
     4  O   6.0   -0.32    1.35    1.80    30.12034    78.07781   178.20116
     5  C   4.0   -0.04    4.29    4.18    32.61289    80.98799   183.44893
     6  C   4.0   -0.01    3.51    3.12    34.98450    79.60282   182.56075
     7  C   4.0   -0.03    3.47    3.10    35.06764    76.96854   182.44926
     8  C   4.0   -0.05    3.44    3.09    37.14256    80.91995   181.84266
     9  C   4.0   -0.04    3.54    3.13    37.22571    75.68730   181.62912
    10  C   4.0   -0.05    3.42    3.08    39.31764    79.65384   181.00929
    11  C   4.0    0.07    3.43    3.09    39.34031    77.03657   180.90724
    12  O   6.0   -0.24    2.09    1.84    41.47759    75.76667   180.08710
    13  H   1.0    0.08    1.03    1.43    28.75218    83.59959   184.03096
    14  H   1.0    0.04    1.06    1.44    31.46583    82.31646   179.83199
    15  H   1.0    0.04    1.03    1.43    33.18548    82.85692   184.09899
    16  H   1.0    0.05    1.03    1.43    31.80976    79.91462   185.01173
    17  H   1.0    0.07    1.03    1.43    33.42547    75.89517   183.01051
    18  H   1.0    0.04    1.03    1.43    37.14445    82.95897   181.92770
    19  H   1.0    0.06    1.05    1.44    37.24083    73.64829   181.55920
    20  H   1.0    0.05    1.03    1.43    40.96926    80.71397   180.44993
    21  H   1.0    0.11    1.02    1.43    42.80418    76.97988   179.64491
    22  N   5.0   -0.14    3.53    2.10    28.43849    77.25011   181.96549
    23  C   4.0    0.04    4.42    4.42    27.62212    74.77835   181.12834
    24  C   4.0    0.09    3.33    3.06    26.04231    75.12983   178.79075
    25  O   6.0   -0.28    1.13    1.80    26.28231    73.74656   176.95394
    26  C   4.0   -0.03    4.33    4.25    26.05554    73.51979   183.15980
    27  C   4.0    0.24    3.17    3.03    27.41047    73.42152   185.66180
    28  O   6.0   -0.29    1.23    1.80    29.68004    74.09615   185.78463
    29  O   6.0   -0.28    1.18    1.80    26.18782    72.66185   187.52129
    30  H   1.0    0.09    1.07    1.44    27.97550    77.69797   183.78152
    31  H   1.0    0.06    1.06    1.44    29.24351    73.56514   180.75040
    32  H   1.0    0.05    1.03    1.43    24.30754    74.57992   183.41869
    33  H   1.0    0.05    1.03    1.43    25.63035    71.58849   182.58532
    34  N   5.0   -0.19    3.23    1.96    26.39191    79.10204   174.45383
    35  C   4.0    0.03    4.24    4.08    27.88291    79.46676   172.16915
    36  C   4.0    0.16    3.39    3.08    29.29264    77.04413   171.41515
    37  O   6.0   -0.29    1.24    1.80    29.22650    76.27879   169.21551
    38  C   4.0   -0.08    4.11    3.82    29.71972    81.64561   172.51686
    39  H   1.0    0.10    1.04    1.43    27.19883    79.78990   176.06388
    40  H   1.0    0.05    1.06    1.44    26.60734    79.95808   170.62714
    41  H   1.0    0.04    1.00    1.43    30.81387    81.88372   170.78776
    42  H   1.0    0.04    1.00    1.43    28.65580    83.36337   172.91559
    43  H   1.0    0.05    1.00    1.43    30.97828    81.21664   174.09100
    44  N   5.0   -0.13    3.44    2.04    30.53986    75.84982   173.25574
    45  C   4.0    0.04    4.48    4.51    32.07054    73.59160   172.81733
    46  C   4.0    0.17    3.45    3.09    30.93859    71.76612   170.88414
    47  O   6.0   -0.27    1.28    1.80    28.80320    70.89496   171.20728
    48  C   4.0   -0.03    4.11    3.81    32.58454    72.21966   175.31177
    49  S   6.0   -0.05    2.41    3.10    35.57409    72.98878   176.67048
    50  H   1.0    0.11    1.10    1.44    30.52474    76.41296   175.10012
    51  H   1.0    0.04    1.09    1.44    33.86389    74.23221   172.03498
    52  H   1.0    0.07    1.08    1.44    31.12190    72.73555   176.66859
    53  H   1.0    0.06    1.08    1.44    32.54675    70.18820   174.97351
    54  H   1.0    0.06    1.05    1.44    35.20937    74.28324   178.72650
    55  N   5.0   -0.13    3.44    2.04    32.40313    71.17842   168.90748
    56  C   4.0    0.03    4.50    4.53    31.49984    69.69498   166.74753
    57  C   4.0    0.16    3.48    3.11    29.99184    67.37062   167.46751
    58  O   6.0   -0.27    1.24    1.80    30.43782    66.18954   169.42149
    59  C   4.0   -0.02    4.30    4.20    33.66547    68.70855   165.05433
    60  C   4.0   -0.08    4.12    3.85    32.66391    68.09061   162.41628
    61  C   4.0   -0.08    4.21    4.03    35.82920    70.57748   164.91071
    62  H   1.0    0.07    1.08    1.44    34.24939    71.71132   168.74686
    63  H   1.0    0.05    1.06    1.44    30.27719    71.03858   165.77621
    64  H   1.0    0.05    1.06    1.44    34.41380    66.98323   165.89526
    65  H   1.0    0.04    1.00    1.43    34.21727    67.40086   161.25409
    66  H   1.0    0.04    1.01    1.43    31.20693    66.64308   162.57501
    67  H   1.0    0.04    1.00    1.43    31.86834    69.79892   161.58291
    68  H   1.0    0.04    1.00    1.43    37.30508    69.80270   163.70129
    69  H   1.0    0.03    1.16    1.46    35.13378    72.34816   164.12270
    70  H   1.0    0.04    1.01    1.43    36.56809    70.89496   166.80611
    71  N   5.0   -0.15    3.50    2.08    28.21361    66.73567   165.82156
    72  C   4.0    0.05    4.46    4.48    26.91348    64.33194   165.87825
    73  C   4.0    0.14    3.47    3.10    25.63224    64.07872   163.31201
    74  O   6.0   -0.29    1.23    1.80    23.57622    65.10484   162.88115
    75  C   4.0   -0.01    4.33    4.26    25.03131    64.19966   168.06089
    76  C   4.0    0.15    3.24    3.04    23.90503    61.60507   168.36702
    77  O   6.0   -0.27    1.25    1.80    24.97462    59.74747   167.47507
    78  N   5.0   -0.18    3.19    1.95    21.73185    61.45389   169.62369
    79  H   1.0    0.08    1.07    1.44    27.62023    67.88085   164.38915
    80  H   1.0    0.06    1.06    1.44    28.24762    62.78048   166.11258
    81  H   1.0    0.07    1.03    1.43    25.99696    64.68910   169.81266
    82  H   1.0    0.06    1.04    1.43    23.49496    65.52625   167.70751
    83  H   1.0    0.11    1.03    1.43    20.88714    59.74180   169.88447
    84  H   1.0    0.08    1.03    1.43    20.91171    63.05071   170.32478
    85  N   5.0   -0.15    3.52    2.09    26.98718    62.83339   161.58669
    86  C   4.0    0.04    4.45    4.46    26.17081    62.38741   158.98831
    87  C   4.0    0.16    3.47    3.10    24.25652    60.28982   158.92217
    88  O   6.0   -0.28    1.25    1.80    23.40615    59.48668   156.91717
    89  C   4.0   -0.03    4.35    4.28    28.40825    61.58050   157.34047
    90  C   4.0    0.15    3.22    3.04    29.58744    63.76313   155.90239
    91  O   6.0   -0.30    1.20    1.80    28.97139    64.22612   153.69519
    92  N   5.0   -0.19    3.17    1.95    31.32599    65.09539   157.13638
    93  H   1.0    0.08    1.06    1.44    28.72572    62.08317   161.94951
    94  H   1.0    0.06    1.12    1.45    25.40170    64.12974   158.20219
    95  H   1.0    0.05    1.04    1.43    29.86145    60.75469   158.54423
    96  H   1.0    0.07    1.04    1.43    27.76007    60.19155   155.96475
    97  H   1.0    0.09    1.02    1.43    32.18959    66.58638   156.27278
    98  H   1.0    0.08    1.03    1.43    31.79464    64.62485   158.94485
    99  N   5.0   -0.13    3.65    2.21    23.63480    59.36007   161.15016
   100  C   4.0    0.05    4.46    4.48    21.82067    57.33618   161.38638
   101  C   4.0    0.15    3.42    3.09    19.24119    58.39253   162.07235
   102  O   6.0   -0.29    1.24    1.80    17.34579    57.08295   161.82479
   103  C   4.0   -0.02    4.31    4.22    22.71451    55.48613   163.39704
   104  C   4.0    0.25    3.17    3.03    25.52075    54.97024   163.21185
   105  O   6.0   -0.27    1.18    1.80    26.31632    53.78916   161.32401
   106  O   6.0   -0.25    1.18    1.80    26.93615    55.77526   164.93150
   107  H   1.0    0.10    1.11    1.44    24.35857    59.97423   162.82824
   108  H   1.0    0.07    1.06    1.44    21.64681    56.25903   159.63838
   109  H   1.0    0.07    1.04    1.43    22.32711    56.27226   165.26031
   110  H   1.0    0.06    1.03    1.43    21.71484    53.70034   163.16461
   111  N   5.0   -0.13    3.47    2.06    19.15615    60.76036   162.92461
   112  C   4.0    0.04    4.33    4.26    16.75998    61.89986   163.68617
   113  C   4.0    0.07    3.20    3.04    16.41983    64.65319   162.90949
   114  O   6.0   -0.28    1.13    1.80    18.21507    66.14419   162.93028
   115  C   4.0   -0.04    4.31    4.21    16.40282    61.66176   166.52643
   116  C   4.0   -0.02    4.22    4.05    15.94551    59.00102   167.41838
   117  C   4.0    0.24    3.14    3.03    15.21796    58.90465   170.17738
   118  O   6.0   -0.28    1.17    1.80    12.94840    59.23346   170.75186
   119  O   6.0   -0.28    1.18    1.80    16.92061    58.51725   171.77042
   120  H   1.0    0.11    1.07    1.44    20.68872    61.91498   163.10603
   121  H   1.0    0.06    1.07    1.44    15.28788    60.89831   162.64871
   122  H   1.0    0.05    1.05    1.44    18.10168    62.35340   167.46562
   123  H   1.0    0.04    1.04    1.43    14.77766    62.79748   167.08390
   124  H   1.0    0.06    1.03    1.43    14.41294    58.17332   166.32045
   125  H   1.0    0.06    1.03    1.43    17.66705    57.89742   167.16894
   126  N   5.0   -0.21    3.21    1.96    10.61648    66.33505   171.68349
   127  C   4.0    0.03    4.22    4.04    12.09047    66.38607   174.01919
   128  C   4.0    0.08    3.19    3.04    10.86214    68.03580   176.03553
   129  O   6.0   -0.28    1.11    1.80    10.63538    67.25913   178.21627
   130  C   4.0   -0.04    4.30    4.20    14.78333    67.29503   173.48818
   131  C   4.0   -0.05    4.22    4.03    16.07968    65.90797   171.34712
   132  C   4.0   -0.01    4.23    4.06    18.19239    67.47078   170.19628
   133  N   5.0   -0.14    3.40    2.02    20.14070    68.08305   172.04254
   134  C   4.0    0.10    3.33    3.06    22.20428    69.44176   171.54743
   135  N   5.0   -0.17    3.24    1.97    22.62191    70.35450   169.22685
   136  N   5.0   -0.16    3.23    1.96    23.85779    69.89529   173.39369
   137  H   1.0    0.08    1.04    1.43    11.59725    66.96811   170.15092
   138  H   1.0    0.06    1.06    1.44    12.18117    64.46233   174.74674
   139  H   1.0    0.04    1.04    1.43    14.71908    69.29247   172.99307
   140  H   1.0    0.05    1.03    1.43    15.91716    67.02669   175.18704
   141  H   1.0    0.05    1.03    1.43    16.89037    64.15431   172.06333
   142  H   1.0    0.04    1.04    1.43    14.70396    65.49601   169.87125
   143  H   1.0    0.05    1.03    1.43    19.06733    66.40686   168.66560
   144  H   1.0    0.04    1.03    1.43    17.41382    69.23578   169.47251
   145  H   1.0    0.08    1.06    1.44    19.91015    67.42542   173.83967
   146  H   1.0    0.09    1.03    1.43    21.35579    70.01246   167.81522
   147  H   1.0    0.10    1.02    1.43    24.20739    71.39196   168.86969
   148  H   1.0    0.09    1.02    1.43    23.53843    69.20554   175.16437
   149  H   1.0    0.13    1.05    1.44    25.44327    70.93275   173.03465
   150  N   5.0   -0.22    3.18    1.95    30.48128    83.62037   153.92385
   151  C   4.0    0.03    4.20    4.00    32.05353    81.39239   153.30591
   152  C   4.0    0.07    3.19    3.03    31.75118    80.52311   150.56203
   153  O   6.0   -0.29    1.12    1.80    32.83588    78.58236   149.80613
   154  C   4.0   -0.04    4.28    4.16    31.51685    79.14172   155.05390
   155  C   4.0   -0.05    4.25    4.10    30.87434    79.81635   157.75243
   156  C   4.0   -0.02    4.23    4.06    33.08721    80.96342   159.18484
   157  N   5.0   -0.14    3.40    2.02    34.91647    79.04724   159.94829
   158  C   4.0    0.09    3.35    3.07    34.40435    77.15751   161.52622
   159  N   5.0   -0.18    3.28    1.98    32.10077    76.90807   162.50509
   160  N   5.0   -0.19    3.28    1.98    36.19770    75.50022   162.11203
   161  H   1.0    0.08    1.04    1.43    29.17737    83.27644   155.30146
   162  H   1.0    0.04    1.06    1.44    34.00184    81.99899   153.58748
   163  H   1.0    0.05    1.04    1.43    29.92003    78.09104   154.28668
   164  H   1.0    0.05    1.03    1.43    33.19115    77.94364   155.10304
   165  H   1.0    0.03    1.04    1.43    29.33989    81.19019   157.75243
   166  H   1.0    0.04    1.05    1.44    30.29231    78.10993   158.74832
   167  H   1.0    0.03    1.03    1.43    34.04719    82.32591   157.97353
   168  H   1.0    0.04    1.03    1.43    32.38612    81.89883   160.88182
   169  H   1.0    0.07    1.06    1.44    36.70037    79.16251   159.22642
   170  H   1.0    0.08    1.05    1.44    30.71750    78.16851   162.04589
   171  H   1.0    0.09    1.02    1.43    31.71905    75.45487   163.71452
   172  H   1.0    0.08    1.02    1.43    37.96081    75.67974   161.35236
   173  H   1.0    0.07    1.20    1.46    35.81220    74.04891   163.32145
   174  N   5.0   -0.21    3.22    1.96    10.40418    49.43948   159.41162
   175  C   4.0    0.04    4.22    4.05    10.28640    51.83575   160.77034
   176  C   4.0    0.08    3.19    3.04    10.02691    54.04325   158.92407
   177  O   6.0   -0.28    1.12    1.80     9.23256    56.09915   159.64973
   178  C   4.0   -0.02    4.28    4.16    12.64081    52.18717   162.42574
   179  C   4.0    0.25    3.16    3.03    13.40055    49.78031   163.77689
   180  O   6.0   -0.27    1.17    1.80    11.94976    48.91154   165.43040
   181  O   6.0   -0.27    1.17    1.80    15.43753    48.75046   163.16084
   182  H   1.0    0.10    1.03    1.43    12.19808    48.77472   159.17541
   183  H   1.0    0.06    1.06    1.44     8.67026    51.83709   162.04779
   184  H   1.0    0.07    1.03    1.43    14.21716    52.77832   161.23899
   185  H   1.0    0.06    1.03    1.43    12.25296    53.62433   163.84870
   186  N   5.0   -0.22    3.21    1.96    23.16823    67.68108   144.12563
   187  C   4.0    0.03    4.22    4.03    25.59965    67.90512   145.40308
   188  C   4.0    0.08    3.17    3.03    27.88846    67.26230   143.71745
   189  O   6.0   -0.28    1.11    1.80    30.06213    67.81845   144.37507
   190  C   4.0   -0.04    4.28    4.16    25.58786    66.25574   147.76902
   191  C   4.0   -0.05    4.22    4.04    23.31222    66.75131   149.43198
   192  C   4.0   -0.00    4.22    4.04    22.89630    64.67408   151.38407
   193  N   5.0   -0.14    3.39    2.02    20.61550    65.16826   152.86372
   194  C   4.0    0.10    3.34    3.06    20.60143    65.85065   155.28446
   195  N   5.0   -0.18    3.33    1.99    22.76498    66.08314   156.53357
   196  N   5.0   -0.18    3.22    1.96    18.41927    66.28133   156.46365
   197  H   1.0    0.08    1.03    1.43    22.22387    66.05297   144.54326
   198  H   1.0    0.05    1.06    1.44    25.86104    69.86208   145.98890
   199  H   1.0    0.05    1.03    1.43    25.55279    64.27504   147.20777
   200  H   1.0    0.06    1.03    1.43    27.28427    66.64666   148.87073
   201  H   1.0    0.05    1.03    1.43    23.58734    68.52796   150.43920
   202  H   1.0    0.04    1.04    1.43    21.62743    66.86428   148.25279
   203  H   1.0    0.05    1.02    1.43    22.67588    62.86367   150.42598
   204  H   1.0    0.06    1.05    1.44    24.50650    64.60199   152.66719
   205  H   1.0    0.08    1.06    1.44    18.91412    64.97660   151.97744
   206  H   1.0    0.09    1.05    1.44    24.43679    65.73981   155.63784
   207  H   1.0    0.10    1.03    1.43    22.75489    66.60612   158.38928
   208  H   1.0    0.08    1.02    1.43    16.75421    66.08834   155.51123
   209  H   1.0    0.10    1.03    1.43    18.41339    66.80406   158.31936
   210  H   1.0    0.09    1.07    1.44    28.15620    84.07296   181.20941
   211  H   1.0    0.06    1.05    1.44    24.76230    76.51798   178.71532
   212  H   1.0    0.09    1.07    1.44    24.89214    79.88591   174.28416
   213  H   1.0    0.05    1.04    1.43    14.72035    65.27999   162.37100
   214  H   1.0    0.11    1.07    1.44    10.12759    64.73945   171.35544
   215  H   1.0    0.05    1.04    1.44    10.23412    69.76168   175.59057
   216  H   1.0    0.09    1.07    1.44    31.47874    84.88565   154.46855
   217  H   1.0    0.05    1.04    1.43    30.67647    81.51879   149.36842
   218  H   1.0    0.10    1.07    1.44     9.53338    48.25700   160.26954
   219  H   1.0    0.06    1.05    1.44    10.50576    53.81896   157.10984
   220  H   1.0    0.09    1.07    1.44    22.16690    68.97884   144.57921
   221  H   1.0    0.05    1.04    1.43    27.62777    66.38289   142.06526

  Z AO/shell   Hii/eV     exponent
  1     Wed Apr 25 08:07:45 CEST 2018   EN: 2.200 GM2: 0.406  GM3: 0.0800  RAES: 1.40
     1s    -10.707211    1.230000
  6     Wed Apr 25 08:07:45 CEST 2018   EN: 2.550 GM2: 0.538  GM3: 0.1500  RAES: 3.00
     2s    -13.970922    2.096432
     2p    -10.063292    1.800000
  7     Wed Apr 25 08:07:45 CEST 2018   EN: 3.040 GM2: 0.461  GM3:-0.0640  RAES: 1.90
     2s    -16.686243    2.339881
     2p    -12.523956    2.014332
  8     Wed Apr 25 08:07:45 CEST 2018   EN: 3.440 GM2: 0.452  GM3:-0.0517  RAES: 1.80
     2s    -20.229985    2.439742
     2p    -15.503117    2.137023
 16     Tue Apr 24 11:44:34 CEST 2018   EN: 2.580 GM2: 0.340  GM3:-0.0502  RAES: 3.10
     3s    -20.029654    1.981333
     3p    -11.377694    2.025643
     3d     -0.420282    1.702555
 no old-style atom pair restraining (fixing) potential

molecular fragmentation (1/2 indicates fragments):
111111111111111111111111111111111222222222222222222222222222222222222222
222222222222222222222222222222222222222222222222222222222222222222222222
222222222222222222222222222222222222222222222222222222222222222221122222
22222
# atoms in fragment 1/2:    35   186
 fragment masses (1/2) :      279.27     1339.49
CMA distance (Bohr)    :  22.598
constraining FC (au)   :  0.0500
           ------------------------------------------------- 
          |        Self-Consistent Charge Iterations        |
           ------------------------------------------------- 

 Ncao       : 563
 Nao        : 562
 Nshell     : 334
 Nel        : 632
 T(el)      :   500.0
 intcut     :    35.0
 scfconv/Eh :  0.100E-06
   qconv/e  :  0.100E-04
 intneglect :  0.100E-08
 broydamp   :      0.400
 iter      E             dE          RMSdq      gap      omega  full diag
   1   -364.7428292 -0.364743E+03  0.517E+00    3.25       0.0  T
   2   -365.8671438 -0.112431E+01  0.235E+00    1.73       1.0  T
   3   -365.9469467 -0.798029E-01  0.137E+00    1.79       1.0  T
   4   -366.0133034 -0.663567E-01  0.306E-01    1.20       1.0  T
   5   -366.0173623 -0.405885E-02  0.167E-01    1.43       1.0  T
   6   -366.0181813 -0.819037E-03  0.698E-02    1.40       1.0  T
   7   -366.0183978 -0.216491E-03  0.309E-02    1.37       1.0  T
   8   -366.0184235 -0.257307E-04  0.149E-02    1.34       1.0  T
   9   -366.0184358 -0.122656E-04  0.710E-03    1.34       1.0  T
  10   -366.0184377 -0.192156E-05  0.301E-03    1.34       2.2  T
  11   -366.0184381 -0.446557E-06  0.134E-03    1.34       5.0  T
  12   -366.0184382 -0.526244E-07  0.591E-04    1.34      11.4  T
  13   -366.0184382 -0.127486E-07  0.288E-04    1.34      23.4  T
  14   -366.0184382 -0.195695E-08  0.966E-05    1.34      69.6  T
  15   -366.0184382 -0.388809E-09  0.438E-05    1.34     153.7  T
speedup  1.85
cpu  time for SCC    4.35 s
wall time for SCC    2.36 s

   *** convergence criteria satisfied after 15 iterations ***

          eigenvalues
 #    :         304        305        306        307        308        309        310        311
 occ. :        2.000      2.000      2.000      2.000      2.000      2.000      2.000      2.000
 eps  :       -10.322    -10.316    -10.293    -10.176    -10.155    -10.147    -10.125    -10.012
 #    :         312        313        314        315        316        317        318        319
 occ. :        2.000      2.000      2.000      2.000      2.000      0.000      0.000      0.000
 eps  :        -9.981     -9.936     -9.930     -9.912     -9.746     -8.410     -7.848     -7.796
 #    :         320        321        322        323        324        325        326        327
 occ. :        0.000      0.000      0.000      0.000      0.000      0.000      0.000      0.000
 eps  :        -7.774     -7.638     -7.575     -7.086     -6.522     -6.483     -6.323     -6.297


   #   Z            q   n(s)   n(p)   n(d)      C6AA      α(0)
   1   7 N     -0.404  1.331  4.073  0.000    30.478     8.199
   2   6 C      0.036  1.058  2.906  0.000    19.982     6.367
   3   6 C      0.273  1.046  2.681  0.000    22.384     7.748
   4   8 O     -0.483  1.729  4.753  0.000    23.401     6.486
   5   6 C     -0.074  1.059  3.015  0.000    21.903     6.663
   6   6 C     -0.003  1.085  2.918  0.000    28.100     8.695
   7   6 C     -0.041  1.085  2.955  0.000    29.011     8.833
   8   6 C     -0.042  1.087  2.955  0.000    29.046     8.838
   9   6 C     -0.058  1.074  2.984  0.000    29.439     8.897
  10   6 C     -0.073  1.082  2.990  0.000    29.816     8.954
  11   6 C      0.148  1.047  2.805  0.000    24.784     8.159
  12   8 O     -0.445  1.736  4.709  0.000    21.736     6.294
  13   1 H      0.166  0.834  0.000  0.000     1.299     1.786
  14   1 H      0.046  0.954  0.000  0.000     2.375     2.410
  15   1 H      0.060  0.940  0.000  0.000     2.195     2.317
  16   1 H      0.038  0.962  0.000  0.000     2.472     2.459
  17   1 H      0.021  0.979  0.000  0.000     2.720     2.579
  18   1 H      0.055  0.945  0.000  0.000     2.256     2.349
  19   1 H      0.048  0.952  0.000  0.000     2.341     2.393
  20   1 H      0.062  0.938  0.000  0.000     2.171     2.304
  21   1 H      0.355  0.645  0.000  0.000     0.576     1.193
  22   7 N     -0.152  1.238  3.914  0.000    24.282     7.319
  23   6 C      0.052  1.045  2.903  0.000    19.697     6.318
  24   6 C      0.198  1.082  2.720  0.000    23.790     7.989
  25   8 O     -0.352  1.737  4.615  0.000    20.744     6.106
  26   6 C     -0.091  1.065  3.026  0.000    22.232     6.711
  27   6 C      0.374  1.015  2.611  0.000    20.658     7.439
  28   8 O     -0.639  1.770  4.869  0.000    27.098     6.979
  29   8 O     -0.647  1.778  4.868  0.000    27.290     7.004
  30   1 H      0.198  0.802  0.000  0.000     1.115     1.654
  31   1 H      0.059  0.941  0.000  0.000     2.206     2.323
  32   1 H      0.047  0.953  0.000  0.000     2.352     2.398
  33   1 H      0.049  0.951  0.000  0.000     2.337     2.390
  34   7 N     -0.395  1.325  4.070  0.000    30.237     8.167
  35   6 C      0.030  1.058  2.912  0.000    20.082     6.383
  36   6 C      0.267  1.051  2.682  0.000    22.491     7.766
  37   8 O     -0.489  1.731  4.758  0.000    23.539     6.505
  38   6 C     -0.122  1.046  3.077  0.000    22.897     6.823
  39   1 H      0.142  0.858  0.000  0.000     1.456     1.890
  40   1 H      0.058  0.942  0.000  0.000     2.226     2.333
  41   1 H      0.058  0.942  0.000  0.000     2.228     2.334
  42   1 H      0.050  0.950  0.000  0.000     2.315     2.379
  43   1 H      0.042  0.958  0.000  0.000     2.424     2.435
  44   7 N     -0.169  1.249  3.919  0.000    24.649     7.374
  45   6 C      0.021  1.062  2.917  0.000    20.200     6.396
  46   6 C      0.279  1.041  2.680  0.000    22.274     7.728
  47   8 O     -0.481  1.741  4.740  0.000    23.362     6.480
  48   6 C      0.004  1.056  2.939  0.000    20.508     6.448
  49  16 S     -0.329  1.905  4.389  0.036   155.402    20.981
  50   1 H      0.222  0.778  0.000  0.000     1.000     1.567
  51   1 H      0.071  0.929  0.000  0.000     2.074     2.252
  52   1 H      0.059  0.941  0.000  0.000     2.211     2.325
  53   1 H      0.059  0.941  0.000  0.000     2.216     2.328
  54   1 H      0.183  0.817  0.000  0.000     1.188     1.704
  55   7 N     -0.170  1.241  3.928  0.000    24.670     7.377
  56   6 C     -0.003  1.070  2.933  0.000    20.633     6.468
  57   6 C      0.289  1.030  2.681  0.000    22.109     7.700
  58   8 O     -0.489  1.769  4.721  0.000    23.551     6.507
  59   6 C     -0.030  1.059  2.972  0.000    21.077     6.529
  60   6 C     -0.157  1.052  3.105  0.000    23.589     6.925
  61   6 C     -0.164  1.056  3.108  0.000    23.740     6.947
  62   1 H      0.223  0.777  0.000  0.000     0.997     1.564
  63   1 H      0.095  0.905  0.000  0.000     1.835     2.118
  64   1 H      0.055  0.945  0.000  0.000     2.254     2.348
  65   1 H      0.084  0.916  0.000  0.000     1.941     2.179
  66   1 H      0.036  0.964  0.000  0.000     2.506     2.475
  67   1 H      0.092  0.908  0.000  0.000     1.856     2.130
  68   1 H      0.100  0.900  0.000  0.000     1.787     2.090
  69   1 H      0.115  0.885  0.000  0.000     1.654     2.011
  70   1 H      0.066  0.934  0.000  0.000     2.125     2.280
  71   7 N     -0.176  1.238  3.938  0.000    24.807     7.397
  72   6 C      0.027  1.050  2.922  0.000    20.114     6.385
  73   6 C      0.248  1.048  2.703  0.000    22.832     7.825
  74   8 O     -0.446  1.736  4.710  0.000    22.625     6.377
  75   6 C     -0.112  1.057  3.054  0.000    22.623     6.770
  76   6 C      0.285  1.033  2.682  0.000    22.166     7.709
  77   8 O     -0.521  1.778  4.743  0.000    24.257     6.603
  78   7 N     -0.270  1.261  4.010  0.000    27.002     7.718
  79   1 H      0.238  0.762  0.000  0.000     0.933     1.513
  80   1 H      0.067  0.933  0.000  0.000     2.119     2.276
  81   1 H      0.111  0.889  0.000  0.000     1.689     2.032
  82   1 H      0.098  0.902  0.000  0.000     1.805     2.101
  83   1 H      0.196  0.804  0.000  0.000     1.125     1.662
  84   1 H      0.225  0.775  0.000  0.000     0.987     1.556
  85   7 N     -0.179  1.252  3.928  0.000    24.884     7.409
  86   6 C     -0.002  1.064  2.938  0.000    20.623     6.466
  87   6 C      0.278  1.029  2.693  0.000    22.299     7.734
  88   8 O     -0.483  1.747  4.736  0.000    23.410     6.487
  89   6 C     -0.108  1.061  3.047  0.000    22.545     6.758
  90   6 C      0.276  1.035  2.689  0.000    22.333     7.738
  91   8 O     -0.486  1.752  4.734  0.000    23.475     6.496
  92   7 N     -0.264  1.265  3.999  0.000    26.842     7.695
  93   1 H      0.210  0.790  0.000  0.000     1.057     1.610
  94   1 H      0.125  0.875  0.000  0.000     1.576     1.963
  95   1 H      0.068  0.932  0.000  0.000     2.107     2.270
  96   1 H      0.092  0.908  0.000  0.000     1.855     2.130
  97   1 H      0.265  0.735  0.000  0.000     0.828     1.425
  98   1 H      0.223  0.777  0.000  0.000     0.998     1.565
  99   7 N     -0.179  1.240  3.939  0.000    24.877     7.408
 100   6 C      0.042  1.051  2.907  0.000    19.871     6.346
 101   6 C      0.275  1.042  2.683  0.000    22.349     7.742
 102   8 O     -0.516  1.764  4.752  0.000    24.136     6.587
 103   6 C     -0.072  1.057  3.015  0.000    21.870     6.657
 104   6 C      0.372  1.018  2.610  0.000    20.699     7.446
 105   8 O     -0.648  1.770  4.878  0.000    27.327     7.009
 106   8 O     -0.625  1.769  4.856  0.000    26.740     6.933
 107   1 H      0.201  0.799  0.000  0.000     1.102     1.644
 108   1 H      0.072  0.928  0.000  0.000     2.065     2.247
 109   1 H      0.013  0.987  0.000  0.000     2.850     2.640
 110   1 H      0.006  0.994  0.000  0.000     2.950     2.686
 111   7 N     -0.171  1.236  3.935  0.000    24.702     7.382
 112   6 C      0.023  1.054  2.922  0.000    20.188     6.398
 113   6 C      0.175  1.095  2.730  0.000    24.236     8.062
 114   8 O     -0.316  1.732  4.584  0.000    20.064     6.006
 115   6 C     -0.054  1.050  3.003  0.000    21.525     6.604
 116   6 C     -0.069  1.052  3.017  0.000    21.810     6.648
 117   6 C      0.369  1.021  2.609  0.000    20.741     7.453
 118   8 O     -0.644  1.772  4.872  0.000    27.231     6.996
 119   8 O     -0.650  1.771  4.879  0.000    27.383     7.016
 120   1 H      0.218  0.782  0.000  0.000     1.019     1.581
 121   1 H      0.080  0.920  0.000  0.000     1.984     2.203
 122   1 H      0.066  0.934  0.000  0.000     2.128     2.281
 123   1 H      0.062  0.938  0.000  0.000     2.173     2.305
 124   1 H      0.011  0.989  0.000  0.000     2.878     2.653
 125   1 H     -0.007  1.007  0.000  0.000     3.187     2.792
 126   7 N     -0.385  1.319  4.065  0.000    29.951     8.128
 127   6 C      0.041  1.050  2.909  0.000    19.904     6.355
 128   6 C      0.200  1.093  2.707  0.000    23.744     7.980
 129   8 O     -0.385  1.767  4.618  0.000    21.389     6.201
 130   6 C     -0.079  1.055  3.024  0.000    21.993     6.676
 131   6 C     -0.071  1.045  3.026  0.000    21.860     6.656
 132   6 C     -0.030  1.055  2.975  0.000    21.189     6.567
 133   7 N     -0.154  1.209  3.945  0.000    24.335     7.326
 134   6 C      0.223  1.022  2.755  0.000    23.300     7.903
 135   7 N     -0.237  1.227  4.011  0.000    26.210     7.604
 136   7 N     -0.236  1.237  3.999  0.000    26.174     7.598
 137   1 H      0.182  0.818  0.000  0.000     1.204     1.719
 138   1 H      0.033  0.967  0.000  0.000     2.541     2.493
 139   1 H      0.086  0.914  0.000  0.000     1.923     2.168
 140   1 H      0.051  0.949  0.000  0.000     2.305     2.374
 141   1 H      0.039  0.961  0.000  0.000     2.460     2.453
 142   1 H      0.061  0.939  0.000  0.000     2.192     2.316
 143   1 H      0.071  0.929  0.000  0.000     2.080     2.255
 144   1 H      0.110  0.890  0.000  0.000     1.698     2.038
 145   1 H      0.211  0.789  0.000  0.000     1.053     1.607
 146   1 H      0.254  0.746  0.000  0.000     0.867     1.459
 147   1 H      0.258  0.742  0.000  0.000     0.853     1.447
 148   1 H      0.225  0.775  0.000  0.000     0.988     1.557
 149   1 H      0.264  0.736  0.000  0.000     0.832     1.429
 150   7 N     -0.407  1.338  4.069  0.000    30.566     8.211
 151   6 C      0.032  1.059  2.909  0.000    20.054     6.380
 152   6 C      0.196  1.095  2.708  0.000    23.813     7.992
 153   8 O     -0.393  1.772  4.621  0.000    21.548     6.224
 154   6 C     -0.076  1.050  3.026  0.000    21.948     6.669
 155   6 C     -0.091  1.053  3.038  0.000    22.238     6.714
 156   6 C     -0.028  1.052  2.976  0.000    21.157     6.563
 157   7 N     -0.148  1.213  3.935  0.000    24.194     7.305
 158   6 C      0.226  1.020  2.753  0.000    23.241     7.893
 159   7 N     -0.240  1.226  4.014  0.000    26.273     7.613
 160   7 N     -0.292  1.256  4.036  0.000    27.533     7.793
 161   1 H      0.175  0.825  0.000  0.000     1.244     1.747
 162   1 H      0.070  0.930  0.000  0.000     2.089     2.260
 163   1 H      0.058  0.942  0.000  0.000     2.220     2.330
 164   1 H      0.075  0.925  0.000  0.000     2.036     2.231
 165   1 H      0.069  0.931  0.000  0.000     2.101     2.267
 166   1 H      0.085  0.915  0.000  0.000     1.930     2.173
 167   1 H      0.085  0.915  0.000  0.000     1.925     2.170
 168   1 H      0.082  0.918  0.000  0.000     1.958     2.188
 169   1 H      0.229  0.771  0.000  0.000     0.970     1.543
 170   1 H      0.248  0.752  0.000  0.000     0.893     1.480
 171   1 H      0.231  0.769  0.000  0.000     0.961     1.536
 172   1 H      0.244  0.756  0.000  0.000     0.908     1.492
 173   1 H      0.253  0.747  0.000  0.000     0.871     1.462
 174   7 N     -0.379  1.309  4.071  0.000    29.804     8.108
 175   6 C      0.049  1.054  2.897  0.000    19.778     6.335
 176   6 C      0.197  1.094  2.709  0.000    23.795     7.989
 177   8 O     -0.378  1.748  4.630  0.000    21.253     6.181
 178   6 C     -0.073  1.066  3.006  0.000    21.883     6.659
 179   6 C      0.379  1.019  2.602  0.000    20.589     7.426
 180   8 O     -0.650  1.772  4.878  0.000    27.381     7.016
 181   8 O     -0.655  1.777  4.878  0.000    27.509     7.032
 182   1 H      0.150  0.850  0.000  0.000     1.404     1.856
 183   1 H      0.056  0.944  0.000  0.000     2.250     2.346
 184   1 H      0.022  0.978  0.000  0.000     2.701     2.570
 185   1 H      0.015  0.985  0.000  0.000     2.810     2.622
 186   7 N     -0.397  1.330  4.067  0.000    30.280     8.173
 187   6 C      0.033  1.056  2.910  0.000    20.035     6.376
 188   6 C      0.196  1.096  2.708  0.000    23.824     7.993
 189   8 O     -0.388  1.767  4.621  0.000    21.444     6.209
 190   6 C     -0.071  1.052  3.019  0.000    21.843     6.653
 191   6 C     -0.082  1.053  3.030  0.000    22.067     6.687
 192   6 C     -0.026  1.058  2.969  0.000    21.120     6.557
 193   7 N     -0.142  1.215  3.927  0.000    24.075     7.287
 194   6 C      0.231  1.019  2.750  0.000    23.157     7.879
 195   7 N     -0.253  1.231  4.023  0.000    26.587     7.658
 196   7 N     -0.253  1.236  4.017  0.000    26.568     7.655
 197   1 H      0.168  0.832  0.000  0.000     1.287     1.777
 198   1 H      0.078  0.922  0.000  0.000     2.002     2.213
 199   1 H      0.044  0.956  0.000  0.000     2.400     2.422
 200   1 H      0.068  0.932  0.000  0.000     2.108     2.270
 201   1 H      0.077  0.923  0.000  0.000     2.012     2.218
 202   1 H      0.068  0.932  0.000  0.000     2.111     2.272
 203   1 H      0.079  0.921  0.000  0.000     1.990     2.206
 204   1 H      0.090  0.910  0.000  0.000     1.883     2.146
 205   1 H      0.235  0.765  0.000  0.000     0.944     1.522
 206   1 H      0.239  0.761  0.000  0.000     0.927     1.508
 207   1 H      0.253  0.747  0.000  0.000     0.874     1.464
 208   1 H      0.254  0.746  0.000  0.000     0.870     1.461
 209   1 H      0.244  0.756  0.000  0.000     0.909     1.493
 210   1 H      0.195  0.805  0.000  0.000     1.133     1.667
 211   1 H      0.078  0.922  0.000  0.000     1.997     2.210
 212   1 H      0.181  0.819  0.000  0.000     1.208     1.722
 213   1 H      0.109  0.891  0.000  0.000     1.704     2.041
 214   1 H      0.164  0.836  0.000  0.000     1.306     1.790
 215   1 H      0.095  0.905  0.000  0.000     1.835     2.118
 216   1 H      0.180  0.820  0.000  0.000     1.216     1.728
 217   1 H      0.075  0.925  0.000  0.000     2.035     2.231
 218   1 H      0.180  0.820  0.000  0.000     1.216     1.727
 219   1 H      0.088  0.912  0.000  0.000     1.893     2.151
 220   1 H      0.191  0.809  0.000  0.000     1.154     1.682
 221   1 H      0.075  0.925  0.000  0.000     2.028     2.227

 Mol. C6AA /au·bohr⁶  :     478896.673454
 Mol. C8AA /au·bohr⁸  :   10789613.070987
 Mol. α(0) /au        :       1038.272859

 
molecular dipole:
                 x           y           z       tot (Debye)
 q only:       -3.551     -18.296    -191.605
   full:       -3.575     -18.941    -188.811     482.413
molecular quadrupole (traceless):
                xx          xy          yy          xz          yz          zz
 q only:    17701.238    1211.243   19650.142   -1824.574   -7306.550  -37351.380
  q+dip:    17251.125    1201.861   19149.963   -1717.351   -7158.015  -36401.088
   full:    17252.052    1203.655   19148.940   -1716.949   -7158.011  -36400.993
speedup  1.87
cpu  time for grad    5.16 s
wall time for grad    2.76 s

SCC energy    :    -366.0279957
rep           :       4.2805352
ES            :       1.7766811
AES           :      -0.0705598
AXC           :       0.1181991
disp          :      -0.2555953
XB            :       0.0000000
fix           :       0.0000000
Gborn         :       0.0000000
Gsasa         :       0.0000000
Ghb           :       0.0000000
Gshift        :       0.0000000
Gsolv         :      -0.6630339     -416.06
Etot ala COSMO:    -366.0279957
grad norm     :       0.5984361
total E       :    -361.7348516
atomizationE  :      62.3439199    39121.40
(atE without considering molecular charge,
 total energy contains solvation terms)
H-L gap (eV)  :          1.3367

------------------------------------------------------------------------
 * finished run on 2019/05/05 at 12:29:12.119     
------------------------------------------------------------------------
 total:
 * wall-time:     0 d,  0 h,  0 min,  3.089 sec
 *  cpu-time:     0 d,  0 h,  0 min,  5.615 sec
 * ratio c/w:     1.818 speedup
 SCF:
 * wall-time:     0 d,  0 h,  0 min,  2.894 sec
 *  cpu-time:     0 d,  0 h,  0 min,  5.422 sec
 * ratio c/w:     1.874 speedup

