      -----------------------------------------------------------      
     |                   =====================                   |     
     |                           x T B                           |     
     |                   =====================                   |     
     |                         S. Grimme                         |     
     |          Mulliken Center for Theoretical Chemistry        |     
     |                    University of Bonn                     |     
     |                 Version 6.0.1 (SAW181210)                 |     
      -----------------------------------------------------------      

   This program is distributed in the hope that it will be useful,
   but WITHOUT ANY WARRANTY; without even the implied warranty of
   MERCHANTABILITY or FITNESS FOR A PARTICULAR PURPOSE.
   
   FOR NON-COMMERCIAL, ACADEMIA USE ONLY.
   
   Cite this work as:
   S. Grimme, C. Bannwarth, P. Shushkov, J. Comput. Theory Chem., 2017,
   13, 1989-2009.
   C. Bannwarth, S. Ehlert and S. Grimme., ChemRxiv, 2018, preprint.
   http://doi.org/10.26434/chemrxiv.7246238.v1
   
   for sTDA-xTB:
   S. Grimme and C. Bannwarth, J. Chem. Phys., 2016, 145, 054103.
   
   in the mass-spec context:
   V. Asgeirsson, C. Bauer and S. Grimme, Chem. Sci., 2017, 8, 4879.
   
   if GBSA is used:
   P. Shushkov, F. März and S. Grimme, unpublished.
   
   for ANC optimizer:
   S. Grimme, unpublished.
   Rational Function algorithm used in ANCopt:
   F. Eckert, P. Pulay, H.-J. Werner, J. Comput. Chem., 1997, 18, 1473.
   
   with help from (in alphabetical order)
   C. Bannwarth, F. Bohle, G. Brandenburg, E. Caldeweyher, M. Checinski,
   S. Dohm, S. Ehlert, S. Ehrlich, F. März, H. Neugebauer, J. Pisarek,
   P. Pracht, P. Shushkov, and S. Spicher.
   
 * started run on 2019/05/09 at 17:00:53.305     
========================================================================
 # omp threads = 2
========================================================================
number of atoms            : 423
number of electrons        : 1096
charge                     : 1
spin                       : .0
first test random number   : .6120

########################################################################
# WARNING! Please study the warnings concerning your input carefully
#  - Process number higher than OMP_NUM_THREADS, I hope you know what you are doing.
########################################################################

           ------------------------------------------------- 
          |                 G F N 2 - x T B                 |
          | Geometry, Frequencies, Noncovalent interactions |
          |            JCTC 2018 parametrisation            |
           ------------------------------------------------- 
 
      method parameters     
 k(s)        :  1.8500
 k(p)        :  2.2300
 k(d)        :  2.2300
 k(f)        :  2.0000
 kEN (H0ij)  : -2.0000
 D4 a1       :  0.5200
 D4 a2       :  5.0000
 D4 s6       :  1.0000
 D4 s8       :  2.7000
 D4 s9       :  5.0000
 alphaj      :  2.0000

 Solvent             : h2o
 Using internal parameter file: .param_gbsa2_h2o
 Gsolv ref. state (COSMO-RS): gsolv [1 M gas/solution]
 temperature (mdtemp)       :    298.150000000000     
 dielectric constant        :    80.2000000000000     
 rho                        :    1.00000000000000     
 mass                       :    18.0000000000000     
 surface tension            :    15.5689454083859     
 probe radius               :   0.975313790000000     
 vdW radii scaling          :    1.00000000000000     
 Gshift (Eh)                :   1.857443126794793E-003
 c1                         :    1.55243817000000     
 soset                      :   0.130326360000000     
 HB correction              :  T

            Z     q(EN)     CN     RAES       Cart. coordinates
     1  N   5.0   -0.21    3.24    1.97    97.33086    23.69394    -1.09077
     2  C   4.0    0.03    4.41    4.40    97.71919    26.37400    -0.53493
     3  C   4.0    0.14    3.48    3.11    97.57735    26.73108     2.30419
     4  O   6.0   -0.32    1.32    1.80    99.22723    27.94671     3.40046
     5  C   4.0   -0.02    4.35    4.29    96.17090    28.20316    -2.15474
     6  C   4.0   -0.05    4.22    4.04    93.41335    28.17382    -1.44700
     7  C   4.0   -0.07    4.17    3.95    96.54612    27.63893    -4.96537
     8  C   4.0   -0.07    4.10    3.79    91.95878    29.60922    -3.45176
     9  H   1.0    0.08    1.02    1.43    96.29719    23.14137    -2.59804
    10  H   1.0    0.05    1.06    1.44    99.70731    26.81352    -0.98718
    11  H   1.0    0.04    1.06    1.44    96.95950    30.08161    -1.77969
    12  H   1.0    0.04    1.03    1.43    92.74181    26.23651    -1.31372
    13  H   1.0    0.04    1.03    1.43    93.14412    29.07231     0.39111
    14  H   1.0    0.05    1.01    1.43    95.93311    29.21103    -6.11784
    15  H   1.0    0.05    1.00    1.43    98.53498    27.32904    -5.35101
    16  H   1.0    0.04    1.00    1.43    95.53567    25.94068    -5.53177
    17  H   1.0    0.04    1.00    1.43    90.03703    30.00712    -2.82147
    18  H   1.0    0.04    1.00    1.43    92.85966    31.41324    -3.84212
    19  H   1.0    0.04    1.01    1.43    91.82946    28.56085    -5.20335
    20  N   5.0   -0.15    3.45    2.05    95.63300    25.61713     3.46115
    21  C   4.0    0.03    4.56    4.62    95.59560    25.60881     6.20032
    22  C   4.0    0.16    3.66    3.21    98.19678    25.15334     7.32211
    23  O   6.0   -0.33    1.32    1.80    99.08955    26.53050     8.95847
    24  C   4.0   -0.03    4.37    4.33    93.93280    23.61815     7.47115
    25  C   4.0   -0.05    4.18    3.95    91.12090    24.14001     6.92945
    26  C   4.0   -0.07    4.17    3.94    94.49359    23.55325    10.32331
    27  C   4.0   -0.07    4.05    3.70    90.34401    26.83550     7.45684
    28  H   1.0    0.08    1.06    1.44    94.48292    24.44833     2.47685
    29  H   1.0    0.05    1.06    1.44    95.03928    27.50421     6.84914
    30  H   1.0    0.04    1.05    1.44    94.40581    21.76300     6.69050
    31  H   1.0    0.04    1.02    1.43    90.70523    23.68905     4.95825
    32  H   1.0    0.04    1.03    1.43    90.03218    22.84537     8.10172
    33  H   1.0    0.04    1.00    1.43    93.04513    22.46547    11.29799
    34  H   1.0    0.05    1.01    1.43    96.28459    22.64149    10.72830
    35  H   1.0    0.05    1.00    1.43    94.54839    25.45569    11.09000
    36  H   1.0    0.05    1.00    1.43    88.31181    26.95624     7.67118
    37  H   1.0    0.04    1.00    1.43    91.17515    27.52091     9.21112
    38  H   1.0    0.04    1.00    1.43    90.88702    28.10001     5.93293
    39  N   5.0   -0.15    3.55    2.11    99.36749    23.02938     6.63719
    40  C   4.0    0.05    4.55    4.60   101.94868    22.72517     7.49094
    41  C   4.0    0.16    3.46    3.10   103.92100    24.79479     6.73829
    42  O   6.0   -0.30    1.37    1.80   105.54550    25.47581     8.25377
    43  C   4.0   -0.03    4.08    3.76   102.71656    19.98348     6.96675
    44  S   6.0   -0.05    2.42    3.10   100.86909    18.20506     9.32160
    45  H   1.0    0.08    1.06    1.44    98.74770    21.96700     5.17210
    46  H   1.0    0.06    1.11    1.45   101.91446    22.93845     9.55879
    47  H   1.0    0.05    1.06    1.44   102.10211    19.39152     5.10137
    48  H   1.0    0.07    1.05    1.44   104.72690    19.65903     7.28503
    49  H   1.0    0.06    0.98    1.43   102.31752    16.15327     9.31955
    50  N   5.0   -0.14    3.50    2.08   103.93977    25.84015     4.45867
    51  C   4.0    0.05    4.55    4.61   105.97936    27.56661     4.10937
    52  C   4.0    0.17    3.53    3.13   105.90034    29.78825     5.95001
    53  O   6.0   -0.31    1.29    1.80   107.84156    30.89886     6.58492
    54  C   4.0    0.03    4.19    3.97   105.92140    28.70801     1.48282
    55  O   6.0   -0.25    2.09    1.84   108.16213    30.17614     1.26253
    56  H   1.0    0.09    1.06    1.44   102.53502    25.52705     3.18232
    57  H   1.0    0.07    1.06    1.44   107.80471    26.64894     4.45676
    58  H   1.0    0.05    1.01    1.43   105.88197    27.18660     0.08706
    59  H   1.0    0.05    1.01    1.43   104.19939    29.84019     1.24584
    60  H   1.0    0.12    1.01    1.43   108.46844    30.61511    -0.48863
    61  N   5.0   -0.14    3.47    2.06   103.55605    30.54130     6.52999
    62  C   4.0    0.03    4.31    4.22   102.96660    32.43437     8.48291
    63  C   4.0    0.15    3.36    3.07   104.10985    31.77155    11.16097
    64  O   6.0   -0.33    1.26    1.80   105.46171    33.33590    12.27514
    65  C   4.0   -0.05    4.36    4.31   100.05919    32.60575     8.62935
    66  C   4.0   -0.03    4.17    3.95    98.95626    34.00771    10.93332
    67  C   4.0   -0.08    4.11    3.81    99.41356    36.82855    10.53981
    68  C   4.0   -0.08    4.08    3.77    96.14057    33.36241    11.23901
    69  H   1.0    0.11    1.10    1.44   102.07550    29.54535     5.83768
    70  H   1.0    0.05    1.04    1.44   103.84535    34.22243     7.92111
    71  H   1.0    0.04    1.04    1.43    99.39078    33.53537     6.92453
    72  H   1.0    0.06    1.04    1.43    99.33792    30.66996     8.62976
    73  H   1.0    0.04    1.06    1.44    99.94312    33.38115    12.62987
    74  H   1.0    0.03    1.00    1.43    98.65050    37.93368    12.09597
    75  H   1.0    0.04    1.00    1.43   101.42550    37.19456    10.41207
    76  H   1.0    0.04    1.00    1.43    98.51931    37.45372     8.79966
    77  H   1.0    0.04    1.00    1.43    95.34216    34.35807    12.84312
    78  H   1.0    0.04    1.00    1.43    95.11536    33.94959     9.55624
    79  H   1.0    0.04    1.00    1.43    95.89737    31.33987    11.47757
    80  N   5.0   -0.14    3.45    2.05   103.36607    29.51157    12.12565
    81  C   4.0    0.03    4.47    4.49   103.94599    28.74168    14.68033
    82  C   4.0    0.15    3.48    3.11   106.66374    27.93858    15.01667
    83  O   6.0   -0.32    1.31    1.80   107.70505    28.70023    16.93133
    84  C   4.0   -0.03    4.23    4.05   101.94661    27.05089    15.97343
    85  C   4.0   -0.07    4.17    3.94   100.06892    25.96670    14.10032
    86  C   4.0   -0.07    4.12    3.84   103.06014    25.03235    17.69639
    87  H   1.0    0.10    1.08    1.44   102.37062    28.33380    10.99201
    88  H   1.0    0.05    1.08    1.44   103.95520    30.52998    15.76151
    89  H   1.0    0.03    1.06    1.44   100.84667    28.30448    17.20522
    90  H   1.0    0.03    1.00    1.43    98.65938    24.85378    15.10286
    91  H   1.0    0.05    1.01    1.43    99.09490    27.45328    13.08697
    92  H   1.0    0.05    1.00    1.43   100.98722    24.69794    12.77509
    93  H   1.0    0.03    1.00    1.43   101.52674    24.03167    18.62185
    94  H   1.0    0.05    1.00    1.43   104.17373    23.65772    16.63781
    95  H   1.0    0.05    1.00    1.43   104.27258    25.85424    19.13095
    96  N   5.0   -0.14    3.40    2.02   107.91628    26.74256    13.19102
    97  C   4.0    0.04    4.37    4.33   110.62570    26.47702    13.52993
    98  C   4.0    0.15    3.40    3.08   112.19914    28.87980    12.87645
    99  O   6.0   -0.29    1.28    1.80   114.43799    28.88126    13.43032
   100  C   4.0   -0.03    4.23    4.06   111.92915    24.29386    12.08038
   101  C   4.0   -0.03    4.07    3.75   110.94754    21.59100    12.35583
   102  C   4.0    0.25    3.05    3.02   110.31282    20.31040     9.65798
   103  O   6.0   -0.27    1.16    1.80   110.40323    21.60580     7.66680
   104  O   6.0   -0.27    1.15    1.80   109.67363    18.03596     9.74075
   105  H   1.0    0.11    1.08    1.44   107.11987    26.15603    11.55008
   106  H   1.0    0.06    1.07    1.44   110.93071    26.17892    15.56480
   107  H   1.0    0.08    1.04    1.44   111.78830    24.75480    10.05982
   108  H   1.0    0.07    1.03    1.43   113.92358    24.38496    12.58523
   109  H   1.0    0.06    1.02    1.43   112.27774    20.35307    13.31852
   110  H   1.0    0.05    1.02    1.43   109.17130    21.55309    13.40355
   111  N   5.0   -0.13    3.43    2.04   111.17678    30.94376    11.76114
   112  C   4.0    0.04    4.45    4.46   112.90361    32.87766    10.76588
   113  C   4.0    0.14    3.36    3.07   112.48011    35.57704    11.76844
   114  O   6.0   -0.32    1.21    1.80   114.20491    37.11509    11.87306
   115  C   4.0   -0.03    4.31    4.21   112.77824    32.90840     7.87189
   116  C   4.0    0.16    3.21    3.04   114.20734    30.63844     6.75753
   117  O   6.0   -0.27    1.19    1.80   116.44929    30.30384     7.23551
   118  N   5.0   -0.17    3.16    1.95   112.84836    29.15747     5.16365
   119  H   1.0    0.10    1.06    1.44   109.47554    30.78594    10.90189
   120  H   1.0    0.08    1.08    1.44   114.81276    32.31130    11.33506
   121  H   1.0    0.07    1.06    1.44   110.83436    32.96984     7.24055
   122  H   1.0    0.05    1.04    1.43   113.76718    34.59040     7.20706
   123  H   1.0    0.11    1.03    1.43   113.62978    27.51051     4.62101
   124  H   1.0    0.12    1.05    1.44   110.96213    29.46582     5.02705
   125  N   5.0   -0.15    3.55    2.12   110.06774    36.02059    12.37261
   126  C   4.0    0.03    4.59    4.65   109.13770    38.23301    13.64712
   127  C   4.0    0.14    3.46    3.10   108.58074    37.72141    16.42282
   128  O   6.0   -0.33    1.32    1.80   110.11335    38.38063    18.03319
   129  C   4.0   -0.02    4.41    4.40   106.93621    39.20924    12.11613
   130  C   4.0   -0.04    4.29    4.18   108.23970    40.52860     9.92501
   131  C   4.0   -0.08    4.18    3.96   105.31371    40.98564    13.60747
   132  C   4.0   -0.07    4.02    3.65   106.50014    41.23443     7.75642
   133  H   1.0    0.11    1.12    1.45   108.80369    34.59490    12.19745
   134  H   1.0    0.05    1.08    1.44   110.68958    39.60865    13.65333
   135  H   1.0    0.05    1.07    1.44   105.81702    37.62274    11.42104
   136  H   1.0    0.04    1.03    1.43   109.14427    42.24430    10.62100
   137  H   1.0    0.05    1.04    1.43   109.70314    39.27670     9.17444
   138  H   1.0    0.04    1.00    1.43   103.89147    41.80830    12.37114
   139  H   1.0    0.04    1.01    1.43   104.32001    40.06937    15.14297
   140  H   1.0    0.04    1.00    1.43   106.46504    42.49374    14.40308
   141  H   1.0    0.07    1.01    1.43   107.58628    41.87580     6.14090
   142  H   1.0    0.04    1.00    1.43   105.36183    39.62196     7.17844
   143  H   1.0    0.04    1.00    1.43   105.21427    42.74290     8.29662
   144  N   5.0   -0.15    3.53    2.10   106.38093    36.61301    16.96229
   145  C   4.0    0.03    4.51    4.55   105.37544    36.42932    19.51877
   146  C   4.0    0.15    3.59    3.16   107.13297    35.24654    21.42664
   147  O   6.0   -0.33    1.29    1.80   107.09851    35.75937    23.66744
   148  C   4.0   -0.03    4.36    4.31   103.13192    34.62007    19.54398
   149  C   4.0   -0.05    4.14    3.88   101.19146    35.37732    17.41185
   150  C   4.0   -0.07    4.14    3.89   102.17313    34.21323    22.25359
   151  C   4.0   -0.09    3.98    3.59    98.38264    35.64759    18.09042
   152  H   1.0    0.09    1.09    1.44   105.46840    35.71856    15.54154
   153  H   1.0    0.04    1.05    1.44   104.82825    38.31766    20.16190
   154  H   1.0    0.04    1.07    1.44   103.89848    32.77762    18.97106
   155  H   1.0    0.04    1.04    1.43   101.76131    37.16268    16.56661
   156  H   1.0    0.04    1.03    1.43   101.33790    33.93280    15.94912
   157  H   1.0    0.03    1.00    1.43   100.43880    33.11421    22.20797
   158  H   1.0    0.05    1.01    1.43   103.52764    33.14970    23.35962
   159  H   1.0    0.04    1.00    1.43   101.85450    36.01068    23.19362
   160  H   1.0    0.03    1.00    1.43    97.30999    35.92595    16.36668
   161  H   1.0    0.04    1.00    1.43    97.65140    34.01160    19.07769
   162  H   1.0    0.04    1.00    1.43    98.12014    37.29868    19.28931
   163  N   5.0   -0.14    3.52    2.09   108.61518    33.42392    20.53353
   164  C   4.0    0.04    4.50    4.54   110.28799    32.19685    22.27108
   165  C   4.0    0.14    3.64    3.19   112.75858    33.58092    22.65697
   166  O   6.0   -0.29    1.29    1.80   113.80133    33.25868    24.70551
   167  C   4.0   -0.04    4.38    4.34   111.05619    29.52340    21.55507
   168  C   4.0   -0.03    4.06    3.73   109.03014    27.66316    22.30613
   169  S   6.0   -0.03    2.41    3.10   110.06493    24.32504    21.88091
   170  C   4.0   -0.06    3.86    3.41   111.33526    23.58237    25.03215
   171  H   1.0    0.10    1.07    1.44   108.42091    32.64088    18.80193
   172  H   1.0    0.06    1.08    1.44   109.37883    32.12734    24.13336
   173  H   1.0    0.06    1.04    1.43   111.36314    29.38810    19.52317
   174  H   1.0    0.06    1.05    1.44   112.79560    29.04271    22.55362
   175  H   1.0    0.04    1.07    1.44   108.52526    27.82856    24.29138
   176  H   1.0    0.06    1.07    1.44   107.36805    27.88826    21.12557
   177  H   1.0    0.05    1.04    1.43   112.60329    21.99081    24.79967
   178  H   1.0    0.05    1.03    1.43   112.34971    25.20468    25.75659
   179  H   1.0    0.05    1.03    1.43   109.79467    23.03664    26.27275
   180  N   5.0   -0.09    3.76    2.35   113.68811    35.14268    20.88714
   181  C   4.0    0.04    4.71    4.77   115.63873    36.78696    21.78573
   182  C   4.0    0.16    3.53    3.13   114.40431    38.46296    23.77055
   183  O   6.0   -0.30    1.33    1.80   115.59319    39.18973    25.63469
   184  C   4.0   -0.04    4.37    4.33   116.57708    38.15152    19.45066
   185  C   4.0   -0.04    4.28    4.16   116.40159    36.13883    17.44642
   186  C   4.0    0.00    4.42    4.41   113.93414    34.81532    18.18552
   187  H   1.0    0.06    1.05    1.44   117.15546    35.73933    22.73321
   188  H   1.0    0.05    1.03    1.43   115.23859    39.65251    18.99370
   189  H   1.0    0.04    1.02    1.43   118.47784    38.88305    19.70047
   190  H   1.0    0.06    1.03    1.43   116.28943    36.86676    15.52830
   191  H   1.0    0.05    1.02    1.43   117.97256    34.81110    17.55359
   192  H   1.0    0.08    1.08    1.44   112.36189    35.67155    17.21288
   193  H   1.0    0.05    1.02    1.43   113.96762    32.80857    17.68001
   194  N   5.0   -0.14    3.47    2.06   112.02529    39.30342    23.36641
   195  C   4.0    0.03    4.54    4.60   111.17030    41.39942    25.04043
   196  C   4.0    0.16    3.64    3.19   111.33943    40.59356    27.73227
   197  O   6.0   -0.31    1.38    1.80   112.69207    41.70476    29.23820
   198  C   4.0   -0.05    4.39    4.35   108.55191    42.44289    24.49053
   199  C   4.0   -0.02    4.23    4.07   108.53477    43.37959    21.76004
   200  C   4.0   -0.08    4.11    3.82   105.80839    43.97290    21.06572
   201  C   4.0   -0.08    4.12    3.84   110.34562    45.57216    21.39071
   202  H   1.0    0.11    1.07    1.44   110.96508    38.68819    21.89222
   203  H   1.0    0.05    1.08    1.44   112.61127    42.88182    24.90690
   204  H   1.0    0.05    1.03    1.43   107.15762    40.94920    24.73752
   205  H   1.0    0.04    1.03    1.43   108.14529    43.96514    25.81185
   206  H   1.0    0.06    1.07    1.44   109.14067    41.80624    20.56286
   207  H   1.0    0.04    1.00    1.43   105.67134    44.64149    19.12572
   208  H   1.0    0.04    1.00    1.43   104.63476    42.30121    21.26226
   209  H   1.0    0.04    1.00    1.43   105.04831    45.43000    22.30197
   210  H   1.0    0.04    1.00    1.43   110.68724    45.86002    19.39504
   211  H   1.0    0.04    1.00    1.43   109.49142    47.28476    22.15771
   212  H   1.0    0.04    1.02    1.43   112.07282    45.25213    22.42342
   213  N   5.0   -0.15    3.61    2.17   109.85141    38.67970    28.30337
   214  C   4.0    0.04    4.59    4.65   109.72493    37.88694    30.85732
   215  C   4.0    0.16    3.46    3.10   112.27384    37.16168    32.05418
   216  O   6.0   -0.29    1.28    1.80   112.40533    36.69540    34.31311
   217  C   4.0   -0.02    4.39    4.36   107.68340    35.89746    31.03495
   218  C   4.0   -0.05    4.23    4.06   105.15038    37.07300    30.30232
   219  C   4.0   -0.06    4.19    3.98   107.60316    34.88395    33.70327
   220  C   4.0   -0.08    4.01    3.64   103.17483    35.06905    29.63862
   221  H   1.0    0.10    1.08    1.44   108.99497    37.64327    26.94131
   222  H   1.0    0.06    1.07    1.44   109.14632    39.51131    32.03385
   223  H   1.0    0.05    1.06    1.44   108.12299    34.33326    29.74770
   224  H   1.0    0.04    1.03    1.43   104.46264    38.21928    31.87348
   225  H   1.0    0.05    1.04    1.43   105.38165    38.28221    28.65471
   226  H   1.0    0.04    1.00    1.43   105.98579    33.63350    33.95137
   227  H   1.0    0.07    1.01    1.43   109.26638    33.77716    34.17870
   228  H   1.0    0.06    1.00    1.43   107.45863    36.40883    35.07192
   229  H   1.0    0.04    1.00    1.43   101.40110    35.95296    29.09458
   230  H   1.0    0.04    1.00    1.43   103.83114    33.91742    28.06690
   231  H   1.0    0.04    1.00    1.43   102.82205    33.81160    31.22237
   232  N   5.0   -0.12    3.50    2.08   114.33731    37.26556    30.60568
   233  C   4.0    0.03    4.28    4.17   116.77197    36.75654    31.66587
   234  C   4.0    0.16    3.30    3.05   118.61717    38.96843    31.47128
   235  O   6.0   -0.28    1.20    1.80   120.85730    38.59585    31.97654
   236  H   1.0    0.12    1.11    1.44   114.25188    37.36934    28.69950
   237  H   1.0    0.08    1.05    1.44   116.50984    36.38205    33.68464
   238  H   1.0    0.06    1.02    1.43   117.62741    35.09679    30.76869
   239  N   5.0   -0.13    3.45    2.05   117.64797    41.16595    30.64876
   240  C   4.0    0.04    4.34    4.28   118.84509    43.60664    31.02633
   241  C   4.0    0.09    3.21    3.04   117.45632    45.23823    32.94596
   242  O   6.0   -0.26    1.14    1.80   118.75395    46.77498    34.08115
   243  C   4.0   -0.04    4.25    4.10   119.28581    45.19395    28.63251
   244  C   4.0   -0.04    4.22    4.04   121.11155    43.75531    26.93176
   245  C   4.0   -0.05    4.14    3.89   122.06844    45.28976    24.69529
   246  C   4.0   -0.04    4.11    3.83   123.12613    43.52720    22.65378
   247  N   5.0   -0.12    4.01    2.87   125.85853    42.92216    23.05543
   248  H   1.0    0.13    1.15    1.45   115.85789    41.12656    29.97847
   249  H   1.0    0.07    1.07    1.44   120.68156    43.18367    31.89344
   250  H   1.0    0.05    1.02    1.43   117.47766    45.51187    27.69670
   251  H   1.0    0.06    1.03    1.43   120.07546    46.98584    29.26177
   252  H   1.0    0.05    1.03    1.43   122.68048    43.12107    28.10377
   253  H   1.0    0.06    1.03    1.43   120.11326    42.05848    26.30297
   254  H   1.0    0.04    1.03    1.43   120.50974    46.40297    23.96836
   255  H   1.0    0.05    1.03    1.43   123.50667    46.61874    25.33170
   256  H   1.0    0.04    1.03    1.43   122.09673    41.73767    22.70550
   257  H   1.0    0.04    1.02    1.43   122.99560    44.32805    20.75904
   258  H   1.0    0.06    1.02    1.43   126.52925    41.73834    21.66544
   259  H   1.0    0.06    1.02    1.43   126.94412    44.54152    23.07451
   260  H   1.0    0.06    1.02    1.43   126.08623    42.03057    24.77659
   261  N   5.0   -0.22    3.17    1.95    96.40283    22.53940    23.11745
   262  C   4.0    0.02    4.27    4.14    95.43106    22.03878    20.59176
   263  C   4.0    0.08    3.24    3.04    92.54902    22.41374    20.44831
   264  O   6.0   -0.30    1.12    1.80    91.54800    23.12764    18.47063
   265  C   4.0   -0.02    4.32    4.23    96.02673    19.29725    19.69261
   266  C   4.0   -0.05    4.20    4.01    95.73577    19.16568    16.81708
   267  C   4.0   -0.07    4.19    3.97    94.28641    17.31040    20.83923
   268  C   4.0   -0.07    4.03    3.68    95.71498    16.45752    15.76306
   269  H   1.0    0.08    1.03    1.43    96.99735    20.99874    24.08748
   270  H   1.0    0.04    1.05    1.44    96.29389    23.37459    19.25602
   271  H   1.0    0.04    1.05    1.44    97.97915    18.87933    20.24000
   272  H   1.0    0.06    1.04    1.43    93.95366    20.06376    16.29222
   273  H   1.0    0.04    1.02    1.43    97.25934    20.23044    15.91617
   274  H   1.0    0.04    1.01    1.43    95.09610    15.45199    20.54279
   275  H   1.0    0.05    1.01    1.43    94.09183    17.65310    22.81590
   276  H   1.0    0.05    1.00    1.43    92.43523    17.40045    19.95003
   277  H   1.0    0.04    1.00    1.43    95.83058    16.53719    13.71247
   278  H   1.0    0.04    1.00    1.43    97.33152    15.40612    16.47210
   279  H   1.0    0.05    1.00    1.43    93.99055    15.47014    16.24674
   280  N   5.0   -0.20    3.21    1.96    89.37960    26.60905    24.50166
   281  C   4.0    0.03    4.32    4.24    89.42250    29.33265    24.47963
   282  C   4.0    0.15    3.53    3.13    90.06204    30.48077    21.90140
   283  O   6.0   -0.30    1.29    1.80    88.72654    32.14378    20.97467
   284  C   4.0   -0.04    4.37    4.33    91.38642    30.27952    26.34119
   285  C   4.0   -0.01    3.62    3.18    92.29157    32.91214    25.74629
   286  C   4.0   -0.03    3.48    3.10    90.85254    35.00772    26.39124
   287  C   4.0   -0.04    3.48    3.11    94.67068    33.30223    24.71565
   288  C   4.0   -0.04    3.38    3.07    91.82685    37.42851    26.22463
   289  C   4.0   -0.05    3.39    3.07    95.66881    35.71351    24.59910
   290  C   4.0   -0.04    3.38    3.07    94.28892    37.77267    25.42920
   291  H   1.0    0.08    1.03    1.43    90.53207    25.71205    25.74196
   292  H   1.0    0.05    1.05    1.44    87.52897    30.03793    24.96015
   293  H   1.0    0.04    1.03    1.43    90.61419    30.21243    28.25160
   294  H   1.0    0.04    1.04    1.43    93.00892    29.00945    26.22532
   295  H   1.0    0.05    1.03    1.43    88.96395    34.72172    27.12053
   296  H   1.0    0.04    1.03    1.43    95.80816    31.70753    24.13764
   297  H   1.0    0.05    1.03    1.43    90.69459    39.02023    26.80426
   298  H   1.0    0.04    1.03    1.43    97.56732    35.97032    23.90638
   299  H   1.0    0.05    1.03    1.43    95.13728    39.62489    25.41146
   300  N   5.0   -0.14    3.45    2.04    92.14440    29.73954    20.72452
   301  C   4.0    0.04    4.30    4.20    92.73472    30.95353    18.33959
   302  C   4.0    0.10    3.27    3.05    90.61517    30.73197    16.39423
   303  O   6.0   -0.31    1.14    1.80    90.45094    32.33971    14.73257
   304  C   4.0   -0.08    4.12    3.84    95.11687    29.88834    17.13440
   305  H   1.0    0.08    1.05    1.44    93.32705    28.39860    21.42093
   306  H   1.0    0.05    1.06    1.44    92.97262    32.98835    18.68405
   307  H   1.0    0.04    1.01    1.43    95.66774    31.04727    15.54496
   308  H   1.0    0.03    1.00    1.43    96.65264    29.85732    18.50223
   309  H   1.0    0.05    1.00    1.43    94.76797    27.96071    16.50707
   310  N   5.0   -0.20    3.20    1.96    86.32244    37.02110    18.41493
   311  C   4.0    0.03    4.33    4.25    87.10526    39.44365    17.37116
   312  C   4.0    0.15    3.54    3.13    87.07290    39.42388    14.46739
   313  O   6.0   -0.28    1.29    1.80    86.59022    41.35492    13.28151
   314  C   4.0   -0.02    4.28    4.16    89.64471    40.64737    18.29157
   315  C   4.0   -0.04    4.26    4.11    91.29154    41.51550    16.03809
   316  C   4.0   -0.07    4.15    3.91    91.08998    38.91011    20.03550
   317  C   4.0   -0.08    4.04    3.69    93.89600    42.39238    16.80543
   318  H   1.0    0.11    1.03    1.43    87.60607    35.79222    19.12570
   319  H   1.0    0.05    1.06    1.44    85.57941    40.76984    17.85308
   320  H   1.0    0.04    1.06    1.44    89.16756    42.34218    19.37413
   321  H   1.0    0.05    1.04    1.43    91.50253    39.98790    14.66563
   322  H   1.0    0.06    1.04    1.43    90.31727    43.05993    15.08902
   323  H   1.0    0.04    1.01    1.43    92.73483    39.86407    20.79739
   324  H   1.0    0.05    1.00    1.43    89.95743    38.25869    21.61477
   325  H   1.0    0.05    1.00    1.43    91.78532    37.25563    19.01112
   326  H   1.0    0.04    1.00    1.43    94.78308    43.35958    15.21976
   327  H   1.0    0.04    1.00    1.43    93.79927    43.70670    18.37945
   328  H   1.0    0.03    1.00    1.43    95.11500    40.82368    17.32407
   329  N   5.0   -0.15    3.44    2.04    87.64586    37.29526    13.24570
   330  C   4.0    0.05    4.39    4.37    87.51693    37.39989    10.51981
   331  C   4.0    0.10    3.36    3.07    84.77910    37.85639     9.66600
   332  O   6.0   -0.26    1.15    1.80    84.42031    39.27812     7.85941
   333  C   4.0   -0.04    4.30    4.19    88.59106    35.02213     9.25563
   334  C   4.0   -0.01    3.59    3.16    87.96574    34.93359     6.46253
   335  C   4.0   -0.04    3.45    3.09    89.87641    34.93344     4.66769
   336  C   4.0   -0.02    3.58    3.16    85.45854    34.74021     5.66563
   337  C   4.0   -0.04    3.39    3.08    89.23879    34.81576     2.14602
   338  C   4.0   -0.03    3.37    3.07    84.81917    34.75527     3.15496
   339  C   4.0   -0.03    3.40    3.08    86.72863    34.78164     1.39675
   340  H   1.0    0.10    1.07    1.44    88.23728    35.67072    14.06023
   341  H   1.0    0.07    1.06    1.44    88.57272    39.06790     9.86793
   342  H   1.0    0.04    1.03    1.43    90.62669    34.94507     9.55380
   343  H   1.0    0.05    1.03    1.43    87.73424    33.38784    10.18581
   344  H   1.0    0.04    1.03    1.43    91.83455    35.02449     5.23760
   345  H   1.0    0.06    1.05    1.44    83.99532    34.46742     7.05250
   346  H   1.0    0.05    1.03    1.43    90.70549    34.76451     0.72937
   347  H   1.0    0.06    1.03    1.43    82.86951    34.68301     2.56183
   348  H   1.0    0.05    1.03    1.43    86.28810    34.74184    -0.59602
   349  N   5.0   -0.19    3.30    1.98   119.00995    45.29476    11.94250
   350  C   4.0    0.03    4.37    4.32   117.01870    43.68006    11.04564
   351  C   4.0    0.15    3.41    3.08   117.50668    43.07518     8.26763
   352  O   6.0   -0.28    1.23    1.80   119.57922    43.30384     7.30645
   353  C   4.0   -0.05    4.31    4.22   114.39053    44.80110    11.58967
   354  C   4.0   -0.05    4.29    4.17   114.36495    46.42207    13.93147
   355  C   4.0   -0.05    4.20    4.00   115.02519    44.88367    16.26192
   356  C   4.0   -0.04    4.15    3.90   115.97978    46.76143    18.21954
   357  N   5.0   -0.12    3.99    2.83   116.71653    45.64746    20.72338
   358  H   1.0    0.09    1.03    1.43   119.30116    46.91176    10.97505
   359  H   1.0    0.05    1.06    1.44   117.24364    41.87242    12.04147
   360  H   1.0    0.05    1.03    1.43   113.79272    45.95429     9.98395
   361  H   1.0    0.04    1.03    1.43   113.05114    43.25684    11.82744
   362  H   1.0    0.04    1.04    1.44   115.71651    47.95769    13.69062
   363  H   1.0    0.04    1.03    1.43   112.49674    47.26871    14.12451
   364  H   1.0    0.04    1.02    1.43   113.36449    43.87093    16.93188
   365  H   1.0    0.04    1.03    1.43   116.48982    43.49991    15.83616
   366  H   1.0    0.04    1.02    1.43   117.61027    47.77661    17.45538
   367  H   1.0    0.04    1.03    1.43   114.50967    48.16198    18.58411
   368  H   1.0    0.05    1.02    1.43   117.20568    47.08658    21.94185
   369  H   1.0    0.05    1.03    1.43   115.19213    44.68437    21.47718
   370  H   1.0    0.05    1.02    1.43   118.15713    44.34915    20.51000
   371  N   5.0   -0.14    3.48    2.07   115.32525    42.45854     7.05996
   372  C   4.0    0.03    4.28    4.15   115.25744    41.53430     4.50088
   373  C   4.0    0.07    3.12    3.03   112.81826    41.92027     2.85836
   374  O   6.0   -0.31    1.12    1.80   110.64739    41.43479     3.38610
   375  C   4.0   -0.03    4.33    4.26   116.02253    38.74037     4.65344
   376  C   4.0    0.00    3.53    3.13   118.85008    38.33786     4.84694
   377  C   4.0   -0.02    3.44    3.09   119.89696    36.57681     6.51411
   378  C   4.0   -0.02    3.47    3.10   120.44603    39.47772     3.09624
   379  C   4.0   -0.02    3.40    3.08   122.43325    35.90707     6.39032
   380  C   4.0   -0.03    3.43    3.09   122.99662    38.87511     3.02048
   381  C   4.0    0.08    3.40    3.08   124.04996    37.05192     4.62512
   382  O   6.0   -0.22    2.09    1.84   126.57974    36.45549     4.46459
   383  H   1.0    0.08    1.08    1.44   113.83235    41.95543     8.14107
   384  H   1.0    0.05    1.08    1.44   116.77074    42.52551     3.51772
   385  H   1.0    0.05    1.04    1.43   115.09582    37.91325     6.30301
   386  H   1.0    0.05    1.03    1.43   115.34489    37.74414     2.98384
   387  H   1.0    0.07    1.03    1.43   118.70927    35.64445     7.88443
   388  H   1.0    0.06    1.03    1.43   119.74395    40.78739     1.69474
   389  H   1.0    0.07    1.03    1.43   123.16501    34.47901     7.64399
   390  H   1.0    0.06    1.03    1.43   124.19285    39.79838     1.64060
   391  H   1.0    0.13    1.04    1.43   127.36691    37.47245     3.17081
   392  N   5.0   -0.20    3.14    1.94   109.95585    35.82630    -0.16638
   393  C   4.0    0.03    4.21    4.03   107.16996    35.85197    -0.12400
   394  C   4.0    0.09    3.30    3.05   105.99461    36.19068    -2.70786
   395  O   6.0   -0.28    1.12    1.80   104.38641    34.73046    -3.53939
   396  C   4.0   -0.03    4.30    4.20   105.93636    38.08662     1.33753
   397  C   4.0   -0.01    3.53    3.13   103.05883    37.76692     1.45343
   398  C   4.0   -0.03    3.48    3.11   101.91842    35.56275     2.35142
   399  C   4.0   -0.03    3.46    3.10   101.42770    39.72736     0.85791
   400  C   4.0   -0.04    3.39    3.08    99.31736    35.30650     2.53321
   401  C   4.0   -0.03    3.39    3.08    98.81098    39.46818     1.06256
   402  C   4.0   -0.04    3.34    3.06    97.70456    37.24453     1.85079
   403  H   1.0    0.10    1.03    1.43   110.73214    37.22369     0.88319
   404  H   1.0    0.06    1.06    1.44   106.54068    34.05443     0.67828
   405  H   1.0    0.05    1.02    1.43   106.69346    38.10557     3.25840
   406  H   1.0    0.05    1.03    1.43   106.41133    39.90242     0.50071
   407  H   1.0    0.06    1.03    1.43   103.08123    33.99811     2.94818
   408  H   1.0    0.05    1.03    1.43   102.19501    41.51362     0.22620
   409  H   1.0    0.05    1.03    1.43    98.56322    33.49762     3.11276
   410  H   1.0    0.05    1.03    1.43    97.64323    41.06978     0.56457
   411  H   1.0    0.05    1.03    1.43    95.68285    37.04718     1.97427
   412  H   1.0    0.10    1.07    1.44    98.83537    22.94366    -1.34787
   413  H   1.0    0.07    1.04    1.43   115.59875    45.01263    33.20980
   414  H   1.0    0.09    1.07    1.44    97.73777    23.58817    23.01456
   415  H   1.0    0.06    1.04    1.43    91.47570    22.07747    21.96685
   416  H   1.0    0.10    1.07    1.44    87.81140    26.06898    24.87798
   417  H   1.0    0.07    1.04    1.43    89.39198    29.29466    16.48916
   418  H   1.0    0.10    1.07    1.44    85.26130    37.28079    19.71843
   419  H   1.0    0.06    1.04    1.43    83.35322    37.00908    10.57154
   420  H   1.0    0.09    1.11    1.44   118.68052    45.76710    13.54279
   421  H   1.0    0.06    1.05    1.44   112.95391    42.65934     1.12445
   422  H   1.0    0.10    1.07    1.44   110.51938    34.34453     0.44953
   423  H   1.0    0.06    1.05    1.44   106.51962    37.63908    -3.80219

  Z AO/shell   Hii/eV     exponent
  1     Wed Apr 25 08:07:45 CEST 2018   EN: 2.200 GM2: 0.406  GM3: 0.0800  RAES: 1.40
     1s    -10.707211    1.230000
  6     Wed Apr 25 08:07:45 CEST 2018   EN: 2.550 GM2: 0.538  GM3: 0.1500  RAES: 3.00
     2s    -13.970922    2.096432
     2p    -10.063292    1.800000
  7     Wed Apr 25 08:07:45 CEST 2018   EN: 3.040 GM2: 0.461  GM3:-0.0640  RAES: 1.90
     2s    -16.686243    2.339881
     2p    -12.523956    2.014332
  8     Wed Apr 25 08:07:45 CEST 2018   EN: 3.440 GM2: 0.452  GM3:-0.0517  RAES: 1.80
     2s    -20.229985    2.439742
     2p    -15.503117    2.137023
 16     Tue Apr 24 11:44:34 CEST 2018   EN: 2.580 GM2: 0.340  GM3:-0.0502  RAES: 3.10
     3s    -20.029654    1.981333
     3p    -11.377694    2.025643
     3d     -0.420282    1.702555
 no old-style atom pair restraining (fixing) potential

molecular fragmentation (1/2 indicates fragments):
111111111111111111111111111111111111111111111111111111111111111111111111
111111111111111111111111111111111111111111111111111111111111111111111111
111111111111111111111111111111111111111111111111111111111111111111111111
111111111111111111111111111111111111111111112222222222222222222222222222
222222222222222222222222222222222222222222222222222222222222222222222222
222222222222222222222222222222222222222222222222222112222222222
# atoms in fragment 1/2:   262   161
 fragment masses (1/2) :     1740.23     1041.36
CMA distance (Bohr)    :   8.825
constraining FC (au)   :  0.0500
           ------------------------------------------------- 
          |        Self-Consistent Charge Iterations        |
           ------------------------------------------------- 

 Ncao       : 1020
 Nao        : 1018
 Nshell     : 620
 Nel        : 1096
 T(el)      :   500.0
 intcut     :    35.0
 scfconv/Eh :  0.100E-06
   qconv/e  :  0.100E-04
 intneglect :  0.100E-08
 broydamp   :      0.400
 iter      E             dE          RMSdq      gap      omega  full diag
   1   -619.3283371 -0.619328E+03  0.435E+00    3.08       0.0  T
   2   -620.5953199 -0.126698E+01  0.213E+00    1.80       1.0  T
   3   -620.6678064 -0.724865E-01  0.118E+00    2.01       1.0  T
   4   -620.7709617 -0.103155E+00  0.249E-01    1.45       1.0  T
   5   -620.7764263 -0.546464E-02  0.124E-01    1.64       1.0  T
   6   -620.7776412 -0.121486E-02  0.575E-02    1.63       1.0  T
   7   -620.7780153 -0.374183E-03  0.254E-02    1.59       1.0  T
   8   -620.7780564 -0.410840E-04  0.120E-02    1.58       1.0  T
   9   -620.7780696 -0.131589E-04  0.511E-03    1.57       1.0  T
  10   -620.7780716 -0.201256E-05  0.221E-03    1.57       2.2  T
  11   -620.7780720 -0.423388E-06  0.945E-04    1.57       5.1  T
  12   -620.7780721 -0.735245E-07  0.440E-04    1.57      11.1  T
  13   -620.7780721 -0.285336E-07  0.204E-04    1.57      23.8  T
  14   -620.7780721 -0.248428E-08  0.967E-05    1.57      50.3  T
  15   -620.7780721 -0.935984E-09  0.415E-05    1.57     117.3  T
speedup  1.94
cpu  time for SCC   21.06 s
wall time for SCC   10.87 s

   *** convergence criteria satisfied after 15 iterations ***

          eigenvalues
 #    :         536        537        538        539        540        541        542        543
 occ. :        2.000      2.000      2.000      2.000      2.000      2.000      2.000      2.000
 eps  :       -10.608    -10.559    -10.547    -10.512    -10.510    -10.210    -10.165    -10.112
 #    :         544        545        546        547        548        549        550        551
 occ. :        2.000      2.000      2.000      2.000      2.000      0.000      0.000      0.000
 eps  :       -10.096    -10.024     -9.876     -9.688     -9.589     -8.024     -7.743     -7.733
 #    :         552        553        554        555        556        557        558        559
 occ. :        0.000      0.000      0.000      0.000      0.000      0.000      0.000      0.000
 eps  :        -7.681     -7.628     -7.587     -7.197     -7.110     -6.746     -6.733     -6.663


   #   Z            q   n(s)   n(p)   n(d)      C6AA      α(0)
   1   7 N     -0.399  1.305  4.094  0.000    30.346     8.181
   2   6 C      0.028  1.062  2.910  0.000    20.113     6.387
   3   6 C      0.263  1.048  2.689  0.000    22.561     7.779
   4   8 O     -0.509  1.746  4.763  0.000    23.978     6.565
   5   6 C     -0.016  1.060  2.956  0.000    20.815     6.488
   6   6 C     -0.062  1.045  3.017  0.000    21.687     6.629
   7   6 C     -0.113  1.038  3.075  0.000    22.711     6.795
   8   6 C     -0.111  1.036  3.075  0.000    22.665     6.787
   9   1 H      0.171  0.829  0.000  0.000     1.266     1.763
  10   1 H      0.021  0.979  0.000  0.000     2.722     2.580
  11   1 H      0.037  0.963  0.000  0.000     2.495     2.470
  12   1 H      0.045  0.955  0.000  0.000     2.387     2.416
  13   1 H      0.036  0.964  0.000  0.000     2.502     2.474
  14   1 H      0.056  0.944  0.000  0.000     2.249     2.345
  15   1 H      0.034  0.966  0.000  0.000     2.529     2.487
  16   1 H      0.044  0.956  0.000  0.000     2.394     2.419
  17   1 H      0.040  0.960  0.000  0.000     2.454     2.450
  18   1 H      0.038  0.962  0.000  0.000     2.478     2.461
  19   1 H      0.046  0.954  0.000  0.000     2.371     2.408
  20   7 N     -0.164  1.247  3.916  0.000    24.539     7.357
  21   6 C      0.012  1.060  2.929  0.000    20.373     6.425
  22   6 C      0.286  1.042  2.672  0.000    22.151     7.709
  23   8 O     -0.475  1.733  4.742  0.000    23.231     6.462
  24   6 C     -0.030  1.069  2.961  0.000    21.062     6.526
  25   6 C     -0.067  1.051  3.016  0.000    21.774     6.643
  26   6 C     -0.117  1.040  3.077  0.000    22.798     6.808
  27   6 C     -0.117  1.034  3.082  0.000    22.790     6.808
  28   1 H      0.223  0.777  0.000  0.000     0.994     1.562
  29   1 H      0.094  0.906  0.000  0.000     1.839     2.120
  30   1 H      0.047  0.953  0.000  0.000     2.352     2.398
  31   1 H      0.042  0.958  0.000  0.000     2.416     2.431
  32   1 H      0.054  0.946  0.000  0.000     2.265     2.354
  33   1 H      0.062  0.938  0.000  0.000     2.180     2.309
  34   1 H      0.040  0.960  0.000  0.000     2.451     2.448
  35   1 H      0.054  0.946  0.000  0.000     2.266     2.354
  36   1 H      0.047  0.953  0.000  0.000     2.362     2.403
  37   1 H      0.048  0.952  0.000  0.000     2.340     2.392
  38   1 H      0.041  0.959  0.000  0.000     2.441     2.443
  39   7 N     -0.183  1.250  3.933  0.000    24.963     7.420
  40   6 C      0.035  1.058  2.906  0.000    19.926     6.345
  41   6 C      0.270  1.049  2.680  0.000    22.436     7.759
  42   8 O     -0.488  1.747  4.741  0.000    23.528     6.503
  43   6 C     -0.013  1.069  2.944  0.000    20.805     6.495
  44  16 S     -0.263  1.922  4.315  0.026   152.380    20.776
  45   1 H      0.205  0.795  0.000  0.000     1.083     1.630
  46   1 H      0.085  0.915  0.000  0.000     1.932     2.174
  47   1 H      0.069  0.931  0.000  0.000     2.102     2.267
  48   1 H      0.046  0.954  0.000  0.000     2.377     2.411
  49   1 H      0.183  0.817  0.000  0.000     1.188     1.704
  50   7 N     -0.173  1.242  3.931  0.000    24.746     7.388
  51   6 C      0.037  1.050  2.914  0.000    19.925     6.349
  52   6 C      0.284  1.040  2.676  0.000    22.195     7.715
  53   8 O     -0.481  1.735  4.746  0.000    23.373     6.482
  54   6 C      0.074  1.036  2.889  0.000    19.521     6.324
  55   8 O     -0.468  1.721  4.747  0.000    22.206     6.361
  56   1 H      0.213  0.787  0.000  0.000     1.040     1.597
  57   1 H      0.073  0.927  0.000  0.000     2.055     2.242
  58   1 H      0.045  0.955  0.000  0.000     2.378     2.412
  59   1 H      0.053  0.947  0.000  0.000     2.287     2.365
  60   1 H      0.343  0.657  0.000  0.000     0.604     1.221
  61   7 N     -0.184  1.254  3.930  0.000    24.979     7.423
  62   6 C      0.021  1.075  2.904  0.000    20.241     6.410
  63   6 C      0.260  1.063  2.677  0.000    22.612     7.786
  64   8 O     -0.480  1.734  4.746  0.000    23.350     6.479
  65   6 C     -0.092  1.065  3.027  0.000    22.252     6.715
  66   6 C     -0.016  1.059  2.956  0.000    20.822     6.491
  67   6 C     -0.122  1.041  3.081  0.000    22.893     6.822
  68   6 C     -0.116  1.043  3.073  0.000    22.777     6.805
  69   1 H      0.218  0.782  0.000  0.000     1.017     1.580
  70   1 H      0.083  0.917  0.000  0.000     1.953     2.186
  71   1 H      0.072  0.928  0.000  0.000     2.064     2.247
  72   1 H      0.067  0.933  0.000  0.000     2.115     2.274
  73   1 H      0.033  0.967  0.000  0.000     2.539     2.492
  74   1 H      0.058  0.942  0.000  0.000     2.228     2.334
  75   1 H      0.044  0.956  0.000  0.000     2.401     2.423
  76   1 H      0.045  0.955  0.000  0.000     2.378     2.411
  77   1 H      0.056  0.944  0.000  0.000     2.242     2.341
  78   1 H      0.043  0.957  0.000  0.000     2.407     2.426
  79   1 H      0.040  0.960  0.000  0.000     2.448     2.447
  80   7 N     -0.175  1.248  3.926  0.000    24.778     7.393
  81   6 C      0.020  1.063  2.918  0.000    20.250     6.408
  82   6 C      0.277  1.039  2.684  0.000    22.324     7.738
  83   8 O     -0.490  1.732  4.758  0.000    23.557     6.507
  84   6 C     -0.022  1.062  2.960  0.000    20.935     6.508
  85   6 C     -0.120  1.039  3.081  0.000    22.854     6.816
  86   6 C     -0.108  1.036  3.072  0.000    22.618     6.782
  87   1 H      0.219  0.781  0.000  0.000     1.013     1.577
  88   1 H      0.082  0.918  0.000  0.000     1.961     2.190
  89   1 H      0.067  0.933  0.000  0.000     2.117     2.275
  90   1 H      0.058  0.942  0.000  0.000     2.222     2.331
  91   1 H      0.076  0.924  0.000  0.000     2.019     2.222
  92   1 H      0.030  0.970  0.000  0.000     2.588     2.516
  93   1 H      0.060  0.940  0.000  0.000     2.200     2.320
  94   1 H      0.020  0.980  0.000  0.000     2.732     2.585
  95   1 H      0.046  0.954  0.000  0.000     2.366     2.405
  96   7 N     -0.186  1.247  3.939  0.000    25.038     7.432
  97   6 C      0.033  1.063  2.904  0.000    20.027     6.372
  98   6 C      0.273  1.055  2.673  0.000    22.388     7.748
  99   8 O     -0.480  1.746  4.734  0.000    23.346     6.478
 100   6 C     -0.051  1.048  3.003  0.000    21.485     6.599
 101   6 C     -0.095  1.070  3.025  0.000    22.323     6.730
 102   6 C      0.364  1.038  2.599  0.000    20.832     7.468
 103   8 O     -0.638  1.776  4.862  0.000    27.082     6.977
 104   8 O     -0.645  1.774  4.871  0.000    27.242     6.998
 105   1 H      0.208  0.792  0.000  0.000     1.068     1.619
 106   1 H      0.077  0.923  0.000  0.000     2.010     2.217
 107   1 H      0.033  0.967  0.000  0.000     2.550     2.497
 108   1 H      0.043  0.957  0.000  0.000     2.406     2.426
 109   1 H      0.023  0.977  0.000  0.000     2.691     2.565
 110   1 H      0.026  0.974  0.000  0.000     2.651     2.546
 111   7 N     -0.194  1.260  3.933  0.000    25.205     7.456
 112   6 C      0.023  1.063  2.913  0.000    20.187     6.397
 113   6 C      0.264  1.041  2.694  0.000    22.538     7.774
 114   8 O     -0.454  1.729  4.725  0.000    22.789     6.400
 115   6 C     -0.111  1.064  3.047  0.000    22.621     6.770
 116   6 C      0.286  1.044  2.670  0.000    22.149     7.706
 117   8 O     -0.497  1.756  4.740  0.000    23.710     6.528
 118   7 N     -0.295  1.277  4.018  0.000    27.617     7.805
 119   1 H      0.189  0.811  0.000  0.000     1.162     1.688
 120   1 H      0.094  0.906  0.000  0.000     1.845     2.124
 121   1 H      0.098  0.902  0.000  0.000     1.804     2.100
 122   1 H      0.082  0.918  0.000  0.000     1.963     2.191
 123   1 H      0.204  0.796  0.000  0.000     1.086     1.632
 124   1 H      0.230  0.770  0.000  0.000     0.967     1.540
 125   7 N     -0.177  1.246  3.931  0.000    24.832     7.401
 126   6 C      0.008  1.066  2.926  0.000    20.427     6.431
 127   6 C      0.260  1.046  2.694  0.000    22.615     7.787
 128   8 O     -0.455  1.727  4.727  0.000    22.802     6.402
 129   6 C     -0.032  1.058  2.974  0.000    21.110     6.534
 130   6 C     -0.064  1.052  3.012  0.000    21.705     6.629
 131   6 C     -0.128  1.037  3.092  0.000    23.013     6.839
 132   6 C     -0.117  1.036  3.081  0.000    22.806     6.810
 133   1 H      0.209  0.791  0.000  0.000     1.059     1.612
 134   1 H      0.102  0.898  0.000  0.000     1.768     2.079
 135   1 H      0.053  0.947  0.000  0.000     2.289     2.366
 136   1 H      0.055  0.945  0.000  0.000     2.262     2.352
 137   1 H      0.026  0.974  0.000  0.000     2.646     2.544
 138   1 H      0.063  0.937  0.000  0.000     2.159     2.298
 139   1 H      0.045  0.955  0.000  0.000     2.377     2.411
 140   1 H      0.059  0.941  0.000  0.000     2.205     2.322
 141   1 H      0.057  0.943  0.000  0.000     2.237     2.339
 142   1 H      0.024  0.976  0.000  0.000     2.669     2.555
 143   1 H      0.047  0.953  0.000  0.000     2.361     2.403
 144   7 N     -0.183  1.246  3.937  0.000    24.964     7.421
 145   6 C      0.015  1.061  2.924  0.000    20.331     6.420
 146   6 C      0.284  1.033  2.682  0.000    22.191     7.717
 147   8 O     -0.477  1.730  4.746  0.000    23.271     6.468
 148   6 C     -0.028  1.072  2.956  0.000    21.025     6.520
 149   6 C     -0.072  1.058  3.013  0.000    21.880     6.661
 150   6 C     -0.112  1.038  3.075  0.000    22.709     6.796
 151   6 C     -0.118  1.038  3.079  0.000    22.824     6.814
 152   1 H      0.217  0.783  0.000  0.000     1.023     1.585
 153   1 H      0.091  0.909  0.000  0.000     1.872     2.140
 154   1 H      0.025  0.975  0.000  0.000     2.653     2.547
 155   1 H      0.057  0.943  0.000  0.000     2.229     2.335
 156   1 H      0.030  0.970  0.000  0.000     2.585     2.514
 157   1 H      0.061  0.939  0.000  0.000     2.184     2.311
 158   1 H      0.038  0.962  0.000  0.000     2.473     2.459
 159   1 H      0.061  0.939  0.000  0.000     2.186     2.312
 160   1 H      0.051  0.949  0.000  0.000     2.309     2.376
 161   1 H      0.050  0.950  0.000  0.000     2.325     2.385
 162   1 H      0.052  0.948  0.000  0.000     2.300     2.372
 163   7 N     -0.177  1.236  3.941  0.000    24.838     7.402
 164   6 C      0.031  1.049  2.920  0.000    20.042     6.371
 165   6 C      0.264  1.046  2.690  0.000    22.561     7.781
 166   8 O     -0.506  1.754  4.752  0.000    23.917     6.557
 167   6 C     -0.055  1.046  3.009  0.000    21.527     6.600
 168   6 C     -0.011  1.071  2.940  0.000    20.785     6.492
 169  16 S     -0.257  1.934  4.274  0.049   152.110    20.758
 170   6 C     -0.061  1.058  3.004  0.000    21.754     6.654
 171   1 H      0.196  0.804  0.000  0.000     1.125     1.662
 172   1 H      0.076  0.924  0.000  0.000     2.025     2.225
 173   1 H      0.052  0.948  0.000  0.000     2.297     2.370
 174   1 H      0.049  0.951  0.000  0.000     2.338     2.391
 175   1 H      0.058  0.942  0.000  0.000     2.218     2.329
 176   1 H      0.069  0.931  0.000  0.000     2.101     2.267
 177   1 H      0.062  0.938  0.000  0.000     2.177     2.308
 178   1 H      0.064  0.936  0.000  0.000     2.157     2.297
 179   1 H      0.065  0.935  0.000  0.000     2.137     2.286
 180   7 N     -0.101  1.237  3.864  0.000    23.224     7.157
 181   6 C      0.018  1.061  2.921  0.000    20.222     6.393
 182   6 C      0.261  1.051  2.688  0.000    22.604     7.786
 183   8 O     -0.474  1.741  4.734  0.000    23.219     6.461
 184   6 C     -0.089  1.058  3.032  0.000    22.168     6.697
 185   6 C     -0.074  1.049  3.024  0.000    21.877     6.654
 186   6 C     -0.002  1.045  2.956  0.000    20.614     6.465
 187   1 H      0.074  0.926  0.000  0.000     2.040     2.234
 188   1 H      0.096  0.904  0.000  0.000     1.821     2.110
 189   1 H      0.103  0.897  0.000  0.000     1.759     2.074
 190   1 H      0.086  0.914  0.000  0.000     1.922     2.168
 191   1 H      0.050  0.950  0.000  0.000     2.320     2.382
 192   1 H      0.072  0.928  0.000  0.000     2.068     2.249
 193   1 H      0.012  0.988  0.000  0.000     2.853     2.642
 194   7 N     -0.192  1.258  3.934  0.000    25.169     7.451
 195   6 C      0.007  1.068  2.925  0.000    20.446     6.435
 196   6 C      0.276  1.030  2.694  0.000    22.331     7.740
 197   8 O     -0.484  1.733  4.751  0.000    23.422     6.489
 198   6 C     -0.082  1.058  3.024  0.000    22.053     6.684
 199   6 C     -0.027  1.056  2.971  0.000    21.020     6.520
 200   6 C     -0.117  1.040  3.076  0.000    22.785     6.805
 201   6 C     -0.146  1.046  3.101  0.000    23.382     6.895
 202   1 H      0.217  0.783  0.000  0.000     1.021     1.583
 203   1 H      0.094  0.906  0.000  0.000     1.837     2.120
 204   1 H      0.051  0.949  0.000  0.000     2.312     2.378
 205   1 H      0.070  0.930  0.000  0.000     2.090     2.261
 206   1 H      0.055  0.945  0.000  0.000     2.258     2.350
 207   1 H      0.051  0.949  0.000  0.000     2.307     2.375
 208   1 H      0.027  0.973  0.000  0.000     2.625     2.533
 209   1 H      0.043  0.957  0.000  0.000     2.407     2.426
 210   1 H      0.078  0.922  0.000  0.000     1.999     2.211
 211   1 H      0.064  0.936  0.000  0.000     2.156     2.296
 212   1 H      0.057  0.943  0.000  0.000     2.234     2.337
 213   7 N     -0.179  1.240  3.938  0.000    24.868     7.406
 214   6 C      0.022  1.056  2.922  0.000    20.182     6.392
 215   6 C      0.275  1.043  2.682  0.000    22.348     7.742
 216   8 O     -0.501  1.753  4.748  0.000    23.799     6.541
 217   6 C     -0.015  1.057  2.958  0.000    20.809     6.487
 218   6 C     -0.070  1.054  3.016  0.000    21.834     6.652
 219   6 C     -0.111  1.036  3.075  0.000    22.663     6.786
 220   6 C     -0.110  1.038  3.073  0.000    22.672     6.790
 221   1 H      0.219  0.781  0.000  0.000     1.013     1.577
 222   1 H      0.076  0.924  0.000  0.000     2.022     2.224
 223   1 H      0.035  0.965  0.000  0.000     2.515     2.480
 224   1 H      0.046  0.954  0.000  0.000     2.365     2.405
 225   1 H      0.052  0.948  0.000  0.000     2.291     2.367
 226   1 H      0.043  0.957  0.000  0.000     2.404     2.425
 227   1 H      0.038  0.962  0.000  0.000     2.471     2.458
 228   1 H      0.044  0.956  0.000  0.000     2.392     2.419
 229   1 H      0.049  0.951  0.000  0.000     2.337     2.391
 230   1 H      0.040  0.960  0.000  0.000     2.455     2.450
 231   1 H      0.034  0.966  0.000  0.000     2.525     2.485
 232   7 N     -0.167  1.234  3.933  0.000    24.624     7.370
 233   6 C     -0.030  1.049  2.980  0.000    21.163     6.560
 234   6 C      0.272  1.042  2.686  0.000    22.402     7.750
 235   8 O     -0.506  1.751  4.755  0.000    23.920     6.557
 236   1 H      0.209  0.791  0.000  0.000     1.059     1.612
 237   1 H      0.089  0.911  0.000  0.000     1.892     2.151
 238   1 H      0.073  0.927  0.000  0.000     2.056     2.242
 239   7 N     -0.179  1.242  3.937  0.000    24.885     7.409
 240   6 C      0.020  1.062  2.918  0.000    20.251     6.408
 241   6 C      0.201  1.086  2.714  0.000    23.730     7.978
 242   8 O     -0.372  1.756  4.615  0.000    21.120     6.162
 243   6 C     -0.081  1.058  3.022  0.000    22.033     6.682
 244   6 C     -0.091  1.054  3.037  0.000    22.235     6.712
 245   6 C     -0.107  1.056  3.051  0.000    22.536     6.759
 246   6 C     -0.067  1.065  3.002  0.000    21.877     6.677
 247   7 N     -0.146  1.227  3.919  0.000    24.149     7.299
 248   1 H      0.238  0.762  0.000  0.000     0.932     1.512
 249   1 H      0.096  0.904  0.000  0.000     1.825     2.113
 250   1 H      0.077  0.923  0.000  0.000     2.013     2.219
 251   1 H      0.079  0.921  0.000  0.000     1.984     2.203
 252   1 H      0.059  0.941  0.000  0.000     2.213     2.326
 253   1 H      0.073  0.927  0.000  0.000     2.052     2.240
 254   1 H      0.098  0.902  0.000  0.000     1.803     2.100
 255   1 H      0.099  0.901  0.000  0.000     1.791     2.093
 256   1 H      0.118  0.882  0.000  0.000     1.631     1.997
 257   1 H      0.140  0.860  0.000  0.000     1.465     1.893
 258   1 H      0.299  0.701  0.000  0.000     0.718     1.327
 259   1 H      0.299  0.701  0.000  0.000     0.716     1.325
 260   1 H      0.287  0.713  0.000  0.000     0.755     1.361
 261   7 N     -0.386  1.316  4.069  0.000    29.976     8.131
 262   6 C      0.030  1.065  2.905  0.000    20.091     6.385
 263   6 C      0.199  1.094  2.707  0.000    23.764     7.983
 264   8 O     -0.377  1.760  4.618  0.000    21.232     6.178
 265   6 C     -0.020  1.071  2.950  0.000    20.901     6.503
 266   6 C     -0.063  1.053  3.010  0.000    21.713     6.633
 267   6 C     -0.119  1.035  3.084  0.000    22.829     6.812
 268   6 C     -0.111  1.039  3.073  0.000    22.695     6.794
 269   1 H      0.161  0.839  0.000  0.000     1.328     1.805
 270   1 H      0.052  0.948  0.000  0.000     2.291     2.367
 271   1 H      0.039  0.961  0.000  0.000     2.462     2.454
 272   1 H      0.046  0.954  0.000  0.000     2.375     2.410
 273   1 H      0.031  0.969  0.000  0.000     2.571     2.507
 274   1 H      0.051  0.949  0.000  0.000     2.305     2.374
 275   1 H      0.049  0.951  0.000  0.000     2.329     2.387
 276   1 H      0.039  0.961  0.000  0.000     2.457     2.451
 277   1 H      0.039  0.961  0.000  0.000     2.456     2.451
 278   1 H      0.033  0.967  0.000  0.000     2.545     2.495
 279   1 H      0.044  0.956  0.000  0.000     2.401     2.423
 280   7 N     -0.393  1.311  4.082  0.000    30.172     8.158
 281   6 C      0.041  1.052  2.908  0.000    19.904     6.354
 282   6 C      0.271  1.050  2.679  0.000    22.416     7.754
 283   8 O     -0.508  1.753  4.755  0.000    23.960     6.563
 284   6 C     -0.078  1.057  3.021  0.000    21.980     6.672
 285   6 C      0.004  1.085  2.911  0.000    27.932     8.669
 286   6 C     -0.037  1.078  2.958  0.000    28.911     8.818
 287   6 C     -0.047  1.082  2.965  0.000    29.167     8.857
 288   6 C     -0.031  1.079  2.952  0.000    28.777     8.797
 289   6 C     -0.039  1.082  2.958  0.000    28.974     8.827
 290   6 C     -0.036  1.079  2.957  0.000    28.899     8.816
 291   1 H      0.168  0.832  0.000  0.000     1.287     1.777
 292   1 H      0.029  0.971  0.000  0.000     2.605     2.524
 293   1 H      0.051  0.949  0.000  0.000     2.302     2.373
 294   1 H      0.059  0.941  0.000  0.000     2.214     2.327
 295   1 H      0.018  0.982  0.000  0.000     2.757     2.596
 296   1 H      0.039  0.961  0.000  0.000     2.462     2.454
 297   1 H      0.030  0.970  0.000  0.000     2.591     2.517
 298   1 H      0.059  0.941  0.000  0.000     2.211     2.325
 299   1 H      0.044  0.956  0.000  0.000     2.403     2.424
 300   7 N     -0.160  1.237  3.923  0.000    24.458     7.345
 301   6 C      0.034  1.053  2.913  0.000    19.997     6.366
 302   6 C      0.209  1.085  2.706  0.000    23.563     7.950
 303   8 O     -0.360  1.742  4.619  0.000    20.907     6.130
 304   6 C     -0.132  1.042  3.091  0.000    23.094     6.851
 305   1 H      0.209  0.791  0.000  0.000     1.061     1.613
 306   1 H      0.087  0.913  0.000  0.000     1.913     2.163
 307   1 H      0.092  0.908  0.000  0.000     1.863     2.134
 308   1 H      0.074  0.926  0.000  0.000     2.042     2.235
 309   1 H      0.063  0.937  0.000  0.000     2.161     2.299
 310   7 N     -0.395  1.313  4.081  0.000    30.230     8.166
 311   6 C      0.027  1.066  2.907  0.000    20.146     6.394
 312   6 C      0.276  1.051  2.674  0.000    22.342     7.741
 313   8 O     -0.521  1.757  4.764  0.000    24.255     6.603
 314   6 C     -0.021  1.067  2.954  0.000    20.922     6.506
 315   6 C     -0.058  1.049  3.009  0.000    21.613     6.619
 316   6 C     -0.104  1.035  3.069  0.000    22.540     6.770
 317   6 C     -0.113  1.037  3.076  0.000    22.727     6.798
 318   1 H      0.172  0.828  0.000  0.000     1.262     1.760
 319   1 H      0.031  0.969  0.000  0.000     2.567     2.506
 320   1 H      0.029  0.971  0.000  0.000     2.600     2.522
 321   1 H      0.028  0.972  0.000  0.000     2.609     2.526
 322   1 H      0.029  0.971  0.000  0.000     2.604     2.523
 323   1 H      0.057  0.943  0.000  0.000     2.230     2.336
 324   1 H      0.033  0.967  0.000  0.000     2.539     2.492
 325   1 H      0.036  0.964  0.000  0.000     2.500     2.473
 326   1 H      0.044  0.956  0.000  0.000     2.391     2.418
 327   1 H      0.040  0.960  0.000  0.000     2.447     2.446
 328   1 H      0.053  0.947  0.000  0.000     2.277     2.360
 329   7 N     -0.171  1.242  3.930  0.000    24.708     7.382
 330   6 C      0.034  1.058  2.907  0.000    19.989     6.364
 331   6 C      0.214  1.084  2.702  0.000    23.475     7.935
 332   8 O     -0.380  1.761  4.618  0.000    21.281     6.185
 333   6 C     -0.081  1.059  3.022  0.000    22.040     6.683
 334   6 C      0.012  1.082  2.906  0.000    27.745     8.640
 335   6 C     -0.039  1.079  2.960  0.000    28.972     8.827
 336   6 C     -0.033  1.079  2.954  0.000    28.830     8.806
 337   6 C     -0.034  1.078  2.956  0.000    28.836     8.806
 338   6 C     -0.029  1.075  2.953  0.000    28.714     8.787
 339   6 C     -0.035  1.078  2.957  0.000    28.866     8.811
 340   1 H      0.225  0.775  0.000  0.000     0.986     1.555
 341   1 H      0.085  0.915  0.000  0.000     1.925     2.170
 342   1 H      0.083  0.917  0.000  0.000     1.945     2.181
 343   1 H      0.075  0.925  0.000  0.000     2.028     2.227
 344   1 H      0.046  0.954  0.000  0.000     2.369     2.407
 345   1 H      0.026  0.974  0.000  0.000     2.648     2.545
 346   1 H      0.039  0.961  0.000  0.000     2.457     2.451
 347   1 H      0.032  0.968  0.000  0.000     2.560     2.502
 348   1 H      0.033  0.967  0.000  0.000     2.545     2.495
 349   7 N     -0.382  1.314  4.069  0.000    29.886     8.119
 350   6 C      0.015  1.060  2.925  0.000    20.335     6.422
 351   6 C      0.275  1.046  2.679  0.000    22.343     7.740
 352   8 O     -0.465  1.755  4.711  0.000    23.025     6.433
 353   6 C     -0.087  1.055  3.032  0.000    22.148     6.700
 354   6 C     -0.077  1.048  3.029  0.000    21.953     6.669
 355   6 C     -0.105  1.054  3.052  0.000    22.509     6.754
 356   6 C     -0.068  1.068  2.999  0.000    21.882     6.675
 357   7 N     -0.126  1.224  3.902  0.000    23.737     7.236
 358   1 H      0.146  0.854  0.000  0.000     1.426     1.871
 359   1 H      0.071  0.929  0.000  0.000     2.074     2.252
 360   1 H      0.038  0.962  0.000  0.000     2.473     2.459
 361   1 H      0.041  0.959  0.000  0.000     2.437     2.441
 362   1 H      0.064  0.936  0.000  0.000     2.154     2.295
 363   1 H      0.064  0.936  0.000  0.000     2.152     2.294
 364   1 H      0.081  0.919  0.000  0.000     1.972     2.196
 365   1 H      0.085  0.915  0.000  0.000     1.933     2.174
 366   1 H      0.127  0.873  0.000  0.000     1.561     1.954
 367   1 H      0.127  0.873  0.000  0.000     1.561     1.954
 368   1 H      0.297  0.703  0.000  0.000     0.723     1.332
 369   1 H      0.260  0.740  0.000  0.000     0.845     1.440
 370   1 H      0.287  0.713  0.000  0.000     0.753     1.359
 371   7 N     -0.190  1.251  3.939  0.000    25.118     7.443
 372   6 C      0.022  1.057  2.921  0.000    20.226     6.406
 373   6 C      0.191  1.094  2.715  0.000    23.909     8.007
 374   8 O     -0.341  1.742  4.600  0.000    20.541     6.076
 375   6 C     -0.061  1.054  3.006  0.000    21.657     6.624
 376   6 C      0.006  1.079  2.914  0.000    27.883     8.661
 377   6 C     -0.036  1.083  2.953  0.000    28.907     8.817
 378   6 C     -0.036  1.082  2.954  0.000    28.892     8.814
 379   6 C     -0.056  1.077  2.979  0.000    29.392     8.890
 380   6 C     -0.072  1.082  2.990  0.000    29.789     8.950
 381   6 C      0.141  1.050  2.810  0.000    24.931     8.182
 382   8 O     -0.446  1.727  4.719  0.000    21.759     6.297
 383   1 H      0.201  0.799  0.000  0.000     1.099     1.642
 384   1 H      0.085  0.915  0.000  0.000     1.930     2.172
 385   1 H      0.051  0.949  0.000  0.000     2.312     2.378
 386   1 H      0.046  0.954  0.000  0.000     2.371     2.408
 387   1 H      0.039  0.961  0.000  0.000     2.462     2.454
 388   1 H      0.046  0.954  0.000  0.000     2.364     2.404
 389   1 H      0.043  0.957  0.000  0.000     2.411     2.428
 390   1 H      0.041  0.959  0.000  0.000     2.433     2.439
 391   1 H      0.348  0.652  0.000  0.000     0.592     1.209
 392   7 N     -0.384  1.324  4.060  0.000    29.921     8.124
 393   6 C      0.032  1.058  2.910  0.000    20.049     6.379
 394   6 C      0.204  1.090  2.706  0.000    23.669     7.969
 395   8 O     -0.397  1.762  4.635  0.000    21.628     6.235
 396   6 C     -0.078  1.062  3.016  0.000    21.967     6.669
 397   6 C      0.008  1.089  2.903  0.000    27.851     8.656
 398   6 C     -0.040  1.078  2.962  0.000    28.987     8.830
 399   6 C     -0.041  1.083  2.957  0.000    29.015     8.834
 400   6 C     -0.033  1.078  2.955  0.000    28.827     8.805
 401   6 C     -0.032  1.082  2.950  0.000    28.798     8.801
 402   6 C     -0.034  1.078  2.957  0.000    28.851     8.808
 403   1 H      0.160  0.840  0.000  0.000     1.335     1.810
 404   1 H      0.056  0.944  0.000  0.000     2.245     2.343
 405   1 H      0.081  0.919  0.000  0.000     1.969     2.194
 406   1 H      0.066  0.934  0.000  0.000     2.135     2.285
 407   1 H      0.022  0.978  0.000  0.000     2.710     2.574
 408   1 H      0.039  0.961  0.000  0.000     2.458     2.452
 409   1 H      0.034  0.966  0.000  0.000     2.536     2.491
 410   1 H      0.038  0.962  0.000  0.000     2.471     2.458
 411   1 H      0.042  0.958  0.000  0.000     2.427     2.436
 412   1 H      0.169  0.831  0.000  0.000     1.276     1.769
 413   1 H      0.072  0.928  0.000  0.000     2.067     2.248
 414   1 H      0.184  0.816  0.000  0.000     1.190     1.708
 415   1 H      0.079  0.921  0.000  0.000     1.992     2.207
 416   1 H      0.178  0.822  0.000  0.000     1.225     1.733
 417   1 H      0.069  0.931  0.000  0.000     2.101     2.267
 418   1 H      0.174  0.826  0.000  0.000     1.250     1.751
 419   1 H      0.065  0.935  0.000  0.000     2.137     2.286
 420   1 H      0.210  0.790  0.000  0.000     1.055     1.609
 421   1 H      0.083  0.917  0.000  0.000     1.943     2.180
 422   1 H      0.180  0.820  0.000  0.000     1.215     1.727
 423   1 H      0.074  0.926  0.000  0.000     2.042     2.234

 Mol. C6AA /au·bohr⁶  :    1630464.923699
 Mol. C8AA /au·bohr⁸  :   36945085.508400
 Mol. α(0) /au        :       1925.411096

 
molecular dipole:
                 x           y           z       tot (Debye)
 q only:      118.612      60.300      23.186
   full:      117.098      56.040      21.808     334.593
molecular quadrupole (traceless):
                xx          xy          yy          xz          yz          zz
 q only:    12417.235   10939.037   -4246.194    4163.308    1855.254   -8171.042
  q+dip:    12222.240   10149.897   -4349.299    3867.866    1694.566   -7872.941
   full:    12215.200   10148.177   -4345.621    3867.922    1696.983   -7869.579
speedup  1.95
cpu  time for grad   28.63 s
wall time for grad   14.67 s

SCC energy    :    -620.7978117
rep           :       7.9315991
ES            :       1.6262508
AES           :      -0.0741196
AXC           :       0.2410707
disp          :      -0.5599779
XB            :       0.0000000
fix           :       0.0000000
Gborn         :       0.0000000
Gsasa         :       0.0000000
Ghb           :       0.0000000
Gshift        :       0.0000000
Gsolv         :      -0.4685593     -294.03
Etot ala COSMO:    -620.7978117
grad norm     :       0.5754489
total E       :    -612.8086988
atomizationE  :     116.9346019    73377.57
(atE without considering molecular charge,
 total energy contains solvation terms)
H-L gap (eV)  :          1.5656

------------------------------------------------------------------------
 * finished run on 2019/05/09 at 17:01:08.609     
------------------------------------------------------------------------
 total:
 * wall-time:     0 d,  0 h,  0 min, 15.302 sec
 *  cpu-time:     0 d,  0 h,  0 min, 29.756 sec
 * ratio c/w:     1.945 speedup
 SCF:
 * wall-time:     0 d,  0 h,  0 min, 15.082 sec
 *  cpu-time:     0 d,  0 h,  0 min, 29.461 sec
 * ratio c/w:     1.953 speedup

