      -----------------------------------------------------------      
     |                   =====================                   |     
     |                           x T B                           |     
     |                   =====================                   |     
     |                         S. Grimme                         |     
     |          Mulliken Center for Theoretical Chemistry        |     
     |                    University of Bonn                     |     
     |                 Version 6.0.1 (SAW181210)                 |     
      -----------------------------------------------------------      

   This program is distributed in the hope that it will be useful,
   but WITHOUT ANY WARRANTY; without even the implied warranty of
   MERCHANTABILITY or FITNESS FOR A PARTICULAR PURPOSE.
   
   FOR NON-COMMERCIAL, ACADEMIA USE ONLY.
   
   Cite this work as:
   S. Grimme, C. Bannwarth, P. Shushkov, J. Comput. Theory Chem., 2017,
   13, 1989-2009.
   C. Bannwarth, S. Ehlert and S. Grimme., ChemRxiv, 2018, preprint.
   http://doi.org/10.26434/chemrxiv.7246238.v1
   
   for sTDA-xTB:
   S. Grimme and C. Bannwarth, J. Chem. Phys., 2016, 145, 054103.
   
   in the mass-spec context:
   V. Asgeirsson, C. Bauer and S. Grimme, Chem. Sci., 2017, 8, 4879.
   
   if GBSA is used:
   P. Shushkov, F. März and S. Grimme, unpublished.
   
   for ANC optimizer:
   S. Grimme, unpublished.
   Rational Function algorithm used in ANCopt:
   F. Eckert, P. Pulay, H.-J. Werner, J. Comput. Chem., 1997, 18, 1473.
   
   with help from (in alphabetical order)
   C. Bannwarth, F. Bohle, G. Brandenburg, E. Caldeweyher, M. Checinski,
   S. Dohm, S. Ehlert, S. Ehrlich, F. März, H. Neugebauer, J. Pisarek,
   P. Pracht, P. Shushkov, and S. Spicher.
   
 * started run on 2019/05/07 at 05:44:13.957     
========================================================================
 # omp threads = 2
========================================================================
number of atoms            : 209
number of electrons        : 614
charge                     : -6
spin                       : .0
first test random number   : .3660

########################################################################
# WARNING! Please study the warnings concerning your input carefully
#  - Process number higher than OMP_NUM_THREADS, I hope you know what you are doing.
########################################################################

           ------------------------------------------------- 
          |                 G F N 2 - x T B                 |
          | Geometry, Frequencies, Noncovalent interactions |
          |            JCTC 2018 parametrisation            |
           ------------------------------------------------- 
 
      method parameters     
 k(s)        :  1.8500
 k(p)        :  2.2300
 k(d)        :  2.2300
 k(f)        :  2.0000
 kEN (H0ij)  : -2.0000
 D4 a1       :  0.5200
 D4 a2       :  5.0000
 D4 s6       :  1.0000
 D4 s8       :  2.7000
 D4 s9       :  5.0000
 alphaj      :  2.0000

 Solvent             : h2o
 Using internal parameter file: .param_gbsa2_h2o
 Gsolv ref. state (COSMO-RS): gsolv [1 M gas/solution]
 temperature (mdtemp)       :    298.150000000000     
 dielectric constant        :    80.2000000000000     
 rho                        :    1.00000000000000     
 mass                       :    18.0000000000000     
 surface tension            :    15.5689454083859     
 probe radius               :   0.975313790000000     
 vdW radii scaling          :    1.00000000000000     
 Gshift (Eh)                :   1.857443126794793E-003
 c1                         :    1.55243817000000     
 soset                      :   0.130326360000000     
 HB correction              :  T

            Z     q(EN)     CN     RAES       Cart. coordinates
     1  N   5.0   -0.27    3.25    1.97     4.60715    92.15816   165.40960
     2  C   4.0    0.01    4.34    4.27     7.28111    92.46051   164.79733
     3  C   4.0    0.14    3.46    3.10     7.75921    92.10335   161.98353
     4  O   6.0   -0.32    1.28    1.80     9.17462    93.56978   160.83458
     5  C   4.0   -0.13    4.24    4.07     8.87226    90.59913   166.27132
     6  H   1.0    0.06    1.08    1.44     4.19708    90.73141   166.07479
     7  H   1.0    0.02    1.13    1.45     7.78567    94.15560   165.28110
     8  H   1.0    0.02    1.06    1.44    10.62593    90.79377   165.77810
     9  H   1.0   -0.01    1.06    1.44     8.68329    90.94117   168.06278
    10  H   1.0    0.01    1.06    1.44     8.30157    88.89838   165.89526
    11  N   5.0   -0.17    3.50    2.08     6.53467    90.22686   160.82324
    12  C   4.0    0.03    4.58    4.64     7.00710    89.64293   158.17195
    13  C   4.0    0.16    3.50    3.11     6.62727    91.94273   156.49576
    14  O   6.0   -0.29    1.29    1.80     4.71109    93.28065   156.68474
    15  C   4.0   -0.07    4.16    3.93     5.35359    87.43195   157.35370
    16  S   6.0   -0.18    2.28    3.10     7.20175    84.40839   157.45197
    17  H   1.0    0.07    1.13    1.45     5.42540    89.27254   161.52999
    18  H   1.0    0.04    1.17    1.46     8.75699    89.14026   157.96597
    19  H   1.0    0.02    1.13    1.45     3.92307    87.28266   158.48943
    20  H   1.0    0.03    1.13    1.45     4.76778    87.70596   155.63972
    21  H   1.0   -0.00    1.00    1.43     5.85626    82.74732   158.20786
    22  N   5.0   -0.16    3.51    2.08     8.51699    92.36225   154.85548
    23  C   4.0    0.03    4.57    4.63     8.85904    94.71495   153.47409
    24  C   4.0    0.16    3.56    3.14     6.38160    95.72218   152.47065
    25  O   6.0   -0.29    1.30    1.80     4.58259    94.31433   152.02845
    26  C   4.0   -0.04    4.43    4.44    10.65050    94.40882   151.19697
    27  C   4.0   -0.09    4.26    4.13    11.71063    96.94294   150.36549
    28  C   4.0   -0.08    4.34    4.28    12.82557    92.67216   151.74688
    29  H   1.0    0.08    1.15    1.45     9.65839    91.26054   154.50777
    30  H   1.0    0.05    1.13    1.45     9.55067    95.89225   154.69675
    31  H   1.0    0.04    1.14    1.45     9.64327    93.67372   149.85338
    32  H   1.0    0.03    1.06    1.44    12.97108    96.66326   149.06347
    33  H   1.0    0.06    1.06    1.44    10.34625    97.97095   149.70220
    34  H   1.0    0.05    1.06    1.44    12.47597    97.77253   151.80924
    35  H   1.0    0.03    1.06    1.44    13.96130    92.66271   150.30880
    36  H   1.0    0.07    1.08    1.44    13.70996    93.27498   153.23599
    37  H   1.0    0.04    1.08    1.44    12.18117    90.98275   152.04357
    38  N   5.0   -0.17    3.53    2.10     6.29846    98.16370   152.04924
    39  C   4.0    0.04    4.56    4.62     4.64306    99.20116   150.12550
    40  C   4.0    0.16    3.51    3.12     5.45375   101.92426   149.69653
    41  O   6.0   -0.29    1.24    1.80     5.04179   103.59667   151.28201
    42  C   4.0   -0.03    4.40    4.38     1.86705    99.04999   150.82659
    43  C   4.0    0.16    3.29    3.05     0.18141   100.10445   148.69876
    44  O   6.0   -0.29    1.22    1.80     0.99211   100.21028   146.49345
    45  N   5.0   -0.24    3.21    1.96    -2.17318   100.80932   149.33181
    46  H   1.0    0.10    1.14    1.45     7.18096    99.26919   152.84859
    47  H   1.0    0.05    1.14    1.45     4.77912    98.22040   148.58348
    48  H   1.0    0.06    1.09    1.44     1.40785    97.30010   151.11571
    49  H   1.0    0.06    1.10    1.44     1.57036   100.03642   152.34404
    50  H   1.0    0.12    1.08    1.44    -3.17474   101.40836   148.20176
    51  H   1.0    0.10    1.09    1.44    -2.67963   100.66381   150.87005
    52  N   5.0   -0.15    3.59    2.15     6.68963   102.35701   147.59138
    53  C   4.0    0.04    4.53    4.58     7.64961   104.83822   146.94320
    54  C   4.0    0.15    3.47    3.10     5.85437   106.28197   145.22733
    55  O   6.0   -0.33    1.25    1.80     6.25688   108.52696   144.77946
    56  C   4.0   -0.06    4.41    4.39    10.26121   104.48862   145.75834
    57  C   4.0    0.14    3.34    3.06    11.86370   102.65936   147.29091
    58  O   6.0   -0.32    1.21    1.80    11.76354   102.61212   149.65685
    59  N   5.0   -0.28    3.23    1.96    13.29044   101.08144   145.95865
    60  H   1.0    0.09    1.14    1.45     7.00710   101.22128   146.47266
    61  H   1.0    0.06    1.14    1.45     7.86882   105.89835   148.42475
    62  H   1.0    0.03    1.10    1.44    10.07602   103.81587   144.06326
    63  H   1.0    0.03    1.09    1.44    11.12482   106.10433   145.69976
    64  H   1.0    0.09    1.09    1.44    14.23720   100.00241   146.72021
    65  H   1.0    0.07    1.09    1.44    13.26777   101.13813   144.33538
    66  N   5.0   -0.16    3.55    2.12     3.85882   105.07254   144.30514
    67  C   4.0    0.04    4.51    4.54     1.89728   106.52952   143.06548
    68  C   4.0    0.15    3.44    3.09     0.39684   108.06209   144.98355
    69  O   6.0   -0.32    1.23    1.80    -0.51967   110.09732   144.33538
    70  C   4.0   -0.03    4.33    4.26     0.13795   104.81932   141.50268
    71  C   4.0    0.24    3.14    3.03     1.53824   102.81810   139.92476
    72  O   6.0   -0.33    1.16    1.80     2.86105   103.56265   138.08983
    73  O   6.0   -0.29    1.16    1.80     1.23966   100.52019   140.48223
    74  H   1.0    0.11    1.14    1.45     3.60938   103.46816   144.37317
    75  H   1.0    0.06    1.13    1.45     2.68530   107.68603   141.88251
    76  H   1.0    0.07    1.09    1.44    -0.99400   103.93871   142.64218
    77  H   1.0    0.05    1.09    1.44    -0.82581   105.86623   140.34617
    78  N   5.0   -0.15    3.46    2.05     0.09071   107.14368   147.33815
    79  C   4.0    0.03    4.37    4.33    -1.68186   108.33043   149.10694
    80  C   4.0    0.05    3.21    3.04    -0.58393   108.70082   151.75633
    81  O   6.0   -0.30    1.13    1.80     0.81069   107.08510   152.69553
    82  C   4.0   -0.05    4.39    4.36    -4.14039   106.77330   149.37528
    83  C   4.0   -0.04    4.29    4.19    -5.91484   106.81298   147.20020
    84  C   4.0    0.24    3.15    3.03    -8.47542   105.62812   147.80869
    85  O   6.0   -0.33    1.17    1.80   -10.02122   106.86778   149.10127
    86  O   6.0   -0.29    1.19    1.80    -8.94218   103.46628   146.97722
    87  H   1.0    0.12    1.12    1.45     0.88250   105.85489   147.93531
    88  H   1.0    0.04    1.14    1.45    -2.02768   109.99717   148.42852
    89  H   1.0    0.05    1.11    1.45    -3.67552   105.02152   149.65118
    90  H   1.0    0.04    1.11    1.44    -5.06069   107.41391   150.82470
    91  H   1.0    0.05    1.10    1.44    -6.20208   108.55153   146.69943
    92  H   1.0    0.07    1.10    1.44    -5.17407   105.87379   145.81125
    93  N   5.0   -0.28    3.25    1.97    -9.44107   106.41236   157.03056
    94  C   4.0    0.02    4.28    4.16    -9.86437   103.69304   157.34614
    95  C   4.0    0.03    3.19    3.03   -11.27788   103.07132   159.82168
    96  O   6.0   -0.39    1.11    1.80   -12.94084   101.44805   159.85003
    97  C   4.0   -0.07    4.41    4.39    -7.30001   102.33433   157.32346
    98  C   4.0   -0.06    4.30    4.20    -5.53879   103.07510   155.26555
    99  C   4.0   -0.03    4.27    4.15    -2.71176   102.50440   155.95152
   100  N   5.0   -0.18    3.42    2.03    -2.22232    99.80399   156.41829
   101  C   4.0    0.10    3.46    3.10     0.04346    98.75519   156.83403
   102  N   5.0   -0.25    3.31    1.98     2.12405   100.17059   156.83214
   103  N   5.0   -0.25    3.29    1.98     0.21732    96.25886   157.21764
   104  H   1.0    0.09    1.10    1.44    -7.86882   106.78463   156.85670
   105  H   1.0    0.04    1.12    1.45   -10.89994   103.09967   155.95530
   106  H   1.0    0.02    1.11    1.44    -6.45341   102.68204   158.91083
   107  H   1.0    0.03    1.10    1.44    -7.60426   100.53531   157.15528
   108  H   1.0    0.04    1.09    1.44    -5.95831   102.13591   153.74810
   109  H   1.0    0.04    1.10    1.44    -5.69941   104.87412   154.95375
   110  H   1.0    0.05    1.08    1.44    -1.64217   103.03920   154.56258
   111  H   1.0    0.03    1.08    1.44    -2.26956   103.42659   157.47275
   112  H   1.0    0.08    1.14    1.45    -3.50922    98.81188   156.42396
   113  H   1.0    0.11    1.09    1.44     2.01823   101.76930   156.56191
   114  H   1.0    0.11    1.09    1.44     3.57158    99.48462   157.10048
   115  H   1.0    0.09    1.09    1.44    -1.12250    95.33856   157.19496
   116  H   1.0    0.13    1.11    1.44     1.66674    95.57667   157.48409
   117  N   5.0   -0.30    3.24    1.97    22.59356   102.38913   162.69785
   118  C   4.0    0.01    4.32    4.23    23.47229   102.40803   160.09569
   119  C   4.0    0.02    3.20    3.04    25.25430   104.62090   159.61570
   120  O   6.0   -0.40    1.11    1.80    27.04198   104.34878   158.12849
   121  C   4.0   -0.08    4.36    4.31    21.19139   102.33055   158.34959
   122  C   4.0   -0.07    4.33    4.25    20.39392    99.54887   157.89416
   123  C   4.0   -0.03    4.33    4.25    18.27176    99.28998   155.98554
   124  N   5.0   -0.17    3.47    2.06    15.88504    99.15770   157.35937
   125  C   4.0    0.10    3.49    3.11    15.05545    97.09223   158.53100
   126  N   5.0   -0.25    3.32    1.99    16.36503    94.93416   158.43273
   127  N   5.0   -0.25    3.31    1.99    12.88037    97.16593   159.75743
   128  H   1.0    0.07    1.08    1.44    21.02509   102.75763   162.91516
   129  H   1.0    0.02    1.14    1.45    24.45683   100.91137   159.71019
   130  H   1.0    0.02    1.09    1.44    19.79110   103.23006   159.11870
   131  H   1.0    0.02    1.09    1.44    21.61846   103.09589   156.73954
   132  H   1.0    0.02    1.09    1.44    21.83767    98.60968   157.26488
   133  H   1.0    0.03    1.10    1.44    19.81945    98.82700   159.47775
   134  H   1.0    0.03    1.09    1.44    18.24530   100.74507   154.87249
   135  H   1.0    0.03    1.09    1.44    18.48908    97.75552   155.00666
   136  H   1.0    0.08    1.13    1.45    14.95907   100.49185   157.41417
   137  H   1.0    0.10    1.09    1.44    17.76153    94.86991   157.60692
   138  H   1.0    0.10    1.09    1.44    15.80945    93.61135   159.19807
   139  H   1.0    0.09    1.09    1.44    12.01488    98.54165   159.79334
   140  H   1.0    0.12    1.11    1.45    12.33046    95.84123   160.51899
   141  N   5.0   -0.30    3.28    1.98    22.67860    83.91706   155.76633
   142  C   4.0    0.01    4.33    4.26    22.46506    85.48931   153.52134
   143  C   4.0    0.02    3.21    3.04    25.04265    86.39827   152.63694
   144  O   6.0   -0.40    1.11    1.80    25.61901    86.30378   150.38061
   145  C   4.0   -0.07    4.41    4.40    20.69817    87.67006   154.13172
   146  C   4.0   -0.06    4.40    4.37    18.21507    86.66661   155.16351
   147  C   4.0    0.13    3.32    3.06    16.01165    88.29178   154.47376
   148  O   6.0   -0.33    1.27    1.80    16.05133    90.56701   154.97265
   149  N   5.0   -0.27    3.24    1.96    14.03310    87.14282   153.35882
   150  H   1.0    0.07    1.10    1.44    21.62413    84.29501   156.94174
   151  H   1.0    0.02    1.13    1.45    21.74886    84.54067   152.12672
   152  H   1.0    0.03    1.09    1.44    21.46918    88.75098   155.39594
   153  H   1.0    0.03    1.10    1.44    20.35802    88.63193   152.60860
   154  H   1.0    0.01    1.11    1.45    17.91838    84.99042   154.48321
   155  H   1.0    0.02    1.10    1.44    18.31333    86.59102   156.99276
   156  H   1.0    0.07    1.09    1.44    14.07657    85.54411   153.07536
   157  H   1.0    0.10    1.09    1.44    12.72541    88.01021   152.93174
   158  N   5.0   -0.29    2.34    1.90   -11.50666    98.74845   142.73857
   159  C   4.0    0.07    4.38    4.35    -8.83719    99.36966   142.63086
   160  C   4.0    0.15    3.45    3.10    -8.31205   102.02535   141.68977
   161  O   6.0   -0.30    1.24    1.80    -6.09088   102.66754   141.40442
   162  C   4.0   -0.04    4.45    4.46    -7.55713    97.53522   140.86396
   163  C   4.0    0.23    3.23    3.04    -8.60688    94.92710   141.15309
   164  O   6.0   -0.33    1.19    1.80    -8.27205    93.84787   143.21856
   165  O   6.0   -0.36    1.17    1.80    -9.93068    94.04394   139.38431
   166  H   1.0    0.13    1.07    1.44   -12.11887    98.28145   141.30805
   167  H   1.0    0.07    1.13    1.45    -8.13276    99.22917   144.31649
   168  H   1.0    0.04    1.11    1.44    -7.81936    98.07502   139.13297
   169  H   1.0    0.05    1.10    1.44    -5.76379    97.48176   141.23813
   170  N   5.0   -0.15    3.49    2.07   -10.26458   103.54542   141.14175
   171  C   4.0    0.06    4.39    4.36    -9.96703   106.14704   140.25547
   172  C   4.0    0.05    2.25    3.00   -12.26007   107.73495   140.99813
   173  O   6.0   -0.33    1.09    1.80   -14.42624   106.81007   140.99057
   174  C   4.0   -0.05    4.42    4.41    -9.68999   106.24894   137.38876
   175  C   4.0   -0.04    4.30    4.21    -7.29347   105.21443   136.37208
   176  C   4.0    0.23    3.14    3.03    -7.03930   105.65466   133.51104
   177  O   6.0   -0.32    1.16    1.80    -6.24803   107.75084   132.72680
   178  O   6.0   -0.35    1.16    1.80    -7.66382   103.89644   132.04272
   179  H   1.0    0.10    1.14    1.45   -11.82061   103.09528   141.27592
   180  H   1.0    0.08    1.14    1.45    -8.48111   106.85368   141.06049
   181  H   1.0    0.04    1.10    1.44   -11.06079   105.28816   136.64231
   182  H   1.0    0.05    1.11    1.44    -9.79306   108.00172   136.86152
   183  H   1.0    0.06    1.10    1.44    -5.88041   106.03297   137.20356
   184  H   1.0    0.05    1.10    1.44    -7.23940   103.40701   136.67822
   185  N   5.0   -0.36    2.27    1.90   -10.61155   117.21565   136.14910
   186  C   4.0    0.06    4.21    4.01    -8.40571   116.20613   134.82818
   187  C   4.0    0.01    2.22    3.00    -9.14672   114.97558   132.31484
   188  O   6.0   -0.36    1.08    1.80    -7.82649   115.31965   130.40433
   189  C   4.0   -0.05    4.41    4.40    -7.13256   114.24257   136.48925
   190  C   4.0   -0.07    4.32    4.24    -6.68511   115.08182   139.21612
   191  C   4.0    0.14    3.28    3.05    -6.68181   112.82365   141.04538
   192  O   6.0   -0.31    1.26    1.80    -7.63670   110.72375   140.45011
   193  N   5.0   -0.26    3.22    1.96    -5.67922   113.26383   143.29793
   194  H   1.0    0.12    1.08    1.44   -10.75676   116.71469   137.68922
   195  H   1.0    0.02    1.12    1.45    -7.24285   117.58154   134.48992
   196  H   1.0    0.06    1.11    1.44    -8.18767   112.74387   136.53649
   197  H   1.0    0.04    1.09    1.44    -5.50018   113.83472   135.76170
   198  H   1.0    0.02    1.09    1.44    -5.06171   115.92075   139.33328
   199  H   1.0    0.02    1.10    1.44    -8.02331   116.22975   139.72068
   200  H   1.0    0.08    1.09    1.44    -5.08620   114.73694   143.64942
   201  H   1.0    0.11    1.09    1.44    -5.62004   112.07754   144.40531
   202  H   1.0    0.05    1.08    1.44     4.14047    93.35674   166.52233
   203  H   1.0    0.02    1.04    1.43    -0.99515   110.26112   152.73989
   204  H   1.0    0.08    1.08    1.44   -10.26226   106.95767   155.64461
   205  H   1.0    0.01    1.04    1.43   -10.84306   103.99060   161.41445
   206  H   1.0    0.06    1.08    1.44    22.81445   100.83840   163.36041
   207  H   1.0    0.00    1.04    1.43    24.97335   106.26868   160.49716
   208  H   1.0    0.05    1.08    1.44    22.40207    82.29155   155.34943
   209  H   1.0    0.01    1.04    1.44    26.28486    87.07889   153.88783

  Z AO/shell   Hii/eV     exponent
  1     Wed Apr 25 08:07:45 CEST 2018   EN: 2.200 GM2: 0.406  GM3: 0.0800  RAES: 1.40
     1s    -10.707211    1.230000
  6     Wed Apr 25 08:07:45 CEST 2018   EN: 2.550 GM2: 0.538  GM3: 0.1500  RAES: 3.00
     2s    -13.970922    2.096432
     2p    -10.063292    1.800000
  7     Wed Apr 25 08:07:45 CEST 2018   EN: 3.040 GM2: 0.461  GM3:-0.0640  RAES: 1.90
     2s    -16.686243    2.339881
     2p    -12.523956    2.014332
  8     Wed Apr 25 08:07:45 CEST 2018   EN: 3.440 GM2: 0.452  GM3:-0.0517  RAES: 1.80
     2s    -20.229985    2.439742
     2p    -15.503117    2.137023
 16     Tue Apr 24 11:44:34 CEST 2018   EN: 2.580 GM2: 0.340  GM3:-0.0502  RAES: 3.10
     3s    -20.029654    1.981333
     3p    -11.377694    2.025643
     3d     -0.420282    1.702555
 no old-style atom pair restraining (fixing) potential

molecular fragmentation (1/2 indicates fragments):
111111111111111111111111111111111111111111111111111111111111111111111111
111111111111111111112222222222222222222222222222222222222222222222222222
22222222222222222222222222222222222222222222222222222222211222222
# atoms in fragment 1/2:    94   115
 fragment masses (1/2) :      745.76      818.89
CMA distance (Bohr)    :   3.396
constraining FC (au)   :  0.0500
           ------------------------------------------------- 
          |        Self-Consistent Charge Iterations        |
           ------------------------------------------------- 

 Ncao       : 539
 Nao        : 538
 Nshell     : 318
 Nel        : 614
 T(el)      :   500.0
 intcut     :    35.0
 scfconv/Eh :  0.100E-06
   qconv/e  :  0.100E-04
 intneglect :  0.100E-08
 broydamp   :      0.400
 iter      E             dE          RMSdq      gap      omega  full diag
   1   -355.2464636 -0.355246E+03  0.542E+00    0.96       0.0  T
   2   -353.4804733  0.176599E+01  0.420E+00    0.28       1.0  T
   3   -355.9515125 -0.247104E+01  0.268E+00    0.12       1.0  T
   4   -356.6286918 -0.677179E+00  0.174E+00    1.06       1.0  T
   5   -356.6844194 -0.557275E-01  0.123E+00    0.66       1.0  T
   6   -356.4409966  0.243423E+00  0.143E+00    0.33       1.0  T
   7   -356.7060940 -0.265097E+00  0.965E-01    0.03       1.0  T
   8   -356.5641864  0.141908E+00  0.123E+00    0.22       1.0  T
   9   -356.7594015 -0.195215E+00  0.825E-01    0.07       1.0  T
  10   -356.3025021  0.456899E+00  0.165E+00    0.05       1.0  T
  11   -356.7977590 -0.495257E+00  0.689E-01    0.19       1.0  T
  12   -355.9026078  0.895151E+00  0.212E+00    0.00       1.0  T
  13   -356.4576476 -0.555040E+00  0.137E+00    0.01       1.0  T
  14   -356.8039185 -0.346271E+00  0.647E-01    0.05       1.0  T
  15   -356.3372754  0.466643E+00  0.164E+00    0.12       1.0  T
  16   -356.4285270 -0.912516E-01  0.138E+00    0.05       1.0  T
  17   -356.8094743 -0.380947E+00  0.625E-01    0.12       1.0  T
  18   -356.8734849 -0.640106E-01  0.403E-01    0.07       1.0  T
  19   -356.8363959  0.370890E-01  0.530E-01    0.04       1.0  T
  20   -356.9125126 -0.761167E-01  0.132E-01    0.07       1.0  T
  21   -356.9111654  0.134723E-02  0.146E-01    0.03       1.0  T
  22   -356.9164515 -0.528609E-02  0.303E-02    0.06       1.0  T
  23   -356.9166155 -0.163978E-03  0.169E-02    0.06       1.0  T
  24   -356.9166481 -0.325825E-04  0.116E-02    0.06       1.0  T
  25   -356.9166516 -0.358706E-05  0.955E-03    0.06       1.0  T
  26   -356.9166665 -0.148508E-04  0.644E-03    0.06       1.1  T
  27   -356.9166700 -0.349861E-05  0.522E-03    0.06       1.3  T
  28   -356.9166683  0.169853E-05  0.545E-03    0.06       1.3  T
  29   -356.9166753 -0.704518E-05  0.214E-03    0.06       3.2  T
  30   -356.9166763 -0.982228E-06  0.962E-04    0.06       7.2  T
  31   -356.9166765 -0.214239E-06  0.261E-04    0.06      26.5  T
  32   -356.9166765 -0.154965E-07  0.963E-05    0.06      71.8  T
  33   -356.9166765 -0.169098E-08  0.543E-05    0.06     127.3  T
speedup  1.80
cpu  time for SCC    5.37 s
wall time for SCC    2.98 s

   *** convergence criteria satisfied after 33 iterations ***

          eigenvalues
 #    :         295        296        297        298        299        300        301        302
 occ. :        2.000      2.000      2.000      2.000      2.000      2.000      2.000      2.000
 eps  :        -9.952     -9.763     -9.750     -9.708     -9.643     -9.529     -9.489     -8.157
 #    :         303        304        305        306        307        308        309        310
 occ. :        2.000      2.000      1.986      1.571      1.070      0.461      0.297      0.281
 eps  :        -7.951     -7.541     -6.995     -6.837     -6.787     -6.729     -6.705     -6.703
 #    :         311        312        313        314        315        316        317        318
 occ. :        0.248      0.028      0.024      0.017      0.014      0.003      0.000      0.000
 eps  :        -6.696     -6.598     -6.591     -6.575     -6.568     -6.497     -6.375     -6.259


   #   Z            q   n(s)   n(p)   n(d)      C6AA      α(0)
   1   7 N     -0.432  1.289  4.144  0.000    31.292     8.308
   2   6 C      0.020  1.033  2.947  0.000    20.245     6.408
   3   6 C      0.260  1.054  2.686  0.000    22.618     7.788
   4   8 O     -0.499  1.743  4.756  0.000    23.766     6.536
   5   6 C     -0.159  0.980  3.178  0.000    23.603     6.922
   6   1 H      0.187  0.813  0.000  0.000     1.174     1.697
   7   1 H      0.076  0.924  0.000  0.000     2.020     2.222
   8   1 H      0.072  0.928  0.000  0.000     2.064     2.246
   9   1 H      0.074  0.926  0.000  0.000     2.036     2.231
  10   1 H      0.064  0.936  0.000  0.000     2.148     2.291
  11   7 N     -0.169  1.204  3.965  0.000    24.658     7.375
  12   6 C      0.012  1.035  2.953  0.000    20.359     6.420
  13   6 C      0.270  1.042  2.688  0.000    22.441     7.757
  14   8 O     -0.488  1.755  4.733  0.000    23.519     6.502
  15   6 C     -0.026  1.031  2.995  0.000    21.033     6.529
  16  16 S     -0.350  1.909  4.414  0.027   156.347    21.045
  17   1 H      0.223  0.777  0.000  0.000     0.994     1.561
  18   1 H      0.103  0.897  0.000  0.000     1.756     2.072
  19   1 H      0.085  0.915  0.000  0.000     1.929     2.172
  20   1 H      0.065  0.935  0.000  0.000     2.142     2.289
  21   1 H      0.241  0.759  0.000  0.000     0.913     1.494
  22   7 N     -0.176  1.200  3.976  0.000    24.805     7.397
  23   6 C     -0.007  1.046  2.961  0.000    20.700     6.477
  24   6 C      0.278  1.032  2.691  0.000    22.298     7.734
  25   8 O     -0.483  1.761  4.721  0.000    23.404     6.486
  26   6 C     -0.040  1.036  3.005  0.000    21.254     6.556
  27   6 C     -0.167  0.983  3.184  0.000    23.780     6.948
  28   6 C     -0.169  0.984  3.185  0.000    23.806     6.951
  29   1 H      0.228  0.772  0.000  0.000     0.972     1.544
  30   1 H      0.106  0.894  0.000  0.000     1.732     2.058
  31   1 H      0.048  0.952  0.000  0.000     2.340     2.392
  32   1 H      0.079  0.921  0.000  0.000     1.987     2.204
  33   1 H      0.033  0.967  0.000  0.000     2.540     2.492
  34   1 H      0.091  0.909  0.000  0.000     1.865     2.136
  35   1 H      0.082  0.918  0.000  0.000     1.954     2.186
  36   1 H      0.111  0.889  0.000  0.000     1.686     2.030
  37   1 H      0.057  0.943  0.000  0.000     2.229     2.335
  38   7 N     -0.190  1.195  3.995  0.000    25.119     7.444
  39   6 C      0.025  1.027  2.948  0.000    20.136     6.387
  40   6 C      0.259  1.038  2.703  0.000    22.635     7.791
  41   8 O     -0.468  1.748  4.720  0.000    23.086     6.442
  42   6 C     -0.127  1.018  3.109  0.000    22.920     6.814
  43   6 C      0.280  1.045  2.675  0.000    22.261     7.725
  44   8 O     -0.542  1.787  4.755  0.000    24.736     6.668
  45   7 N     -0.295  1.190  4.105  0.000    27.595     7.802
  46   1 H      0.235  0.765  0.000  0.000     0.945     1.523
  47   1 H      0.071  0.929  0.000  0.000     2.074     2.252
  48   1 H      0.131  0.869  0.000  0.000     1.529     1.933
  49   1 H      0.108  0.892  0.000  0.000     1.715     2.048
  50   1 H      0.170  0.830  0.000  0.000     1.271     1.766
  51   1 H      0.246  0.754  0.000  0.000     0.898     1.484
  52   7 N     -0.184  1.203  3.981  0.000    24.981     7.423
  53   6 C      0.019  1.035  2.946  0.000    20.250     6.406
  54   6 C      0.267  1.040  2.692  0.000    22.493     7.767
  55   8 O     -0.495  1.746  4.749  0.000    23.673     6.523
  56   6 C     -0.125  1.016  3.109  0.000    22.870     6.805
  57   6 C      0.270  1.039  2.691  0.000    22.441     7.757
  58   8 O     -0.476  1.748  4.727  0.000    23.253     6.465
  59   7 N     -0.284  1.194  4.090  0.000    27.325     7.764
  60   1 H      0.205  0.795  0.000  0.000     1.081     1.629
  61   1 H      0.134  0.866  0.000  0.000     1.504     1.918
  62   1 H      0.069  0.931  0.000  0.000     2.095     2.263
  63   1 H      0.121  0.879  0.000  0.000     1.602     1.979
  64   1 H      0.263  0.737  0.000  0.000     0.835     1.431
  65   1 H      0.231  0.769  0.000  0.000     0.960     1.535
  66   7 N     -0.203  1.209  3.994  0.000    25.420     7.488
  67   6 C      0.047  1.032  2.921  0.000    19.781     6.331
  68   6 C      0.274  1.049  2.677  0.000    22.364     7.744
  69   8 O     -0.514  1.750  4.764  0.000    24.100     6.582
  70   6 C     -0.081  1.009  3.072  0.000    22.027     6.680
  71   6 C      0.368  1.028  2.604  0.000    20.759     7.456
  72   8 O     -0.636  1.762  4.874  0.000    27.011     6.968
  73   8 O     -0.640  1.779  4.862  0.000    27.133     6.984
  74   1 H      0.199  0.801  0.000  0.000     1.108     1.649
  75   1 H      0.077  0.923  0.000  0.000     2.006     2.215
  76   1 H      0.014  0.986  0.000  0.000     2.829     2.630
  77   1 H      0.006  0.994  0.000  0.000     2.949     2.685
  78   7 N     -0.197  1.210  3.986  0.000    25.270     7.466
  79   6 C      0.021  1.041  2.939  0.000    20.235     6.406
  80   6 C      0.113  1.050  2.838  0.000    25.497     8.270
  81   8 O     -0.476  1.740  4.736  0.000    23.261     6.466
  82   6 C     -0.064  1.003  3.060  0.000    21.710     6.631
  83   6 C     -0.080  0.998  3.082  0.000    22.011     6.678
  84   6 C      0.371  1.025  2.605  0.000    20.716     7.449
  85   8 O     -0.644  1.754  4.890  0.000    27.213     6.994
  86   8 O     -0.680  1.801  4.879  0.000    28.161     7.115
  87   1 H      0.202  0.798  0.000  0.000     1.094     1.638
  88   1 H      0.058  0.942  0.000  0.000     2.219     2.330
  89   1 H      0.047  0.953  0.000  0.000     2.357     2.401
  90   1 H      0.067  0.933  0.000  0.000     2.120     2.277
  91   1 H      0.015  0.985  0.000  0.000     2.802     2.618
  92   1 H     -0.018  1.018  0.000  0.000     3.398     2.882
  93   7 N     -0.414  1.273  4.140  0.000    30.765     8.238
  94   6 C      0.029  1.036  2.935  0.000    20.107     6.387
  95   6 C      0.150  1.068  2.782  0.000    24.727     8.143
  96   8 O     -0.484  1.765  4.719  0.000    23.431     6.490
  97   6 C     -0.097  1.007  3.090  0.000    22.335     6.726
  98   6 C     -0.084  1.003  3.080  0.000    22.094     6.691
  99   6 C     -0.046  1.022  3.024  0.000    21.471     6.611
 100   7 N     -0.171  1.186  3.984  0.000    24.697     7.381
 101   6 C      0.213  1.024  2.763  0.000    23.497     7.936
 102   7 N     -0.250  1.165  4.086  0.000    26.513     7.647
 103   7 N     -0.252  1.173  4.078  0.000    26.550     7.653
 104   1 H      0.190  0.810  0.000  0.000     1.159     1.686
 105   1 H      0.019  0.981  0.000  0.000     2.743     2.590
 106   1 H      0.095  0.905  0.000  0.000     1.827     2.114
 107   1 H      0.060  0.940  0.000  0.000     2.193     2.316
 108   1 H      0.026  0.974  0.000  0.000     2.637     2.539
 109   1 H      0.056  0.944  0.000  0.000     2.244     2.342
 110   1 H      0.074  0.926  0.000  0.000     2.043     2.235
 111   1 H      0.123  0.877  0.000  0.000     1.590     1.972
 112   1 H      0.226  0.774  0.000  0.000     0.983     1.553
 113   1 H      0.241  0.759  0.000  0.000     0.921     1.503
 114   1 H      0.265  0.735  0.000  0.000     0.826     1.423
 115   1 H      0.250  0.750  0.000  0.000     0.884     1.473
 116   1 H      0.272  0.728  0.000  0.000     0.802     1.403
 117   7 N     -0.432  1.289  4.143  0.000    31.281     8.307
 118   6 C      0.024  1.034  2.942  0.000    20.181     6.398
 119   6 C      0.158  1.071  2.772  0.000    24.570     8.118
 120   8 O     -0.488  1.775  4.713  0.000    23.523     6.503
 121   6 C     -0.098  1.016  3.081  0.000    22.348     6.728
 122   6 C     -0.110  1.016  3.094  0.000    22.582     6.763
 123   6 C     -0.047  1.016  3.031  0.000    21.483     6.610
 124   7 N     -0.158  1.182  3.975  0.000    24.416     7.339
 125   6 C      0.217  1.020  2.763  0.000    23.424     7.924
 126   7 N     -0.243  1.164  4.079  0.000    26.347     7.623
 127   7 N     -0.257  1.172  4.085  0.000    26.678     7.671
 128   1 H      0.189  0.811  0.000  0.000     1.162     1.689
 129   1 H      0.068  0.932  0.000  0.000     2.106     2.269
 130   1 H      0.068  0.932  0.000  0.000     2.112     2.272
 131   1 H      0.053  0.947  0.000  0.000     2.287     2.365
 132   1 H      0.079  0.921  0.000  0.000     1.992     2.207
 133   1 H      0.086  0.914  0.000  0.000     1.922     2.168
 134   1 H      0.099  0.901  0.000  0.000     1.794     2.094
 135   1 H      0.101  0.899  0.000  0.000     1.779     2.086
 136   1 H      0.230  0.770  0.000  0.000     0.964     1.538
 137   1 H      0.248  0.752  0.000  0.000     0.889     1.477
 138   1 H      0.250  0.750  0.000  0.000     0.882     1.471
 139   1 H      0.244  0.756  0.000  0.000     0.907     1.492
 140   1 H      0.256  0.744  0.000  0.000     0.860     1.452
 141   7 N     -0.428  1.285  4.143  0.000    31.155     8.290
 142   6 C      0.028  1.033  2.939  0.000    20.105     6.385
 143   6 C      0.155  1.066  2.779  0.000    24.630     8.128
 144   8 O     -0.495  1.774  4.722  0.000    23.685     6.525
 145   6 C     -0.083  1.009  3.074  0.000    22.061     6.684
 146   6 C     -0.117  1.009  3.108  0.000    22.723     6.783
 147   6 C      0.271  1.043  2.686  0.000    22.413     7.752
 148   8 O     -0.482  1.740  4.742  0.000    23.388     6.484
 149   7 N     -0.306  1.196  4.110  0.000    27.879     7.842
 150   1 H      0.195  0.805  0.000  0.000     1.130     1.665
 151   1 H      0.045  0.955  0.000  0.000     2.379     2.412
 152   1 H      0.076  0.924  0.000  0.000     2.017     2.221
 153   1 H      0.057  0.943  0.000  0.000     2.237     2.339
 154   1 H      0.068  0.932  0.000  0.000     2.103     2.268
 155   1 H      0.097  0.903  0.000  0.000     1.816     2.107
 156   1 H      0.227  0.773  0.000  0.000     0.977     1.549
 157   1 H      0.209  0.791  0.000  0.000     1.062     1.614
 158   7 N     -0.726  1.477  4.249  0.000    42.532     9.658
 159   6 C      0.100  1.018  2.882  0.000    18.939     6.197
 160   6 C      0.284  1.069  2.647  0.000    22.189     7.714
 161   8 O     -0.609  1.762  4.848  0.000    26.351     6.882
 162   6 C     -0.058  0.998  3.060  0.000    21.595     6.612
 163   6 C      0.382  1.024  2.594  0.000    20.532     7.416
 164   8 O     -0.645  1.751  4.895  0.000    27.257     7.000
 165   8 O     -0.671  1.763  4.908  0.000    27.927     7.085
 166   1 H      0.074  0.926  0.000  0.000     2.059     2.248
 167   1 H     -0.011  1.011  0.000  0.000     3.256     2.821
 168   1 H     -0.035  1.035  0.000  0.000     3.748     3.027
 169   1 H     -0.016  1.016  0.000  0.000     3.346     2.860
 170   7 N     -0.236  1.236  3.999  0.000    26.167     7.597
 171   6 C      0.062  1.043  2.894  0.000    19.541     6.295
 172   6 C     -0.072  1.380  2.692  0.000    33.122     9.297
 173   8 O     -0.572  1.787  4.785  0.000    25.440     6.762
 174   6 C     -0.021  0.989  3.032  0.000    20.935     6.511
 175   6 C     -0.073  0.998  3.074  0.000    21.877     6.657
 176   6 C      0.362  1.036  2.603  0.000    20.862     7.475
 177   8 O     -0.651  1.770  4.881  0.000    27.411     7.019
 178   8 O     -0.652  1.760  4.892  0.000    27.426     7.021
 179   1 H      0.188  0.812  0.000  0.000     1.168     1.693
 180   1 H      0.016  0.984  0.000  0.000     2.794     2.614
 181   1 H      0.005  0.995  0.000  0.000     2.966     2.693
 182   1 H      0.026  0.974  0.000  0.000     2.647     2.544
 183   1 H      0.000  1.000  0.000  0.000     3.053     2.732
 184   1 H     -0.007  1.007  0.000  0.000     3.184     2.790
 185   7 N     -0.662  1.484  4.177  0.000    39.979     9.363
 186   6 C      0.072  1.039  2.889  0.000    19.391     6.272
 187   6 C     -0.021  1.396  2.624  0.000    31.710     9.097
 188   8 O     -0.501  1.785  4.716  0.000    23.813     6.543
 189   6 C     -0.038  0.993  3.046  0.000    21.240     6.559
 190   6 C     -0.103  1.016  3.087  0.000    22.460     6.745
 191   6 C      0.278  1.049  2.674  0.000    22.302     7.732
 192   8 O     -0.564  1.813  4.751  0.000    25.240     6.736
 193   7 N     -0.292  1.191  4.101  0.000    27.526     7.792
 194   1 H      0.105  0.895  0.000  0.000     1.749     2.072
 195   1 H      0.020  0.980  0.000  0.000     2.739     2.588
 196   1 H      0.003  0.997  0.000  0.000     3.012     2.714
 197   1 H     -0.004  1.004  0.000  0.000     3.135     2.769
 198   1 H      0.076  0.924  0.000  0.000     2.021     2.223
 199   1 H      0.094  0.906  0.000  0.000     1.844     2.124
 200   1 H      0.265  0.735  0.000  0.000     0.827     1.424
 201   1 H      0.200  0.800  0.000  0.000     1.108     1.649
 202   1 H      0.182  0.818  0.000  0.000     1.200     1.716
 203   1 H      0.031  0.969  0.000  0.000     2.565     2.505
 204   1 H      0.143  0.857  0.000  0.000     1.449     1.886
 205   1 H      0.048  0.952  0.000  0.000     2.349     2.396
 206   1 H      0.183  0.817  0.000  0.000     1.194     1.712
 207   1 H      0.026  0.974  0.000  0.000     2.645     2.543
 208   1 H      0.173  0.827  0.000  0.000     1.257     1.756
 209   1 H      0.028  0.972  0.000  0.000     2.609     2.526

 Mol. C6AA /au·bohr⁶  :     449514.887021
 Mol. C8AA /au·bohr⁸  :   10092819.481978
 Mol. α(0) /au        :        999.887185

 
molecular dipole:
                 x           y           z       tot (Debye)
 q only:       57.422    -637.916    -818.628
   full:       56.073    -639.220    -820.361    2647.305
molecular quadrupole (traceless):
                xx          xy          yy          xz          yz          zz
 q only:    88982.348    8929.206  -11911.146   12288.599 -130826.941  -77071.202
  q+dip:    89310.147    8754.413  -11886.907   11957.943 -131369.958  -77423.240
   full:    89312.142    8751.857  -11887.251   11958.133 -131372.432  -77424.891
speedup  1.82
cpu  time for grad    5.83 s
wall time for grad    3.21 s

SCC energy    :    -356.9248802
rep           :       6.8704732
ES            :       3.6761675
AES           :      -0.1343864
AXC           :       0.0465202
disp          :      -0.2452521
XB            :       0.0000000
fix           :       0.0000000
Gborn         :       0.0000000
Gsasa         :       0.0000000
Ghb           :       0.0000000
Gshift        :       0.0000000
Gsolv         :      -2.2538204    -1414.29
Etot ala COSMO:    -356.9248802
grad norm     :       1.9547461
total E       :    -350.0425650
atomizationE  :      59.0558969    37058.13
(atE without considering molecular charge,
 total energy contains solvation terms)
H-L gap (eV)  :          0.0580

------------------------------------------------------------------------
 * finished run on 2019/05/07 at 05:44:17.414     
------------------------------------------------------------------------
 total:
 * wall-time:     0 d,  0 h,  0 min,  3.456 sec
 *  cpu-time:     0 d,  0 h,  0 min,  6.172 sec
 * ratio c/w:     1.786 speedup
 SCF:
 * wall-time:     0 d,  0 h,  0 min,  3.302 sec
 *  cpu-time:     0 d,  0 h,  0 min,  6.013 sec
 * ratio c/w:     1.821 speedup

