      -----------------------------------------------------------      
     |                   =====================                   |     
     |                           x T B                           |     
     |                   =====================                   |     
     |                         S. Grimme                         |     
     |          Mulliken Center for Theoretical Chemistry        |     
     |                    University of Bonn                     |     
     |                 Version 6.0.1 (SAW181210)                 |     
      -----------------------------------------------------------      

   This program is distributed in the hope that it will be useful,
   but WITHOUT ANY WARRANTY; without even the implied warranty of
   MERCHANTABILITY or FITNESS FOR A PARTICULAR PURPOSE.
   
   FOR NON-COMMERCIAL, ACADEMIA USE ONLY.
   
   Cite this work as:
   S. Grimme, C. Bannwarth, P. Shushkov, J. Comput. Theory Chem., 2017,
   13, 1989-2009.
   C. Bannwarth, S. Ehlert and S. Grimme., ChemRxiv, 2018, preprint.
   http://doi.org/10.26434/chemrxiv.7246238.v1
   
   for sTDA-xTB:
   S. Grimme and C. Bannwarth, J. Chem. Phys., 2016, 145, 054103.
   
   in the mass-spec context:
   V. Asgeirsson, C. Bauer and S. Grimme, Chem. Sci., 2017, 8, 4879.
   
   if GBSA is used:
   P. Shushkov, F. März and S. Grimme, unpublished.
   
   for ANC optimizer:
   S. Grimme, unpublished.
   Rational Function algorithm used in ANCopt:
   F. Eckert, P. Pulay, H.-J. Werner, J. Comput. Chem., 1997, 18, 1473.
   
   with help from (in alphabetical order)
   C. Bannwarth, F. Bohle, G. Brandenburg, E. Caldeweyher, M. Checinski,
   S. Dohm, S. Ehlert, S. Ehrlich, F. März, H. Neugebauer, J. Pisarek,
   P. Pracht, P. Shushkov, and S. Spicher.
   
 * started run on 2019/05/12 at 13:11:53.947     
========================================================================
 # omp threads = 2
========================================================================
number of atoms            : 436
number of electrons        : 1158
charge                     : 0
spin                       : .0
first test random number   : .5911

########################################################################
# WARNING! Please study the warnings concerning your input carefully
#  - Process number higher than OMP_NUM_THREADS, I hope you know what you are doing.
########################################################################

           ------------------------------------------------- 
          |                 G F N 2 - x T B                 |
          | Geometry, Frequencies, Noncovalent interactions |
          |            JCTC 2018 parametrisation            |
           ------------------------------------------------- 
 
      method parameters     
 k(s)        :  1.8500
 k(p)        :  2.2300
 k(d)        :  2.2300
 k(f)        :  2.0000
 kEN (H0ij)  : -2.0000
 D4 a1       :  0.5200
 D4 a2       :  5.0000
 D4 s6       :  1.0000
 D4 s8       :  2.7000
 D4 s9       :  5.0000
 alphaj      :  2.0000

 Solvent             : h2o
 Using internal parameter file: .param_gbsa2_h2o
 Gsolv ref. state (COSMO-RS): gsolv [1 M gas/solution]
 temperature (mdtemp)       :    298.150000000000     
 dielectric constant        :    80.2000000000000     
 rho                        :    1.00000000000000     
 mass                       :    18.0000000000000     
 surface tension            :    15.5689454083859     
 probe radius               :   0.975313790000000     
 vdW radii scaling          :    1.00000000000000     
 Gshift (Eh)                :   1.857443126794793E-003
 c1                         :    1.55243817000000     
 soset                      :   0.130326360000000     
 HB correction              :  T

            Z     q(EN)     CN     RAES       Cart. coordinates
     1  N   5.0   -0.16    4.17    3.37   143.90452   102.59511   396.21884
     2  C   4.0    0.00    4.35    4.29   142.25290   104.10500   394.47462
     3  C   4.0    0.15    3.43    3.09   139.91342   105.15947   395.81444
     4  O   6.0   -0.28    1.21    1.80   138.81171   103.90091   397.52086
     5  C   4.0    0.02    4.19    3.98   141.41386   102.46661   392.17105
     6  O   6.0   -0.27    2.05    1.83   139.76413   100.37846   392.82300
     7  H   1.0    0.07    1.09    1.44   144.66986   101.37624   395.34957
     8  H   1.0    0.07    1.08    1.44   145.06292   103.60423   396.90670
     9  H   1.0    0.09    1.09    1.44   142.96344   101.91292   397.43204
    10  H   1.0    0.04    1.12    1.45   143.23178   105.52986   393.86613
    11  H   1.0    0.04    1.07    1.44   140.52380   103.55320   390.99186
    12  H   1.0    0.04    1.07    1.44   142.91808   101.78064   391.37925
    13  H   1.0    0.14    1.07    1.44   139.51847    99.46384   391.54933
    14  N   5.0   -0.17    3.48    2.06   139.16320   107.45738   395.04532
    15  C   4.0    0.03    4.49    4.52   136.63475   108.36067   395.68783
    16  C   4.0    0.16    3.46    3.10   134.60707   106.52574   394.80344
    17  O   6.0   -0.30    1.27    1.80   132.92332   105.84166   396.26230
    18  C   4.0   -0.05    4.37    4.33   136.26436   110.95148   394.53131
    19  C   4.0   -0.04    4.18    3.96   134.07417   112.59554   395.59901
    20  C   4.0    0.25    3.08    3.02   134.58439   115.51706   395.22484
    21  O   6.0   -0.27    1.17    1.80   135.58595   116.31641   393.22551
    22  O   6.0   -0.26    1.16    1.80   134.05905   117.05340   396.94827
    23  H   1.0    0.09    1.13    1.45   140.06271   108.49484   394.17416
    24  H   1.0    0.07    1.13    1.45   136.47034   108.50428   397.50763
    25  H   1.0    0.06    1.10    1.44   137.81204   111.90390   394.77131
    26  H   1.0    0.05    1.10    1.44   135.93744   110.72849   392.74174
    27  H   1.0    0.05    1.08    1.44   132.51892   112.17035   394.72785
    28  H   1.0    0.06    1.08    1.44   133.89653   112.27051   397.39425
    29  N   5.0   -0.16    3.48    2.06   134.86407   105.56765   392.48852
    30  C   4.0    0.03    4.44    4.45   133.02159   103.93682   391.23185
    31  C   4.0    0.16    3.49    3.11   131.78760   101.81654   392.76253
    32  O   6.0   -0.31    1.25    1.80   129.45190   101.67481   392.91371
    33  C   4.0   -0.05    4.41    4.40   134.35951   102.77275   388.88859
    34  C   4.0   -0.01    3.59    3.16   132.56994   101.72962   386.92895
    35  C   4.0   -0.04    3.51    3.12   131.32273    99.41848   387.27288
    36  C   4.0   -0.04    3.51    3.12   132.15609   103.07510   384.71797
    37  C   4.0   -0.04    3.43    3.09   129.63898    98.51897   385.47764
    38  C   4.0   -0.04    3.43    3.09   130.48747   102.19449   382.91517
    39  C   4.0   -0.04    3.43    3.09   129.20245    99.90981   383.30256
    40  H   1.0    0.09    1.15    1.45   136.16042   105.85111   391.55122
    41  H   1.0    0.05    1.13    1.45   131.61374   105.03286   390.81611
    42  H   1.0    0.04    1.10    1.44   135.37241   104.07288   388.08357
    43  H   1.0    0.05    1.10    1.44   135.43666   101.39891   389.44984
    44  H   1.0    0.06    1.10    1.44   131.62697    98.47551   388.72419
    45  H   1.0    0.06    1.10    1.44   133.01214   104.58499   384.44585
    46  H   1.0    0.06    1.10    1.44   128.80561    96.99207   385.73464
    47  H   1.0    0.06    1.09    1.44   130.21346   103.11857   381.44496
    48  H   1.0    0.07    1.09    1.44   128.05917    99.32778   382.10070
    49  N   5.0   -0.17    3.54    2.11   133.27859   100.08556   393.81133
    50  C   4.0    0.04    4.59    4.66   132.08617    97.98040   395.10390
    51  C   4.0    0.16    3.45    3.09   130.74636    98.79298   397.49629
    52  O   6.0   -0.30    1.20    1.80   128.99647    97.46262   398.35423
    53  C   4.0   -0.05    4.42    4.41   134.03448    95.92249   395.54043
    54  C   4.0   -0.04    4.29    4.17   134.39731    94.43716   393.06489
    55  C   4.0    0.24    3.17    3.03   131.92366    93.04444   392.43372
    56  O   6.0   -0.28    1.18    1.80   130.46101    92.45673   394.25919
    57  O   6.0   -0.29    1.16    1.80   131.48335    92.69106   390.12447
    58  H   1.0    0.10    1.13    1.45   134.90376   100.09122   393.79810
    59  H   1.0    0.07    1.16    1.46   130.78226    97.23396   394.05321
    60  H   1.0    0.05    1.09    1.44   135.63508    96.66893   396.03176
    61  H   1.0    0.06    1.09    1.44   133.45056    94.77543   396.84623
    62  H   1.0    0.05    1.09    1.44   134.79982    95.58990   391.69862
    63  H   1.0    0.05    1.08    1.44   135.74279    93.20884   393.26520
    64  N   5.0   -0.16    3.52    2.09   131.49847   100.99451   398.51108
    65  C   4.0    0.03    4.42    4.41   130.37219   102.04898   400.80143
    66  C   4.0    0.16    3.46    3.10   127.87398   103.34911   400.25151
    67  O   6.0   -0.31    1.25    1.80   126.07307   103.09589   401.72550
    68  C   4.0   -0.07    4.21    4.03   132.17310   103.93493   402.07699
    69  H   1.0    0.12    1.15    1.45   132.67766   101.92426   397.89314
    70  H   1.0    0.05    1.13    1.45   130.08118   100.66192   401.96550
    71  H   1.0    0.05    1.06    1.44   131.37942   104.58499   403.59444
    72  H   1.0    0.05    1.05    1.44   133.73213   103.07132   402.50785
    73  H   1.0    0.07    1.06    1.44   132.51892   105.30876   400.91481
    74  N   5.0   -0.16    3.53    2.10   127.75303   104.76263   398.16148
    75  C   4.0    0.04    4.59    4.65   125.38521   105.93048   397.38102
    76  C   4.0    0.16    3.53    3.13   123.38588   103.92548   396.87646
    77  O   6.0   -0.31    1.27    1.80   121.16356   104.27697   397.52086
    78  C   4.0   -0.03    4.43    4.43   125.79528   107.64068   395.06989
    79  C   4.0   -0.08    4.32    4.23   123.33863   108.53074   394.12124
    80  C   4.0   -0.08    4.24    4.07   127.45257   109.92347   395.75586
    81  H   1.0    0.12    1.14    1.45   129.00970   105.06876   397.17693
    82  H   1.0    0.06    1.13    1.45   124.78805   106.98683   398.75674
    83  H   1.0    0.05    1.13    1.45   126.64943   106.67881   393.76598
    84  H   1.0    0.04    1.07    1.44   123.62209   109.68914   392.73041
    85  H   1.0    0.05    1.07    1.44   122.36353   107.08888   393.54677
    86  H   1.0    0.05    1.07    1.44   122.45046   109.38679   395.47618
    87  H   1.0    0.05    1.06    1.44   127.67366   110.96849   394.26675
    88  H   1.0    0.05    1.06    1.44   126.62676   110.88534   397.07867
    89  H   1.0    0.06    1.06    1.44   129.08151   109.32254   396.34356
    90  N   5.0   -0.16    3.52    2.09   124.12476   101.76741   395.79932
    91  C   4.0    0.03    4.58    4.64   122.28795    99.71706   395.51397
    92  C   4.0    0.16    3.50    3.11   121.23348    98.91393   398.09534
    93  O   6.0   -0.31    1.25    1.80   118.95447    98.40559   398.35234
    94  C   4.0   -0.03    4.46    4.48   123.44824    97.44561   394.11935
    95  C   4.0   -0.05    4.33    4.26   124.34586    98.21473   391.50208
    96  C   4.0   -0.08    4.27    4.13   121.49615    95.33478   394.06077
    97  C   4.0   -0.07    4.15    3.91   125.78583    96.13414   390.16038
    98  H   1.0    0.11    1.13    1.45   125.61764   101.45372   395.23807
    99  H   1.0    0.05    1.13    1.45   120.90845   100.35957   394.49352
   100  H   1.0    0.06    1.13    1.45   124.93734    96.83901   394.99997
   101  H   1.0    0.04    1.10    1.44   122.88888    98.64747   390.47596
   102  H   1.0    0.06    1.10    1.44   125.45702    99.66415   391.65515
   103  H   1.0    0.05    1.06    1.44   122.19913    93.89481   393.17071
   104  H   1.0    0.05    1.07    1.44   121.07663    94.86235   395.78042
   105  H   1.0    0.05    1.06    1.44   119.99571    95.93383   393.19339
   106  H   1.0    0.05    1.06    1.44   126.19212    96.68972   388.46151
   107  H   1.0    0.07    1.06    1.44   127.32784    95.78076   391.08823
   108  H   1.0    0.05    1.06    1.44   124.73892    94.62992   390.09235
   109  N   5.0   -0.15    3.48    2.07   122.88888    98.70228   400.02664
   110  C   4.0    0.04    4.45    4.46   122.02716    98.01820   402.57021
   111  C   4.0    0.17    3.49    3.11   120.11665    99.94572   403.53208
   112  O   6.0   -0.30    1.26    1.80   118.08708    99.27108   404.46749
   113  C   4.0   -0.05    4.31    4.22   124.25704    97.79521   404.42592
   114  C   4.0   -0.06    4.18    3.97   125.25859    95.09290   405.06276
   115  C   4.0   -0.06    4.15    3.91   127.17100    95.00408   407.37389
   116  C   4.0   -0.04    4.14    3.89   129.16844    92.83846   407.07721
   117  N   5.0   -0.17    4.04    2.98   130.73313    92.97074   404.56576
   118  H   1.0    0.11    1.13    1.45   124.49137    98.94416   399.90381
   119  H   1.0    0.05    1.13    1.45   121.23537    96.36846   402.48139
   120  H   1.0    0.06    1.10    1.44   125.66867    98.72495   403.71727
   121  H   1.0    0.05    1.10    1.44   123.74114    98.55299   406.01329
   122  H   1.0    0.05    1.08    1.44   123.82996    94.02331   405.48417
   123  H   1.0    0.05    1.08    1.44   126.12976    94.42772   403.59444
   124  H   1.0    0.04    1.08    1.44   128.06862    96.59901   407.47783
   125  H   1.0    0.05    1.08    1.44   126.23558    94.70929   408.92158
   126  H   1.0    0.04    1.07    1.44   130.35330    92.93483   408.47371
   127  H   1.0    0.04    1.07    1.44   128.29727    91.22652   407.10366
   128  H   1.0    0.07    1.07    1.44   131.85941    91.72352   404.52230
   129  H   1.0    0.08    1.07    1.44   129.70701    92.82712   403.24106
   130  H   1.0    0.07    1.07    1.44   131.54382    94.44094   404.46938
   131  N   5.0   -0.16    3.55    2.12   120.72325   102.37401   403.29208
   132  C   4.0    0.04    4.62    4.69   119.15478   104.30909   404.46371
   133  C   4.0    0.16    3.53    3.13   116.54129   104.29964   403.28264
   134  O   6.0   -0.31    1.27    1.80   114.59109   104.34500   404.58277
   135  C   4.0   -0.02    4.43    4.43   120.41145   106.90369   404.19348
   136  C   4.0   -0.08    4.26    4.12   118.53495   108.92002   405.02685
   137  C   4.0   -0.07    4.25    4.10   122.85486   106.92258   405.63723
   138  H   1.0    0.12    1.14    1.45   122.01205   102.93904   402.47761
   139  H   1.0    0.06    1.13    1.45   118.98281   103.93304   406.24951
   140  H   1.0    0.06    1.13    1.45   120.85553   107.28163   402.45494
   141  H   1.0    0.05    1.06    1.44   119.35509   110.55842   404.97016
   142  H   1.0    0.05    1.06    1.44   117.09687   108.90302   403.89113
   143  H   1.0    0.06    1.06    1.44   117.98693   108.55531   406.73705
   144  H   1.0    0.06    1.06    1.44   123.68823   108.53452   405.37834
   145  H   1.0    0.06    1.06    1.44   122.49582   106.68448   407.41925
   146  H   1.0    0.06    1.06    1.44   123.92067   105.56387   405.02685
   147  N   5.0   -0.16    3.55    2.12   116.49594   104.27508   400.76930
   148  C   4.0    0.03    4.58    4.64   114.15268   104.33177   399.31799
   149  C   4.0    0.16    3.55    3.14   112.57286   101.99796   399.85656
   150  O   6.0   -0.31    1.29    1.80   110.26740   102.13969   400.22128
   151  C   4.0   -0.03    4.50    4.54   114.80463   104.57365   396.50041
   152  C   4.0   -0.06    4.35    4.29   115.55485   107.32132   395.99585
   153  C   4.0   -0.09    4.26    4.12   112.65034   103.59478   394.83178
   154  C   4.0   -0.09    4.22    4.04   116.37121   107.55942   393.34646
   155  H   1.0    0.12    1.16    1.45   117.82630   104.22595   399.83578
   156  H   1.0    0.05    1.13    1.45   113.15490   105.78497   399.82444
   157  H   1.0    0.05    1.14    1.45   116.23137   103.50785   396.06388
   158  H   1.0    0.04    1.10    1.44   114.11866   108.42303   396.28120
   159  H   1.0    0.05    1.10    1.44   116.94191   107.80131   397.09378
   160  H   1.0    0.04    1.06    1.44   113.10199   103.83477   393.07056
   161  H   1.0    0.05    1.06    1.44   112.39145   101.81276   395.17193
   162  H   1.0    0.05    1.06    1.44   111.12155   104.53208   395.21729
   163  H   1.0    0.04    1.06    1.44   116.86065   109.29797   393.02709
   164  H   1.0    0.04    1.07    1.44   117.79796   106.44637   393.05922
   165  H   1.0    0.04    1.07    1.44   114.98038   107.09077   392.24853
   166  N   5.0   -0.16    3.56    2.12   113.78418    99.81343   399.88491
   167  C   4.0    0.04    4.48    4.51   112.50105    97.49474   400.60111
   168  C   4.0    0.17    3.46    3.10   111.27084    97.74607   403.21461
   169  O   6.0   -0.28    1.22    1.80   109.19214    96.75775   403.64546
   170  C   4.0    0.03    4.29    4.18   114.44936    95.37636   400.46694
   171  O   6.0   -0.28    2.11    1.84   113.22860    93.03877   400.36679
   172  H   1.0    0.12    1.16    1.46   115.35076    99.61690   399.49562
   173  H   1.0    0.06    1.13    1.45   111.12722    97.09412   399.45594
   174  H   1.0    0.05    1.08    1.44   115.47170    95.58990   398.96083
   175  H   1.0    0.06    1.08    1.44   115.51328    95.43683   401.95983
   176  H   1.0    0.14    1.08    1.44   114.30007    91.86903   400.31955
   177  N   5.0   -0.15    3.52    2.09   112.50483    99.10668   404.95882
   178  C   4.0    0.05    4.47    4.49   111.37856    99.60557   407.42491
   179  C   4.0    0.18    3.52    3.12   109.16758   101.43671   407.17925
   180  O   6.0   -0.26    1.25    1.80   107.15691   101.05687   408.31120
   181  C   4.0    0.04    4.26    4.11   113.36844   100.65436   409.25039
   182  O   6.0   -0.26    2.11    1.84   112.17602   101.92804   411.29507
   183  H   1.0    0.13    1.14    1.45   113.98260    99.75296   404.75473
   184  H   1.0    0.07    1.13    1.45   110.75684    98.02764   408.12033
   185  H   1.0    0.05    1.07    1.44   114.36999    99.26919   409.90801
   186  H   1.0    0.07    1.08    1.44   114.44369   101.83544   408.35277
   187  H   1.0    0.15    1.08    1.44   113.27017   102.46850   412.30986
   188  N   5.0   -0.15    3.54    2.11   109.50773   103.47194   405.74306
   189  C   4.0    0.04    4.46    4.48   107.41769   105.23317   405.41425
   190  C   4.0    0.17    3.51    3.12   105.11790   103.89902   404.34655
   191  O   6.0   -0.26    1.24    1.80   102.98817   104.46783   405.08921
   192  C   4.0   -0.08    4.22    4.04   108.17358   107.42903   403.71160
   193  H   1.0    0.13    1.15    1.45   110.88156   103.86123   404.96827
   194  H   1.0    0.07    1.13    1.45   106.99250   105.93048   407.05453
   195  H   1.0    0.05    1.06    1.44   106.75440   108.57987   403.55854
   196  H   1.0    0.05    1.06    1.44   109.60411   108.29830   404.45804
   197  H   1.0    0.06    1.06    1.44   108.62901   106.77519   402.05998
   198  N   5.0   -0.15    3.54    2.11   105.49206   102.07166   402.64769
   199  C   4.0    0.05    4.55    4.61   103.30565   100.83200   401.50629
   200  C   4.0    0.11    3.25    3.04   102.01497    98.99896   403.29964
   201  O   6.0   -0.26    1.12    1.80    99.70950    98.74574   403.25051
   202  C   4.0   -0.04    4.23    4.05   103.97839    99.36179   399.15169
   203  S   6.0   -0.05    2.49    3.10   104.92703   101.38569   396.71962
   204  H   1.0    0.13    1.15    1.45   106.94148   101.53498   402.14313
   205  H   1.0    0.07    1.16    1.45   102.16992   102.20205   401.06032
   206  H   1.0    0.06    1.16    1.46   105.35978    98.21473   399.52397
   207  H   1.0    0.06    1.16    1.46   102.51385    98.41693   398.58478
   208  H   1.0    0.06    1.01    1.43   106.70527   102.60645   397.42448
   209  N   5.0   -0.24    3.24    1.96   113.98449    88.18217   391.90082
   210  C   4.0    0.03    4.28    4.16   116.42602    89.44073   391.84034
   211  C   4.0    0.08    3.20    3.04   117.61843    89.27443   389.21363
   212  O   6.0   -0.31    1.13    1.80   118.74093    91.11692   388.31790
   213  C   4.0   -0.06    4.33    4.25   118.13055    88.33524   393.90204
   214  C   4.0   -0.06    4.23    4.06   117.46537    89.26498   396.64970
   215  C   4.0   -0.06    4.24    4.07   116.85498    87.04834   398.42982
   216  C   4.0   -0.04    4.24    4.08   114.13567    86.02033   397.98951
   217  N   5.0   -0.17    4.10    3.16   113.60277    83.67518   399.47862
   218  H   1.0    0.10    1.09    1.44   113.85788    86.94440   392.94772
   219  H   1.0    0.04    1.13    1.45   116.22193    91.22463   392.20884
   220  H   1.0    0.05    1.09    1.44   117.97181    86.50787   393.87747
   221  H   1.0    0.05    1.09    1.44   119.86343    88.81901   393.55244
   222  H   1.0    0.04    1.08    1.44   118.89589    90.17961   397.33945
   223  H   1.0    0.04    1.09    1.44   115.99705    90.36103   396.57600
   224  H   1.0    0.04    1.09    1.44   118.04173    85.68395   398.12746
   225  H   1.0    0.04    1.08    1.44   116.98160    87.61336   400.16837
   226  H   1.0    0.05    1.08    1.44   112.92435    87.29967   398.49218
   227  H   1.0    0.04    1.08    1.44   113.92591    85.62348   396.21128
   228  H   1.0    0.07    1.08    1.44   112.02673    83.15928   399.19516
   229  H   1.0    0.07    1.09    1.44   114.66668    82.45252   399.02886
   230  H   1.0    0.07    1.09    1.44   113.78796    83.98320   401.12079
   231  N   5.0   -0.22    3.27    1.97   114.40590    94.46740   385.27544
   232  C   4.0    0.03    4.48    4.51   115.21281    96.99774   386.04456
   233  C   4.0    0.15    3.48    3.11   117.76394    97.62135   384.89560
   234  O   6.0   -0.32    1.28    1.80   118.13622    99.65470   383.80334
   235  C   4.0   -0.03    4.48    4.51   115.29407    97.19427   388.94151
   236  C   4.0   -0.06    4.37    4.33   112.58798    96.86735   389.94117
   237  C   4.0   -0.09    4.26    4.12   116.43546    99.66793   389.78999
   238  C   4.0   -0.09    4.18    3.97   112.44247    96.30232   392.64915
   239  H   1.0    0.11    1.09    1.44   114.29818    93.41860   386.51321
   240  H   1.0    0.05    1.13    1.45   113.99016    98.21095   385.41717
   241  H   1.0    0.05    1.13    1.45   116.36932    95.87147   389.61803
   242  H   1.0    0.04    1.10    1.44   111.66202    98.42260   389.64637
   243  H   1.0    0.04    1.11    1.45   111.79241    95.48407   389.03977
   244  H   1.0    0.04    1.06    1.44   116.36743    99.76052   391.61925
   245  H   1.0    0.05    1.06    1.44   118.17590    99.74729   389.22307
   246  H   1.0    0.04    1.06    1.44   115.47548   101.04932   389.05867
   247  H   1.0    0.04    1.06    1.44   110.68125    96.14737   393.13292
   248  H   1.0    0.04    1.06    1.44   113.32120    94.72818   392.97796
   249  H   1.0    0.04    1.07    1.44   113.23049    97.66671   393.58645
   250  N   5.0   -0.17    3.41    2.02   119.56296    95.86580   385.12426
   251  C   4.0    0.01    4.26    4.11   122.02716    96.21351   383.93751
   252  C   4.0    0.09    3.16    3.03   121.89866    96.42327   381.08780
   253  O   6.0   -0.28    1.12    1.80   123.25738    97.94450   379.94641
   254  H   1.0    0.12    1.13    1.45   119.40422    94.47496   385.95007
   255  H   1.0    0.05    1.09    1.44   122.79439    97.74607   384.58758
   256  H   1.0    0.05    1.09    1.44   123.09864    94.78487   384.35514
   257  N   5.0   -0.22    3.26    1.97   119.87288   103.06376   380.28656
   258  C   4.0    0.04    4.34    4.28   121.99126   104.71916   380.85348
   259  C   4.0    0.09    3.22    3.04   124.03783   104.59822   378.84281
   260  O   6.0   -0.28    1.11    1.80   125.03561   106.56732   378.05668
   261  C   4.0   -0.05    4.52    4.57   123.11565   104.12768   383.40650
   262  C   4.0   -0.03    4.36    4.30   121.74559   105.37868   385.57590
   263  C   4.0   -0.09    4.22    4.05   122.94179   104.35634   388.01932
   264  C   4.0   -0.09    4.26    4.12   121.96102   108.19626   385.34536
   265  H   1.0    0.14    1.12    1.45   119.47792   102.01875   381.46764
   266  H   1.0    0.05    1.14    1.45   121.32796   106.42748   380.89694
   267  H   1.0    0.06    1.10    1.44   123.05139   102.31354   383.67295
   268  H   1.0    0.05    1.11    1.45   124.85608   104.70216   383.43295
   269  H   1.0    0.05    1.13    1.45   119.94846   105.01207   385.59102
   270  H   1.0    0.04    1.05    1.44   122.10275   105.11790   389.45929
   271  H   1.0    0.04    1.06    1.44   122.73770   102.53653   388.06656
   272  H   1.0    0.05    1.06    1.44   124.72380   104.78719   388.03444
   273  H   1.0    0.04    1.06    1.44   121.23348   108.97483   386.83635
   274  H   1.0    0.05    1.06    1.44   123.73170   108.64979   385.20552
   275  H   1.0    0.04    1.06    1.44   121.05584   108.74239   383.84869
   276  N   5.0   -0.24    3.28    1.98   121.35820   119.73493   388.70340
   277  C   4.0    0.03    4.43    4.43   118.78061   118.88833   388.25176
   278  C   4.0    0.15    3.50    3.11   117.05529   119.49493   390.44384
   279  O   6.0   -0.29    1.28    1.80   114.76117   119.25683   390.18683
   280  C   4.0   -0.05    4.64    4.71   118.76739   116.05374   387.74153
   281  C   4.0   -0.03    4.57    4.63   116.24082   114.94069   387.33902
   282  C   4.0   -0.08    4.51    4.56   116.47893   112.92057   385.50976
   283  C   4.0   -0.07    4.56    4.61   115.40745   113.65757   389.43472
   284  H   1.0    0.10    1.09    1.44   122.36542   118.53495   389.13237
   285  H   1.0    0.05    1.13    1.45   118.11165   119.71981   386.76076
   286  H   1.0    0.04    1.12    1.45   119.75760   115.73249   386.23353
   287  H   1.0    0.04    1.12    1.45   119.52139   115.20336   389.18150
   288  H   1.0    0.06    1.16    1.46   115.11644   116.30885   386.86848
   289  H   1.0    0.04    1.08    1.44   114.85376   112.09665   385.31701
   290  H   1.0    0.04    1.07    1.44   117.01561   113.62922   383.90728
   291  H   1.0    0.03    1.09    1.44   117.72426   111.71682   386.10881
   292  H   1.0    0.04    1.09    1.44   113.77473   112.91113   389.06812
   293  H   1.0    0.03    1.10    1.44   116.61688   112.34421   389.85046
   294  H   1.0    0.06    1.09    1.44   115.25817   114.83298   390.83312
   295  N   5.0   -0.17    3.53    2.10   118.10409   120.19602   392.60001
   296  C   4.0    0.04    4.44    4.45   116.55263   120.98970   394.70895
   297  C   4.0    0.09    3.26    3.05   115.65690   123.67123   394.39525
   298  O   6.0   -0.26    1.13    1.80   113.59710   124.26460   395.26264
   299  C   4.0   -0.04    4.42    4.41   118.01339   120.83475   397.19016
   300  C   4.0   -0.01    3.57    3.15   119.21903   118.30629   397.86290
   301  C   4.0   -0.05    3.51    3.12   117.93024   116.02539   397.57566
   302  C   4.0   -0.05    3.53    3.13   121.60575   118.23070   398.92304
   303  C   4.0   -0.05    3.46    3.10   119.07163   113.71426   398.27297
   304  C   4.0   -0.05    3.51    3.12   122.75660   115.99516   399.61279
   305  C   4.0    0.07    3.52    3.12   121.49237   113.74827   399.28209
   306  O   6.0   -0.28    2.17    1.85   122.70935   111.58832   399.98695
   307  H   1.0    0.10    1.14    1.45   119.70280   120.22814   392.88725
   308  H   1.0    0.07    1.14    1.45   115.12022   119.85020   394.79966
   309  H   1.0    0.05    1.10    1.44   119.37021   122.06685   397.12402
   310  H   1.0    0.06    1.10    1.44   116.85687   121.24860   398.55076
   311  H   1.0    0.06    1.09    1.44   116.29940   116.02539   396.91993
   312  H   1.0    0.06    1.10    1.44   122.46747   119.74060   399.18004
   313  H   1.0    0.05    1.09    1.44   118.21559   112.19492   398.05943
   314  H   1.0    0.06    1.10    1.44   124.37609   116.00650   400.29687
   315  H   1.0    0.15    1.13    1.45   124.22114   111.90957   400.34789
   316  N   5.0   -0.23    3.24    1.97   101.87135   105.53741   388.86970
   317  C   4.0    0.03    4.45    4.46   103.71383   106.78085   390.50431
   318  C   4.0    0.08    3.29    3.05   102.91259   109.45671   391.08067
   319  O   6.0   -0.28    1.12    1.80   102.96739   110.23338   393.27276
   320  C   4.0   -0.03    4.46    4.47   106.35189   106.74306   389.33646
   321  C   4.0   -0.08    4.31    4.22   107.99028   108.58743   390.74619
   322  C   4.0   -0.09    4.29    4.19   107.31376   104.12390   389.48764
   323  H   1.0    0.10    1.08    1.44   102.43826   105.07632   387.41650
   324  H   1.0    0.05    1.14    1.45   103.76674   105.83599   392.07467
   325  H   1.0    0.04    1.13    1.45   106.35000   107.24762   387.57523
   326  H   1.0    0.04    1.06    1.44   109.71560   108.43059   390.14904
   327  H   1.0    0.05    1.07    1.44   107.37423   110.28630   390.44006
   328  H   1.0    0.05    1.06    1.44   107.91091   108.20760   392.53765
   329  H   1.0    0.04    1.06    1.44   108.94837   104.04075   388.65994
   330  H   1.0    0.04    1.07    1.44   107.48194   103.65147   391.25075
   331  H   1.0    0.04    1.07    1.44   106.13079   103.00518   388.64860
   332  O   6.0   -0.36    2.03    1.83   126.40755   112.28752   403.63790
   333  H   1.0    0.17    1.02    1.43   127.68689   113.15301   403.22783
   334  H   1.0    0.17    1.03    1.43   125.52316   113.22860   404.56387
   335  N   5.0   -0.22    3.24    1.97   123.52950    97.77253   419.47191
   336  C   4.0    0.03    4.37    4.34   124.08508    99.53942   417.43478
   337  C   4.0    0.15    3.44    3.09   126.72124   100.67137   417.72769
   338  O   6.0   -0.28    1.21    1.80   127.99114   100.40870   419.71379
   339  C   4.0   -0.04    4.43    4.42   122.23503   101.79009   417.27416
   340  C   4.0   -0.04    4.34    4.28   119.44769   101.18727   417.20046
   341  C   4.0    0.16    3.32    3.06   118.66156    99.98729   414.80428
   342  O   6.0   -0.28    1.21    1.80   119.84075   100.46917   412.80117
   343  N   5.0   -0.24    3.21    1.96   116.56963    98.49630   414.90255
   344  H   1.0    0.12    1.08    1.44   123.84130    98.31866   420.97235
   345  H   1.0    0.05    1.12    1.45   123.97547    98.53787   415.90221
   346  H   1.0    0.05    1.10    1.44   122.51093   102.85211   418.74436
   347  H   1.0    0.07    1.10    1.44   122.61865   102.72739   415.74537
   348  H   1.0    0.04    1.11    1.44   119.05085   100.03453   418.56862
   349  H   1.0    0.05    1.10    1.44   118.49527   102.74251   417.39321
   350  H   1.0    0.11    1.08    1.44   115.78162    98.29410   416.31040
   351  H   1.0    0.12    1.08    1.44   116.03484    97.75552   413.55895
   352  N   5.0   -0.16    3.50    2.08   127.50548   101.99607   415.69246
   353  C   4.0    0.04    4.48    4.50   129.77882   103.55320   415.78883
   354  C   4.0    0.08    3.26    3.05   128.99458   106.14969   416.70157
   355  O   6.0   -0.30    1.14    1.80   127.55650   107.46683   415.43167
   356  C   4.0   -0.03    4.36    4.31   131.20178   103.73084   413.26605
   357  C   4.0   -0.09    4.18    3.97   133.75669   105.18404   413.78950
   358  C   4.0   -0.09    4.23    4.06   131.63075   101.16081   412.13221
   359  H   1.0    0.10    1.13    1.45   126.74392   102.00930   414.25815
   360  H   1.0    0.05    1.14    1.45   130.94289   102.78219   416.97747
   361  H   1.0    0.05    1.12    1.45   130.21913   104.64924   412.01883
   362  H   1.0    0.05    1.05    1.44   134.72234   105.26907   412.23426
   363  H   1.0    0.05    1.05    1.44   133.37119   106.87534   414.37910
   364  H   1.0    0.05    1.05    1.44   134.70722   104.27697   415.06696
   365  H   1.0    0.04    1.06    1.44   132.59829   101.34411   410.58642
   366  H   1.0    0.05    1.06    1.44   132.55483   100.12713   413.33030
   367  H   1.0    0.05    1.06    1.44   130.00748   100.39169   411.76560
   368  N   5.0   -0.22    3.26    1.97   130.23802   112.06264   412.14733
   369  C   4.0    0.04    4.37    4.34   128.93789   111.96437   409.70202
   370  C   4.0    0.16    3.46    3.10   126.15244   112.53507   410.07430
   371  O   6.0   -0.31    1.27    1.80   124.97703   113.79930   408.51150
   372  C   4.0   -0.05    4.36    4.30   129.19300   109.36411   408.38300
   373  C   4.0   -0.04    4.27    4.14   131.89720   108.67247   407.61388
   374  C   4.0    0.24    3.15    3.03   133.01403   110.42803   405.63911
   375  O   6.0   -0.28    1.17    1.80   131.70823   111.13667   403.76450
   376  O   6.0   -0.27    1.17    1.80   135.20044   111.23872   406.07375
   377  H   1.0    0.11    1.08    1.44   130.82951   110.63779   412.66322
   378  H   1.0    0.06    1.12    1.45   129.73536   113.19836   408.60409
   379  H   1.0    0.05    1.09    1.44   128.59396   108.06587   409.53195
   380  H   1.0    0.07    1.09    1.44   128.17066   109.37734   406.86366
   381  H   1.0    0.05    1.10    1.44   132.97057   108.74428   409.09920
   382  H   1.0    0.04    1.09    1.44   131.89720   106.97550   406.92035
   383  N   5.0   -0.16    3.51    2.08   125.05261   111.57320   412.13032
   384  C   4.0    0.04    4.42    4.41   122.40889   112.09287   412.65567
   385  C   4.0    0.09    3.25    3.04   122.05551   114.91423   413.09219
   386  O   6.0   -0.29    1.12    1.80   120.18279   115.97626   412.19268
   387  C   4.0   -0.05    4.39    4.35   121.53017   110.44125   414.86476
   388  C   4.0   -0.04    4.30    4.20   118.69936   110.16157   415.11798
   389  C   4.0    0.15    3.26    3.05   117.49371   108.36444   413.20936
   390  O   6.0   -0.28    1.20    1.80   118.64833   106.46716   412.53850
   391  N   5.0   -0.24    3.18    1.95   115.10510   108.94081   412.35142
   392  H   1.0    0.12    1.14    1.45   125.78961   110.62834   413.22636
   393  H   1.0    0.06    1.14    1.45   121.32419   111.63745   411.25160
   394  H   1.0    0.07    1.10    1.44   122.22936   108.76129   414.64366
   395  H   1.0    0.05    1.10    1.44   122.15000   111.18014   416.42378
   396  H   1.0    0.05    1.09    1.44   118.32330   109.51907   416.79417
   397  H   1.0    0.05    1.10    1.44   117.92646   111.80753   414.88932
   398  H   1.0    0.11    1.08    1.44   114.34732   110.27307   412.89377
   399  H   1.0    0.12    1.08    1.44   114.37188   107.96949   411.27617
   400  N   5.0   -0.22    3.26    1.97   122.03850   118.59164   406.95436
   401  C   4.0    0.04    4.34    4.26   119.64422   118.36298   405.62588
   402  C   4.0    0.09    3.28    3.05   117.79040   120.30184   406.61988
   403  O   6.0   -0.27    1.12    1.80   116.57719   121.63788   405.15534
   404  C   4.0   -0.04    4.49    4.52   118.64455   115.72871   405.98871
   405  C   4.0   -0.01    3.68    3.23   115.89122   115.41312   405.54274
   406  C   4.0   -0.04    3.57    3.15   114.89723   115.11833   403.22215
   407  C   4.0   -0.03    3.59    3.16   114.26228   115.46603   407.55530
   408  C   4.0   -0.04    3.50    3.11   112.27051   114.73849   402.90090
   409  C   4.0   -0.04    3.49    3.11   111.67902   115.12966   407.22837
   410  C   4.0   -0.04    3.46    3.10   110.68881   114.78573   404.86999
   411  H   1.0    0.13    1.09    1.44   122.40511   117.34820   407.93513
   412  H   1.0    0.05    1.13    1.45   119.87666   118.65211   403.83065
   413  H   1.0    0.05    1.11    1.44   119.51761   114.61566   404.82275
   414  H   1.0    0.06    1.12    1.45   118.98093   115.21659   407.71592
   415  H   1.0    0.06    1.11    1.45   115.94792   115.16368   401.81242
   416  H   1.0    0.06    1.10    1.44   114.89723   115.73438   409.17101
   417  H   1.0    0.06    1.10    1.44   111.63178   114.45125   401.28896
   418  H   1.0    0.06    1.10    1.44   110.61511   115.13722   408.62677
   419  H   1.0    0.06    1.10    1.44   108.95782   114.59109   404.63945
   420  H   1.0    0.08    1.04    1.44   103.04380    97.99386   404.52534
   421  H   1.0    0.09    1.08    1.44   112.77969    89.30095   392.33598
   422  H   1.0    0.06    1.04    1.43   117.49087    87.67353   388.21769
   423  H   1.0    0.10    1.08    1.44   112.87082    94.55742   384.54880
   424  H   1.0    0.06    1.04    1.44   120.70825    95.32666   380.11239
   425  H   1.0    0.10    1.08    1.44   118.48570   104.00017   379.98416
   426  H   1.0    0.07    1.04    1.43   124.58376   102.92715   378.14958
   427  H   1.0    0.10    1.08    1.44   121.98019   120.44130   387.28681
   428  H   1.0    0.06    1.05    1.44   116.73939   124.92943   393.49183
   429  H   1.0    0.10    1.08    1.44   101.29272   104.13191   389.63278
   430  H   1.0    0.06    1.05    1.44   102.33934   110.59303   389.68381
   431  H   1.0    0.10    1.08    1.44   121.87727    97.37043   419.43984
   432  H   1.0    0.06    1.04    1.44   129.64535   106.80860   418.34881
   433  H   1.0    0.11    1.08    1.44   131.55632   113.13247   412.04680
   434  H   1.0    0.06    1.04    1.43   123.33094   115.88208   414.09600
   435  H   1.0    0.11    1.08    1.44   123.30523   118.70840   405.82550
   436  H   1.0    0.07    1.05    1.44   117.54352   120.50509   408.48235

  Z AO/shell   Hii/eV     exponent
  1     Wed Apr 25 08:07:45 CEST 2018   EN: 2.200 GM2: 0.406  GM3: 0.0800  RAES: 1.40
     1s    -10.707211    1.230000
  6     Wed Apr 25 08:07:45 CEST 2018   EN: 2.550 GM2: 0.538  GM3: 0.1500  RAES: 3.00
     2s    -13.970922    2.096432
     2p    -10.063292    1.800000
  7     Wed Apr 25 08:07:45 CEST 2018   EN: 3.040 GM2: 0.461  GM3:-0.0640  RAES: 1.90
     2s    -16.686243    2.339881
     2p    -12.523956    2.014332
  8     Wed Apr 25 08:07:45 CEST 2018   EN: 3.440 GM2: 0.452  GM3:-0.0517  RAES: 1.80
     2s    -20.229985    2.439742
     2p    -15.503117    2.137023
 16     Tue Apr 24 11:44:34 CEST 2018   EN: 2.580 GM2: 0.340  GM3:-0.0502  RAES: 3.10
     3s    -20.029654    1.981333
     3p    -11.377694    2.025643
     3d     -0.420282    1.702555
 no old-style atom pair restraining (fixing) potential

molecular fragmentation (1/2 indicates fragments):
111111111111111111111111111111111111111111111111111111111111111111111111
111111111111111111111111111111111111111111111111111111111111111111111111
111111111111111111111111111111111111111111111111111111111111111122222222
222222222222222222222222222222222222222222222222222222222222222222222222
222222222222222222222222222222222222222222222222222222222222222222222222
222222222222222222222222222222222222222222222222222222222221222222222222
2222
# atoms in fragment 1/2:   209   227
 fragment masses (1/2) :     1466.71     1452.84
CMA distance (Bohr)    :   6.183
constraining FC (au)   :  0.0500
           ------------------------------------------------- 
          |        Self-Consistent Charge Iterations        |
           ------------------------------------------------- 

 Ncao       : 1054
 Nao        : 1053
 Nshell     : 641
 Nel        : 1158
 T(el)      :   500.0
 intcut     :    35.0
 scfconv/Eh :  0.100E-06
   qconv/e  :  0.100E-04
 intneglect :  0.100E-08
 broydamp   :      0.400
 iter      E             dE          RMSdq      gap      omega  full diag
   1   -664.3821635 -0.664382E+03  0.462E+00    2.99       0.0  T
   2   -665.9415488 -0.155939E+01  0.220E+00    1.72       1.0  T
   3   -666.0298211 -0.882723E-01  0.127E+00    1.74       1.0  T
   4   -666.1435724 -0.113751E+00  0.256E-01    1.11       1.0  T
   5   -666.1511433 -0.757089E-02  0.117E-01    1.31       1.0  T
   6   -666.1520093 -0.866048E-03  0.534E-02    1.31       1.0  T
   7   -666.1523395 -0.330204E-03  0.232E-02    1.31       1.0  T
   8   -666.1523781 -0.385496E-04  0.115E-02    1.30       1.0  T
   9   -666.1523922 -0.141722E-04  0.522E-03    1.30       1.0  T
  10   -666.1523949 -0.265179E-05  0.225E-03    1.30       2.1  T
  11   -666.1523953 -0.456380E-06  0.974E-04    1.30       4.9  T
  12   -666.1523954 -0.672009E-07  0.453E-04    1.30      10.6  T
  13   -666.1523954 -0.232995E-07  0.208E-04    1.30      23.0  T
  14   -666.1523954 -0.379157E-08  0.895E-05    1.30      53.5  T
  15   -666.1523954 -0.645173E-09  0.357E-05    1.30     134.1  T
speedup  1.52
cpu  time for SCC   26.22 s
wall time for SCC   17.25 s

   *** convergence criteria satisfied after 15 iterations ***

          eigenvalues
 #    :         567        568        569        570        571        572        573        574
 occ. :        2.000      2.000      2.000      2.000      2.000      2.000      2.000      2.000
 eps  :       -10.081    -10.080    -10.041    -10.028    -10.002    -10.002    -10.001     -9.973
 #    :         575        576        577        578        579        580        581        582
 occ. :        2.000      2.000      2.000      2.000      2.000      0.000      0.000      0.000
 eps  :        -9.872     -9.711     -9.710     -9.638     -9.542     -8.240     -8.078     -7.926
 #    :         583        584        585        586        587        588        589        590
 occ. :        0.000      0.000      0.000      0.000      0.000      0.000      0.000      0.000
 eps  :        -7.864     -7.786     -7.777     -7.756     -7.625     -7.578     -7.365     -7.074


   #   Z            q   n(s)   n(p)   n(d)      C6AA      α(0)
   1   7 N     -0.131  1.143  3.988  0.000    23.838     7.251
   2   6 C     -0.039  1.057  2.982  0.000    21.295     6.573
   3   6 C      0.259  1.037  2.705  0.000    22.646     7.793
   4   8 O     -0.459  1.771  4.688  0.000    22.887     6.414
   5   6 C      0.035  1.010  2.955  0.000    20.198     6.437
   6   8 O     -0.486  1.679  4.807  0.000    22.585     6.415
   7   1 H      0.314  0.686  0.000  0.000     0.673     1.285
   8   1 H      0.304  0.696  0.000  0.000     0.700     1.311
   9   1 H      0.301  0.699  0.000  0.000     0.709     1.319
  10   1 H      0.151  0.849  0.000  0.000     1.382     1.838
  11   1 H      0.093  0.907  0.000  0.000     1.847     2.125
  12   1 H      0.121  0.879  0.000  0.000     1.608     1.983
  13   1 H      0.339  0.661  0.000  0.000     0.613     1.230
  14   7 N     -0.187  1.215  3.972  0.000    25.049     7.433
  15   6 C      0.012  1.038  2.950  0.000    20.367     6.425
  16   6 C      0.273  1.042  2.685  0.000    22.380     7.747
  17   8 O     -0.500  1.751  4.750  0.000    23.795     6.540
  18   6 C     -0.085  1.009  3.076  0.000    22.101     6.691
  19   6 C     -0.114  1.020  3.094  0.000    22.687     6.782
  20   6 C      0.363  1.036  2.601  0.000    20.848     7.472
  21   8 O     -0.647  1.771  4.875  0.000    27.290     7.004
  22   8 O     -0.664  1.788  4.876  0.000    27.737     7.061
  23   1 H      0.238  0.762  0.000  0.000     0.932     1.512
  24   1 H      0.089  0.911  0.000  0.000     1.883     2.146
  25   1 H      0.070  0.930  0.000  0.000     2.086     2.258
  26   1 H      0.072  0.928  0.000  0.000     2.065     2.247
  27   1 H      0.044  0.956  0.000  0.000     2.394     2.419
  28   1 H      0.034  0.966  0.000  0.000     2.526     2.485
  29   7 N     -0.190  1.211  3.979  0.000    25.126     7.445
  30   6 C      0.008  1.044  2.948  0.000    20.446     6.439
  31   6 C      0.274  1.041  2.684  0.000    22.360     7.744
  32   8 O     -0.505  1.757  4.748  0.000    23.895     6.554
  33   6 C     -0.105  1.018  3.088  0.000    22.495     6.750
  34   6 C     -0.006  1.081  2.925  0.000    28.173     8.706
  35   6 C     -0.051  1.055  2.996  0.000    29.269     8.872
  36   6 C     -0.062  1.056  3.005  0.000    29.535     8.912
  37   6 C     -0.047  1.057  2.990  0.000    29.158     8.855
  38   6 C     -0.052  1.059  2.993  0.000    29.282     8.874
  39   6 C     -0.053  1.061  2.992  0.000    29.305     8.877
  40   1 H      0.229  0.771  0.000  0.000     0.970     1.543
  41   1 H      0.087  0.913  0.000  0.000     1.904     2.158
  42   1 H      0.089  0.911  0.000  0.000     1.886     2.148
  43   1 H      0.085  0.915  0.000  0.000     1.932     2.173
  44   1 H      0.048  0.952  0.000  0.000     2.344     2.394
  45   1 H      0.068  0.932  0.000  0.000     2.106     2.269
  46   1 H      0.059  0.941  0.000  0.000     2.213     2.326
  47   1 H      0.058  0.942  0.000  0.000     2.221     2.330
  48   1 H      0.063  0.937  0.000  0.000     2.163     2.300
  49   7 N     -0.191  1.212  3.980  0.000    25.152     7.448
  50   6 C      0.026  1.032  2.942  0.000    20.122     6.384
  51   6 C      0.261  1.050  2.690  0.000    22.608     7.786
  52   8 O     -0.488  1.746  4.742  0.000    23.525     6.503
  53   6 C     -0.089  1.012  3.077  0.000    22.171     6.701
  54   6 C     -0.121  1.019  3.101  0.000    22.800     6.796
  55   6 C      0.356  1.031  2.613  0.000    20.952     7.491
  56   8 O     -0.651  1.783  4.868  0.000    27.404     7.019
  57   8 O     -0.658  1.787  4.871  0.000    27.581     7.041
  58   1 H      0.227  0.773  0.000  0.000     0.978     1.549
  59   1 H      0.096  0.904  0.000  0.000     1.826     2.113
  60   1 H      0.075  0.925  0.000  0.000     2.028     2.227
  61   1 H      0.088  0.912  0.000  0.000     1.901     2.156
  62   1 H      0.044  0.956  0.000  0.000     2.397     2.421
  63   1 H      0.061  0.939  0.000  0.000     2.183     2.310
  64   7 N     -0.192  1.211  3.981  0.000    25.167     7.451
  65   6 C      0.014  1.039  2.947  0.000    20.336     6.421
  66   6 C      0.265  1.046  2.689  0.000    22.526     7.772
  67   8 O     -0.498  1.742  4.755  0.000    23.730     6.531
  68   6 C     -0.151  0.982  3.169  0.000    23.458     6.902
  69   1 H      0.215  0.785  0.000  0.000     1.034     1.593
  70   1 H      0.109  0.891  0.000  0.000     1.701     2.040
  71   1 H      0.068  0.932  0.000  0.000     2.103     2.268
  72   1 H      0.096  0.904  0.000  0.000     1.824     2.112
  73   1 H      0.060  0.940  0.000  0.000     2.196     2.317
  74   7 N     -0.194  1.214  3.979  0.000    25.199     7.456
  75   6 C      0.014  1.041  2.946  0.000    20.341     6.420
  76   6 C      0.271  1.045  2.683  0.000    22.414     7.753
  77   8 O     -0.495  1.742  4.753  0.000    23.669     6.523
  78   6 C     -0.021  1.030  2.991  0.000    20.909     6.503
  79   6 C     -0.150  0.972  3.178  0.000    23.414     6.893
  80   6 C     -0.144  0.977  3.167  0.000    23.305     6.879
  81   1 H      0.216  0.784  0.000  0.000     1.028     1.588
  82   1 H      0.091  0.909  0.000  0.000     1.869     2.138
  83   1 H      0.054  0.946  0.000  0.000     2.274     2.358
  84   1 H      0.068  0.932  0.000  0.000     2.106     2.269
  85   1 H      0.062  0.938  0.000  0.000     2.181     2.309
  86   1 H      0.070  0.930  0.000  0.000     2.085     2.258
  87   1 H      0.055  0.945  0.000  0.000     2.257     2.349
  88   1 H      0.053  0.947  0.000  0.000     2.286     2.364
  89   1 H      0.042  0.958  0.000  0.000     2.417     2.431
  90   7 N     -0.194  1.213  3.982  0.000    25.221     7.459
  91   6 C      0.011  1.046  2.943  0.000    20.379     6.426
  92   6 C      0.267  1.053  2.680  0.000    22.488     7.765
  93   8 O     -0.491  1.741  4.750  0.000    23.589     6.512
  94   6 C     -0.033  1.038  2.995  0.000    21.128     6.537
  95   6 C     -0.086  1.003  3.083  0.000    22.128     6.695
  96   6 C     -0.155  0.978  3.177  0.000    23.526     6.911
  97   6 C     -0.134  0.973  3.161  0.000    23.108     6.851
  98   1 H      0.211  0.789  0.000  0.000     1.052     1.607
  99   1 H      0.093  0.907  0.000  0.000     1.847     2.125
 100   1 H      0.060  0.940  0.000  0.000     2.193     2.316
 101   1 H      0.051  0.949  0.000  0.000     2.308     2.376
 102   1 H      0.050  0.950  0.000  0.000     2.322     2.383
 103   1 H      0.073  0.927  0.000  0.000     2.049     2.238
 104   1 H      0.066  0.934  0.000  0.000     2.125     2.279
 105   1 H      0.070  0.930  0.000  0.000     2.087     2.259
 106   1 H      0.050  0.950  0.000  0.000     2.323     2.383
 107   1 H      0.038  0.962  0.000  0.000     2.473     2.459
 108   1 H      0.059  0.941  0.000  0.000     2.208     2.324
 109   7 N     -0.189  1.214  3.975  0.000    25.096     7.440
 110   6 C      0.005  1.043  2.951  0.000    20.491     6.445
 111   6 C      0.273  1.043  2.684  0.000    22.390     7.749
 112   8 O     -0.501  1.747  4.755  0.000    23.815     6.543
 113   6 C     -0.111  1.016  3.095  0.000    22.603     6.767
 114   6 C     -0.117  1.023  3.094  0.000    22.740     6.790
 115   6 C     -0.119  1.027  3.092  0.000    22.785     6.797
 116   6 C     -0.076  1.047  3.030  0.000    22.072     6.709
 117   7 N     -0.150  1.151  4.000  0.000    24.242     7.313
 118   1 H      0.211  0.789  0.000  0.000     1.050     1.605
 119   1 H      0.113  0.887  0.000  0.000     1.669     2.020
 120   1 H      0.079  0.921  0.000  0.000     1.989     2.205
 121   1 H      0.080  0.920  0.000  0.000     1.981     2.201
 122   1 H      0.090  0.910  0.000  0.000     1.880     2.144
 123   1 H      0.084  0.916  0.000  0.000     1.942     2.179
 124   1 H      0.090  0.910  0.000  0.000     1.881     2.145
 125   1 H      0.111  0.889  0.000  0.000     1.686     2.031
 126   1 H      0.144  0.856  0.000  0.000     1.430     1.870
 127   1 H      0.146  0.854  0.000  0.000     1.420     1.864
 128   1 H      0.297  0.703  0.000  0.000     0.722     1.331
 129   1 H      0.275  0.725  0.000  0.000     0.792     1.394
 130   1 H      0.280  0.720  0.000  0.000     0.776     1.380
 131   7 N     -0.188  1.211  3.977  0.000    25.081     7.438
 132   6 C      0.012  1.041  2.946  0.000    20.360     6.422
 133   6 C      0.273  1.045  2.683  0.000    22.390     7.749
 134   8 O     -0.510  1.748  4.763  0.000    24.013     6.570
 135   6 C     -0.025  1.032  2.994  0.000    20.987     6.515
 136   6 C     -0.146  0.976  3.170  0.000    23.352     6.886
 137   6 C     -0.158  0.976  3.182  0.000    23.596     6.921
 138   1 H      0.219  0.781  0.000  0.000     1.014     1.577
 139   1 H      0.092  0.908  0.000  0.000     1.856     2.130
 140   1 H      0.060  0.940  0.000  0.000     2.198     2.318
 141   1 H      0.060  0.940  0.000  0.000     2.193     2.316
 142   1 H      0.052  0.948  0.000  0.000     2.295     2.369
 143   1 H      0.057  0.943  0.000  0.000     2.230     2.335
 144   1 H      0.060  0.940  0.000  0.000     2.199     2.319
 145   1 H      0.061  0.939  0.000  0.000     2.182     2.310
 146   1 H      0.069  0.931  0.000  0.000     2.092     2.261
 147   7 N     -0.193  1.215  3.978  0.000    25.195     7.455
 148   6 C      0.007  1.042  2.951  0.000    20.462     6.439
 149   6 C      0.274  1.042  2.684  0.000    22.364     7.744
 150   8 O     -0.510  1.744  4.765  0.000    23.997     6.568
 151   6 C     -0.044  1.045  2.999  0.000    21.312     6.565
 152   6 C     -0.088  1.001  3.086  0.000    22.153     6.698
 153   6 C     -0.155  0.979  3.175  0.000    23.531     6.913
 154   6 C     -0.148  0.971  3.177  0.000    23.383     6.889
 155   1 H      0.226  0.774  0.000  0.000     0.982     1.552
 156   1 H      0.087  0.913  0.000  0.000     1.912     2.162
 157   1 H      0.070  0.930  0.000  0.000     2.084     2.257
 158   1 H      0.057  0.943  0.000  0.000     2.231     2.335
 159   1 H      0.050  0.950  0.000  0.000     2.323     2.383
 160   1 H      0.082  0.918  0.000  0.000     1.956     2.187
 161   1 H      0.060  0.940  0.000  0.000     2.194     2.316
 162   1 H      0.059  0.941  0.000  0.000     2.206     2.323
 163   1 H      0.053  0.947  0.000  0.000     2.277     2.359
 164   1 H      0.051  0.949  0.000  0.000     2.311     2.377
 165   1 H      0.067  0.933  0.000  0.000     2.115     2.274
 166   7 N     -0.186  1.210  3.976  0.000    25.034     7.431
 167   6 C      0.008  1.041  2.951  0.000    20.439     6.436
 168   6 C      0.274  1.044  2.682  0.000    22.370     7.745
 169   8 O     -0.490  1.753  4.737  0.000    23.570     6.509
 170   6 C      0.053  0.997  2.950  0.000    19.855     6.375
 171   8 O     -0.481  1.666  4.815  0.000    22.485     6.401
 172   1 H      0.227  0.773  0.000  0.000     0.977     1.548
 173   1 H      0.113  0.887  0.000  0.000     1.674     2.023
 174   1 H      0.084  0.916  0.000  0.000     1.937     2.176
 175   1 H      0.062  0.938  0.000  0.000     2.177     2.307
 176   1 H      0.355  0.645  0.000  0.000     0.575     1.191
 177   7 N     -0.191  1.211  3.980  0.000    25.143     7.447
 178   6 C      0.012  1.040  2.948  0.000    20.382     6.428
 179   6 C      0.284  1.039  2.677  0.000    22.192     7.715
 180   8 O     -0.506  1.759  4.747  0.000    23.917     6.557
 181   6 C      0.059  0.998  2.942  0.000    19.764     6.363
 182   8 O     -0.495  1.680  4.816  0.000    22.787     6.444
 183   1 H      0.220  0.780  0.000  0.000     1.008     1.573
 184   1 H      0.104  0.896  0.000  0.000     1.751     2.069
 185   1 H      0.071  0.929  0.000  0.000     2.077     2.253
 186   1 H      0.069  0.931  0.000  0.000     2.091     2.261
 187   1 H      0.335  0.665  0.000  0.000     0.624     1.240
 188   7 N     -0.190  1.212  3.977  0.000    25.113     7.443
 189   6 C      0.021  1.034  2.945  0.000    20.220     6.401
 190   6 C      0.284  1.041  2.676  0.000    22.198     7.716
 191   8 O     -0.506  1.756  4.750  0.000    23.921     6.557
 192   6 C     -0.158  0.981  3.177  0.000    23.587     6.921
 193   1 H      0.233  0.767  0.000  0.000     0.951     1.528
 194   1 H      0.091  0.909  0.000  0.000     1.871     2.139
 195   1 H      0.083  0.917  0.000  0.000     1.952     2.185
 196   1 H      0.083  0.917  0.000  0.000     1.944     2.180
 197   1 H      0.076  0.924  0.000  0.000     2.016     2.220
 198   7 N     -0.192  1.207  3.985  0.000    25.157     7.449
 199   6 C      0.029  1.032  2.939  0.000    20.037     6.365
 200   6 C      0.202  1.084  2.713  0.000    23.702     7.974
 201   8 O     -0.360  1.754  4.607  0.000    20.904     6.130
 202   6 C     -0.012  1.010  3.002  0.000    20.774     6.486
 203  16 S     -0.301  1.878  4.390  0.032   154.104    20.894
 204   1 H      0.224  0.776  0.000  0.000     0.992     1.560
 205   1 H      0.104  0.896  0.000  0.000     1.748     2.067
 206   1 H      0.082  0.918  0.000  0.000     1.958     2.188
 207   1 H      0.096  0.904  0.000  0.000     1.824     2.112
 208   1 H      0.219  0.781  0.000  0.000     1.008     1.570
 209   7 N     -0.418  1.283  4.135  0.000    30.866     8.251
 210   6 C      0.022  1.034  2.944  0.000    20.222     6.405
 211   6 C      0.189  1.098  2.713  0.000    23.948     8.014
 212   8 O     -0.393  1.766  4.627  0.000    21.537     6.222
 213   6 C     -0.108  1.021  3.086  0.000    22.546     6.759
 214   6 C     -0.105  1.017  3.088  0.000    22.509     6.754
 215   6 C     -0.123  1.021  3.102  0.000    22.844     6.804
 216   6 C     -0.078  1.025  3.053  0.000    22.070     6.704
 217   7 N     -0.144  1.146  3.998  0.000    24.109     7.293
 218   1 H      0.201  0.799  0.000  0.000     1.103     1.645
 219   1 H      0.072  0.928  0.000  0.000     2.060     2.245
 220   1 H      0.090  0.910  0.000  0.000     1.878     2.143
 221   1 H      0.061  0.939  0.000  0.000     2.190     2.314
 222   1 H      0.076  0.924  0.000  0.000     2.022     2.224
 223   1 H      0.076  0.924  0.000  0.000     2.021     2.223
 224   1 H      0.101  0.899  0.000  0.000     1.771     2.081
 225   1 H      0.096  0.904  0.000  0.000     1.824     2.112
 226   1 H      0.130  0.870  0.000  0.000     1.531     1.935
 227   1 H      0.121  0.879  0.000  0.000     1.605     1.981
 228   1 H      0.294  0.706  0.000  0.000     0.732     1.340
 229   1 H      0.293  0.707  0.000  0.000     0.735     1.343
 230   1 H      0.292  0.708  0.000  0.000     0.737     1.345
 231   7 N     -0.423  1.289  4.134  0.000    31.019     8.272
 232   6 C      0.015  1.039  2.946  0.000    20.326     6.419
 233   6 C      0.267  1.051  2.682  0.000    22.499     7.768
 234   8 O     -0.509  1.757  4.752  0.000    23.979     6.565
 235   6 C     -0.043  1.043  3.000  0.000    21.294     6.562
 236   6 C     -0.087  1.000  3.088  0.000    22.151     6.698
 237   6 C     -0.147  0.974  3.173  0.000    23.364     6.888
 238   6 C     -0.148  0.970  3.178  0.000    23.392     6.892
 239   1 H      0.186  0.814  0.000  0.000     1.177     1.700
 240   1 H      0.062  0.938  0.000  0.000     2.173     2.305
 241   1 H      0.059  0.941  0.000  0.000     2.208     2.323
 242   1 H      0.052  0.948  0.000  0.000     2.293     2.368
 243   1 H      0.054  0.946  0.000  0.000     2.267     2.355
 244   1 H      0.063  0.937  0.000  0.000     2.159     2.297
 245   1 H      0.039  0.961  0.000  0.000     2.456     2.451
 246   1 H      0.054  0.946  0.000  0.000     2.275     2.359
 247   1 H      0.061  0.939  0.000  0.000     2.185     2.311
 248   1 H      0.056  0.944  0.000  0.000     2.250     2.346
 249   1 H      0.048  0.952  0.000  0.000     2.340     2.392
 250   7 N     -0.173  1.204  3.969  0.000    24.750     7.389
 251   6 C     -0.037  1.005  3.032  0.000    21.294     6.580
 252   6 C      0.201  1.082  2.716  0.000    23.714     7.975
 253   8 O     -0.367  1.763  4.604  0.000    21.037     6.149
 254   1 H      0.235  0.765  0.000  0.000     0.944     1.522
 255   1 H      0.101  0.899  0.000  0.000     1.771     2.081
 256   1 H      0.122  0.878  0.000  0.000     1.598     1.977
 257   7 N     -0.428  1.285  4.143  0.000    31.152     8.289
 258   6 C      0.033  1.028  2.939  0.000    20.025     6.373
 259   6 C      0.198  1.096  2.706  0.000    23.789     7.988
 260   8 O     -0.404  1.766  4.638  0.000    21.771     6.256
 261   6 C     -0.084  1.010  3.074  0.000    22.072     6.684
 262   6 C     -0.024  1.029  2.995  0.000    20.959     6.511
 263   6 C     -0.149  0.979  3.170  0.000    23.397     6.892
 264   6 C     -0.151  0.976  3.175  0.000    23.442     6.898
 265   1 H      0.204  0.796  0.000  0.000     1.084     1.631
 266   1 H      0.067  0.933  0.000  0.000     2.121     2.277
 267   1 H      0.067  0.933  0.000  0.000     2.118     2.276
 268   1 H      0.051  0.949  0.000  0.000     2.309     2.376
 269   1 H      0.057  0.943  0.000  0.000     2.238     2.339
 270   1 H      0.054  0.946  0.000  0.000     2.272     2.357
 271   1 H      0.051  0.949  0.000  0.000     2.306     2.375
 272   1 H      0.047  0.953  0.000  0.000     2.354     2.399
 273   1 H      0.055  0.945  0.000  0.000     2.263     2.352
 274   1 H      0.048  0.952  0.000  0.000     2.340     2.392
 275   1 H      0.052  0.948  0.000  0.000     2.298     2.370
 276   7 N     -0.433  1.289  4.144  0.000    31.300     8.309
 277   6 C      0.018  1.033  2.950  0.000    20.283     6.413
 278   6 C      0.268  1.044  2.688  0.000    22.477     7.764
 279   8 O     -0.511  1.753  4.758  0.000    24.021     6.571
 280   6 C     -0.096  1.010  3.086  0.000    22.281     6.712
 281   6 C     -0.011  0.992  3.019  0.000    20.726     6.474
 282   6 C     -0.152  0.977  3.175  0.000    23.348     6.866
 283   6 C     -0.138  0.965  3.173  0.000    23.076     6.826
 284   1 H      0.182  0.818  0.000  0.000     1.200     1.716
 285   1 H      0.064  0.936  0.000  0.000     2.157     2.297
 286   1 H      0.059  0.941  0.000  0.000     2.211     2.325
 287   1 H      0.050  0.950  0.000  0.000     2.314     2.379
 288   1 H      0.046  0.954  0.000  0.000     2.375     2.410
 289   1 H      0.058  0.942  0.000  0.000     2.224     2.332
 290   1 H      0.041  0.959  0.000  0.000     2.432     2.439
 291   1 H      0.057  0.943  0.000  0.000     2.233     2.337
 292   1 H      0.056  0.944  0.000  0.000     2.249     2.345
 293   1 H      0.051  0.949  0.000  0.000     2.311     2.377
 294   1 H      0.039  0.961  0.000  0.000     2.455     2.450
 295   7 N     -0.184  1.203  3.982  0.000    24.993     7.425
 296   6 C      0.021  1.033  2.946  0.000    20.213     6.400
 297   6 C      0.202  1.081  2.716  0.000    23.698     7.973
 298   8 O     -0.365  1.758  4.608  0.000    21.001     6.144
 299   6 C     -0.096  1.011  3.085  0.000    22.316     6.722
 300   6 C     -0.006  1.081  2.925  0.000    28.181     8.707
 301   6 C     -0.058  1.063  2.995  0.000    29.439     8.898
 302   6 C     -0.060  1.055  3.005  0.000    29.494     8.907
 303   6 C     -0.079  1.053  3.025  0.000    29.963     8.976
 304   6 C     -0.089  1.048  3.041  0.000    30.232     9.017
 305   6 C      0.139  1.043  2.817  0.000    24.955     8.187
 306   8 O     -0.426  1.656  4.769  0.000    21.348     6.237
 307   1 H      0.221  0.779  0.000  0.000     1.006     1.571
 308   1 H      0.112  0.888  0.000  0.000     1.679     2.026
 309   1 H      0.075  0.925  0.000  0.000     2.027     2.226
 310   1 H      0.093  0.907  0.000  0.000     1.845     2.124
 311   1 H      0.080  0.920  0.000  0.000     1.982     2.201
 312   1 H      0.059  0.941  0.000  0.000     2.215     2.327
 313   1 H      0.085  0.915  0.000  0.000     1.931     2.173
 314   1 H      0.049  0.951  0.000  0.000     2.328     2.386
 315   1 H      0.318  0.682  0.000  0.000     0.668     1.284
 316   7 N     -0.423  1.285  4.138  0.000    31.033     8.274
 317   6 C      0.019  1.037  2.943  0.000    20.242     6.405
 318   6 C      0.203  1.088  2.709  0.000    23.691     7.971
 319   8 O     -0.396  1.766  4.630  0.000    21.609     6.232
 320   6 C     -0.028  1.030  2.998  0.000    21.024     6.520
 321   6 C     -0.149  0.976  3.174  0.000    23.406     6.892
 322   6 C     -0.156  0.975  3.181  0.000    23.537     6.910
 323   1 H      0.190  0.810  0.000  0.000     1.159     1.686
 324   1 H      0.077  0.923  0.000  0.000     2.008     2.216
 325   1 H      0.057  0.943  0.000  0.000     2.235     2.338
 326   1 H      0.066  0.934  0.000  0.000     2.132     2.283
 327   1 H      0.041  0.959  0.000  0.000     2.437     2.441
 328   1 H      0.057  0.943  0.000  0.000     2.230     2.335
 329   1 H      0.065  0.935  0.000  0.000     2.141     2.288
 330   1 H      0.066  0.934  0.000  0.000     2.131     2.282
 331   1 H      0.064  0.936  0.000  0.000     2.157     2.296
 332   8 O     -0.617  1.657  4.960  0.000    25.582     6.827
 333   1 H      0.301  0.699  0.000  0.000     0.716     1.329
 334   1 H      0.317  0.683  0.000  0.000     0.671     1.286
 335   7 N     -0.410  1.284  4.126  0.000    30.667     8.225
 336   6 C      0.016  1.037  2.946  0.000    20.310     6.418
 337   6 C      0.262  1.054  2.684  0.000    22.592     7.784
 338   8 O     -0.495  1.769  4.726  0.000    23.673     6.523
 339   6 C     -0.091  1.007  3.084  0.000    22.211     6.707
 340   6 C     -0.112  1.005  3.107  0.000    22.620     6.768
 341   6 C      0.273  1.044  2.683  0.000    22.383     7.747
 342   8 O     -0.501  1.771  4.730  0.000    23.813     6.543
 343   7 N     -0.312  1.199  4.113  0.000    28.025     7.862
 344   1 H      0.181  0.819  0.000  0.000     1.208     1.721
 345   1 H      0.082  0.918  0.000  0.000     1.953     2.185
 346   1 H      0.057  0.943  0.000  0.000     2.235     2.338
 347   1 H      0.072  0.928  0.000  0.000     2.064     2.247
 348   1 H      0.081  0.919  0.000  0.000     1.970     2.195
 349   1 H      0.093  0.907  0.000  0.000     1.849     2.126
 350   1 H      0.235  0.765  0.000  0.000     0.943     1.521
 351   1 H      0.224  0.776  0.000  0.000     0.992     1.560
 352   7 N     -0.181  1.207  3.975  0.000    24.927     7.415
 353   6 C      0.010  1.038  2.953  0.000    20.409     6.432
 354   6 C      0.196  1.089  2.715  0.000    23.825     7.994
 355   8 O     -0.367  1.755  4.612  0.000    21.033     6.149
 356   6 C     -0.034  1.041  2.993  0.000    21.146     6.540
 357   6 C     -0.154  0.984  3.170  0.000    23.529     6.914
 358   6 C     -0.166  0.979  3.186  0.000    23.751     6.945
 359   1 H      0.219  0.781  0.000  0.000     1.013     1.577
 360   1 H      0.102  0.898  0.000  0.000     1.766     2.078
 361   1 H      0.058  0.942  0.000  0.000     2.220     2.330
 362   1 H      0.065  0.935  0.000  0.000     2.136     2.285
 363   1 H      0.037  0.963  0.000  0.000     2.492     2.469
 364   1 H      0.073  0.927  0.000  0.000     2.056     2.242
 365   1 H      0.078  0.922  0.000  0.000     1.999     2.211
 366   1 H      0.077  0.923  0.000  0.000     2.006     2.215
 367   1 H      0.074  0.926  0.000  0.000     2.045     2.236
 368   7 N     -0.418  1.279  4.139  0.000    30.874     8.252
 369   6 C      0.032  1.032  2.936  0.000    20.054     6.378
 370   6 C      0.267  1.051  2.682  0.000    22.487     7.766
 371   8 O     -0.518  1.749  4.769  0.000    24.185     6.593
 372   6 C     -0.079  1.010  3.069  0.000    22.000     6.676
 373   6 C     -0.109  1.014  3.096  0.000    22.580     6.764
 374   6 C      0.363  1.028  2.609  0.000    20.846     7.472
 375   8 O     -0.670  1.789  4.881  0.000    27.894     7.081
 376   8 O     -0.677  1.782  4.895  0.000    28.087     7.105
 377   1 H      0.184  0.816  0.000  0.000     1.193     1.711
 378   1 H      0.037  0.963  0.000  0.000     2.484     2.465
 379   1 H      0.061  0.939  0.000  0.000     2.189     2.314
 380   1 H      0.063  0.937  0.000  0.000     2.165     2.301
 381   1 H      0.049  0.951  0.000  0.000     2.330     2.387
 382   1 H      0.054  0.946  0.000  0.000     2.267     2.354
 383   7 N     -0.174  1.208  3.966  0.000    24.772     7.392
 384   6 C      0.016  1.033  2.950  0.000    20.299     6.414
 385   6 C      0.197  1.087  2.716  0.000    23.803     7.990
 386   8 O     -0.361  1.758  4.604  0.000    20.926     6.133
 387   6 C     -0.092  1.010  3.083  0.000    22.241     6.712
 388   6 C     -0.125  1.012  3.113  0.000    22.873     6.807
 389   6 C      0.272  1.050  2.678  0.000    22.405     7.750
 390   8 O     -0.473  1.753  4.720  0.000    23.186     6.456
 391   7 N     -0.312  1.199  4.113  0.000    28.027     7.863
 392   1 H      0.237  0.763  0.000  0.000     0.935     1.514
 393   1 H      0.101  0.899  0.000  0.000     1.772     2.082
 394   1 H      0.103  0.897  0.000  0.000     1.755     2.071
 395   1 H      0.089  0.911  0.000  0.000     1.890     2.150
 396   1 H      0.111  0.889  0.000  0.000     1.690     2.033
 397   1 H      0.081  0.919  0.000  0.000     1.964     2.191
 398   1 H      0.228  0.772  0.000  0.000     0.974     1.546
 399   1 H      0.221  0.779  0.000  0.000     1.004     1.569
 400   7 N     -0.410  1.277  4.133  0.000    30.647     8.222
 401   6 C      0.040  1.025  2.935  0.000    19.911     6.354
 402   6 C      0.203  1.091  2.706  0.000    23.686     7.971
 403   8 O     -0.385  1.760  4.625  0.000    21.383     6.200
 404   6 C     -0.091  1.005  3.086  0.000    22.203     6.704
 405   6 C      0.000  1.073  2.927  0.000    28.017     8.682
 406   6 C     -0.065  1.054  3.011  0.000    29.607     8.925
 407   6 C     -0.067  1.055  3.012  0.000    29.677     8.935
 408   6 C     -0.056  1.054  3.001  0.000    29.385     8.891
 409   6 C     -0.058  1.055  3.004  0.000    29.451     8.901
 410   6 C     -0.055  1.046  3.009  0.000    29.355     8.885
 411   1 H      0.185  0.815  0.000  0.000     1.184     1.704
 412   1 H      0.063  0.937  0.000  0.000     2.159     2.298
 413   1 H      0.061  0.939  0.000  0.000     2.187     2.313
 414   1 H      0.076  0.924  0.000  0.000     2.023     2.224
 415   1 H      0.057  0.943  0.000  0.000     2.233     2.337
 416   1 H      0.059  0.941  0.000  0.000     2.215     2.327
 417   1 H      0.063  0.937  0.000  0.000     2.168     2.302
 418   1 H      0.063  0.937  0.000  0.000     2.158     2.297
 419   1 H      0.063  0.937  0.000  0.000     2.169     2.303
 420   1 H      0.077  0.923  0.000  0.000     2.008     2.216
 421   1 H      0.182  0.818  0.000  0.000     1.203     1.718
 422   1 H      0.078  0.922  0.000  0.000     1.999     2.211
 423   1 H      0.181  0.819  0.000  0.000     1.206     1.720
 424   1 H      0.083  0.917  0.000  0.000     1.952     2.185
 425   1 H      0.176  0.824  0.000  0.000     1.239     1.744
 426   1 H      0.071  0.929  0.000  0.000     2.072     2.251
 427   1 H      0.182  0.818  0.000  0.000     1.204     1.719
 428   1 H      0.077  0.923  0.000  0.000     2.008     2.216
 429   1 H      0.186  0.814  0.000  0.000     1.182     1.703
 430   1 H      0.064  0.936  0.000  0.000     2.157     2.297
 431   1 H      0.186  0.814  0.000  0.000     1.179     1.701
 432   1 H      0.077  0.923  0.000  0.000     2.014     2.219
 433   1 H      0.170  0.830  0.000  0.000     1.271     1.766
 434   1 H      0.077  0.923  0.000  0.000     2.013     2.219
 435   1 H      0.171  0.829  0.000  0.000     1.265     1.762
 436   1 H      0.075  0.925  0.000  0.000     2.033     2.230

 Mol. C6AA /au·bohr⁶  :    1701243.560488
 Mol. C8AA /au·bohr⁸  :   38134634.939412
 Mol. α(0) /au        :       1954.960214

 
molecular dipole:
                 x           y           z       tot (Debye)
 q only:        9.444     -45.864       4.881
   full:       14.206     -44.713       5.056     119.940
molecular quadrupole (traceless):
                xx          xy          yy          xz          yz          zz
 q only:     5201.621   -6964.528  -12497.877    6609.233  -26809.450    7296.257
  q+dip:     6163.025   -5981.785  -12904.875    9479.287  -26085.911    6741.850
   full:     6163.286   -5981.633  -12904.552    9478.775  -26085.347    6741.265
speedup  1.51
cpu  time for grad   34.27 s
wall time for grad   22.71 s

SCC energy    :    -666.1677586
rep           :      14.4150593
ES            :       2.3027819
AES           :      -0.0694673
AXC           :       0.1109081
disp          :      -0.5506485
XB            :       0.0000000
fix           :       0.0000000
Gborn         :       0.0000000
Gsasa         :       0.0000000
Ghb           :       0.0000000
Gshift        :       0.0000000
Gsolv         :      -0.6589383     -413.49
Etot ala COSMO:    -666.1677586
grad norm     :       2.6783834
total E       :    -651.6965594
atomizationE  :     117.0118553    73426.05
(atE without considering molecular charge,
 total energy contains solvation terms)
H-L gap (eV)  :          1.3018

------------------------------------------------------------------------
 * finished run on 2019/05/12 at 13:12:17.944     
------------------------------------------------------------------------
 total:
 * wall-time:     0 d,  0 h,  0 min, 23.995 sec
 *  cpu-time:     0 d,  0 h,  0 min, 35.507 sec
 * ratio c/w:     1.480 speedup
 SCF:
 * wall-time:     0 d,  0 h,  0 min, 23.517 sec
 *  cpu-time:     0 d,  0 h,  0 min, 35.162 sec
 * ratio c/w:     1.495 speedup

