      -----------------------------------------------------------      
     |                   =====================                   |     
     |                           x T B                           |     
     |                   =====================                   |     
     |                         S. Grimme                         |     
     |          Mulliken Center for Theoretical Chemistry        |     
     |                    University of Bonn                     |     
     |                 Version 6.0.1 (SAW181210)                 |     
      -----------------------------------------------------------      

   This program is distributed in the hope that it will be useful,
   but WITHOUT ANY WARRANTY; without even the implied warranty of
   MERCHANTABILITY or FITNESS FOR A PARTICULAR PURPOSE.
   
   FOR NON-COMMERCIAL, ACADEMIA USE ONLY.
   
   Cite this work as:
   S. Grimme, C. Bannwarth, P. Shushkov, J. Comput. Theory Chem., 2017,
   13, 1989-2009.
   C. Bannwarth, S. Ehlert and S. Grimme., ChemRxiv, 2018, preprint.
   http://doi.org/10.26434/chemrxiv.7246238.v1
   
   for sTDA-xTB:
   S. Grimme and C. Bannwarth, J. Chem. Phys., 2016, 145, 054103.
   
   in the mass-spec context:
   V. Asgeirsson, C. Bauer and S. Grimme, Chem. Sci., 2017, 8, 4879.
   
   if GBSA is used:
   P. Shushkov, F. März and S. Grimme, unpublished.
   
   for ANC optimizer:
   S. Grimme, unpublished.
   Rational Function algorithm used in ANCopt:
   F. Eckert, P. Pulay, H.-J. Werner, J. Comput. Chem., 1997, 18, 1473.
   
   with help from (in alphabetical order)
   C. Bannwarth, F. Bohle, G. Brandenburg, E. Caldeweyher, M. Checinski,
   S. Dohm, S. Ehlert, S. Ehrlich, F. März, H. Neugebauer, J. Pisarek,
   P. Pracht, P. Shushkov, and S. Spicher.
   
 * started run on 2019/05/12 at 13:13:48.524     
========================================================================
 # omp threads = 2
========================================================================
number of atoms            : 227
number of electrons        : 606
charge                     : 1
spin                       : .0
first test random number   : .4796

########################################################################
# WARNING! Please study the warnings concerning your input carefully
#  - Process number higher than OMP_NUM_THREADS, I hope you know what you are doing.
########################################################################

           ------------------------------------------------- 
          |                 G F N 2 - x T B                 |
          | Geometry, Frequencies, Noncovalent interactions |
          |            JCTC 2018 parametrisation            |
           ------------------------------------------------- 
 
      method parameters     
 k(s)        :  1.8500
 k(p)        :  2.2300
 k(d)        :  2.2300
 k(f)        :  2.0000
 kEN (H0ij)  : -2.0000
 D4 a1       :  0.5200
 D4 a2       :  5.0000
 D4 s6       :  1.0000
 D4 s8       :  2.7000
 D4 s9       :  5.0000
 alphaj      :  2.0000

 Solvent             : h2o
 Using internal parameter file: .param_gbsa2_h2o
 Gsolv ref. state (COSMO-RS): gsolv [1 M gas/solution]
 temperature (mdtemp)       :    298.150000000000     
 dielectric constant        :    80.2000000000000     
 rho                        :    1.00000000000000     
 mass                       :    18.0000000000000     
 surface tension            :    15.5689454083859     
 probe radius               :   0.975313790000000     
 vdW radii scaling          :    1.00000000000000     
 Gshift (Eh)                :   1.857443126794793E-003
 c1                         :    1.55243817000000     
 soset                      :   0.130326360000000     
 HB correction              :  T

            Z     q(EN)     CN     RAES       Cart. coordinates
     1  N   5.0   -0.20    3.19    1.95    52.56292    46.80136   160.62948
     2  C   4.0    0.03    4.24    4.08    51.60009    44.25331   160.81586
     3  C   4.0    0.09    3.23    3.04    49.24457    43.87742   159.17836
     4  O   6.0   -0.28    1.12    1.80    48.99550    41.98432   157.87017
     5  C   4.0   -0.04    4.31    4.22    50.99491    43.54424   163.56937
     6  C   4.0   -0.00    3.56    3.15    49.90604    40.91985   163.78070
     7  C   4.0   -0.02    3.47    3.10    51.22478    38.82322   162.90166
     8  C   4.0   -0.03    3.46    3.10    47.54810    40.54143   164.86877
     9  C   4.0   -0.02    3.37    3.07    50.19413    36.42450   163.05504
    10  C   4.0   -0.03    3.37    3.07    46.53772    38.13663   165.08167
    11  C   4.0   -0.03    3.37    3.07    47.84685    36.07112   164.15628
    12  H   1.0    0.09    1.02    1.43    51.50978    48.15411   161.49245
    13  H   1.0    0.06    1.06    1.44    53.06970    42.99419   160.09891
    14  H   1.0    0.05    1.03    1.43    52.74444    43.66785   164.65930
    15  H   1.0    0.05    1.03    1.43    49.67120    44.92493   164.34089
    16  H   1.0    0.06    1.03    1.43    53.08345    39.06464   162.10053
    17  H   1.0    0.05    1.03    1.43    46.49778    42.14533   165.57827
    18  H   1.0    0.07    1.03    1.43    51.20636    34.82110   162.30161
    19  H   1.0    0.05    1.03    1.43    44.71483    37.88270   165.96912
    20  H   1.0    0.06    1.03    1.43    47.04527    34.20231   164.30992
    21  N   5.0   -0.13    3.45    2.05    44.01458    44.75863   153.57264
    22  C   4.0    0.03    4.37    4.34    43.83656    45.48622   150.92318
    23  C   4.0    0.09    3.20    3.04    42.37834    47.99276   150.69558
    24  O   6.0   -0.27    1.13    1.80    41.36795    49.00428   152.50637
    25  C   4.0   -0.04    4.31    4.22    42.36751    43.32542   149.67570
    26  C   4.0   -0.04    4.26    4.13    40.65327    42.41982   151.81759
    27  C   4.0    0.00    4.24    4.08    42.25087    42.75723   154.21503
    28  H   1.0    0.05    1.04    1.43    45.75413    45.72245   150.19376
    29  H   1.0    0.05    1.02    1.43    41.29862    43.95581   148.03752
    30  H   1.0    0.05    1.02    1.43    43.66599    41.82772   149.11956
    31  H   1.0    0.05    1.02    1.43    38.98519    43.62209   151.94562
    32  H   1.0    0.03    1.02    1.43    40.06127    40.46932   151.57000
    33  H   1.0    0.05    1.02    1.43    41.06191    43.28115   155.81573
    34  H   1.0    0.05    1.02    1.43    43.31114    41.04300   154.68669
    35  N   5.0   -0.20    3.19    1.95    24.40027    45.38144   158.49587
    36  C   4.0    0.03    4.23    4.05    25.81876    43.10562   159.04407
    37  C   4.0    0.08    3.22    3.04    25.19564    40.99534   157.16056
    38  O   6.0   -0.30    1.17    1.80    26.85663    39.65317   156.26503
    39  C   4.0   -0.05    4.27    4.15    25.26003    42.21139   161.72911
    40  C   4.0   -0.04    4.21    4.03    27.00336    40.02846   162.47033
    41  C   4.0   -0.00    4.22    4.04    26.86696    39.34479   165.26442
    42  N   5.0   -0.13    3.43    2.03    27.74508    41.45391   166.77613
    43  C   4.0    0.10    3.35    3.06    28.08752    41.38294   169.24565
    44  N   5.0   -0.17    3.26    1.97    27.63517    39.28822   170.56137
    45  N   5.0   -0.18    3.24    1.96    28.76903    43.50900   170.45065
    46  H   1.0    0.09    1.02    1.43    23.20375    46.04704   159.83999
    47  H   1.0    0.04    1.05    1.44    27.84649    43.49904   158.82059
    48  H   1.0    0.04    1.03    1.43    25.49482    43.82620   162.99029
    49  H   1.0    0.05    1.03    1.43    23.28600    41.62006   161.82268
    50  H   1.0    0.06    1.03    1.43    26.52940    38.35656   161.36742
    51  H   1.0    0.05    1.03    1.43    28.96130    40.48314   162.01467
    52  H   1.0    0.05    1.02    1.43    24.92686    38.87799   165.80182
    53  H   1.0    0.07    1.05    1.44    28.10642    37.72247   165.55568
    54  H   1.0    0.08    1.08    1.44    28.23731    43.04657   165.83914
    55  H   1.0    0.10    1.03    1.43    27.51394    37.59835   169.69087
    56  H   1.0    0.10    1.03    1.43    28.05684    39.21198   172.41746
    57  H   1.0    0.09    1.03    1.43    28.74547    45.17611   169.52453
    58  H   1.0    0.09    1.03    1.43    28.70580    43.56133   172.35428
    59  N   5.0   -0.18    3.26    1.97    28.84269    40.40663   151.40124
    60  C   4.0    0.03    4.32    4.23    31.43495    39.63539   151.75775
    61  C   4.0    0.15    3.38    3.07    31.59658    36.76907   152.21267
    62  O   6.0   -0.27    1.23    1.80    29.79065    35.41991   152.67269
    63  C   4.0   -0.05    4.34    4.28    32.62213    41.13014   153.93352
    64  C   4.0   -0.04    4.06    3.73    32.56398    43.96048   153.40016
    65  S   6.0   -0.03    2.46    3.10    34.41700    45.65145   155.80096
    66  C   4.0   -0.06    3.88    3.43    32.29373    48.22096   156.56349
    67  H   1.0    0.13    1.07    1.44    27.72044    40.10782   152.92724
    68  H   1.0    0.04    1.05    1.44    32.42286    40.04532   149.97925
    69  H   1.0    0.06    1.03    1.43    31.55517    40.72991   155.65264
    70  H   1.0    0.04    1.04    1.43    34.57009    40.52049   154.21849
    71  H   1.0    0.04    1.06    1.44    33.38814    44.37911   151.55830
    72  H   1.0    0.04    1.06    1.44    30.63333    44.66705   153.45817
    73  H   1.0    0.05    1.05    1.44    32.94442    49.04390   158.32422
    74  H   1.0    0.05    1.04    1.43    32.34974    49.63720   155.07895
    75  H   1.0    0.04    1.04    1.43    30.41026    47.44396   156.76994
    76  N   5.0   -0.15    3.45    2.04    33.95670    35.81529   151.97213
    77  C   4.0    0.03    4.48    4.51    34.34571    33.19183   151.25383
    78  C   4.0    0.15    3.41    3.08    34.95284    31.52294   153.54149
    79  O   6.0   -0.33    1.32    1.80    37.03501    31.50453   154.54060
    80  C   4.0   -0.02    4.26    4.12    36.39162    33.03312   149.17905
    81  C   4.0   -0.07    4.12    3.84    38.99675    33.93428   150.03762
    82  C   4.0   -0.07    4.12    3.84    36.55899    30.33104   148.18385
    83  H   1.0    0.07    1.07    1.44    35.39499    37.00639   151.58884
    84  H   1.0    0.05    1.07    1.44    32.54362    32.53971   150.45671
    85  H   1.0    0.04    1.06    1.44    35.74578    34.26319   147.64226
    86  H   1.0    0.04    1.00    1.43    40.25426    33.95970   148.41471
    87  H   1.0    0.04    1.00    1.43    38.94213    35.82831   150.83205
    88  H   1.0    0.06    1.01    1.43    39.75990    32.66589   151.45470
    89  H   1.0    0.05    1.00    1.43    37.87207    30.24715   146.60773
    90  H   1.0    0.05    1.00    1.43    37.23470    29.07240   149.65803
    91  H   1.0    0.04    1.00    1.43    34.72492    29.67267   147.53414
    92  N   5.0   -0.15    3.44    2.04    33.01750    30.09983   154.36203
    93  C   4.0    0.03    4.34    4.28    33.19017    28.19580   156.35070
    94  C   4.0    0.15    3.39    3.08    33.83018    29.34768   158.96416
    95  O   6.0   -0.30    1.26    1.80    34.87143    28.10138   160.60491
    96  C   4.0   -0.04    4.35    4.29    35.11148    26.08385   155.76013
    97  C   4.0   -0.02    4.15    3.91    34.14713    23.87287   154.14899
    98  C   4.0   -0.07    4.10    3.79    33.93721    24.56140   151.35419
    99  C   4.0   -0.07    4.11    3.82    35.94036    21.62382   154.45131
   100  H   1.0    0.09    1.07    1.44    31.32191    30.32508   153.51813
   101  H   1.0    0.04    1.05    1.44    31.30975    27.35386   156.53593
   102  H   1.0    0.06    1.03    1.43    36.75060    26.93360   154.84889
   103  H   1.0    0.06    1.05    1.44    35.70027    25.33000   157.58778
   104  H   1.0    0.05    1.05    1.44    32.28230    23.30873   154.84812
   105  H   1.0    0.05    1.00    1.43    33.16360    22.98342   150.29003
   106  H   1.0    0.05    1.00    1.43    32.71371    26.18628   151.07259
   107  H   1.0    0.04    1.00    1.43    35.79590    24.99316   150.59423
   108  H   1.0    0.05    1.00    1.43    35.29012    20.03633   153.32051
   109  H   1.0    0.05    1.00    1.43    37.83392    22.12047   153.82691
   110  H   1.0    0.05    1.00    1.43    36.02890    21.02007   156.41306
   111  N   5.0   -0.14    3.46    2.06    33.12242    31.75502   159.33451
   112  C   4.0    0.04    4.41    4.41    34.00107    33.19464   161.49828
   113  C   4.0    0.16    3.40    3.08    31.90770    33.68603   163.44864
   114  O   6.0   -0.31    1.28    1.80    31.09554    35.80112   163.85821
   115  C   4.0   -0.03    4.28    4.15    35.13960    35.72444   160.66471
   116  C   4.0   -0.04    4.16    3.93    37.25756    35.49694   158.72087
   117  C   4.0   -0.01    4.17    3.94    39.86071    34.74510   159.76009
   118  N   5.0   -0.13    3.42    2.03    39.91055    32.48732   161.31434
   119  C   4.0    0.11    3.35    3.06    40.24195    30.09543   160.60579
   120  N   5.0   -0.18    3.25    1.97    40.39468    29.47007   158.16725
   121  N   5.0   -0.16    3.26    1.97    40.59129    28.37282   162.39450
   122  H   1.0    0.09    1.07    1.44    32.19299    32.71511   157.97068
   123  H   1.0    0.08    1.08    1.44    35.40843    32.02178   162.45468
   124  H   1.0    0.05    1.03    1.43    33.61442    36.86705   159.87254
   125  H   1.0    0.05    1.03    1.43    35.81684    36.68568   162.35631
   126  H   1.0    0.07    1.06    1.44    36.71061    34.15916   157.26664
   127  H   1.0    0.04    1.03    1.43    37.50561    37.33543   157.82609
   128  H   1.0    0.05    1.03    1.43    41.13716    34.48342   158.16151
   129  H   1.0    0.04    1.03    1.43    40.59443    36.27589   160.93173
   130  H   1.0    0.09    1.12    1.45    39.83048    32.74683   163.19847
   131  H   1.0    0.11    1.07    1.44    39.50915    30.55480   156.85519
   132  H   1.0    0.09    1.04    1.43    40.54651    27.61873   157.74913
   133  H   1.0    0.13    1.09    1.44    40.55347    28.92116   164.25064
   134  H   1.0    0.10    1.03    1.43    40.62713    26.51870   161.98702
   135  N   5.0   -0.14    3.45    2.04    31.02719    31.63008   164.65776
   136  C   4.0    0.04    4.33    4.26    29.14073    31.85698   166.62809
   137  C   4.0    0.15    3.38    3.07    30.14838    31.78823   169.36068
   138  O   6.0   -0.29    1.21    1.80    28.98517    32.84745   171.05386
   139  C   4.0   -0.06    4.10    3.80    27.10143    29.82180   166.36643
   140  H   1.0    0.09    1.06    1.44    31.86477    29.94393   164.35930
   141  H   1.0    0.06    1.07    1.44    28.28262    33.72264   166.37689
   142  H   1.0    0.06    1.00    1.43    25.69153    30.07452   167.83754
   143  H   1.0    0.05    1.00    1.43    26.18911    29.96268   164.53316
   144  H   1.0    0.05    1.00    1.43    27.92958    27.95296   166.56663
   145  N   5.0   -0.15    3.51    2.08    32.22667    30.37226   169.72988
   146  C   4.0    0.04    4.44    4.44    33.30737    29.91531   172.19377
   147  C   4.0    0.15    3.39    3.08    35.44357    31.73741   172.92261
   148  O   6.0   -0.29    1.27    1.80    36.89675    31.27735   174.67125
   149  C   4.0    0.06    4.23    4.06    34.18892    27.12115   172.38865
   150  O   6.0   -0.23    2.11    1.84    34.96998    26.54236   174.85758
   151  C   4.0   -0.05    4.07    3.75    36.22824    26.48565   170.43928
   152  H   1.0    0.11    1.11    1.44    33.44034    30.15674   168.25309
   153  H   1.0    0.07    1.06    1.44    31.80817    30.21734   173.60037
   154  H   1.0    0.06    1.04    1.43    32.53713    25.91258   172.04800
   155  H   1.0    0.16    1.07    1.44    36.19597    27.81847   175.36475
   156  H   1.0    0.06    1.00    1.43    36.95246    24.60534   170.83523
   157  H   1.0    0.06    1.00    1.43    35.46117    26.51073   168.53714
   158  H   1.0    0.07    1.00    1.43    37.79002    27.82157   170.53711
   159  N   5.0   -0.12    3.54    2.11    35.47777    33.91119   171.64817
   160  C   4.0    0.04    4.40    4.38    37.29468    35.91728   172.06404
   161  C   4.0    0.15    3.45    3.09    35.88134    38.37296   171.47234
   162  O   6.0   -0.29    1.25    1.80    34.65944    38.64111   169.53035
   163  C   4.0   -0.03    4.23    4.06    39.66259    35.66824   170.38679
   164  C   4.0   -0.03    4.19    3.97    39.02129    35.25193   167.59633
   165  C   4.0    0.24    3.16    3.03    38.39389    32.44372   167.01661
   166  O   6.0   -0.31    1.26    1.80    40.23805    30.96856   166.84421
   167  O   6.0   -0.32    1.26    1.80    36.14554    31.84901   166.64490
   168  H   1.0    0.11    1.10    1.44    34.48694    34.05392   170.01654
   169  H   1.0    0.06    1.06    1.44    37.85088    35.82673   174.05458
   170  H   1.0    0.05    1.02    1.43    40.78171    37.39082   170.59957
   171  H   1.0    0.06    1.02    1.43    40.79916    34.08089   171.06708
   172  H   1.0    0.07    1.03    1.43    37.42823    36.43666   167.04003
   173  H   1.0    0.04    1.03    1.43    40.67215    35.74311   166.45709
   174  N   5.0   -0.13    3.45    2.05    35.93689    40.10677   173.32198
   175  C   4.0    0.04    4.37    4.32    34.62503    42.47866   173.04425
   176  C   4.0    0.15    3.40    3.08    36.32971    44.54077   171.94576
   177  O   6.0   -0.28    1.21    1.80    38.63586    44.46615   171.95651
   178  C   4.0   -0.06    4.11    3.83    33.59522    43.37291   175.59228
   179  H   1.0    0.09    1.06    1.44    37.20941    39.94776   174.72912
   180  H   1.0    0.06    1.07    1.44    33.11636    42.10616   171.67674
   181  H   1.0    0.05    1.00    1.43    32.49523    45.09269   175.38279
   182  H   1.0    0.05    1.00    1.43    32.43937    41.90104   176.43558
   183  H   1.0    0.06    1.00    1.43    35.15788    43.77660   176.86644
   184  N   5.0   -0.13    3.55    2.11    34.96675    46.46658   171.02100
   185  C   4.0    0.04    4.33    4.25    36.01094    48.91043   170.46857
   186  C   4.0    0.08    3.25    3.04    34.03018    50.85360   171.28274
   187  O   6.0   -0.28    1.17    1.80    31.81575    50.24254   171.53153
   188  C   4.0   -0.03    4.32    4.23    36.63496    49.11995   167.63242
   189  C   4.0   -0.00    3.59    3.16    34.31970    48.82152   166.02585
   190  C   4.0   -0.03    3.47    3.10    33.52162    46.44393   165.25952
   191  C   4.0   -0.03    3.47    3.10    32.94258    50.92992   165.28916
   192  C   4.0   -0.04    3.38    3.07    31.41035    46.19410   163.73692
   193  C   4.0   -0.03    3.37    3.07    30.82483    50.67846   163.77914
   194  C   4.0   -0.04    3.37    3.07    30.05737    48.30585   162.99363
   195  H   1.0    0.10    1.10    1.44    33.05622    46.48954   171.19382
   196  H   1.0    0.06    1.05    1.44    37.74677    49.18822   171.56497
   197  H   1.0    0.05    1.03    1.43    37.52463    50.94767   167.28300
   198  H   1.0    0.05    1.03    1.43    37.98999    47.62391   167.20351
   199  H   1.0    0.06    1.03    1.43    34.58898    44.79524   165.81455
   200  H   1.0    0.06    1.03    1.43    33.55106    52.77450   165.92432
   201  H   1.0    0.05    1.03    1.43    30.89735    44.34322   163.05510
   202  H   1.0    0.06    1.03    1.43    29.79879    52.34179   163.19951
   203  H   1.0    0.05    1.03    1.43    28.41671    48.10837   161.80101
   204  N   5.0   -0.19    3.23    1.96    52.53336    26.23656   156.53237
   205  C   4.0    0.04    4.21    4.02    52.13055    26.74980   153.88175
   206  C   4.0    0.10    3.18    3.03    54.10983    28.59876   152.77469
   207  O   6.0   -0.26    1.13    1.80    53.67379    29.84293   150.87930
   208  C   4.0   -0.02    4.30    4.21    49.43926    27.76213   153.46210
   209  C   4.0    0.16    3.24    3.04    48.75175    29.98432   155.16589
   210  O   6.0   -0.29    1.27    1.80    49.64745    30.31501   157.27969
   211  N   5.0   -0.18    3.19    1.95    47.04073    31.56075   154.18855
   212  H   1.0    0.12    1.07    1.44    51.82593    27.59516   157.70303
   213  H   1.0    0.05    1.05    1.44    52.34807    24.95878   152.85645
   214  H   1.0    0.06    1.03    1.43    49.26115    28.31677   151.48613
   215  H   1.0    0.05    1.03    1.43    48.08422    26.25549   153.85625
   216  H   1.0    0.10    1.03    1.43    46.38555    32.99673   155.25779
   217  H   1.0    0.08    1.03    1.43    46.25059    31.26098   152.48641
   218  H   1.0    0.10    1.07    1.44    54.10791    46.87758   161.33640
   219  H   1.0    0.06    1.04    1.44    47.88276    45.18754   159.16710
   220  H   1.0    0.10    1.10    1.44    45.65103    44.65430   154.02401
   221  H   1.0    0.06    1.05    1.44    42.23278    48.85232   149.01896
   222  H   1.0    0.09    1.07    1.44    25.47717    46.66248   158.19290
   223  H   1.0    0.06    1.05    1.44    23.40456    40.69214   156.63982
   224  H   1.0    0.09    1.08    1.44    28.78775    42.07155   151.05831
   225  H   1.0    0.06    1.04    1.43    34.54219    52.64175   171.61657
   226  H   1.0    0.10    1.07    1.44    51.77933    24.76974   156.94760
   227  H   1.0    0.07    1.04    1.44    55.79162    28.79601   153.61359

  Z AO/shell   Hii/eV     exponent
  1     Wed Apr 25 08:07:45 CEST 2018   EN: 2.200 GM2: 0.406  GM3: 0.0800  RAES: 1.40
     1s    -10.707211    1.230000
  6     Wed Apr 25 08:07:45 CEST 2018   EN: 2.550 GM2: 0.538  GM3: 0.1500  RAES: 3.00
     2s    -13.970922    2.096432
     2p    -10.063292    1.800000
  7     Wed Apr 25 08:07:45 CEST 2018   EN: 3.040 GM2: 0.461  GM3:-0.0640  RAES: 1.90
     2s    -16.686243    2.339881
     2p    -12.523956    2.014332
  8     Wed Apr 25 08:07:45 CEST 2018   EN: 3.440 GM2: 0.452  GM3:-0.0517  RAES: 1.80
     2s    -20.229985    2.439742
     2p    -15.503117    2.137023
 16     Tue Apr 24 11:44:34 CEST 2018   EN: 2.580 GM2: 0.340  GM3:-0.0502  RAES: 3.10
     3s    -20.029654    1.981333
     3p    -11.377694    2.025643
     3d     -0.420282    1.702555
 no old-style atom pair restraining (fixing) potential

molecular fragmentation (1/2 indicates fragments):
111111111111111111112222222222222222222222222222222222222222222222222222
222222222222222222222222222222222222222222222222222222222222222222222222
222222222222222222222222222222222222222222222222222222222222222222222222
21122222222
# atoms in fragment 1/2:    22   205
 fragment masses (1/2) :      149.19     1395.70
CMA distance (Bohr)    :  14.837
constraining FC (au)   :  0.0500
           ------------------------------------------------- 
          |        Self-Consistent Charge Iterations        |
           ------------------------------------------------- 

 Ncao       : 557
 Nao        : 556
 Nshell     : 336
 Nel        : 606
 T(el)      :   500.0
 intcut     :    35.0
 scfconv/Eh :  0.100E-06
   qconv/e  :  0.100E-04
 intneglect :  0.100E-08
 broydamp   :      0.400
 iter      E             dE          RMSdq      gap      omega  full diag
   1   -344.6412147 -0.344641E+03  0.462E+00    2.96       0.0  T
   2   -345.4353677 -0.794153E+00  0.217E+00    1.34       1.0  T
   3   -345.4827122 -0.473445E-01  0.122E+00    1.38       1.0  T
   4   -345.5368159 -0.541037E-01  0.239E-01    0.89       1.0  T
   5   -345.5395176 -0.270163E-02  0.114E-01    1.05       1.0  T
   6   -345.5400870 -0.569475E-03  0.480E-02    1.05       1.0  T
   7   -345.5402117 -0.124660E-03  0.208E-02    1.03       1.0  T
   8   -345.5402292 -0.175449E-04  0.102E-02    1.03       1.0  T
   9   -345.5402343 -0.504802E-05  0.437E-03    1.03       1.5  T
  10   -345.5402352 -0.926062E-06  0.179E-03    1.03       3.7  T
  11   -345.5402353 -0.119432E-06  0.824E-04    1.03       8.1  T
  12   -345.5402354 -0.244088E-07  0.367E-04    1.03      18.1  T
  13   -345.5402354 -0.103234E-07  0.172E-04    1.03      38.6  T
  14   -345.5402354 -0.104046E-08  0.817E-05    1.03      81.3  T
  15   -345.5402354 -0.358114E-09  0.355E-05    1.03     186.9  T
speedup  2.00
cpu  time for SCC    2.03 s
wall time for SCC    1.01 s

   *** convergence criteria satisfied after 15 iterations ***

          eigenvalues
 #    :         291        292        293        294        295        296        297        298
 occ. :        2.000      2.000      2.000      2.000      2.000      2.000      2.000      2.000
 eps  :       -10.910    -10.864    -10.847    -10.804    -10.789    -10.780    -10.272    -10.133
 #    :         299        300        301        302        303        304        305        306
 occ. :        2.000      2.000      2.000      2.000      2.000      0.000      0.000      0.000
 eps  :       -10.127     -9.934     -9.837     -9.615     -9.204     -8.177     -7.800     -7.723
 #    :         307        308        309        310        311        312        313        314
 occ. :        0.000      0.000      0.000      0.000      0.000      0.000      0.000      0.000
 eps  :        -7.648     -7.438     -6.538     -6.521     -6.379     -6.333     -6.309     -6.256


   #   Z            q   n(s)   n(p)   n(d)      C6AA      α(0)
   1   7 N     -0.392  1.326  4.066  0.000    30.153     8.155
   2   6 C      0.040  1.056  2.904  0.000    19.926     6.358
   3   6 C      0.202  1.089  2.708  0.000    23.694     7.972
   4   8 O     -0.372  1.757  4.615  0.000    21.128     6.163
   5   6 C     -0.075  1.059  3.016  0.000    21.924     6.665
   6   6 C      0.007  1.084  2.909  0.000    27.859     8.658
   7   6 C     -0.037  1.080  2.957  0.000    28.912     8.818
   8   6 C     -0.044  1.082  2.962  0.000    29.096     8.846
   9   6 C     -0.030  1.081  2.949  0.000    28.752     8.793
  10   6 C     -0.032  1.079  2.954  0.000    28.808     8.802
  11   6 C     -0.035  1.079  2.956  0.000    28.882     8.813
  12   1 H      0.166  0.834  0.000  0.000     1.298     1.785
  13   1 H      0.064  0.936  0.000  0.000     2.155     2.296
  14   1 H      0.060  0.940  0.000  0.000     2.203     2.321
  15   1 H      0.050  0.950  0.000  0.000     2.315     2.379
  16   1 H      0.033  0.967  0.000  0.000     2.543     2.494
  17   1 H      0.035  0.965  0.000  0.000     2.520     2.483
  18   1 H      0.037  0.963  0.000  0.000     2.493     2.469
  19   1 H      0.026  0.974  0.000  0.000     2.650     2.545
  20   1 H      0.034  0.966  0.000  0.000     2.528     2.486
  21   7 N     -0.271  1.248  4.023  0.000    27.001     7.717
  22   6 C      0.028  1.064  2.908  0.000    20.091     6.380
  23   6 C      0.198  1.088  2.714  0.000    23.786     7.987
  24   8 O     -0.363  1.756  4.607  0.000    20.961     6.138
  25   6 C     -0.064  1.054  3.010  0.000    21.714     6.631
  26   6 C     -0.059  1.052  3.008  0.000    21.621     6.616
  27   6 C      0.011  1.047  2.942  0.000    20.448     6.447
  28   1 H      0.048  0.952  0.000  0.000     2.345     2.395
  29   1 H      0.044  0.956  0.000  0.000     2.399     2.422
  30   1 H      0.058  0.942  0.000  0.000     2.217     2.328
  31   1 H      0.042  0.958  0.000  0.000     2.425     2.435
  32   1 H      0.045  0.955  0.000  0.000     2.382     2.414
  33   1 H      0.043  0.957  0.000  0.000     2.412     2.429
  34   1 H      0.028  0.972  0.000  0.000     2.614     2.529
  35   7 N     -0.392  1.315  4.078  0.000    30.158     8.156
  36   6 C      0.042  1.054  2.903  0.000    19.882     6.352
  37   6 C      0.195  1.092  2.713  0.000    23.843     7.997
  38   8 O     -0.371  1.758  4.613  0.000    21.117     6.161
  39   6 C     -0.082  1.060  3.022  0.000    22.057     6.686
  40   6 C     -0.075  1.049  3.026  0.000    21.922     6.665
  41   6 C     -0.033  1.054  2.979  0.000    21.233     6.574
  42   7 N     -0.125  1.207  3.918  0.000    23.718     7.233
  43   6 C      0.229  1.019  2.752  0.000    23.191     7.885
  44   7 N     -0.232  1.229  4.003  0.000    26.096     7.587
  45   7 N     -0.260  1.237  4.023  0.000    26.747     7.681
  46   1 H      0.174  0.826  0.000  0.000     1.248     1.750
  47   1 H      0.051  0.949  0.000  0.000     2.308     2.376
  48   1 H      0.071  0.929  0.000  0.000     2.074     2.252
  49   1 H      0.065  0.935  0.000  0.000     2.147     2.291
  50   1 H      0.058  0.942  0.000  0.000     2.226     2.333
  51   1 H      0.068  0.932  0.000  0.000     2.111     2.272
  52   1 H      0.086  0.914  0.000  0.000     1.923     2.168
  53   1 H      0.096  0.904  0.000  0.000     1.821     2.110
  54   1 H      0.227  0.773  0.000  0.000     0.978     1.549
  55   1 H      0.230  0.770  0.000  0.000     0.965     1.539
  56   1 H      0.242  0.758  0.000  0.000     0.916     1.499
  57   1 H      0.239  0.761  0.000  0.000     0.929     1.510
  58   1 H      0.243  0.757  0.000  0.000     0.910     1.495
  59   7 N     -0.394  1.325  4.070  0.000    30.218     8.164
  60   6 C      0.031  1.061  2.909  0.000    20.071     6.381
  61   6 C      0.272  1.049  2.679  0.000    22.410     7.752
  62   8 O     -0.462  1.745  4.717  0.000    22.960     6.424
  63   6 C     -0.071  1.056  3.015  0.000    21.830     6.647
  64   6 C     -0.005  1.065  2.940  0.000    20.669     6.474
  65  16 S     -0.226  1.922  4.255  0.049   150.706    20.662
  66   6 C     -0.054  1.052  3.002  0.000    21.617     6.632
  67   1 H      0.178  0.822  0.000  0.000     1.227     1.735
  68   1 H      0.042  0.958  0.000  0.000     2.420     2.433
  69   1 H      0.061  0.939  0.000  0.000     2.184     2.311
  70   1 H      0.046  0.954  0.000  0.000     2.368     2.406
  71   1 H      0.038  0.962  0.000  0.000     2.480     2.463
  72   1 H      0.047  0.953  0.000  0.000     2.358     2.401
  73   1 H      0.067  0.933  0.000  0.000     2.117     2.276
  74   1 H      0.049  0.951  0.000  0.000     2.329     2.386
  75   1 H      0.058  0.942  0.000  0.000     2.228     2.334
  76   7 N     -0.192  1.254  3.938  0.000    25.161     7.450
  77   6 C      0.016  1.068  2.916  0.000    20.313     6.418
  78   6 C      0.272  1.044  2.683  0.000    22.394     7.749
  79   8 O     -0.450  1.723  4.727  0.000    22.700     6.388
  80   6 C     -0.017  1.062  2.955  0.000    20.847     6.494
  81   6 C     -0.125  1.039  3.085  0.000    22.948     6.831
  82   6 C     -0.120  1.040  3.080  0.000    22.856     6.816
  83   1 H      0.198  0.802  0.000  0.000     1.117     1.656
  84   1 H      0.057  0.943  0.000  0.000     2.233     2.337
  85   1 H      0.043  0.957  0.000  0.000     2.408     2.427
  86   1 H      0.053  0.947  0.000  0.000     2.279     2.361
  87   1 H      0.040  0.960  0.000  0.000     2.452     2.449
  88   1 H      0.073  0.927  0.000  0.000     2.048     2.238
  89   1 H      0.056  0.944  0.000  0.000     2.249     2.345
  90   1 H      0.051  0.949  0.000  0.000     2.312     2.378
  91   1 H      0.040  0.960  0.000  0.000     2.446     2.446
  92   7 N     -0.173  1.246  3.927  0.000    24.749     7.389
  93   6 C      0.012  1.069  2.920  0.000    20.396     6.433
  94   6 C      0.270  1.045  2.685  0.000    22.433     7.756
  95   8 O     -0.478  1.748  4.731  0.000    23.313     6.474
  96   6 C     -0.082  1.057  3.025  0.000    22.053     6.685
  97   6 C     -0.014  1.059  2.954  0.000    20.783     6.485
  98   6 C     -0.116  1.041  3.075  0.000    22.784     6.806
  99   6 C     -0.119  1.043  3.076  0.000    22.827     6.812
 100   1 H      0.205  0.795  0.000  0.000     1.079     1.627
 101   1 H      0.080  0.920  0.000  0.000     1.975     2.197
 102   1 H      0.067  0.933  0.000  0.000     2.122     2.278
 103   1 H      0.073  0.927  0.000  0.000     2.049     2.239
 104   1 H      0.033  0.967  0.000  0.000     2.545     2.495
 105   1 H      0.039  0.961  0.000  0.000     2.461     2.453
 106   1 H      0.037  0.963  0.000  0.000     2.488     2.467
 107   1 H      0.045  0.955  0.000  0.000     2.380     2.413
 108   1 H      0.041  0.959  0.000  0.000     2.437     2.441
 109   1 H      0.046  0.954  0.000  0.000     2.376     2.410
 110   1 H      0.038  0.962  0.000  0.000     2.479     2.462
 111   7 N     -0.174  1.242  3.932  0.000    24.776     7.393
 112   6 C      0.012  1.062  2.927  0.000    20.387     6.430
 113   6 C      0.270  1.047  2.683  0.000    22.439     7.757
 114   8 O     -0.452  1.728  4.723  0.000    22.740     6.394
 115   6 C     -0.072  1.050  3.022  0.000    21.878     6.659
 116   6 C     -0.090  1.053  3.036  0.000    22.210     6.710
 117   6 C     -0.018  1.051  2.966  0.000    20.975     6.536
 118   7 N     -0.150  1.206  3.944  0.000    24.238     7.312
 119   6 C      0.243  1.020  2.737  0.000    22.929     7.840
 120   7 N     -0.264  1.252  4.012  0.000    26.845     7.695
 121   7 N     -0.272  1.252  4.020  0.000    27.044     7.724
 122   1 H      0.202  0.798  0.000  0.000     1.097     1.641
 123   1 H      0.087  0.913  0.000  0.000     1.913     2.163
 124   1 H      0.068  0.932  0.000  0.000     2.111     2.272
 125   1 H      0.060  0.940  0.000  0.000     2.195     2.317
 126   1 H      0.076  0.924  0.000  0.000     2.024     2.225
 127   1 H      0.072  0.928  0.000  0.000     2.064     2.247
 128   1 H      0.086  0.914  0.000  0.000     1.920     2.167
 129   1 H      0.071  0.929  0.000  0.000     2.078     2.254
 130   1 H      0.194  0.806  0.000  0.000     1.135     1.669
 131   1 H      0.261  0.739  0.000  0.000     0.843     1.439
 132   1 H      0.229  0.771  0.000  0.000     0.969     1.542
 133   1 H      0.246  0.754  0.000  0.000     0.899     1.485
 134   1 H      0.238  0.762  0.000  0.000     0.931     1.512
 135   7 N     -0.173  1.240  3.933  0.000    24.744     7.388
 136   6 C      0.014  1.061  2.925  0.000    20.342     6.423
 137   6 C      0.268  1.048  2.684  0.000    22.477     7.763
 138   8 O     -0.476  1.740  4.735  0.000    23.254     6.465
 139   6 C     -0.134  1.044  3.090  0.000    23.127     6.857
 140   1 H      0.196  0.804  0.000  0.000     1.125     1.662
 141   1 H      0.095  0.905  0.000  0.000     1.833     2.117
 142   1 H      0.075  0.925  0.000  0.000     2.027     2.227
 143   1 H      0.081  0.919  0.000  0.000     1.973     2.197
 144   1 H      0.057  0.943  0.000  0.000     2.229     2.335
 145   7 N     -0.200  1.259  3.941  0.000    25.344     7.477
 146   6 C      0.007  1.067  2.927  0.000    20.477     6.444
 147   6 C      0.275  1.043  2.681  0.000    22.341     7.740
 148   8 O     -0.500  1.749  4.750  0.000    23.775     6.537
 149   6 C      0.117  1.047  2.837  0.000    18.773     6.187
 150   8 O     -0.486  1.721  4.765  0.000    22.603     6.418
 151   6 C     -0.124  1.041  3.083  0.000    22.938     6.830
 152   1 H      0.227  0.773  0.000  0.000     0.980     1.551
 153   1 H      0.088  0.912  0.000  0.000     1.898     2.155
 154   1 H      0.051  0.949  0.000  0.000     2.314     2.379
 155   1 H      0.333  0.667  0.000  0.000     0.630     1.247
 156   1 H      0.063  0.937  0.000  0.000     2.165     2.301
 157   1 H      0.055  0.945  0.000  0.000     2.254     2.348
 158   1 H      0.035  0.965  0.000  0.000     2.518     2.482
 159   7 N     -0.172  1.242  3.930  0.000    24.720     7.384
 160   6 C      0.023  1.061  2.916  0.000    20.201     6.400
 161   6 C      0.266  1.043  2.690  0.000    22.505     7.769
 162   8 O     -0.459  1.737  4.723  0.000    22.902     6.416
 163   6 C     -0.050  1.050  3.000  0.000    21.465     6.596
 164   6 C     -0.097  1.062  3.035  0.000    22.360     6.733
 165   6 C      0.364  1.027  2.609  0.000    20.824     7.468
 166   8 O     -0.615  1.770  4.846  0.000    26.497     6.901
 167   8 O     -0.607  1.758  4.849  0.000    26.298     6.875
 168   1 H      0.212  0.788  0.000  0.000     1.049     1.604
 169   1 H      0.061  0.939  0.000  0.000     2.190     2.314
 170   1 H      0.045  0.955  0.000  0.000     2.383     2.414
 171   1 H      0.038  0.962  0.000  0.000     2.482     2.464
 172   1 H      0.048  0.952  0.000  0.000     2.349     2.397
 173   1 H      0.030  0.970  0.000  0.000     2.589     2.516
 174   7 N     -0.163  1.241  3.923  0.000    24.534     7.356
 175   6 C      0.004  1.062  2.934  0.000    20.518     6.449
 176   6 C      0.275  1.039  2.686  0.000    22.354     7.742
 177   8 O     -0.485  1.756  4.729  0.000    23.458     6.494
 178   6 C     -0.142  1.045  3.097  0.000    23.289     6.880
 179   1 H      0.205  0.795  0.000  0.000     1.081     1.628
 180   1 H      0.098  0.902  0.000  0.000     1.808     2.103
 181   1 H      0.080  0.920  0.000  0.000     1.983     2.202
 182   1 H      0.083  0.917  0.000  0.000     1.952     2.185
 183   1 H      0.062  0.938  0.000  0.000     2.178     2.308
 184   7 N     -0.169  1.238  3.931  0.000    24.657     7.375
 185   6 C      0.026  1.058  2.916  0.000    20.142     6.391
 186   6 C      0.196  1.086  2.718  0.000    23.818     7.993
 187   8 O     -0.347  1.746  4.601  0.000    20.658     6.094
 188   6 C     -0.073  1.056  3.017  0.000    21.892     6.660
 189   6 C      0.011  1.078  2.911  0.000    27.776     8.645
 190   6 C     -0.041  1.082  2.959  0.000    29.025     8.835
 191   6 C     -0.038  1.081  2.956  0.000    28.937     8.822
 192   6 C     -0.042  1.080  2.962  0.000    29.047     8.838
 193   6 C     -0.032  1.080  2.952  0.000    28.799     8.800
 194   6 C     -0.037  1.078  2.958  0.000    28.912     8.818
 195   1 H      0.220  0.780  0.000  0.000     1.010     1.574
 196   1 H      0.087  0.913  0.000  0.000     1.907     2.159
 197   1 H      0.065  0.935  0.000  0.000     2.147     2.291
 198   1 H      0.075  0.925  0.000  0.000     2.027     2.227
 199   1 H      0.047  0.953  0.000  0.000     2.353     2.399
 200   1 H      0.028  0.972  0.000  0.000     2.616     2.529
 201   1 H      0.056  0.944  0.000  0.000     2.247     2.344
 202   1 H      0.036  0.964  0.000  0.000     2.502     2.473
 203   1 H      0.042  0.958  0.000  0.000     2.418     2.432
 204   7 N     -0.412  1.324  4.088  0.000    30.699     8.229
 205   6 C      0.042  1.055  2.902  0.000    19.883     6.352
 206   6 C      0.199  1.094  2.707  0.000    23.756     7.982
 207   8 O     -0.379  1.754  4.625  0.000    21.262     6.182
 208   6 C     -0.110  1.062  3.048  0.000    22.594     6.766
 209   6 C      0.291  1.037  2.672  0.000    22.068     7.692
 210   8 O     -0.499  1.756  4.744  0.000    23.771     6.537
 211   7 N     -0.279  1.264  4.015  0.000    27.221     7.749
 212   1 H      0.188  0.812  0.000  0.000     1.168     1.693
 213   1 H      0.078  0.922  0.000  0.000     2.005     2.214
 214   1 H      0.077  0.923  0.000  0.000     2.014     2.219
 215   1 H      0.085  0.915  0.000  0.000     1.931     2.173
 216   1 H      0.231  0.769  0.000  0.000     0.962     1.537
 217   1 H      0.233  0.767  0.000  0.000     0.950     1.527
 218   1 H      0.189  0.811  0.000  0.000     1.163     1.689
 219   1 H      0.076  0.924  0.000  0.000     2.022     2.224
 220   1 H      0.157  0.843  0.000  0.000     1.357     1.824
 221   1 H      0.057  0.943  0.000  0.000     2.236     2.338
 222   1 H      0.175  0.825  0.000  0.000     1.242     1.746
 223   1 H      0.071  0.929  0.000  0.000     2.076     2.253
 224   1 H      0.175  0.825  0.000  0.000     1.240     1.744
 225   1 H      0.082  0.918  0.000  0.000     1.953     2.186
 226   1 H      0.184  0.816  0.000  0.000     1.194     1.711
 227   1 H      0.072  0.928  0.000  0.000     2.062     2.246

 Mol. C6AA /au·bohr⁶  :     480332.922694
 Mol. C8AA /au·bohr⁸  :   10859118.693082
 Mol. α(0) /au        :       1046.291678

 
molecular dipole:
                 x           y           z       tot (Debye)
 q only:       28.454      42.406     160.084
   full:       28.654      43.197     160.231     428.058
molecular quadrupole (traceless):
                xx          xy          yy          xz          yz          zz
 q only:   -12964.575    1818.985  -11378.164    6728.399   10375.580   24342.739
  q+dip:   -13022.286    1880.411  -11333.771    6803.185   10583.202   24356.057
   full:   -13025.054    1881.949  -11336.698    6802.069   10582.254   24361.752
speedup  2.00
cpu  time for grad    2.59 s
wall time for grad    1.30 s

SCC energy    :    -345.5560074
rep           :       4.3903625
ES            :       0.8552831
AES           :      -0.0152222
AXC           :       0.1382721
disp          :      -0.2638512
XB            :       0.0000000
fix           :       0.0000000
Gborn         :       0.0000000
Gsasa         :       0.0000000
Ghb           :       0.0000000
Gshift        :       0.0000000
Gsolv         :      -0.1902182     -119.36
Etot ala COSMO:    -345.5560074
grad norm     :       0.4989029
total E       :    -341.1481202
atomizationE  :      62.9454600    39498.87
(atE without considering molecular charge,
 total energy contains solvation terms)
H-L gap (eV)  :          1.0266

------------------------------------------------------------------------
 * finished run on 2019/05/12 at 13:13:50.128     
------------------------------------------------------------------------
 total:
 * wall-time:     0 d,  0 h,  0 min,  1.603 sec
 *  cpu-time:     0 d,  0 h,  0 min,  2.988 sec
 * ratio c/w:     1.864 speedup
 SCF:
 * wall-time:     0 d,  0 h,  0 min,  1.407 sec
 *  cpu-time:     0 d,  0 h,  0 min,  2.813 sec
 * ratio c/w:     1.999 speedup

