      -----------------------------------------------------------      
     |                   =====================                   |     
     |                           x T B                           |     
     |                   =====================                   |     
     |                         S. Grimme                         |     
     |          Mulliken Center for Theoretical Chemistry        |     
     |                    University of Bonn                     |     
     |                 Version 6.0.1 (SAW181210)                 |     
      -----------------------------------------------------------      

   This program is distributed in the hope that it will be useful,
   but WITHOUT ANY WARRANTY; without even the implied warranty of
   MERCHANTABILITY or FITNESS FOR A PARTICULAR PURPOSE.
   
   FOR NON-COMMERCIAL, ACADEMIA USE ONLY.
   
   Cite this work as:
   S. Grimme, C. Bannwarth, P. Shushkov, J. Comput. Theory Chem., 2017,
   13, 1989-2009.
   C. Bannwarth, S. Ehlert and S. Grimme., ChemRxiv, 2018, preprint.
   http://doi.org/10.26434/chemrxiv.7246238.v1
   
   for sTDA-xTB:
   S. Grimme and C. Bannwarth, J. Chem. Phys., 2016, 145, 054103.
   
   in the mass-spec context:
   V. Asgeirsson, C. Bauer and S. Grimme, Chem. Sci., 2017, 8, 4879.
   
   if GBSA is used:
   P. Shushkov, F. März and S. Grimme, unpublished.
   
   for ANC optimizer:
   S. Grimme, unpublished.
   Rational Function algorithm used in ANCopt:
   F. Eckert, P. Pulay, H.-J. Werner, J. Comput. Chem., 1997, 18, 1473.
   
   with help from (in alphabetical order)
   C. Bannwarth, F. Bohle, G. Brandenburg, E. Caldeweyher, M. Checinski,
   S. Dohm, S. Ehlert, S. Ehrlich, F. März, H. Neugebauer, J. Pisarek,
   P. Pracht, P. Shushkov, and S. Spicher.
   
 * started run on 2019/05/12 at 13:11:44.900     
========================================================================
 # omp threads = 2
========================================================================
number of atoms            : 513
number of electrons        : 1378
charge                     : 1
spin                       : .0
first test random number   : .5722

########################################################################
# WARNING! Please study the warnings concerning your input carefully
#  - Process number higher than OMP_NUM_THREADS, I hope you know what you are doing.
########################################################################

           ------------------------------------------------- 
          |                 G F N 2 - x T B                 |
          | Geometry, Frequencies, Noncovalent interactions |
          |            JCTC 2018 parametrisation            |
           ------------------------------------------------- 
 
      method parameters     
 k(s)        :  1.8500
 k(p)        :  2.2300
 k(d)        :  2.2300
 k(f)        :  2.0000
 kEN (H0ij)  : -2.0000
 D4 a1       :  0.5200
 D4 a2       :  5.0000
 D4 s6       :  1.0000
 D4 s8       :  2.7000
 D4 s9       :  5.0000
 alphaj      :  2.0000

 Solvent             : h2o
 Using internal parameter file: .param_gbsa2_h2o
 Gsolv ref. state (COSMO-RS): gsolv [1 M gas/solution]
 temperature (mdtemp)       :    298.150000000000     
 dielectric constant        :    80.2000000000000     
 rho                        :    1.00000000000000     
 mass                       :    18.0000000000000     
 surface tension            :    15.5689454083859     
 probe radius               :   0.975313790000000     
 vdW radii scaling          :    1.00000000000000     
 Gshift (Eh)                :   1.857443126794793E-003
 c1                         :    1.55243817000000     
 soset                      :   0.130326360000000     
 HB correction              :  T

            Z     q(EN)     CN     RAES       Cart. coordinates
     1  N   5.0   -0.24    3.28    1.98   111.57320   125.05261   422.25548
     2  C   4.0    0.03    4.39    4.36   112.09287   122.40889   421.73014
     3  C   4.0    0.15    3.44    3.09   114.91423   122.05551   421.29361
     4  O   6.0   -0.32    1.25    1.80   115.97626   120.18279   422.19312
     5  C   4.0   -0.05    4.39    4.36   110.44125   121.53017   419.52105
     6  C   4.0   -0.04    4.32    4.23   110.16157   118.69936   419.26783
     7  C   4.0    0.16    3.26    3.05   108.36444   117.49371   421.17645
     8  O   6.0   -0.28    1.20    1.80   106.46716   118.64833   421.84730
     9  N   5.0   -0.24    3.18    1.95   108.94081   115.10510   422.03439
    10  H   1.0    0.11    1.09    1.44   110.62834   125.78961   421.15944
    11  H   1.0    0.06    1.13    1.45   111.63745   121.32419   423.13421
    12  H   1.0    0.06    1.10    1.44   108.76129   122.22936   419.74215
    13  H   1.0    0.05    1.10    1.44   111.18014   122.15000   417.96203
    14  H   1.0    0.05    1.12    1.45   109.51907   118.32330   417.59164
    15  H   1.0    0.05    1.10    1.44   111.80753   117.92646   419.49648
    16  H   1.0    0.10    1.08    1.44   110.27307   114.34732   421.49203
    17  H   1.0    0.12    1.08    1.44   107.96949   114.37188   423.10964
    18  N   5.0   -0.17    3.49    2.07   116.20303   123.92256   420.16545
    19  C   4.0    0.03    4.44    4.44   118.93557   123.66934   419.78561
    20  C   4.0    0.15    3.48    3.11   120.38688   123.93768   422.26115
    21  O   6.0   -0.31    1.27    1.80   122.19157   122.53550   422.76571
    22  C   4.0   -0.09    4.22    4.04   119.86721   125.63465   417.88455
    23  H   1.0    0.09    1.13    1.45   115.55863   125.30962   419.62121
    24  H   1.0    0.06    1.13    1.45   119.26249   121.99882   419.10720
    25  H   1.0    0.05    1.06    1.44   121.68323   125.47591   417.70691
    26  H   1.0    0.05    1.06    1.44   119.05085   125.33607   416.27072
    27  H   1.0    0.04    1.06    1.44   119.44202   127.30706   418.50060
    28  N   5.0   -0.17    3.52    2.09   119.65556   125.76315   423.80317
    29  C   4.0    0.03    4.47    4.50   120.75160   125.98047   426.32973
    30  C   4.0    0.16    3.49    3.11   120.62688   123.46902   427.79049
    31  O   6.0   -0.30    1.24    1.80   122.31062   122.85675   429.31739
    32  C   4.0   -0.06    4.39    4.37   119.36643   128.06862   427.78860
    33  C   4.0   -0.05    4.28    4.15   120.43412   128.74136   430.37186
    34  C   4.0   -0.06    4.30    4.20   118.46125   130.17566   431.98001
    35  C   4.0   -0.04    4.31    4.22   117.71481   132.67766   430.78193
    36  N   5.0   -0.16    4.16    3.32   115.94036   133.97212   432.46000
    37  H   1.0    0.09    1.13    1.45   118.54251   126.89132   423.44790
    38  H   1.0    0.05    1.12    1.45   122.52038   126.43211   426.17289
    39  H   1.0    0.04    1.10    1.44   119.40800   129.59552   426.77571
    40  H   1.0    0.05    1.10    1.44   117.63355   127.53382   428.04560
    41  H   1.0    0.06    1.09    1.44   120.89900   127.20690   431.25814
    42  H   1.0    0.05    1.09    1.44   121.90433   129.81661   430.16399
    43  H   1.0    0.04    1.09    1.44   116.95325   129.14765   432.14442
    44  H   1.0    0.05    1.09    1.44   119.16801   130.52148   433.63541
    45  H   1.0    0.06    1.09    1.44   119.19824   133.73024   430.55516
    46  H   1.0    0.04    1.09    1.44   116.90223   132.38097   429.16621
    47  H   1.0    0.08    1.09    1.44   115.47170   135.43855   431.78159
    48  H   1.0    0.07    1.09    1.44   114.57408   133.01970   432.69622
    49  H   1.0    0.08    1.09    1.44   116.66601   134.26503   433.94911
    50  N   5.0   -0.16    3.55    2.11   118.59164   122.03850   427.43144
    51  C   4.0    0.04    4.55    4.61   118.36298   119.64422   428.75992
    52  C   4.0    0.17    3.57    3.15   120.30184   117.79040   427.76592
    53  O   6.0   -0.30    1.27    1.80   121.63788   116.57719   429.23046
    54  C   4.0   -0.04    4.50    4.53   115.72871   118.64455   428.39709
    55  C   4.0   -0.01    3.68    3.23   115.41312   115.89122   428.84307
    56  C   4.0   -0.04    3.57    3.15   115.11833   114.89723   431.16365
    57  C   4.0   -0.04    3.59    3.16   115.46603   114.26228   426.83051
    58  C   4.0   -0.05    3.50    3.11   114.73849   112.27051   431.48491
    59  C   4.0   -0.04    3.50    3.11   115.12966   111.67902   427.15743
    60  C   4.0   -0.05    3.46    3.10   114.78573   110.68881   429.51581
    61  H   1.0    0.10    1.14    1.45   117.34820   122.40511   426.45068
    62  H   1.0    0.06    1.13    1.45   118.65211   119.87666   430.55516
    63  H   1.0    0.05    1.11    1.44   114.61566   119.51761   429.56305
    64  H   1.0    0.06    1.12    1.45   115.21659   118.98093   426.66988
    65  H   1.0    0.06    1.11    1.45   115.16368   115.94792   432.57339
    66  H   1.0    0.06    1.10    1.44   115.73438   114.89723   425.21479
    67  H   1.0    0.05    1.10    1.44   114.45125   111.63178   433.09684
    68  H   1.0    0.06    1.10    1.44   115.13722   110.61511   425.75904
    69  H   1.0    0.05    1.10    1.44   114.59109   108.95782   429.74636
    70  N   5.0   -0.16    3.54    2.11   120.59097   117.63355   425.27716
    71  C   4.0    0.04    4.61    4.67   122.38621   115.78540   424.30773
    72  C   4.0    0.17    3.53    3.13   125.05450   116.43546   425.11653
    73  O   6.0   -0.29    1.28    1.80   126.31684   114.87644   426.30328
    74  C   4.0   -0.04    4.43    4.43   122.24070   115.51706   421.46180
    75  C   4.0   -0.02    3.80    3.34   119.95791   114.11299   420.92323
    76  C   4.0   -0.01    3.65    3.20   117.69969   115.06730   420.03884
    77  C   4.0    0.00    3.88    3.44   119.54784   111.48060   421.35975
    78  N   5.0   -0.15    3.49    2.07   115.92335   113.17380   419.82530
    79  C   4.0    0.03    3.93    3.50   116.97971   110.96093   420.67378
    80  C   4.0   -0.05    3.42    3.09   121.08419   109.49828   422.21391
    81  C   4.0   -0.06    3.43    3.09   115.94225   108.52318   420.77772
    82  C   4.0   -0.05    3.42    3.08   120.03350   107.09455   422.35564
    83  C   4.0   -0.05    3.42    3.09   117.48426   106.62968   421.64699
    84  H   1.0    0.12    1.13    1.45   119.81240   118.52928   424.16789
    85  H   1.0    0.06    1.15    1.45   121.92323   114.15645   425.00881
    86  H   1.0    0.05    1.10    1.44   122.15000   117.16490   420.66622
    87  H   1.0    0.06    1.10    1.44   123.69390   114.59487   420.82874
    88  H   1.0    0.06    1.08    1.44   117.41623   116.75672   419.64199
    89  H   1.0    0.09    1.10    1.44   114.40968   113.34954   419.25649
    90  H   1.0    0.06    1.09    1.44   122.75660   109.78363   422.67500
    91  H   1.0    0.06    1.09    1.44   114.28685   108.20571   420.28072
    92  H   1.0    0.07    1.09    1.44   121.02372   105.75851   422.92445
    93  H   1.0    0.06    1.10    1.44   116.84365   104.99695   421.77738
    94  N   5.0   -0.16    3.50    2.08   125.92567   118.76739   424.65544
    95  C   4.0    0.04    4.53    4.57   128.49759   119.33997   425.51148
    96  C   4.0    0.16    3.45    3.09   128.83774   118.99604   428.41599
    97  O   6.0   -0.29    1.22    1.80   130.94856   118.45936   429.33440
    98  C   4.0   -0.05    4.54    4.60   129.23080   121.99882   424.72347
    99  C   4.0   -0.03    4.36    4.31   129.28560   122.61298   421.95124
   100  C   4.0   -0.09    4.23    4.06   130.96557   125.02427   421.72636
   101  C   4.0   -0.09    4.34    4.27   130.30983   120.40956   420.62654
   102  H   1.0    0.12    1.13    1.45   125.12442   119.96358   423.90332
   103  H   1.0    0.06    1.14    1.45   129.64087   118.16267   424.69323
   104  H   1.0    0.05    1.10    1.44   128.03649   123.15344   425.49447
   105  H   1.0    0.05    1.12    1.45   130.91832   122.32196   425.36408
   106  H   1.0    0.05    1.13    1.45   127.65477   122.96069   421.18779
   107  H   1.0    0.04    1.05    1.44   131.08651   125.50426   419.96325
   108  H   1.0    0.05    1.05    1.44   130.19645   126.37920   422.69201
   109  H   1.0    0.05    1.06    1.44   132.63231   124.65199   422.38965
   110  H   1.0    0.04    1.06    1.44   130.39865   120.77805   418.83319
   111  H   1.0    0.05    1.07    1.44   131.98602   120.05051   421.27472
   112  H   1.0    0.05    1.08    1.44   129.20623   118.97337   420.91567
   113  N   5.0   -0.15    3.42    2.03   126.78927   119.27194   429.88620
   114  C   4.0    0.02    4.35    4.30   126.95557   118.85431   432.59795
   115  C   4.0    0.17    3.40    3.08   127.72280   116.17846   433.24613
   116  O   6.0   -0.29    1.23    1.80   129.38765   115.79485   434.82405
   117  H   1.0    0.13    1.13    1.45   125.31151   119.69335   429.35518
   118  H   1.0    0.06    1.09    1.44   128.19523   119.99949   433.31416
   119  H   1.0    0.05    1.09    1.44   125.32285   119.18880   433.36518
   120  N   5.0   -0.16    3.53    2.10   126.47558   114.28496   432.08017
   121  C   4.0    0.04    4.56    4.61   127.15588   111.63934   432.55260
   122  C   4.0    0.16    3.50    3.11   129.87520   111.06108   431.80238
   123  O   6.0   -0.30    1.21    1.80   131.00336   109.19214   432.75102
   124  C   4.0   -0.05    4.62    4.69   125.54016   109.90835   431.02948
   125  C   4.0   -0.03    4.44    4.45   122.82841   109.95748   431.80049
   126  C   4.0   -0.08    4.28    4.15   121.15411   108.67247   429.94478
   127  C   4.0   -0.08    4.36    4.30   122.77927   108.67814   434.28359
   128  H   1.0    0.12    1.13    1.45   125.25293   114.48716   431.02948
   129  H   1.0    0.06    1.13    1.45   126.90077   111.33509   434.34217
   130  H   1.0    0.06    1.11    1.45   125.63654   110.40724   429.26637
   131  H   1.0    0.05    1.12    1.45   126.15432   108.19437   431.22979
   132  H   1.0    0.06    1.14    1.45   122.17078   111.66769   431.88931
   133  H   1.0    0.04    1.06    1.44   119.43257   108.70460   430.57217
   134  H   1.0    0.05    1.06    1.44   121.25238   109.55308   428.34229
   135  H   1.0    0.05    1.06    1.44   121.71158   106.93770   429.74069
   136  H   1.0    0.04    1.06    1.44   121.03884   108.50995   434.83539
   137  H   1.0    0.04    1.07    1.44   123.54461   107.02085   434.11540
   138  H   1.0    0.05    1.07    1.44   123.72414   109.68158   435.49112
   139  N   5.0   -0.15    3.46    2.05   130.91832   112.64656   430.10163
   140  C   4.0    0.02    4.35    4.30   133.29560   112.05130   428.88086
   141  C   4.0    0.18    3.40    3.08   135.43099   111.62044   430.72146
   142  O   6.0   -0.25    1.22    1.80   137.17332   110.15968   430.15832
   143  H   1.0    0.12    1.14    1.45   130.27204   114.06386   429.64053
   144  H   1.0    0.06    1.10    1.44   133.08962   110.53196   427.87742
   145  H   1.0    0.05    1.09    1.44   133.76425   113.43647   427.77537
   146  N   5.0   -0.14    3.40    2.02   135.31572   112.83554   432.94755
   147  C   4.0    0.02    4.25    4.10   137.55315   113.18892   434.52736
   148  C   4.0    0.26    3.12    3.03   139.78870   114.51928   433.16865
   149  O   6.0   -0.24    1.20    1.80   139.85106   114.93502   430.83295
   150  O   6.0   -0.25    1.19    1.80   141.67653   115.26950   434.35351
   151  H   1.0    0.11    1.13    1.45   133.95700   113.47048   433.57683
   152  H   1.0    0.05    1.09    1.44   137.09773   114.20181   435.98434
   153  H   1.0    0.07    1.09    1.44   138.13897   111.54863   435.09995
   154  N   5.0   -0.23    3.23    1.96   104.29209    98.17693   426.92877
   155  C   4.0    0.03    4.30    4.21   105.89646    96.25508   428.13630
   156  C   4.0    0.09    3.20    3.04   104.80231    95.12880   430.56082
   157  O   6.0   -0.26    1.12    1.80   105.95315    93.44506   431.70599
   158  C   4.0   -0.04    4.45    4.46   108.52696    97.34167   428.75046
   159  C   4.0   -0.02    3.70    3.24   109.72127    98.39992   426.45255
   160  C   4.0   -0.05    3.59    3.16   110.98549    96.87302   424.79149
   161  C   4.0   -0.05    3.60    3.16   109.49072   100.86979   425.86863
   162  C   4.0   -0.04    3.51    3.12   112.01540    97.81599   422.59562
   163  C   4.0   -0.05    3.54    3.14   110.51495   101.85434   423.66710
   164  C   4.0    0.07    3.52    3.12   111.78674   100.33878   422.02871
   165  O   6.0   -0.27    2.13    1.84   112.84121   101.38947   419.85174
   166  H   1.0    0.11    1.08    1.44   104.29775    99.60745   427.70166
   167  H   1.0    0.06    1.13    1.45   106.07977    94.89637   426.91932
   168  H   1.0    0.05    1.10    1.44   108.36256    98.67960   429.99201
   169  H   1.0    0.06    1.10    1.44   109.60222    96.00753   429.40431
   170  H   1.0    0.06    1.11    1.44   111.15368    95.16282   425.15431
   171  H   1.0    0.05    1.11    1.44   108.62523   101.93749   426.96656
   172  H   1.0    0.07    1.10    1.44   112.86577    96.74452   421.49391
   173  H   1.0    0.06    1.10    1.44   110.33165   103.56454   423.30805
   174  H   1.0    0.14    1.10    1.44   112.60121   102.95794   419.83473
   175  N   5.0   -0.23    3.29    1.98   120.19602   118.10409   441.78579
   176  C   4.0    0.03    4.42    4.41   120.98970   116.55263   439.67686
   177  C   4.0    0.16    3.48    3.11   123.67123   115.65690   439.99055
   178  O   6.0   -0.30    1.25    1.80   124.26460   113.59710   439.12317
   179  C   4.0   -0.04    4.42    4.42   120.83475   118.01339   437.19565
   180  C   4.0   -0.02    3.57    3.15   118.30629   119.21903   436.52290
   181  C   4.0   -0.05    3.51    3.12   116.02539   117.93024   436.81014
   182  C   4.0   -0.04    3.53    3.13   118.23070   121.60575   435.46277
   183  C   4.0   -0.04    3.46    3.10   113.71426   119.07163   436.11283
   184  C   4.0   -0.05    3.51    3.12   115.99516   122.75660   434.77302
   185  C   4.0    0.07    3.52    3.12   113.74827   121.49237   435.10372
   186  O   6.0   -0.26    2.16    1.85   111.58832   122.70935   434.39885
   187  H   1.0    0.11    1.08    1.44   120.22814   119.70280   441.49855
   188  H   1.0    0.05    1.13    1.45   119.85020   115.12022   439.58615
   189  H   1.0    0.05    1.10    1.44   122.06685   119.37021   437.26179
   190  H   1.0    0.05    1.10    1.44   121.24860   116.85687   435.83504
   191  H   1.0    0.05    1.09    1.44   116.02539   116.29940   437.46588
   192  H   1.0    0.06    1.10    1.44   119.74060   122.46747   435.20577
   193  H   1.0    0.06    1.09    1.44   112.19492   118.21559   436.32637
   194  H   1.0    0.06    1.10    1.44   116.00650   124.37609   434.08894
   195  H   1.0    0.14    1.11    1.45   111.90957   124.22114   434.03791
   196  N   5.0   -0.14    3.54    2.11   125.30206   117.17624   441.18108
   197  C   4.0    0.04    4.50    4.53   127.94956   116.47893   441.44942
   198  C   4.0    0.15    3.53    3.13   128.09507   114.19047   443.17474
   199  O   6.0   -0.28    1.29    1.80   126.60030   114.00528   444.90762
   200  C   4.0    0.03    4.26    4.11   129.43867   118.70503   442.49066
   201  O   6.0   -0.27    2.09    1.84   129.29505   120.78561   440.76534
   202  H   1.0    0.10    1.14    1.45   124.91655   118.60865   441.84248
   203  H   1.0    0.06    1.13    1.45   128.71301   116.03862   439.84315
   204  H   1.0    0.06    1.07    1.44   128.72813   119.20580   444.10448
   205  H   1.0    0.05    1.07    1.44   131.19233   118.21370   442.70420
   206  H   1.0    0.15    1.07    1.44   130.26637   121.94968   441.23588
   207  N   5.0   -0.10    3.71    2.28   129.76181   112.35177   442.68341
   208  C   4.0    0.04    4.58    4.64   129.67677   110.03685   444.23299
   209  C   4.0    0.09    3.21    3.04   131.01470   110.38456   446.77278
   210  O   6.0   -0.29    1.14    1.80   130.43077   108.97294   448.56046
   211  C   4.0   -0.05    4.49    4.52   131.03927   108.07910   442.63428
   212  C   4.0   -0.04    4.46    4.48   131.24525   109.26773   440.10393
   213  C   4.0   -0.02    4.44    4.45   131.50036   112.06831   440.57070
   214  H   1.0    0.06    1.13    1.45   127.94767   109.47938   444.47487
   215  H   1.0    0.05    1.10    1.44   132.69656   107.73517   443.33915
   216  H   1.0    0.05    1.09    1.44   130.05661   106.53330   442.56058
   217  H   1.0    0.05    1.09    1.44   132.72112   108.61767   439.23466
   218  H   1.0    0.05    1.09    1.44   129.73347   108.90869   439.12884
   219  H   1.0    0.05    1.08    1.44   133.21434   112.52373   441.03746
   220  H   1.0    0.06    1.08    1.44   130.96746   113.04908   439.11750
   221  N   5.0   -0.22    3.27    1.97   126.22236   109.80631   451.91472
   222  C   4.0    0.04    4.39    4.35   124.44412   107.71816   452.11314
   223  C   4.0    0.10    3.23    3.04   124.74837   106.32354   454.59624
   224  O   6.0   -0.26    1.12    1.80   122.86242   105.82276   455.87181
   225  C   4.0   -0.04    4.43    4.43   124.78616   105.91536   449.92106
   226  C   4.0   -0.02    3.79    3.32   124.07941   107.06809   447.52111
   227  C   4.0    0.00    3.73    3.27   122.95691   109.32254   447.17718
   228  C   4.0    0.01    4.06    3.73   124.48759   106.05331   445.05124
   229  N   5.0   -0.13    3.55    2.12   122.58463   109.79119   444.62983
   230  C   4.0    0.04    4.05    3.71   123.53328   107.81831   443.30135
   231  C   4.0   -0.05    3.55    3.14   125.58552   103.85178   444.15173
   232  C   4.0   -0.05    3.53    3.13   123.52950   107.40257   440.81825
   233  C   4.0   -0.04    3.62    3.18   125.56473   103.46439   441.81792
   234  C   4.0   -0.04    3.61    3.17   124.53105   105.21238   440.09449
   235  H   1.0    0.14    1.11    1.44   127.41099   109.59844   450.82624
   236  H   1.0    0.06    1.14    1.45   122.74337   108.39846   452.03944
   237  H   1.0    0.06    1.11    1.44   126.54739   105.41458   449.82280
   238  H   1.0    0.06    1.11    1.44   123.72981   104.43948   450.18373
   239  H   1.0    0.06    1.08    1.44   122.49393   110.41669   448.47353
   240  H   1.0    0.10    1.11    1.44   121.87410   111.11022   443.99866
   241  H   1.0    0.06    1.12    1.45   126.31873   102.69338   445.25155
   242  H   1.0    0.06    1.11    1.44   122.87565   108.56098   439.67119
   243  H   1.0    0.06    1.19    1.46   126.25637   101.97150   441.19998
   244  H   1.0    0.06    1.11    1.45   124.54806   104.81932   438.38239
   245  N   5.0   -0.23    3.24    1.97   113.67835   102.30976   436.65519
   246  C   4.0    0.03    4.32    4.23   116.12366   103.46250   436.14118
   247  C   4.0    0.08    3.21    3.04   118.17401   101.54064   435.45710
   248  O   6.0   -0.32    1.15    1.80   119.54973   101.88457   433.59383
   249  C   4.0   -0.05    4.53    4.58   116.98348   104.97995   438.42019
   250  C   4.0   -0.03    4.41    4.40   115.09754   106.98306   439.28946
   251  C   4.0   -0.08    4.26    4.13   116.07075   108.10177   441.72910
   252  C   4.0   -0.09    4.34    4.27   114.89345   108.85766   437.31281
   253  H   1.0    0.10    1.09    1.44   112.86955   102.90692   437.93264
   254  H   1.0    0.04    1.13    1.45   115.89689   104.57554   434.70310
   255  H   1.0    0.05    1.10    1.44   117.25750   103.82721   439.82048
   256  H   1.0    0.04    1.10    1.44   118.55007   105.83410   437.99689
   257  H   1.0    0.04    1.14    1.45   113.42324   106.30275   439.60316
   258  H   1.0    0.05    1.06    1.44   114.88022   109.36222   442.32625
   259  H   1.0    0.05    1.06    1.44   116.24271   106.76574   442.97254
   260  H   1.0    0.05    1.06    1.44   117.70158   108.88034   441.41918
   261  H   1.0    0.04    1.07    1.44   113.79552   110.20882   437.88351
   262  H   1.0    0.04    1.07    1.44   116.56208   109.51907   436.94431
   263  H   1.0    0.04    1.07    1.44   114.18858   108.06965   435.81426
   264  N   5.0   -0.22    3.27    1.97   117.02128    98.26575   429.05471
   265  C   4.0    0.03    4.35    4.29   117.53906   100.07233   427.07238
   266  C   4.0    0.15    3.45    3.10   120.34153   100.53531   426.73979
   267  O   6.0   -0.30    1.23    1.80   121.20702   100.72995   424.57417
   268  C   4.0   -0.08    4.24    4.08   116.17846   102.53275   427.69599
   269  H   1.0    0.11    1.09    1.44   116.12555    98.88747   430.26035
   270  H   1.0    0.05    1.13    1.45   116.91357    99.41281   425.47935
   271  H   1.0    0.05    1.06    1.44   116.47137   103.73651   426.34484
   272  H   1.0    0.04    1.06    1.44   114.38511   102.19827   427.85851
   273  H   1.0    0.05    1.06    1.44   116.83609   103.19415   429.27392
   274  N   5.0   -0.17    3.46    2.05   121.78528   100.83767   428.81660
   275  C   4.0    0.04    4.37    4.33   124.54428   100.96428   428.53503
   276  C   4.0    0.09    3.21    3.04   125.65544    98.55677   427.27836
   277  O   6.0   -0.25    1.10    1.80   127.29572    98.72873   425.57005
   278  C   4.0   -0.06    4.40    4.37   125.76315   101.45939   431.08616
   279  C   4.0   -0.05    4.19    3.98   128.64498   101.99418   431.04081
   280  C   4.0   -0.01    4.19    3.99   129.91677   103.19038   433.47289
   281  N   5.0   -0.16    3.34    2.00   130.19834   101.65403   435.85205
   282  C   4.0    0.11    3.46    3.10   128.26137   100.82255   437.28257
   283  N   5.0   -0.24    3.35    2.00   125.87276   100.94538   436.42464
   284  N   5.0   -0.24    3.35    2.00   128.70734    99.76808   439.54269
   285  H   1.0    0.12    1.15    1.45   121.23348   100.96806   430.33783
   286  H   1.0    0.06    1.13    1.45   124.94112   102.36834   427.42387
   287  H   1.0    0.04    1.10    1.44   124.95057   102.92203   431.83638
   288  H   1.0    0.05    1.11    1.45   125.50048    99.98540   432.14441
   289  H   1.0    0.06    1.09    1.44   129.50103   100.40114   430.73845
   290  H   1.0    0.06    1.09    1.44   128.97380   103.15447   429.65942
   291  H   1.0    0.06    1.08    1.44   131.61185   103.70438   433.00046
   292  H   1.0    0.05    1.08    1.44   128.92277   104.65869   433.93587
   293  H   1.0    0.10    1.12    1.45   131.70445   101.27986   436.33393
   294  H   1.0    0.10    1.15    1.45   125.56851   101.55954   434.95065
   295  H   1.0    0.11    1.09    1.44   124.64821   100.41059   437.35060
   296  H   1.0    0.11    1.09    1.44   130.23235    99.62068   440.08315
   297  H   1.0    0.11    1.10    1.44   127.46768    99.23896   440.44975
   298  N   5.0   -0.20    3.24    1.97   123.52950    97.77253   419.47191
   299  C   4.0    0.04    4.27    4.14   124.08508    99.53942   417.43478
   300  C   4.0    0.08    3.23    3.04   126.72124   100.67137   417.72769
   301  O   6.0   -0.25    1.12    1.80   127.99114   100.40870   419.71379
   302  C   4.0   -0.04    4.40    4.38   122.23503   101.79009   417.27416
   303  C   4.0   -0.03    4.34    4.28   119.44769   101.18727   417.20046
   304  C   4.0    0.16    3.32    3.06   118.66156    99.98729   414.80428
   305  O   6.0   -0.26    1.21    1.80   119.84075   100.46917   412.80117
   306  N   5.0   -0.23    3.21    1.96   116.56963    98.49630   414.90255
   307  H   1.0    0.14    1.08    1.44   123.84130    98.31866   420.97235
   308  H   1.0    0.06    1.12    1.45   123.97547    98.53787   415.90221
   309  H   1.0    0.05    1.10    1.44   122.51093   102.85211   418.74436
   310  H   1.0    0.06    1.10    1.44   122.61865   102.72739   415.74537
   311  H   1.0    0.05    1.11    1.44   119.05085   100.03453   418.56862
   312  H   1.0    0.06    1.10    1.44   118.49527   102.74251   417.39321
   313  H   1.0    0.11    1.08    1.44   115.78162    98.29410   416.31040
   314  H   1.0    0.13    1.08    1.44   116.03484    97.75552   413.55895
   315  N   5.0   -0.23    3.28    1.98   129.98480   106.87723   418.88987
   316  C   4.0    0.04    4.45    4.47   129.08529   109.09766   420.20512
   317  C   4.0    0.15    3.46    3.10   129.18356   111.43147   418.50248
   318  O   6.0   -0.31    1.23    1.80   127.26359   112.70137   418.14343
   319  C   4.0    0.05    4.37    4.32   130.70101   109.38679   422.55216
   320  O   6.0   -0.27    2.18    1.85   129.16655   110.68503   424.29449
   321  C   4.0   -0.08    4.23    4.06   133.21623   110.86455   422.10241
   322  H   1.0    0.11    1.09    1.44   131.19422   106.10622   419.65332
   323  H   1.0    0.06    1.13    1.45   127.33162   108.91624   420.70401
   324  H   1.0    0.05    1.11    1.45   131.25092   107.74839   423.16065
   325  H   1.0    0.15    1.10    1.44   130.06417   111.31053   425.44533
   326  H   1.0    0.05    1.05    1.44   134.18566   110.93636   423.65576
   327  H   1.0    0.05    1.05    1.44   134.21590   110.02362   420.81739
   328  H   1.0    0.05    1.06    1.44   132.84962   112.57286   421.54872
   329  N   5.0   -0.16    3.55    2.11   131.37375   111.95303   417.34030
   330  C   4.0    0.04    4.37    4.33   131.74413   114.29252   415.93056
   331  C   4.0    0.09    3.23    3.04   130.43077   114.25850   413.39455
   332  O   6.0   -0.29    1.13    1.80   129.52938   116.23137   412.58386
   333  C   4.0    0.02    4.22    4.04   134.60140   114.80841   415.74915
   334  O   6.0   -0.27    2.09    1.84   136.03003   112.47460   415.51482
   335  H   1.0    0.11    1.15    1.45   132.67199   110.97605   417.34408
   336  H   1.0    0.05    1.14    1.45   130.99958   115.71737   416.81495
   337  H   1.0    0.05    1.07    1.44   134.92265   115.85154   414.27516
   338  H   1.0    0.04    1.07    1.44   135.14186   115.68524   417.26660
   339  H   1.0    0.15    1.07    1.44   137.44733   112.76940   414.86476
   340  N   5.0   -0.22    3.28    1.98   125.05261   111.57320   412.13032
   341  C   4.0    0.04    4.39    4.36   122.40889   112.09287   412.65567
   342  C   4.0    0.16    3.44    3.09   122.05551   114.91423   413.09219
   343  O   6.0   -0.30    1.24    1.80   120.18279   115.97626   412.19268
   344  C   4.0   -0.04    4.39    4.36   121.53017   110.44125   414.86476
   345  C   4.0   -0.04    4.32    4.23   118.69936   110.16157   415.11798
   346  C   4.0    0.16    3.26    3.05   117.49371   108.36444   413.20936
   347  O   6.0   -0.27    1.20    1.80   118.64833   106.46716   412.53850
   348  N   5.0   -0.23    3.18    1.95   115.10510   108.94081   412.35142
   349  H   1.0    0.11    1.09    1.44   125.78961   110.62834   413.22636
   350  H   1.0    0.06    1.13    1.45   121.32419   111.63745   411.25160
   351  H   1.0    0.06    1.10    1.44   122.22936   108.76129   414.64366
   352  H   1.0    0.05    1.10    1.44   122.15000   111.18014   416.42378
   353  H   1.0    0.05    1.12    1.45   118.32330   109.51907   416.79417
   354  H   1.0    0.05    1.10    1.44   117.92646   111.80753   414.88932
   355  H   1.0    0.11    1.08    1.44   114.34732   110.27307   412.89377
   356  H   1.0    0.13    1.08    1.44   114.37188   107.96949   411.27617
   357  N   5.0   -0.16    3.47    2.06   123.92256   116.20303   414.22036
   358  C   4.0    0.04    4.34    4.27   123.66934   118.93557   414.60019
   359  C   4.0    0.09    3.22    3.04   123.93768   120.38688   412.12465
   360  O   6.0   -0.29    1.11    1.80   122.53550   122.19157   411.62010
   361  C   4.0   -0.09    4.22    4.03   125.63465   119.86721   416.50126
   362  H   1.0    0.12    1.13    1.45   125.30962   115.55863   414.76460
   363  H   1.0    0.06    1.13    1.45   121.99882   119.26249   415.27861
   364  H   1.0    0.04    1.06    1.44   125.47591   121.68323   416.67889
   365  H   1.0    0.05    1.06    1.44   125.33607   119.05085   418.11508
   366  H   1.0    0.05    1.06    1.44   127.30706   119.44202   415.88521
   367  N   5.0   -0.21    3.25    1.97   117.63355   120.59097   409.10865
   368  C   4.0    0.04    4.39    4.35   115.78540   122.38621   410.07808
   369  C   4.0    0.09    3.22    3.04   116.43546   125.05450   409.26928
   370  O   6.0   -0.26    1.12    1.80   114.87644   126.31684   408.08253
   371  C   4.0   -0.04    4.42    4.41   115.51706   122.24070   412.92401
   372  C   4.0   -0.02    3.80    3.33   114.11299   119.95791   413.46258
   373  C   4.0   -0.00    3.65    3.20   115.06730   117.69969   414.34697
   374  C   4.0    0.00    3.88    3.44   111.48060   119.54784   413.02605
   375  N   5.0   -0.14    3.49    2.07   113.17380   115.92335   414.56051
   376  C   4.0    0.04    3.92    3.50   110.96093   116.97971   413.71202
   377  C   4.0   -0.05    3.42    3.09   109.49828   121.08419   412.17190
   378  C   4.0   -0.05    3.43    3.09   108.52318   115.94225   413.60809
   379  C   4.0   -0.04    3.42    3.08   107.09455   120.03350   412.03017
   380  C   4.0   -0.04    3.42    3.09   106.62968   117.48426   412.73881
   381  H   1.0    0.13    1.08    1.44   118.52928   119.81240   410.21792
   382  H   1.0    0.06    1.15    1.45   114.15645   121.92323   409.37699
   383  H   1.0    0.05    1.10    1.44   117.16490   122.15000   413.71958
   384  H   1.0    0.05    1.10    1.44   114.59487   123.69390   413.55706
   385  H   1.0    0.07    1.08    1.44   116.75672   117.41623   414.74381
   386  H   1.0    0.09    1.10    1.44   113.34954   114.40968   415.12932
   387  H   1.0    0.06    1.09    1.44   109.78363   122.75660   411.71080
   388  H   1.0    0.06    1.09    1.44   108.20571   114.28685   414.10509
   389  H   1.0    0.07    1.09    1.44   105.75851   121.02372   411.46136
   390  H   1.0    0.07    1.10    1.44   104.99695   116.84365   412.60842
   391  N   5.0   -0.23    3.22    1.96   135.93743   128.77915   409.73037
   392  C   4.0    0.03    4.31    4.22   135.36484   126.20723   408.87432
   393  C   4.0    0.09    3.17    3.03   135.70877   125.86708   405.96982
   394  O   6.0   -0.26    1.10    1.80   136.24546   123.75626   405.05141
   395  C   4.0   -0.05    4.54    4.59   132.70600   125.47402   409.66234
   396  C   4.0   -0.03    4.36    4.31   132.09184   125.41922   412.43457
   397  C   4.0   -0.08    4.22    4.05   129.68055   123.73925   412.65944
   398  C   4.0   -0.09    4.34    4.27   134.29526   124.39498   413.75927
   399  H   1.0    0.10    1.08    1.44   134.74123   129.58039   410.48248
   400  H   1.0    0.05    1.13    1.45   136.54214   125.06395   409.69258
   401  H   1.0    0.05    1.10    1.44   131.55138   126.66832   408.89133
   402  H   1.0    0.06    1.12    1.45   132.38286   123.78649   409.02172
   403  H   1.0    0.04    1.13    1.45   131.74413   127.05005   413.19802
   404  H   1.0    0.04    1.05    1.44   129.20056   123.61831   414.42256
   405  H   1.0    0.05    1.05    1.44   128.32561   124.50837   411.69379
   406  H   1.0    0.06    1.05    1.44   130.05282   122.07251   411.99615
   407  H   1.0    0.04    1.06    1.44   133.92676   124.30617   415.55262
   408  H   1.0    0.05    1.07    1.44   134.65431   122.71880   413.11109
   409  H   1.0    0.04    1.08    1.44   135.73145   125.49858   413.47014
   410  N   5.0   -0.22    3.28    1.98   142.75178   123.33107   417.04551
   411  C   4.0    0.03    4.36    4.31   140.41230   122.96068   418.45525
   412  C   4.0    0.15    3.44    3.09   140.44632   124.27404   420.99126
   413  O   6.0   -0.32    1.28    1.80   138.47344   125.17544   421.80195
   414  C   4.0    0.02    4.22    4.04   139.89641   120.10342   418.63666
   415  O   6.0   -0.27    2.09    1.84   142.23022   118.67478   418.87098
   416  H   1.0    0.12    1.10    1.44   143.72877   122.03283   417.04173
   417  H   1.0    0.04    1.13    1.45   138.98745   123.70523   417.57085
   418  H   1.0    0.05    1.07    1.44   138.85328   119.78216   420.11064
   419  H   1.0    0.04    1.07    1.44   139.01957   119.56295   417.11921
   420  H   1.0    0.15    1.07    1.44   141.93542   117.25749   419.52105
   421  N   5.0   -0.16    3.47    2.06   142.64218   124.46679   422.23848
   422  C   4.0    0.04    4.39    4.36   142.74044   125.76692   424.68378
   423  C   4.0    0.09    3.26    3.04   142.16975   128.55238   424.31151
   424  O   6.0   -0.27    1.12    1.80   140.90552   129.72779   425.87431
   425  C   4.0   -0.05    4.35    4.29   145.34071   125.51181   426.00281
   426  C   4.0   -0.03    4.27    4.14   146.03235   122.80761   426.77193
   427  C   4.0    0.25    3.15    3.03   144.27679   121.69079   428.74669
   428  O   6.0   -0.28    1.18    1.80   143.56814   122.99659   430.62130
   429  O   6.0   -0.25    1.17    1.80   143.46610   119.50437   428.31206
   430  H   1.0    0.10    1.12    1.45   144.06703   123.87531   421.72258
   431  H   1.0    0.07    1.13    1.45   141.50645   124.96946   425.78171
   432  H   1.0    0.05    1.09    1.44   146.63895   126.11085   424.85386
   433  H   1.0    0.07    1.09    1.44   145.32748   126.53415   427.52215
   434  H   1.0    0.06    1.10    1.44   145.96054   121.73425   425.28660
   435  H   1.0    0.06    1.09    1.44   147.72932   122.80761   427.46546
   436  N   5.0   -0.21    3.25    1.97   138.50179   130.78226   420.16545
   437  C   4.0    0.03    4.32    4.24   135.76924   131.03548   419.78561
   438  C   4.0    0.16    3.46    3.10   134.31793   130.76714   422.26115
   439  O   6.0   -0.30    1.26    1.80   132.51325   132.16932   422.76571
   440  C   4.0   -0.09    4.22    4.05   134.83761   129.07017   417.88455
   441  H   1.0    0.11    1.08    1.44   139.14618   129.39520   419.62121
   442  H   1.0    0.05    1.12    1.45   135.44232   132.70600   419.10720
   443  H   1.0    0.04    1.06    1.44   133.02158   129.22890   417.70691
   444  H   1.0    0.04    1.06    1.44   135.65397   129.36874   416.27072
   445  H   1.0    0.05    1.06    1.44   135.26280   127.39776   418.50060
   446  N   5.0   -0.16    3.50    2.08   135.04926   128.94166   423.80317
   447  C   4.0    0.04    4.38    4.35   133.95322   128.72435   426.32973
   448  C   4.0    0.10    3.25    3.04   134.07794   131.23579   427.79049
   449  O   6.0   -0.27    1.10    1.80   132.39419   131.84806   429.31739
   450  C   4.0   -0.05    4.39    4.36   135.33839   126.63620   427.78860
   451  C   4.0   -0.05    4.28    4.15   134.27069   125.96346   430.37186
   452  C   4.0   -0.05    4.30    4.20   136.24357   124.52915   431.98001
   453  C   4.0   -0.03    4.31    4.22   136.99001   122.02716   430.78193
   454  N   5.0   -0.15    4.17    3.35   138.76446   120.73269   432.46000
   455  H   1.0    0.12    1.15    1.45   136.16231   127.81350   423.44790
   456  H   1.0    0.05    1.12    1.45   132.18443   128.27270   426.17289
   457  H   1.0    0.05    1.10    1.44   135.29681   125.10930   426.77571
   458  H   1.0    0.07    1.10    1.44   137.07127   127.17099   428.04560
   459  H   1.0    0.06    1.09    1.44   133.80582   127.49791   431.25814
   460  H   1.0    0.05    1.09    1.44   132.80048   124.88820   430.16399
   461  H   1.0    0.06    1.09    1.44   137.75157   125.55717   432.14442
   462  H   1.0    0.05    1.09    1.44   135.53681   124.18333   433.63541
   463  H   1.0    0.06    1.09    1.44   135.50657   120.97458   430.55516
   464  H   1.0    0.06    1.09    1.44   137.80259   122.32384   429.16621
   465  H   1.0    0.11    1.10    1.44   139.23311   119.26627   431.78159
   466  H   1.0    0.11    1.10    1.44   140.13073   121.68512   432.69622
   467  H   1.0    0.08    1.09    1.44   138.03880   120.43979   433.94911
   468  N   5.0   -0.22    3.23    1.96   128.77915   135.93743   424.65544
   469  C   4.0    0.03    4.31    4.22   126.20723   135.36484   425.51148
   470  C   4.0    0.09    3.17    3.03   125.86708   135.70877   428.41599
   471  O   6.0   -0.28    1.10    1.80   123.75626   136.24546   429.33440
   472  C   4.0   -0.05    4.54    4.59   125.47402   132.70600   424.72347
   473  C   4.0   -0.03    4.36    4.31   125.41922   132.09184   421.95124
   474  C   4.0   -0.09    4.23    4.06   123.73925   129.68055   421.72636
   475  C   4.0   -0.08    4.33    4.26   124.39498   134.29526   420.62654
   476  H   1.0    0.13    1.09    1.44   129.58039   134.74123   423.90332
   477  H   1.0    0.05    1.13    1.45   125.06395   136.54214   424.69323
   478  H   1.0    0.05    1.10    1.44   126.66832   131.55138   425.49447
   479  H   1.0    0.05    1.12    1.45   123.78649   132.38286   425.36408
   480  H   1.0    0.05    1.13    1.45   127.05005   131.74413   421.18779
   481  H   1.0    0.04    1.05    1.44   123.61831   129.20056   419.96325
   482  H   1.0    0.05    1.05    1.44   124.50837   128.32561   422.69201
   483  H   1.0    0.04    1.06    1.44   122.07251   130.05282   422.38965
   484  H   1.0    0.05    1.06    1.44   124.30617   133.92676   418.83319
   485  H   1.0    0.05    1.07    1.44   122.71880   134.65431   421.27472
   486  H   1.0    0.05    1.08    1.44   125.49858   135.73145   420.91567
   487  H   1.0    0.10    1.08    1.44   110.78310   125.18873   423.75541
   488  H   1.0    0.11    1.08    1.44   104.83633    98.45513   425.34164
   489  H   1.0    0.07    1.04    1.43   103.14839    95.75196   431.22962
   490  H   1.0    0.10    1.08    1.44   118.59622   117.71153   442.20898
   491  H   1.0    0.06    1.04    1.43   132.33036   111.72639   446.97176
   492  H   1.0    0.11    1.08    1.44   125.39087   111.21892   451.46118
   493  H   1.0    0.07    1.04    1.43   126.46902   105.81596   455.19019
   494  H   1.0    0.10    1.08    1.44   112.65927   102.51614   435.30929
   495  H   1.0    0.06    1.04    1.43   118.41081    99.99408   436.51687
   496  H   1.0    0.10    1.08    1.44   116.17100    96.94207   428.40859
   497  H   1.0    0.07    1.04    1.43   125.06644    96.84701   427.82688
   498  H   1.0    0.10    1.08    1.44   121.87727    97.37043   419.43984
   499  H   1.0    0.06    1.04    1.43   127.48840   101.65863   416.31070
   500  H   1.0    0.11    1.08    1.44   128.70973   105.76536   418.71522
   501  H   1.0    0.07    1.04    1.44   130.31091   112.64747   412.41411
   502  H   1.0    0.11    1.08    1.44   125.18873   110.78310   410.63040
   503  H   1.0    0.07    1.04    1.44   125.26383   119.88635   410.87492
   504  H   1.0    0.11    1.08    1.44   116.83664   119.38107   408.21778
   505  H   1.0    0.07    1.04    1.44   118.12398   125.78684   409.69784
   506  H   1.0    0.10    1.08    1.44   137.22955   128.73523   410.83538
   507  H   1.0    0.07    1.04    1.43   135.50049   127.34747   404.81390
   508  H   1.0    0.10    1.08    1.44   142.38653   123.69138   415.42399
   509  H   1.0    0.06    1.05    1.44   142.82179   129.45461   422.78446
   510  H   1.0    0.10    1.08    1.44   139.30678   132.04246   419.35525
   511  H   1.0    0.08    1.04    1.43   135.53138   132.41344   427.52270
   512  H   1.0    0.10    1.08    1.44   128.73523   137.22955   423.55042
   513  H   1.0    0.07    1.04    1.43   127.34747   135.50049   429.57190

  Z AO/shell   Hii/eV     exponent
  1     Wed Apr 25 08:07:45 CEST 2018   EN: 2.200 GM2: 0.406  GM3: 0.0800  RAES: 1.40
     1s    -10.707211    1.230000
  6     Wed Apr 25 08:07:45 CEST 2018   EN: 2.550 GM2: 0.538  GM3: 0.1500  RAES: 3.00
     2s    -13.970922    2.096432
     2p    -10.063292    1.800000
  7     Wed Apr 25 08:07:45 CEST 2018   EN: 3.040 GM2: 0.461  GM3:-0.0640  RAES: 1.90
     2s    -16.686243    2.339881
     2p    -12.523956    2.014332
  8     Wed Apr 25 08:07:45 CEST 2018   EN: 3.440 GM2: 0.452  GM3:-0.0517  RAES: 1.80
     2s    -20.229985    2.439742
     2p    -15.503117    2.137023
 no old-style atom pair restraining (fixing) potential

molecular fragmentation (1/2 indicates fragments):
111111111111111111111111111111111111111111111111111111111111111111111111
111111111111111111111111111111111111111111111111111111111111111111111111
111111111222222222222222222222222222222222222222222222222222222222222222
222222222222222222222222222222222222222222222222222222222222222222222222
222222222222222222222222222222222222222222222222222222222222222222222222
222222222222222222222222222222222222222222222222222222222222222222222222
222222222222222222222222222222222222222222222222222222122222222222222222
222222222
# atoms in fragment 1/2:   154   359
 fragment masses (1/2) :     1076.26     2407.89
CMA distance (Bohr)    :   4.428
constraining FC (au)   :  0.0500
           ------------------------------------------------- 
          |        Self-Consistent Charge Iterations        |
           ------------------------------------------------- 

 Ncao       : 1254
 Nao        : 1254
 Nshell     : 760
 Nel        : 1378
 T(el)      :   500.0
 intcut     :    35.0
 scfconv/Eh :  0.100E-06
   qconv/e  :  0.100E-04
 intneglect :  0.100E-08
 broydamp   :      0.400
 iter      E             dE          RMSdq      gap      omega  full diag
   1   -788.9014898 -0.788901E+03  0.462E+00    2.59       0.0  T
   2   -790.6321325 -0.173064E+01  0.222E+00    1.41       1.0  T
   3   -790.7272429 -0.951104E-01  0.130E+00    1.95       1.0  T
   4   -790.8833492 -0.156106E+00  0.260E-01    1.37       1.0  T
   5   -790.8935326 -0.101834E-01  0.127E-01    1.46       1.0  T
   6   -790.8957652 -0.223257E-02  0.621E-02    1.48       1.0  T
   7   -790.8963626 -0.597394E-03  0.247E-02    1.45       1.0  T
   8   -790.8964511 -0.885095E-04  0.118E-02    1.43       1.0  T
   9   -790.8964643 -0.132131E-04  0.501E-03    1.42       1.0  T
  10   -790.8964677 -0.334183E-05  0.213E-03    1.42       2.1  T
  11   -790.8964681 -0.485962E-06  0.959E-04    1.42       4.6  T
  12   -790.8964683 -0.125469E-06  0.462E-04    1.42       9.6  T
  13   -790.8964683 -0.199793E-07  0.209E-04    1.42      21.1  T
  14   -790.8964683 -0.622015E-08  0.107E-04    1.42      41.4  T
  15   -790.8964683 -0.126875E-08  0.517E-05    1.42      85.3  T
  16   -790.8964683 -0.335604E-09  0.225E-05    1.42     196.1  T
speedup  1.53
cpu  time for SCC   38.70 s
wall time for SCC   25.22 s

   *** convergence criteria satisfied after 16 iterations ***

          eigenvalues
 #    :         677        678        679        680        681        682        683        684
 occ. :        2.000      2.000      2.000      2.000      2.000      2.000      2.000      2.000
 eps  :        -9.982     -9.975     -9.966     -9.963     -9.958     -9.915     -9.890     -9.791
 #    :         685        686        687        688        689        690        691        692
 occ. :        2.000      2.000      2.000      2.000      2.000      0.000      0.000      0.000
 eps  :        -9.732     -9.708     -9.672     -9.633     -9.527     -8.109     -7.995     -7.986
 #    :         693        694        695        696        697        698        699        700
 occ. :        0.000      0.000      0.000      0.000      0.000      0.000      0.000      0.000
 eps  :        -7.897     -7.891     -7.886     -7.864     -7.828     -7.773     -7.698     -7.670


   #   Z            q   n(s)   n(p)   n(d)      C6AA      α(0)
   1   7 N     -0.420  1.276  4.144  0.000    30.928     8.259
   2   6 C      0.014  1.033  2.953  0.000    20.343     6.423
   3   6 C      0.253  1.055  2.691  0.000    22.741     7.809
   4   8 O     -0.504  1.749  4.755  0.000    23.874     6.551
   5   6 C     -0.086  1.008  3.078  0.000    22.134     6.696
   6   6 C     -0.121  1.011  3.110  0.000    22.811     6.798
   7   6 C      0.279  1.050  2.671  0.000    22.283     7.729
   8   8 O     -0.495  1.760  4.734  0.000    23.668     6.523
   9   7 N     -0.319  1.201  4.118  0.000    28.217     7.889
  10   1 H      0.187  0.813  0.000  0.000     1.174     1.697
  11   1 H      0.068  0.932  0.000  0.000     2.104     2.268
  12   1 H      0.077  0.923  0.000  0.000     2.014     2.219
  13   1 H      0.064  0.936  0.000  0.000     2.148     2.292
  14   1 H      0.093  0.907  0.000  0.000     1.854     2.129
  15   1 H      0.073  0.927  0.000  0.000     2.049     2.238
  16   1 H      0.220  0.780  0.000  0.000     1.008     1.573
  17   1 H      0.233  0.767  0.000  0.000     0.953     1.529
  18   7 N     -0.188  1.212  3.976  0.000    25.071     7.437
  19   6 C      0.004  1.040  2.956  0.000    20.509     6.448
  20   6 C      0.263  1.044  2.693  0.000    22.572     7.780
  21   8 O     -0.499  1.753  4.746  0.000    23.753     6.534
  22   6 C     -0.167  0.985  3.182  0.000    23.786     6.950
  23   1 H      0.228  0.772  0.000  0.000     0.972     1.544
  24   1 H      0.091  0.909  0.000  0.000     1.866     2.136
  25   1 H      0.083  0.917  0.000  0.000     1.946     2.181
  26   1 H      0.083  0.917  0.000  0.000     1.948     2.183
  27   1 H      0.088  0.912  0.000  0.000     1.894     2.152
  28   7 N     -0.183  1.206  3.977  0.000    24.968     7.421
  29   6 C     -0.003  1.045  2.958  0.000    20.632     6.467
  30   6 C      0.269  1.045  2.686  0.000    22.456     7.760
  31   8 O     -0.500  1.763  4.737  0.000    23.782     6.538
  32   6 C     -0.119  1.015  3.103  0.000    22.753     6.789
  33   6 C     -0.100  1.008  3.092  0.000    22.395     6.736
  34   6 C     -0.123  1.016  3.107  0.000    22.849     6.803
  35   6 C     -0.079  1.016  3.063  0.000    22.076     6.703
  36   7 N     -0.139  1.142  3.997  0.000    23.994     7.275
  37   1 H      0.232  0.768  0.000  0.000     0.957     1.533
  38   1 H      0.104  0.896  0.000  0.000     1.746     2.066
  39   1 H      0.092  0.908  0.000  0.000     1.856     2.130
  40   1 H      0.091  0.909  0.000  0.000     1.872     2.140
  41   1 H      0.076  0.924  0.000  0.000     2.018     2.222
  42   1 H      0.077  0.923  0.000  0.000     2.012     2.218
  43   1 H      0.092  0.908  0.000  0.000     1.859     2.132
  44   1 H      0.097  0.903  0.000  0.000     1.811     2.104
  45   1 H      0.131  0.869  0.000  0.000     1.530     1.934
  46   1 H      0.133  0.867  0.000  0.000     1.512     1.923
  47   1 H      0.293  0.707  0.000  0.000     0.733     1.341
  48   1 H      0.293  0.707  0.000  0.000     0.735     1.343
  49   1 H      0.289  0.711  0.000  0.000     0.748     1.355
  50   7 N     -0.186  1.206  3.980  0.000    25.021     7.429
  51   6 C      0.018  1.033  2.949  0.000    20.259     6.407
  52   6 C      0.276  1.039  2.685  0.000    22.337     7.740
  53   8 O     -0.504  1.750  4.753  0.000    23.866     6.550
  54   6 C     -0.107  1.005  3.101  0.000    22.509     6.750
  55   6 C      0.003  1.068  2.929  0.000    27.957     8.673
  56   6 C     -0.063  1.054  3.009  0.000    29.574     8.920
  57   6 C     -0.067  1.055  3.012  0.000    29.664     8.933
  58   6 C     -0.056  1.053  3.002  0.000    29.388     8.892
  59   6 C     -0.056  1.054  3.002  0.000    29.402     8.893
  60   6 C     -0.053  1.044  3.009  0.000    29.316     8.879
  61   1 H      0.217  0.783  0.000  0.000     1.023     1.585
  62   1 H      0.095  0.905  0.000  0.000     1.830     2.115
  63   1 H      0.082  0.918  0.000  0.000     1.954     2.186
  64   1 H      0.082  0.918  0.000  0.000     1.956     2.187
  65   1 H      0.061  0.939  0.000  0.000     2.182     2.310
  66   1 H      0.058  0.942  0.000  0.000     2.223     2.331
  67   1 H      0.066  0.934  0.000  0.000     2.131     2.282
  68   1 H      0.058  0.942  0.000  0.000     2.226     2.333
  69   1 H      0.061  0.939  0.000  0.000     2.186     2.312
  70   7 N     -0.185  1.208  3.977  0.000    25.016     7.428
  71   6 C      0.023  1.035  2.942  0.000    20.161     6.388
  72   6 C      0.268  1.044  2.688  0.000    22.469     7.763
  73   8 O     -0.493  1.754  4.739  0.000    23.629     6.517
  74   6 C     -0.093  0.999  3.094  0.000    22.252     6.712
  75   6 C     -0.039  1.064  2.975  0.000    28.916     8.819
  76   6 C     -0.032  1.047  2.985  0.000    28.760     8.797
  77   6 C     -0.028  1.080  2.948  0.000    28.588     8.763
  78   7 N     -0.123  1.188  3.936  0.000    23.676     7.227
  79   6 C      0.027  1.072  2.901  0.000    27.336     8.573
  80   6 C     -0.056  1.058  2.999  0.000    29.392     8.890
  81   6 C     -0.084  1.047  3.037  0.000    30.100     8.996
  82   6 C     -0.065  1.059  3.006  0.000    29.612     8.923
  83   6 C     -0.063  1.056  3.007  0.000    29.555     8.915
  84   1 H      0.226  0.774  0.000  0.000     0.982     1.552
  85   1 H      0.094  0.906  0.000  0.000     1.837     2.119
  86   1 H      0.074  0.926  0.000  0.000     2.045     2.236
  87   1 H      0.083  0.917  0.000  0.000     1.950     2.184
  88   1 H      0.075  0.925  0.000  0.000     2.026     2.226
  89   1 H      0.189  0.811  0.000  0.000     1.165     1.691
  90   1 H      0.048  0.952  0.000  0.000     2.349     2.396
  91   1 H      0.065  0.935  0.000  0.000     2.144     2.290
  92   1 H      0.049  0.951  0.000  0.000     2.325     2.384
  93   1 H      0.056  0.944  0.000  0.000     2.245     2.343
  94   7 N     -0.200  1.214  3.986  0.000    25.343     7.477
  95   6 C      0.010  1.044  2.946  0.000    20.402     6.430
  96   6 C      0.261  1.056  2.683  0.000    22.594     7.784
  97   8 O     -0.513  1.764  4.749  0.000    24.084     6.580
  98   6 C     -0.106  1.010  3.096  0.000    22.483     6.745
  99   6 C     -0.034  1.027  3.006  0.000    21.135     6.538
 100   6 C     -0.162  0.987  3.175  0.000    23.675     6.933
 101   6 C     -0.163  0.973  3.189  0.000    23.665     6.928
 102   1 H      0.234  0.766  0.000  0.000     0.950     1.526
 103   1 H      0.091  0.909  0.000  0.000     1.873     2.140
 104   1 H      0.074  0.926  0.000  0.000     2.042     2.234
 105   1 H      0.077  0.923  0.000  0.000     2.006     2.215
 106   1 H      0.067  0.933  0.000  0.000     2.118     2.276
 107   1 H      0.064  0.936  0.000  0.000     2.152     2.294
 108   1 H      0.058  0.942  0.000  0.000     2.226     2.333
 109   1 H      0.055  0.945  0.000  0.000     2.259     2.350
 110   1 H      0.065  0.935  0.000  0.000     2.143     2.289
 111   1 H      0.052  0.948  0.000  0.000     2.296     2.369
 112   1 H      0.053  0.947  0.000  0.000     2.284     2.363
 113   7 N     -0.168  1.202  3.965  0.000    24.625     7.370
 114   6 C     -0.044  1.007  3.036  0.000    21.406     6.596
 115   6 C      0.273  1.042  2.685  0.000    22.388     7.748
 116   8 O     -0.500  1.749  4.751  0.000    23.788     6.539
 117   1 H      0.222  0.778  0.000  0.000     1.002     1.568
 118   1 H      0.111  0.889  0.000  0.000     1.689     2.032
 119   1 H      0.103  0.897  0.000  0.000     1.754     2.071
 120   7 N     -0.195  1.214  3.981  0.000    25.234     7.461
 121   6 C      0.017  1.036  2.947  0.000    20.290     6.412
 122   6 C      0.259  1.053  2.687  0.000    22.633     7.791
 123   8 O     -0.485  1.757  4.729  0.000    23.461     6.494
 124   6 C     -0.102  1.007  3.095  0.000    22.392     6.729
 125   6 C     -0.026  1.015  3.010  0.000    20.987     6.514
 126   6 C     -0.151  0.974  3.177  0.000    23.437     6.896
 127   6 C     -0.162  0.978  3.184  0.000    23.633     6.920
 128   1 H      0.227  0.773  0.000  0.000     0.978     1.549
 129   1 H      0.107  0.893  0.000  0.000     1.722     2.052
 130   1 H      0.069  0.931  0.000  0.000     2.094     2.263
 131   1 H      0.083  0.917  0.000  0.000     1.943     2.180
 132   1 H      0.051  0.949  0.000  0.000     2.312     2.378
 133   1 H      0.065  0.935  0.000  0.000     2.138     2.286
 134   1 H      0.042  0.958  0.000  0.000     2.418     2.431
 135   1 H      0.060  0.940  0.000  0.000     2.203     2.321
 136   1 H      0.064  0.936  0.000  0.000     2.156     2.296
 137   1 H      0.061  0.939  0.000  0.000     2.188     2.313
 138   1 H      0.060  0.940  0.000  0.000     2.194     2.316
 139   7 N     -0.188  1.202  3.985  0.000    25.073     7.437
 140   6 C     -0.035  1.004  3.032  0.000    21.257     6.573
 141   6 C      0.290  1.035  2.675  0.000    22.077     7.694
 142   8 O     -0.514  1.763  4.751  0.000    24.092     6.581
 143   1 H      0.215  0.785  0.000  0.000     1.031     1.590
 144   1 H      0.094  0.906  0.000  0.000     1.841     2.121
 145   1 H      0.091  0.909  0.000  0.000     1.868     2.137
 146   7 N     -0.188  1.201  3.987  0.000    25.084     7.438
 147   6 C     -0.052  1.017  3.035  0.000    21.571     6.625
 148   6 C      0.360  1.029  2.612  0.000    20.894     7.480
 149   8 O     -0.641  1.780  4.861  0.000    27.142     6.985
 150   8 O     -0.647  1.773  4.874  0.000    27.298     7.005
 151   1 H      0.217  0.783  0.000  0.000     1.023     1.585
 152   1 H      0.080  0.920  0.000  0.000     1.974     2.197
 153   1 H      0.076  0.924  0.000  0.000     2.020     2.223
 154   7 N     -0.419  1.291  4.128  0.000    30.913     8.258
 155   6 C      0.027  1.039  2.935  0.000    20.138     6.391
 156   6 C      0.195  1.091  2.714  0.000    23.843     7.997
 157   8 O     -0.391  1.769  4.622  0.000    21.502     6.217
 158   6 C     -0.090  1.007  3.082  0.000    22.188     6.702
 159   6 C     -0.003  1.065  2.937  0.000    28.084     8.693
 160   6 C     -0.060  1.054  3.006  0.000    29.489     8.907
 161   6 C     -0.062  1.050  3.012  0.000    29.533     8.914
 162   6 C     -0.075  1.048  3.028  0.000    29.882     8.965
 163   6 C     -0.090  1.049  3.041  0.000    30.255     9.021
 164   6 C      0.136  1.043  2.821  0.000    25.027     8.200
 165   8 O     -0.458  1.682  4.775  0.000    22.002     6.332
 166   1 H      0.190  0.810  0.000  0.000     1.158     1.685
 167   1 H      0.091  0.909  0.000  0.000     1.867     2.136
 168   1 H      0.068  0.932  0.000  0.000     2.105     2.269
 169   1 H      0.074  0.926  0.000  0.000     2.039     2.233
 170   1 H      0.065  0.935  0.000  0.000     2.140     2.288
 171   1 H      0.072  0.928  0.000  0.000     2.064     2.247
 172   1 H      0.066  0.934  0.000  0.000     2.134     2.284
 173   1 H      0.074  0.926  0.000  0.000     2.045     2.236
 174   1 H      0.332  0.668  0.000  0.000     0.632     1.248
 175   7 N     -0.430  1.285  4.144  0.000    31.208     8.297
 176   6 C      0.029  1.029  2.942  0.000    20.098     6.384
 177   6 C      0.267  1.045  2.689  0.000    22.502     7.769
 178   8 O     -0.498  1.741  4.757  0.000    23.743     6.533
 179   6 C     -0.095  1.009  3.086  0.000    22.289     6.718
 180   6 C     -0.010  1.085  2.924  0.000    28.262     8.720
 181   6 C     -0.060  1.061  2.999  0.000    29.491     8.906
 182   6 C     -0.063  1.056  3.007  0.000    29.577     8.919
 183   6 C     -0.082  1.056  3.026  0.000    30.045     8.988
 184   6 C     -0.097  1.050  3.047  0.000    30.446     9.049
 185   6 C      0.137  1.045  2.819  0.000    25.007     8.196
 186   8 O     -0.457  1.683  4.775  0.000    21.993     6.331
 187   1 H      0.187  0.813  0.000  0.000     1.176     1.699
 188   1 H      0.069  0.931  0.000  0.000     2.095     2.263
 189   1 H      0.054  0.946  0.000  0.000     2.265     2.353
 190   1 H      0.065  0.935  0.000  0.000     2.144     2.290
 191   1 H      0.064  0.936  0.000  0.000     2.152     2.294
 192   1 H      0.066  0.934  0.000  0.000     2.128     2.281
 193   1 H      0.072  0.928  0.000  0.000     2.066     2.248
 194   1 H      0.082  0.918  0.000  0.000     1.953     2.185
 195   1 H      0.359  0.641  0.000  0.000     0.567     1.183
 196   7 N     -0.174  1.203  3.972  0.000    24.772     7.392
 197   6 C      0.012  1.031  2.957  0.000    20.375     6.426
 198   6 C      0.260  1.043  2.697  0.000    22.620     7.789
 199   8 O     -0.491  1.740  4.751  0.000    23.595     6.513
 200   6 C      0.056  0.997  2.946  0.000    19.810     6.370
 201   8 O     -0.505  1.683  4.822  0.000    22.991     6.473
 202   1 H      0.223  0.777  0.000  0.000     0.995     1.562
 203   1 H      0.091  0.909  0.000  0.000     1.873     2.140
 204   1 H      0.063  0.937  0.000  0.000     2.168     2.302
 205   1 H      0.057  0.943  0.000  0.000     2.230     2.335
 206   1 H      0.352  0.648  0.000  0.000     0.584     1.200
 207   7 N     -0.105  1.240  3.865  0.000    23.299     7.169
 208   6 C      0.016  1.046  2.938  0.000    20.275     6.406
 209   6 C      0.195  1.090  2.715  0.000    23.847     7.997
 210   8 O     -0.373  1.763  4.610  0.000    21.158     6.167
 211   6 C     -0.090  1.008  3.081  0.000    22.172     6.698
 212   6 C     -0.095  1.004  3.091  0.000    22.254     6.708
 213   6 C     -0.030  1.010  3.020  0.000    21.130     6.549
 214   1 H      0.115  0.885  0.000  0.000     1.650     2.009
 215   1 H      0.077  0.923  0.000  0.000     2.013     2.218
 216   1 H      0.099  0.901  0.000  0.000     1.795     2.095
 217   1 H      0.088  0.912  0.000  0.000     1.899     2.155
 218   1 H      0.086  0.914  0.000  0.000     1.922     2.168
 219   1 H      0.076  0.924  0.000  0.000     2.018     2.221
 220   1 H      0.081  0.919  0.000  0.000     1.969     2.194
 221   7 N     -0.416  1.281  4.135  0.000    30.815     8.244
 222   6 C      0.032  1.029  2.939  0.000    20.038     6.374
 223   6 C      0.198  1.092  2.710  0.000    23.782     7.987
 224   8 O     -0.394  1.765  4.629  0.000    21.558     6.225
 225   6 C     -0.087  1.001  3.086  0.000    22.135     6.694
 226   6 C     -0.035  1.060  2.976  0.000    28.821     8.804
 227   6 C     -0.022  1.036  2.986  0.000    28.500     8.754
 228   6 C     -0.044  1.075  2.969  0.000    28.388     8.670
 229   7 N     -0.127  1.191  3.936  0.000    23.762     7.240
 230   6 C      0.045  1.051  2.903  0.000    26.674     8.444
 231   6 C     -0.052  1.032  3.020  0.000    29.299     8.878
 232   6 C     -0.064  1.033  3.031  0.000    29.590     8.921
 233   6 C     -0.093  1.035  3.058  0.000    30.335     9.035
 234   6 C     -0.083  1.047  3.036  0.000    30.064     8.994
 235   1 H      0.192  0.808  0.000  0.000     1.146     1.677
 236   1 H      0.070  0.930  0.000  0.000     2.080     2.255
 237   1 H      0.079  0.921  0.000  0.000     1.984     2.203
 238   1 H      0.070  0.930  0.000  0.000     2.088     2.259
 239   1 H      0.045  0.955  0.000  0.000     2.380     2.412
 240   1 H      0.181  0.819  0.000  0.000     1.208     1.721
 241   1 H      0.056  0.944  0.000  0.000     2.245     2.343
 242   1 H      0.062  0.938  0.000  0.000     2.169     2.303
 243   1 H      0.073  0.927  0.000  0.000     2.053     2.240
 244   1 H      0.066  0.934  0.000  0.000     2.125     2.280
 245   7 N     -0.419  1.275  4.144  0.000    30.916     8.258
 246   6 C      0.028  1.031  2.941  0.000    20.117     6.388
 247   6 C      0.183  1.102  2.715  0.000    24.074     8.035
 248   8 O     -0.373  1.750  4.623  0.000    21.145     6.165
 249   6 C     -0.101  1.016  3.085  0.000    22.389     6.731
 250   6 C     -0.019  1.019  3.000  0.000    20.870     6.497
 251   6 C     -0.152  0.978  3.174  0.000    23.453     6.899
 252   6 C     -0.145  0.968  3.177  0.000    23.310     6.875
 253   1 H      0.187  0.813  0.000  0.000     1.175     1.698
 254   1 H      0.068  0.932  0.000  0.000     2.110     2.271
 255   1 H      0.067  0.933  0.000  0.000     2.117     2.275
 256   1 H      0.071  0.929  0.000  0.000     2.076     2.253
 257   1 H      0.044  0.956  0.000  0.000     2.401     2.423
 258   1 H      0.052  0.948  0.000  0.000     2.296     2.369
 259   1 H      0.051  0.949  0.000  0.000     2.309     2.376
 260   1 H      0.054  0.946  0.000  0.000     2.269     2.355
 261   1 H      0.051  0.949  0.000  0.000     2.309     2.376
 262   1 H      0.055  0.945  0.000  0.000     2.256     2.349
 263   1 H      0.053  0.947  0.000  0.000     2.282     2.362
 264   7 N     -0.418  1.280  4.139  0.000    30.884     8.254
 265   6 C      0.030  1.027  2.943  0.000    20.084     6.382
 266   6 C      0.261  1.054  2.685  0.000    22.606     7.786
 267   8 O     -0.515  1.763  4.752  0.000    24.118     6.584
 268   6 C     -0.153  0.979  3.173  0.000    23.483     6.905
 269   1 H      0.188  0.812  0.000  0.000     1.167     1.692
 270   1 H      0.052  0.948  0.000  0.000     2.294     2.369
 271   1 H      0.062  0.938  0.000  0.000     2.170     2.303
 272   1 H      0.067  0.933  0.000  0.000     2.118     2.275
 273   1 H      0.072  0.928  0.000  0.000     2.058     2.243
 274   7 N     -0.184  1.213  3.971  0.000    24.985     7.424
 275   6 C      0.017  1.038  2.945  0.000    20.289     6.414
 276   6 C      0.191  1.095  2.714  0.000    23.920     8.009
 277   8 O     -0.368  1.787  4.581  0.000    21.061     6.153
 278   6 C     -0.118  1.016  3.102  0.000    22.751     6.789
 279   6 C     -0.112  1.020  3.092  0.000    22.632     6.773
 280   6 C     -0.054  1.032  3.021  0.000    21.629     6.638
 281   7 N     -0.153  1.197  3.957  0.000    24.320     7.324
 282   6 C      0.212  1.031  2.757  0.000    23.502     7.937
 283   7 N     -0.250  1.165  4.085  0.000    26.510     7.647
 284   7 N     -0.262  1.177  4.086  0.000    26.804     7.689
 285   1 H      0.245  0.755  0.000  0.000     0.902     1.488
 286   1 H      0.103  0.897  0.000  0.000     1.757     2.073
 287   1 H      0.094  0.906  0.000  0.000     1.838     2.120
 288   1 H      0.097  0.903  0.000  0.000     1.808     2.103
 289   1 H      0.085  0.915  0.000  0.000     1.927     2.171
 290   1 H      0.085  0.915  0.000  0.000     1.931     2.173
 291   1 H      0.110  0.890  0.000  0.000     1.699     2.038
 292   1 H      0.109  0.891  0.000  0.000     1.704     2.041
 293   1 H      0.243  0.757  0.000  0.000     0.912     1.496
 294   1 H      0.238  0.762  0.000  0.000     0.931     1.511
 295   1 H      0.250  0.750  0.000  0.000     0.882     1.471
 296   1 H      0.256  0.744  0.000  0.000     0.861     1.453
 297   1 H      0.257  0.743  0.000  0.000     0.858     1.451
 298   7 N     -0.403  1.282  4.121  0.000    30.466     8.198
 299   6 C      0.030  1.035  2.936  0.000    20.087     6.384
 300   6 C      0.184  1.092  2.725  0.000    24.059     8.033
 301   8 O     -0.381  1.773  4.608  0.000    21.308     6.189
 302   6 C     -0.081  1.004  3.077  0.000    22.021     6.678
 303   6 C     -0.105  1.003  3.102  0.000    22.483     6.748
 304   6 C      0.279  1.044  2.677  0.000    22.274     7.728
 305   8 O     -0.515  1.777  4.738  0.000    24.115     6.584
 306   7 N     -0.313  1.200  4.113  0.000    28.047     7.865
 307   1 H      0.181  0.819  0.000  0.000     1.206     1.720
 308   1 H      0.085  0.915  0.000  0.000     1.928     2.171
 309   1 H      0.067  0.933  0.000  0.000     2.119     2.276
 310   1 H      0.073  0.927  0.000  0.000     2.057     2.243
 311   1 H      0.083  0.917  0.000  0.000     1.945     2.181
 312   1 H      0.100  0.900  0.000  0.000     1.780     2.086
 313   1 H      0.231  0.769  0.000  0.000     0.959     1.534
 314   1 H      0.232  0.768  0.000  0.000     0.955     1.531
 315   7 N     -0.417  1.276  4.141  0.000    30.838     8.247
 316   6 C      0.019  1.035  2.947  0.000    20.268     6.411
 317   6 C      0.259  1.055  2.686  0.000    22.635     7.791
 318   8 O     -0.481  1.740  4.741  0.000    23.370     6.482
 319   6 C      0.101  1.028  2.871  0.000    18.992     6.219
 320   8 O     -0.477  1.670  4.807  0.000    22.399     6.389
 321   6 C     -0.178  0.986  3.192  0.000    24.032     6.988
 322   1 H      0.188  0.812  0.000  0.000     1.169     1.694
 323   1 H      0.079  0.921  0.000  0.000     1.991     2.206
 324   1 H      0.048  0.952  0.000  0.000     2.349     2.396
 325   1 H      0.313  0.687  0.000  0.000     0.683     1.298
 326   1 H      0.058  0.942  0.000  0.000     2.225     2.333
 327   1 H      0.072  0.928  0.000  0.000     2.062     2.246
 328   1 H      0.067  0.933  0.000  0.000     2.119     2.276
 329   7 N     -0.174  1.204  3.970  0.000    24.768     7.391
 330   6 C      0.006  1.038  2.956  0.000    20.489     6.445
 331   6 C      0.196  1.084  2.720  0.000    23.819     7.993
 332   8 O     -0.343  1.745  4.598  0.000    20.579     6.082
 333   6 C      0.048  1.005  2.946  0.000    19.958     6.396
 334   8 O     -0.503  1.688  4.816  0.000    22.961     6.469
 335   1 H      0.233  0.767  0.000  0.000     0.951     1.527
 336   1 H      0.118  0.882  0.000  0.000     1.630     1.997
 337   1 H      0.079  0.921  0.000  0.000     1.984     2.202
 338   1 H      0.084  0.916  0.000  0.000     1.935     2.175
 339   1 H      0.348  0.652  0.000  0.000     0.592     1.209
 340   7 N     -0.416  1.276  4.139  0.000    30.813     8.244
 341   6 C      0.022  1.032  2.947  0.000    20.220     6.404
 342   6 C      0.260  1.054  2.687  0.000    22.628     7.790
 343   8 O     -0.504  1.747  4.757  0.000    23.866     6.550
 344   6 C     -0.084  1.007  3.077  0.000    22.093     6.690
 345   6 C     -0.122  1.012  3.110  0.000    22.813     6.798
 346   6 C      0.276  1.050  2.674  0.000    22.327     7.737
 347   8 O     -0.490  1.766  4.723  0.000    23.561     6.508
 348   7 N     -0.324  1.202  4.122  0.000    28.352     7.908
 349   1 H      0.177  0.823  0.000  0.000     1.230     1.737
 350   1 H      0.060  0.940  0.000  0.000     2.200     2.319
 351   1 H      0.067  0.933  0.000  0.000     2.117     2.275
 352   1 H      0.071  0.929  0.000  0.000     2.079     2.254
 353   1 H      0.099  0.901  0.000  0.000     1.789     2.092
 354   1 H      0.075  0.925  0.000  0.000     2.028     2.227
 355   1 H      0.226  0.774  0.000  0.000     0.984     1.553
 356   1 H      0.230  0.770  0.000  0.000     0.965     1.539
 357   7 N     -0.174  1.209  3.965  0.000    24.763     7.391
 358   6 C      0.019  1.036  2.945  0.000    20.255     6.408
 359   6 C      0.196  1.089  2.715  0.000    23.814     7.992
 360   8 O     -0.354  1.757  4.597  0.000    20.778     6.111
 361   6 C     -0.165  0.985  3.180  0.000    23.736     6.943
 362   1 H      0.220  0.780  0.000  0.000     1.010     1.574
 363   1 H      0.102  0.898  0.000  0.000     1.769     2.080
 364   1 H      0.092  0.908  0.000  0.000     1.857     2.131
 365   1 H      0.090  0.910  0.000  0.000     1.877     2.143
 366   1 H      0.086  0.914  0.000  0.000     1.917     2.165
 367   7 N     -0.409  1.277  4.132  0.000    30.631     8.220
 368   6 C      0.035  1.030  2.935  0.000    19.973     6.361
 369   6 C      0.197  1.092  2.711  0.000    23.792     7.988
 370   8 O     -0.394  1.766  4.628  0.000    21.562     6.226
 371   6 C     -0.085  0.999  3.086  0.000    22.096     6.689
 372   6 C     -0.037  1.063  2.974  0.000    28.873     8.812
 373   6 C     -0.026  1.047  2.979  0.000    28.633     8.777
 374   6 C     -0.031  1.080  2.951  0.000    28.646     8.772
 375   7 N     -0.127  1.189  3.938  0.000    23.749     7.238
 376   6 C      0.029  1.072  2.899  0.000    27.295     8.567
 377   6 C     -0.060  1.057  3.003  0.000    29.485     8.904
 378   6 C     -0.081  1.048  3.033  0.000    30.020     8.984
 379   6 C     -0.068  1.059  3.009  0.000    29.694     8.936
 380   6 C     -0.061  1.057  3.004  0.000    29.529     8.911
 381   1 H      0.189  0.811  0.000  0.000     1.163     1.689
 382   1 H      0.070  0.930  0.000  0.000     2.084     2.257
 383   1 H      0.073  0.927  0.000  0.000     2.050     2.239
 384   1 H      0.070  0.930  0.000  0.000     2.086     2.258
 385   1 H      0.070  0.930  0.000  0.000     2.090     2.261
 386   1 H      0.185  0.815  0.000  0.000     1.188     1.707
 387   1 H      0.054  0.946  0.000  0.000     2.269     2.355
 388   1 H      0.061  0.939  0.000  0.000     2.187     2.312
 389   1 H      0.049  0.951  0.000  0.000     2.333     2.389
 390   1 H      0.051  0.949  0.000  0.000     2.303     2.373
 391   7 N     -0.420  1.280  4.141  0.000    30.948     8.262
 392   6 C      0.026  1.038  2.936  0.000    20.156     6.395
 393   6 C      0.188  1.105  2.707  0.000    23.967     8.017
 394   8 O     -0.401  1.778  4.623  0.000    21.697     6.245
 395   6 C     -0.094  1.009  3.085  0.000    22.258     6.711
 396   6 C     -0.026  1.025  3.000  0.000    20.991     6.516
 397   6 C     -0.162  0.986  3.176  0.000    23.681     6.934
 398   6 C     -0.152  0.972  3.181  0.000    23.458     6.898
 399   1 H      0.193  0.807  0.000  0.000     1.144     1.675
 400   1 H      0.079  0.921  0.000  0.000     1.986     2.203
 401   1 H      0.061  0.939  0.000  0.000     2.184     2.311
 402   1 H      0.066  0.934  0.000  0.000     2.131     2.282
 403   1 H      0.054  0.946  0.000  0.000     2.264     2.353
 404   1 H      0.065  0.935  0.000  0.000     2.136     2.285
 405   1 H      0.055  0.945  0.000  0.000     2.256     2.348
 406   1 H      0.057  0.943  0.000  0.000     2.238     2.339
 407   1 H      0.059  0.941  0.000  0.000     2.208     2.323
 408   1 H      0.053  0.947  0.000  0.000     2.285     2.364
 409   1 H      0.049  0.951  0.000  0.000     2.332     2.388
 410   7 N     -0.420  1.282  4.137  0.000    30.925     8.259
 411   6 C      0.014  1.035  2.951  0.000    20.356     6.425
 412   6 C      0.261  1.049  2.690  0.000    22.609     7.786
 413   8 O     -0.488  1.733  4.755  0.000    23.528     6.503
 414   6 C      0.053  1.002  2.945  0.000    19.887     6.385
 415   8 O     -0.514  1.690  4.825  0.000    23.206     6.503
 416   1 H      0.195  0.805  0.000  0.000     1.133     1.667
 417   1 H      0.084  0.916  0.000  0.000     1.936     2.176
 418   1 H      0.051  0.949  0.000  0.000     2.303     2.373
 419   1 H      0.072  0.928  0.000  0.000     2.059     2.244
 420   1 H      0.335  0.665  0.000  0.000     0.624     1.241
 421   7 N     -0.183  1.212  3.971  0.000    24.971     7.422
 422   6 C      0.021  1.038  2.940  0.000    20.219     6.403
 423   6 C      0.198  1.086  2.716  0.000    23.784     7.987
 424   8 O     -0.354  1.753  4.601  0.000    20.788     6.113
 425   6 C     -0.080  1.013  3.068  0.000    22.024     6.680
 426   6 C     -0.115  1.014  3.101  0.000    22.680     6.778
 427   6 C      0.358  1.028  2.615  0.000    20.929     7.487
 428   8 O     -0.656  1.768  4.888  0.000    27.534     7.035
 429   8 O     -0.656  1.791  4.864  0.000    27.529     7.035
 430   1 H      0.219  0.781  0.000  0.000     1.014     1.577
 431   1 H      0.095  0.905  0.000  0.000     1.835     2.118
 432   1 H      0.071  0.929  0.000  0.000     2.078     2.254
 433   1 H      0.077  0.923  0.000  0.000     2.006     2.215
 434   1 H      0.050  0.950  0.000  0.000     2.321     2.382
 435   1 H      0.053  0.947  0.000  0.000     2.285     2.364
 436   7 N     -0.423  1.285  4.138  0.000    31.018     8.271
 437   6 C      0.021  1.035  2.944  0.000    20.231     6.406
 438   6 C      0.264  1.050  2.686  0.000    22.550     7.776
 439   8 O     -0.510  1.749  4.761  0.000    24.016     6.570
 440   6 C     -0.155  0.981  3.174  0.000    23.535     6.913
 441   1 H      0.174  0.826  0.000  0.000     1.251     1.752
 442   1 H      0.064  0.936  0.000  0.000     2.153     2.295
 443   1 H      0.069  0.931  0.000  0.000     2.093     2.262
 444   1 H      0.064  0.936  0.000  0.000     2.147     2.291
 445   1 H      0.069  0.931  0.000  0.000     2.093     2.262
 446   7 N     -0.170  1.208  3.962  0.000    24.674     7.377
 447   6 C      0.016  1.039  2.945  0.000    20.308     6.416
 448   6 C      0.205  1.090  2.706  0.000    23.654     7.965
 449   8 O     -0.364  1.757  4.606  0.000    20.966     6.139
 450   6 C     -0.103  1.013  3.091  0.000    22.459     6.745
 451   6 C     -0.100  1.009  3.091  0.000    22.389     6.735
 452   6 C     -0.119  1.015  3.103  0.000    22.763     6.791
 453   6 C     -0.053  1.006  3.047  0.000    21.596     6.629
 454   7 N     -0.121  1.136  3.985  0.000    23.621     7.218
 455   1 H      0.227  0.773  0.000  0.000     0.977     1.548
 456   1 H      0.113  0.887  0.000  0.000     1.674     2.023
 457   1 H      0.079  0.921  0.000  0.000     1.984     2.202
 458   1 H      0.077  0.923  0.000  0.000     2.008     2.216
 459   1 H      0.089  0.911  0.000  0.000     1.889     2.149
 460   1 H      0.084  0.916  0.000  0.000     1.942     2.179
 461   1 H      0.085  0.915  0.000  0.000     1.923     2.169
 462   1 H      0.098  0.902  0.000  0.000     1.800     2.098
 463   1 H      0.124  0.876  0.000  0.000     1.580     1.965
 464   1 H      0.106  0.894  0.000  0.000     1.728     2.055
 465   1 H      0.260  0.740  0.000  0.000     0.847     1.441
 466   1 H      0.283  0.717  0.000  0.000     0.765     1.370
 467   1 H      0.280  0.720  0.000  0.000     0.774     1.378
 468   7 N     -0.423  1.281  4.142  0.000    31.014     8.271
 469   6 C      0.025  1.038  2.936  0.000    20.163     6.396
 470   6 C      0.186  1.109  2.705  0.000    24.016     8.025
 471   8 O     -0.380  1.752  4.628  0.000    21.293     6.187
 472   6 C     -0.096  1.010  3.086  0.000    22.287     6.715
 473   6 C     -0.023  1.024  2.999  0.000    20.950     6.509
 474   6 C     -0.165  0.987  3.178  0.000    23.731     6.941
 475   6 C     -0.151  0.972  3.180  0.000    23.429     6.894
 476   1 H      0.188  0.812  0.000  0.000     1.168     1.693
 477   1 H      0.082  0.918  0.000  0.000     1.954     2.186
 478   1 H      0.058  0.942  0.000  0.000     2.218     2.329
 479   1 H      0.078  0.922  0.000  0.000     1.996     2.209
 480   1 H      0.044  0.956  0.000  0.000     2.399     2.422
 481   1 H      0.060  0.940  0.000  0.000     2.201     2.320
 482   1 H      0.052  0.948  0.000  0.000     2.297     2.370
 483   1 H      0.066  0.934  0.000  0.000     2.134     2.284
 484   1 H      0.050  0.950  0.000  0.000     2.317     2.380
 485   1 H      0.064  0.936  0.000  0.000     2.156     2.296
 486   1 H      0.046  0.954  0.000  0.000     2.372     2.408
 487   1 H      0.191  0.809  0.000  0.000     1.151     1.681
 488   1 H      0.184  0.816  0.000  0.000     1.193     1.711
 489   1 H      0.077  0.923  0.000  0.000     2.010     2.217
 490   1 H      0.183  0.817  0.000  0.000     1.197     1.714
 491   1 H      0.074  0.926  0.000  0.000     2.043     2.235
 492   1 H      0.176  0.824  0.000  0.000     1.239     1.744
 493   1 H      0.072  0.928  0.000  0.000     2.068     2.249
 494   1 H      0.174  0.826  0.000  0.000     1.251     1.752
 495   1 H      0.082  0.918  0.000  0.000     1.954     2.186
 496   1 H      0.172  0.828  0.000  0.000     1.262     1.760
 497   1 H      0.089  0.911  0.000  0.000     1.891     2.150
 498   1 H      0.185  0.815  0.000  0.000     1.187     1.706
 499   1 H      0.066  0.934  0.000  0.000     2.132     2.283
 500   1 H      0.174  0.826  0.000  0.000     1.250     1.751
 501   1 H      0.083  0.917  0.000  0.000     1.951     2.184
 502   1 H      0.179  0.821  0.000  0.000     1.221     1.731
 503   1 H      0.076  0.924  0.000  0.000     2.019     2.222
 504   1 H      0.176  0.824  0.000  0.000     1.236     1.741
 505   1 H      0.078  0.922  0.000  0.000     2.001     2.212
 506   1 H      0.173  0.827  0.000  0.000     1.255     1.754
 507   1 H      0.077  0.923  0.000  0.000     2.009     2.216
 508   1 H      0.192  0.808  0.000  0.000     1.147     1.678
 509   1 H      0.085  0.915  0.000  0.000     1.927     2.171
 510   1 H      0.177  0.823  0.000  0.000     1.228     1.736
 511   1 H      0.070  0.930  0.000  0.000     2.088     2.260
 512   1 H      0.167  0.833  0.000  0.000     1.293     1.781
 513   1 H      0.070  0.930  0.000  0.000     2.089     2.260

 Mol. C6AA /au·bohr⁶  :    2436861.560761
 Mol. C8AA /au·bohr⁸  :   54858149.229669
 Mol. α(0) /au        :       2358.507756

 
molecular dipole:
                 x           y           z       tot (Debye)
 q only:       96.785     125.142     436.464
   full:       96.252     125.440     434.831    1176.054
molecular quadrupole (traceless):
                xx          xy          yy          xz          yz          zz
 q only:   -94729.906   18335.279  -83359.588   63614.395   81729.864  178089.494
  q+dip:   -94126.131   18312.135  -82575.740   62960.516   81668.746  176701.871
   full:   -94126.192   18312.149  -82579.133   62960.362   81674.970  176705.325
speedup  1.52
cpu  time for grad   50.43 s
wall time for grad   33.17 s

SCC energy    :    -790.9191232
rep           :      17.6234866
ES            :       2.2406243
AES           :      -0.0438830
AXC           :       0.1627421
disp          :      -0.6700524
XB            :       0.0000000
fix           :       0.0000000
Gborn         :       0.0000000
Gsasa         :       0.0000000
Ghb           :       0.0000000
Gshift        :       0.0000000
Gsolv         :      -0.5502727     -345.30
Etot ala COSMO:    -790.9191232
grad norm     :       3.0271088
total E       :    -773.2238111
atomizationE  :     140.4841328    88155.12
(atE without considering molecular charge,
 total energy contains solvation terms)
H-L gap (eV)  :          1.4183

------------------------------------------------------------------------
 * finished run on 2019/05/12 at 13:12:19.259     
------------------------------------------------------------------------
 total:
 * wall-time:     0 d,  0 h,  0 min, 34.357 sec
 *  cpu-time:     0 d,  0 h,  0 min, 51.842 sec
 * ratio c/w:     1.509 speedup
 SCF:
 * wall-time:     0 d,  0 h,  0 min, 33.780 sec
 *  cpu-time:     0 d,  0 h,  0 min, 51.373 sec
 * ratio c/w:     1.521 speedup

