      -----------------------------------------------------------      
     |                   =====================                   |     
     |                           x T B                           |     
     |                   =====================                   |     
     |                         S. Grimme                         |     
     |          Mulliken Center for Theoretical Chemistry        |     
     |                    University of Bonn                     |     
     |                 Version 6.0.1 (SAW181210)                 |     
      -----------------------------------------------------------      

   This program is distributed in the hope that it will be useful,
   but WITHOUT ANY WARRANTY; without even the implied warranty of
   MERCHANTABILITY or FITNESS FOR A PARTICULAR PURPOSE.
   
   FOR NON-COMMERCIAL, ACADEMIA USE ONLY.
   
   Cite this work as:
   S. Grimme, C. Bannwarth, P. Shushkov, J. Comput. Theory Chem., 2017,
   13, 1989-2009.
   C. Bannwarth, S. Ehlert and S. Grimme., ChemRxiv, 2018, preprint.
   http://doi.org/10.26434/chemrxiv.7246238.v1
   
   for sTDA-xTB:
   S. Grimme and C. Bannwarth, J. Chem. Phys., 2016, 145, 054103.
   
   in the mass-spec context:
   V. Asgeirsson, C. Bauer and S. Grimme, Chem. Sci., 2017, 8, 4879.
   
   if GBSA is used:
   P. Shushkov, F. März and S. Grimme, unpublished.
   
   for ANC optimizer:
   S. Grimme, unpublished.
   Rational Function algorithm used in ANCopt:
   F. Eckert, P. Pulay, H.-J. Werner, J. Comput. Chem., 1997, 18, 1473.
   
   with help from (in alphabetical order)
   C. Bannwarth, F. Bohle, G. Brandenburg, E. Caldeweyher, M. Checinski,
   S. Dohm, S. Ehlert, S. Ehrlich, F. März, H. Neugebauer, J. Pisarek,
   P. Pracht, P. Shushkov, and S. Spicher.
   
 * started run on 2019/05/05 at 18:41:19.595     
========================================================================
 # omp threads = 2
========================================================================
number of atoms            : 435
number of electrons        : 1166
charge                     : -1
spin                       : .0
first test random number   : .8813

########################################################################
# WARNING! Please study the warnings concerning your input carefully
#  - Process number higher than OMP_NUM_THREADS, I hope you know what you are doing.
########################################################################

           ------------------------------------------------- 
          |                 G F N 2 - x T B                 |
          | Geometry, Frequencies, Noncovalent interactions |
          |            JCTC 2018 parametrisation            |
           ------------------------------------------------- 
 
      method parameters     
 k(s)        :  1.8500
 k(p)        :  2.2300
 k(d)        :  2.2300
 k(f)        :  2.0000
 kEN (H0ij)  : -2.0000
 D4 a1       :  0.5200
 D4 a2       :  5.0000
 D4 s6       :  1.0000
 D4 s8       :  2.7000
 D4 s9       :  5.0000
 alphaj      :  2.0000

 Solvent             : h2o
 Using internal parameter file: .param_gbsa2_h2o
 Gsolv ref. state (COSMO-RS): gsolv [1 M gas/solution]
 temperature (mdtemp)       :    298.150000000000     
 dielectric constant        :    80.2000000000000     
 rho                        :    1.00000000000000     
 mass                       :    18.0000000000000     
 surface tension            :    15.5689454083859     
 probe radius               :   0.975313790000000     
 vdW radii scaling          :    1.00000000000000     
 Gshift (Eh)                :   1.857443126794793E-003
 c1                         :    1.55243817000000     
 soset                      :   0.130326360000000     
 HB correction              :  T

            Z     q(EN)     CN     RAES       Cart. coordinates
     1  N   5.0   -0.21    3.20    1.96    26.21080    63.92493   -28.29419
     2  C   4.0    0.03    4.37    4.33    26.54276    65.96150   -26.39100
     3  C   4.0    0.14    3.47    3.10    27.43657    64.92292   -23.84517
     4  O   6.0   -0.32    1.31    1.80    28.59920    66.38303   -22.38138
     5  C   4.0   -0.02    4.10    3.79    24.11057    67.46934   -26.02443
     6  S   6.0   -0.07    2.52    3.10    21.76483    65.82040   -24.14555
     7  H   1.0    0.08    1.02    1.43    24.33308    63.33557   -28.39588
     8  H   1.0    0.05    1.07    1.44    27.97490    67.22771   -27.11964
     9  H   1.0    0.06    1.07    1.44    24.51178    69.22523   -25.03399
    10  H   1.0    0.06    1.06    1.44    23.27914    67.90295   -27.86621
    11  H   1.0    0.05    1.00    1.43    20.09268    66.98099   -23.14591
    12  N   5.0   -0.13    3.56    2.12    26.86747    62.58804   -23.26480
    13  C   4.0    0.04    4.54    4.59    27.54030    61.31775   -20.90462
    14  C   4.0    0.13    3.47    3.10    28.68277    58.72189   -21.37879
    15  O   6.0   -0.30    1.26    1.80    28.64743    57.93446   -23.70001
    16  C   4.0   -0.02    4.33    4.26    25.21438    60.91864   -19.22256
    17  C   4.0   -0.07    4.14    3.88    24.78525    63.22522   -17.62883
    18  C   4.0   -0.07    4.17    3.95    22.88822    60.27988   -20.77922
    19  H   1.0    0.09    1.08    1.44    25.91196    61.48651   -24.50485
    20  H   1.0    0.06    1.08    1.44    28.94010    62.50163   -19.99736
    21  H   1.0    0.04    1.08    1.44    25.61955    59.34223   -17.96651
    22  H   1.0    0.03    1.00    1.43    23.16175    62.95575   -16.39710
    23  H   1.0    0.04    1.01    1.43    26.44213    63.55163   -16.45946
    24  H   1.0    0.05    1.00    1.43    24.46545    64.88902   -18.78902
    25  H   1.0    0.04    1.01    1.43    21.29665    60.03408   -19.53066
    26  H   1.0    0.05    1.08    1.44    22.47445    61.82863   -22.05154
    27  H   1.0    0.05    1.00    1.43    23.23591    58.56662   -21.85299
    28  N   5.0   -0.14    3.46    2.05    29.46143    57.44827   -19.59575
    29  C   4.0    0.05    4.36    4.32    30.36623    54.83874   -19.83377
    30  C   4.0    0.08    3.25    3.04    30.46391    53.31267   -17.42022
    31  O   6.0   -0.32    1.20    1.80    31.44094    54.16718   -15.47362
    32  C   4.0   -0.02    4.33    4.26    32.93370    54.68561   -21.09762
    33  C   4.0    0.15    3.27    3.05    33.77674    52.00066   -21.43447
    34  O   6.0   -0.29    1.21    1.80    32.23380    50.36390   -22.25377
    35  N   5.0   -0.18    3.17    1.95    36.12560    51.46468   -20.87621
    36  H   1.0    0.11    1.09    1.44    29.67315    58.20678   -17.73597
    37  H   1.0    0.06    1.05    1.44    28.90682    53.94961   -21.06839
    38  H   1.0    0.06    1.04    1.43    32.80429    55.57661   -22.94262
    39  H   1.0    0.05    1.01    1.43    34.36901    55.71766   -19.93920
    40  H   1.0    0.10    1.03    1.43    36.82447    49.72310   -20.99431
    41  H   1.0    0.09    1.01    1.43    37.31724    52.84167   -20.10631
    42  N   5.0   -0.20    3.17    1.95    32.48775    49.21989   -11.89562
    43  C   4.0    0.03    4.34    4.28    34.93303    48.65186   -10.69028
    44  C   4.0    0.07    3.36    3.07    34.71781    46.17051    -9.30921
    45  O   6.0   -0.29    1.12    1.80    36.72463    44.73501    -9.25544
    46  C   4.0   -0.02    4.30    4.19    35.76322    50.61896    -8.77179
    47  C   4.0   -0.07    4.25    4.10    37.27314    49.31476    -6.69891
    48  C   4.0   -0.07    4.11    3.83    37.37596    52.64349   -10.05991
    49  H   1.0    0.11    1.02    1.43    31.08954    49.72535   -10.57738
    50  H   1.0    0.05    1.08    1.44    36.28375    48.54319   -12.18700
    51  H   1.0    0.05    1.06    1.44    34.11985    51.53713    -7.95471
    52  H   1.0    0.03    1.01    1.43    37.92044    50.70169    -5.35637
    53  H   1.0    0.05    1.02    1.43    36.09245    47.94225    -5.72662
    54  H   1.0    0.06    1.01    1.43    38.91495    48.36745    -7.48395
    55  H   1.0    0.04    1.00    1.43    37.98234    54.04471    -8.68000
    56  H   1.0    0.05    1.00    1.43    39.03883    51.79830   -10.90850
    57  H   1.0    0.05    1.00    1.43    36.29107    53.56212   -11.52746
    58  N   5.0   -0.20    3.20    1.96    26.30234    49.27888    -2.92922
    59  C   4.0    0.03    4.35    4.30    28.14473    51.27590    -3.31001
    60  C   4.0    0.14    3.40    3.08    28.41788    51.92174    -6.12314
    61  O   6.0   -0.31    1.25    1.80    28.52717    50.16909    -7.70508
    62  C   4.0   -0.05    4.30    4.19    30.68230    50.51792    -2.20972
    63  C   4.0   -0.04    4.26    4.11    32.25019    52.80552    -1.62547
    64  C   4.0   -0.05    4.19    3.99    35.01961    52.25798    -1.42243
    65  C   4.0   -0.04    4.15    3.90    36.51185    54.60479    -2.09638
    66  N   5.0   -0.12    4.03    2.94    38.18918    55.41859     0.01252
    67  H   1.0    0.09    1.02    1.43    26.87830    47.53761    -3.58863
    68  H   1.0    0.06    1.07    1.44    27.39624    52.94344    -2.33342
    69  H   1.0    0.04    1.03    1.43    30.37447    49.44485    -0.47587
    70  H   1.0    0.05    1.03    1.43    31.68549    49.32566    -3.57870
    71  H   1.0    0.05    1.04    1.43    31.95072    54.22353    -3.11040
    72  H   1.0    0.06    1.03    1.43    31.60096    53.62522     0.16689
    73  H   1.0    0.05    1.03    1.43    35.46737    51.64570     0.48868
    74  H   1.0    0.03    1.04    1.43    35.49895    50.69989    -2.72229
    75  H   1.0    0.03    1.02    1.43    37.65390    54.27313    -3.79281
    76  H   1.0    0.04    1.05    1.44    35.18184    56.13885    -2.45605
    77  H   1.0    0.05    1.00    1.43    39.22179    57.04568    -0.53428
    78  H   1.0    0.09    1.07    1.44    37.23662    55.70714     1.64588
    79  H   1.0    0.07    1.02    1.43    39.49758    54.00344     0.39532
    80  N   5.0   -0.14    3.48    2.06    28.62449    54.26431    -6.69116
    81  C   4.0    0.03    4.41    4.40    28.53380    55.32082    -9.26772
    82  C   4.0    0.15    3.37    3.07    30.40014    57.48845    -9.41198
    83  O   6.0   -0.32    1.28    1.80    30.82456    58.85896    -7.64585
    84  C   4.0   -0.04    4.37    4.33    25.89051    56.34673    -9.75692
    85  C   4.0   -0.02    4.17    3.94    25.05658    57.07366   -12.43068
    86  C   4.0   -0.07    4.11    3.83    24.18874    54.74609   -13.88964
    87  C   4.0   -0.08    4.13    3.85    22.92358    58.95736   -12.30728
    88  H   1.0    0.10    1.08    1.44    28.80232    55.63071    -5.33444
    89  H   1.0    0.05    1.05    1.44    29.06359    53.81245   -10.60185
    90  H   1.0    0.05    1.04    1.43    24.56431    54.90383    -9.08785
    91  H   1.0    0.05    1.03    1.43    25.65854    58.03345    -8.54904
    92  H   1.0    0.05    1.05    1.44    26.67621    57.92379   -13.43550
    93  H   1.0    0.04    1.00    1.43    23.59082    55.29359   -15.78671
    94  H   1.0    0.05    1.01    1.43    25.70673    53.40369   -14.03665
    95  H   1.0    0.04    1.00    1.43    22.59932    53.85480   -12.91697
    96  H   1.0    0.03    1.00    1.43    22.31734    59.46395   -14.21373
    97  H   1.0    0.04    1.00    1.43    21.31682    58.14866   -11.29833
    98  H   1.0    0.03    1.00    1.43    23.53266    60.65145   -11.32770
    99  N   5.0   -0.14    3.26    1.97    31.42004    57.79165   -11.62716
   100  C   4.0    0.03    4.16    3.93    33.31915    60.20576   -12.48335
   101  C   4.0    0.09    3.24    3.04    31.90386    61.83227   -13.86855
   102  O   6.0   -0.31    1.09    1.80    31.01040    61.04054   -16.59255
   103  C   4.0   -0.05    4.05    3.71    35.83792    59.27864   -12.50631
   104  C   4.0   -0.01    4.16    3.92    37.71542    61.20233   -13.65870
   105  C   4.0    0.15    2.86    3.01    39.45459    60.52413   -14.96349
   106  O   6.0   -0.28    0.74    1.80    39.92862    58.36498   -17.30569
   107  O   6.0   -0.26    1.08    1.80    41.43593    62.60103   -14.84936
   108  H   1.0    0.11    1.03    1.43    30.99916    56.48510   -13.22650
   109  H   1.0    0.06    0.99    1.43    33.21053    61.08673   -10.34744
   110  H   1.0    0.05    1.05    1.44    36.54375    57.88216   -11.47662
   111  H   1.0    0.07    0.75    1.41    35.59533    57.99792   -14.68248
   112  H   1.0    0.06    1.07    1.44    36.60611    62.92456   -13.97956
   113  H   1.0    0.06    0.98    1.43    38.57287    61.77045   -11.60707
   114  N   5.0   -0.13    3.49    2.07    32.52258    64.40903   -13.73482
   115  C   4.0    0.04    4.45    4.45    31.51018    66.34907   -15.40513
   116  C   4.0    0.13    3.34    3.06    33.69896    66.95887   -17.43844
   117  O   6.0   -0.32    1.37    1.80    35.85243    68.19459   -16.50392
   118  C   4.0   -0.02    4.30    4.20    30.53151    68.43725   -13.99245
   119  C   4.0   -0.05    4.15    3.90    29.12623    67.96194   -11.42952
   120  C   4.0   -0.06    4.15    3.91    29.25649    70.34046   -15.61526
   121  C   4.0   -0.08    4.08    3.76    26.50806    66.96039   -12.37268
   122  H   1.0    0.11    1.09    1.44    33.53807    64.93013   -12.14975
   123  H   1.0    0.05    1.10    1.44    30.04508    65.44312   -16.40336
   124  H   1.0    0.06    0.91    1.42    32.37154    69.63694   -13.13630
   125  H   1.0    0.06    1.03    1.43    30.05948    66.19848   -10.67601
   126  H   1.0    0.04    1.05    1.44    28.87111    69.46051   -10.28513
   127  H   1.0    0.05    0.97    1.43    28.71315    72.04615   -14.42006
   128  H   1.0    0.06    1.00    1.43    30.50918    71.01233   -17.12817
   129  H   1.0    0.05    1.03    1.43    27.57648    69.44933   -16.24609
   130  H   1.0    0.03    1.00    1.43    25.46927    66.35428   -10.71085
   131  H   1.0    0.04    1.01    1.43    25.47520    68.39869   -13.31665
   132  H   1.0    0.04    0.98    1.43    26.65158    65.22818   -13.60135
   133  N   5.0   -0.16    3.51    2.09    32.89532    66.99680   -19.73790
   134  C   4.0    0.04    4.44    4.45    34.62483    67.45961   -21.83461
   135  C   4.0    0.14    3.42    3.09    33.87739    69.92382   -23.18612
   136  O   6.0   -0.30    1.24    1.80    35.38196    70.71738   -24.90722
   137  C   4.0   -0.04    4.40    4.38    34.45626    65.24860   -23.65472
   138  C   4.0   -0.02    4.20    4.01    34.65417    62.61007   -22.52244
   139  C   4.0   -0.07    4.10    3.81    34.57153    60.63578   -24.61019
   140  C   4.0   -0.06    4.14    3.88    37.10322    62.44600   -21.01527
   141  H   1.0    0.11    1.14    1.45    31.14924    66.52540   -20.26048
   142  H   1.0    0.06    1.06    1.44    36.53249    67.62742   -21.07032
   143  H   1.0    0.05    1.03    1.43    32.65605    65.35146   -24.67285
   144  H   1.0    0.05    1.04    1.43    35.98140    65.47393   -24.99693
   145  H   1.0    0.06    1.06    1.44    33.09072    62.24817   -21.21997
   146  H   1.0    0.05    1.01    1.43    34.73955    58.77450   -23.78230
   147  H   1.0    0.05    1.00    1.43    32.78064    60.76859   -25.62282
   148  H   1.0    0.04    1.00    1.43    36.12707    60.91099   -25.93342
   149  H   1.0    0.07    1.01    1.43    37.31485    60.59260   -20.18290
   150  H   1.0    0.05    1.00    1.43    38.71662    62.79710   -22.22963
   151  H   1.0    0.06    1.00    1.43    37.11806    63.81573   -19.48154
   152  N   5.0   -0.13    3.48    2.06    31.86745    71.02513   -22.63085
   153  C   4.0    0.03    4.43    4.44    31.00364    73.39104   -23.83407
   154  C   4.0    0.15    3.45    3.09    30.13197    75.28471   -21.85990
   155  O   6.0   -0.30    1.33    1.80    28.44208    74.54739   -20.24398
   156  C   4.0   -0.02    4.27    4.14    28.93007    72.86832   -25.75744
   157  C   4.0   -0.03    4.20    4.00    29.83360    71.70758   -28.22344
   158  C   4.0    0.14    3.21    3.04    27.70523    71.14097   -30.10338
   159  O   6.0   -0.29    1.21    1.80    25.40914    71.86727   -29.55859
   160  N   5.0   -0.19    3.17    1.95    28.19852    69.99026   -32.10215
   161  H   1.0    0.10    1.07    1.44    30.54890    70.31376   -21.36057
   162  H   1.0    0.05    1.07    1.44    32.66295    74.19188   -24.76555
   163  H   1.0    0.06    1.03    1.43    27.54093    71.58408   -24.89606
   164  H   1.0    0.06    1.03    1.43    27.97277    74.64613   -26.18759
   165  H   1.0    0.05    1.02    1.43    31.15460    73.00617   -29.17042
   166  H   1.0    0.05    1.02    1.43    30.84067    69.92259   -27.85811
   167  H   1.0    0.07    1.02    1.43    30.01233    69.35761   -32.51516
   168  H   1.0    0.09    1.02    1.43    26.86672    69.47811   -33.44176
   169  N   5.0   -0.13    3.44    2.04    31.04290    77.43840   -21.81494
   170  C   4.0    0.04    4.30    4.20    30.14341    79.46312   -20.10811
   171  C   4.0    0.08    3.20    3.04    27.30241    79.95436   -20.61753
   172  O   6.0   -0.27    1.12    1.80    26.55828    79.76489   -22.92440
   173  C   4.0   -0.04    4.26    4.12    31.73761    81.89857   -20.29196
   174  C   4.0    0.14    3.23    3.04    34.59046    81.39222   -20.07005
   175  O   6.0   -0.31    1.22    1.80    35.59494    81.15940   -17.84207
   176  N   5.0   -0.19    3.20    1.96    35.81151    81.16593   -22.03459
   177  H   1.0    0.07    1.06    1.44    32.52579    78.02413   -23.00477
   178  H   1.0    0.07    1.05    1.44    30.24396    78.76170   -18.15222
   179  H   1.0    0.05    1.02    1.43    31.39167    82.77023   -22.15804
   180  H   1.0    0.05    1.03    1.43    31.11664    83.16773   -18.83080
   181  H   1.0    0.09    1.03    1.43    37.72756    80.88147   -22.07468
   182  H   1.0    0.08    1.02    1.43    34.98755    81.39460   -23.83320
   183  N   5.0   -0.21    3.26    1.97    16.05431    77.68367   -13.64880
   184  C   4.0    0.02    4.19    3.99    14.93751    75.10279   -13.48319
   185  C   4.0    0.09    3.37    3.07    13.28821    75.08002   -11.33479
   186  O   6.0   -0.31    1.19    1.80    13.47263    75.71847    -9.28911
   187  C   4.0   -0.05    4.13    3.87    17.25721    73.39026   -12.29104
   188  C   4.0   -0.02    3.43    3.09    19.07468    72.81451   -15.11273
   189  C   4.0   -0.06    3.36    3.07    20.97464    74.66937   -14.98962
   190  C   4.0   -0.05    3.38    3.07    18.83804    70.74518   -16.44924
   191  C   4.0   -0.04    3.36    3.07    22.83475    74.16924   -16.96036
   192  C   4.0   -0.04    3.41    3.08    20.40128    70.24812   -18.26794
   193  C   4.0    0.06    3.32    3.06    22.65527    71.90981   -18.68857
   194  O   6.0   -0.27    2.07    1.83    24.64688    71.53141   -20.47198
   195  H   1.0    0.10    1.05    1.44    16.69319    78.25371   -12.04970
   196  H   1.0    0.04    1.10    1.44    14.22287    74.61177   -15.04372
   197  H   1.0    0.05    1.07    1.44    18.21881    74.09597   -11.14852
   198  H   1.0    0.04    1.04    1.43    16.42683    71.61813   -11.95072
   199  H   1.0    0.05    1.05    1.44    21.30306    76.10265   -13.84368
   200  H   1.0    0.04    1.06    1.44    17.24555    69.57767   -16.08534
   201  H   1.0    0.07    1.03    1.43    24.43589    75.32305   -17.26657
   202  H   1.0    0.05    1.07    1.44    20.39505    68.76274   -19.46456
   203  H   1.0    0.18    1.14    1.45    25.78238    72.61662   -20.24300
   204  N   5.0   -0.19    3.19    1.95    28.14764    67.50393     5.95810
   205  C   4.0    0.03    4.34    4.28    29.22375    68.70530     3.70595
   206  C   4.0    0.15    3.54    3.14    32.05409    68.57748     3.91901
   207  O   6.0   -0.31    1.30    1.80    33.22336    70.03913     5.41893
   208  C   4.0   -0.05    4.29    4.18    28.36035    71.44271     3.38806
   209  C   4.0   -0.04    4.21    4.01    29.54558    72.78212     1.13404
   210  C   4.0   -0.05    4.19    3.98    28.83577    75.54356     1.10805
   211  C   4.0   -0.03    4.14    3.88    30.92693    77.14011    -0.04150
   212  N   5.0   -0.12    4.02    2.92    30.13322    79.79783    -0.21790
   213  H   1.0    0.09    1.01    1.43    28.32913    68.57811     7.58047
   214  H   1.0    0.05    1.08    1.44    28.59741    67.57033     2.09162
   215  H   1.0    0.03    1.03    1.43    26.31924    71.43980     3.16832
   216  H   1.0    0.05    1.04    1.43    28.88155    72.43234     5.11124
   217  H   1.0    0.05    1.04    1.43    31.59307    72.58114     1.26564
   218  H   1.0    0.05    1.02    1.43    28.91104    71.84779    -0.61024
   219  H   1.0    0.03    1.02    1.43    27.09762    75.79850    -0.00839
   220  H   1.0    0.04    1.03    1.43    28.49046    76.19589     3.04759
   221  H   1.0    0.04    1.02    1.43    32.62468    77.03330     1.15005
   222  H   1.0    0.06    1.03    1.43    31.38870    76.44298    -1.92966
   223  H   1.0    0.06    1.02    1.43    31.53223    80.88801    -1.00987
   224  H   1.0    0.05    1.02    1.43    28.53928    79.96652    -1.35218
   225  H   1.0    0.05    1.01    1.43    29.69878    80.52316     1.56508
   226  N   5.0   -0.11    3.56    2.12    33.18394    66.83986     2.64319
   227  C   4.0    0.05    4.41    4.40    35.82383    66.27249     3.04291
   228  C   4.0    0.08    3.28    3.05    36.12578    65.48456     5.77858
   229  O   6.0   -0.27    1.13    1.80    34.87036    63.53256     6.56210
   230  C   4.0   -0.03    4.39    4.37    37.43122    68.60330     2.55358
   231  C   4.0    0.15    3.26    3.04    37.57244    69.30980    -0.19257
   232  O   6.0   -0.29    1.48    1.80    38.03782    67.58244    -1.83720
   233  N   5.0   -0.18    3.19    1.95    37.33669    71.62519    -0.76978
   234  H   1.0    0.14    1.18    1.46    32.28464    65.80975     1.19325
   235  H   1.0    0.10    1.14    1.45    36.29296    64.72858     1.74357
   236  H   1.0    0.06    1.06    1.44    36.59211    70.18828     3.58753
   237  H   1.0    0.04    1.04    1.43    39.33858    68.22401     3.20884
   238  H   1.0    0.11    1.04    1.43    37.42694    72.28383    -2.55373
   239  H   1.0    0.08    1.02    1.43    37.03262    72.98961     0.63123
   240  N   5.0   -0.19    3.22    1.96    25.11207    79.52687   -10.24161
   241  C   4.0    0.03    4.28    4.16    27.17975    77.85637    -9.92537
   242  C   4.0    0.13    3.37    3.07    29.34609    78.60364   -11.73189
   243  O   6.0   -0.29    1.16    1.80    28.57547    79.29430   -14.15794
   244  C   4.0   -0.05    4.28    4.16    26.61672    75.18709    -9.41983
   245  C   4.0   -0.03    4.22    4.04    24.13414    74.68859    -8.12521
   246  C   4.0   -0.08    4.06    3.72    22.43801    72.64597    -8.86096
   247  C   4.0   -0.08    4.01    3.64    25.37807    74.25706    -5.32276
   248  H   1.0    0.08    0.97    1.43    23.82780    78.92819   -11.75348
   249  H   1.0    0.04    0.98    1.43    28.09702    78.62228    -7.98763
   250  H   1.0    0.04    0.88    1.42    25.90766    74.59467   -11.62015
   251  H   1.0    0.05    1.07    1.44    28.13759    74.13950    -8.94244
   252  H   1.0    0.04    1.10    1.44    23.13418    76.43121    -7.91883
   253  H   1.0    0.04    1.02    1.43    20.95151    72.41384    -7.58970
   254  H   1.0    0.04    1.03    1.43    21.78620    73.10787   -10.75886
   255  H   1.0    0.03    0.96    1.43    23.66257    70.85247    -8.99325
   256  H   1.0    0.03    0.86    1.42    23.42031    73.99969    -4.07578
   257  H   1.0    0.04    1.01    1.43    26.47718    72.59118    -5.33920
   258  H   1.0    0.04    1.00    1.43    26.21242    75.92155    -4.58884
   259  N   5.0   -0.14    3.44    2.04    31.53996    77.76991   -11.27652
   260  C   4.0    0.04    4.47    4.49    33.70243    78.10467   -12.98299
   261  C   4.0    0.15    3.41    3.08    35.12583    75.70209   -13.57194
   262  O   6.0   -0.29    1.34    1.80    34.81409    73.73934   -12.26427
   263  C   4.0   -0.03    4.31    4.22    35.51436    80.00729   -11.88500
   264  C   4.0    0.02    3.83    3.37    34.19860    82.51442   -11.44750
   265  N   5.0   -0.09    3.63    2.19    33.03175    83.93559   -13.25162
   266  C   4.0    0.03    3.69    3.23    33.89096    83.84738    -9.35373
   267  C   4.0    0.06    3.67    3.21    32.12836    85.85140   -12.40752
   268  N   5.0   -0.16    2.57    1.90    32.56673    85.97734    -9.92211
   269  H   1.0    0.10    1.07    1.44    32.00426    76.94623    -9.56267
   270  H   1.0    0.06    1.07    1.44    32.88217    78.77220   -14.78820
   271  H   1.0    0.06    1.03    1.43    36.22585    79.32579   -10.07623
   272  H   1.0    0.06    1.03    1.43    37.07041    80.29324   -13.20616
   273  H   1.0    0.08    1.01    1.43    33.03573    83.25619   -15.22421
   274  H   1.0    0.05    1.02    1.43    34.49534    83.41013    -7.45667
   275  H   1.0    0.04    1.02    1.43    31.12322    87.35143   -13.38476
   276  N   5.0   -0.13    3.40    2.02    36.60994    75.78285   -15.52787
   277  C   4.0    0.04    4.55    4.61    38.07320    73.57663   -16.54091
   278  C   4.0    0.12    3.37    3.07    39.35718    72.24955   -14.16791
   279  O   6.0   -0.27    1.01    1.80    41.09982    74.01895   -12.73928
   280  C   4.0   -0.02    4.22    4.03    39.29366    73.90800   -18.84633
   281  C   4.0   -0.05    4.28    4.17    40.93025    72.25146   -19.60699
   282  C   4.0   -0.05    4.18    3.96    37.85747    74.69381   -20.79162
   283  H   1.0    0.09    1.00    1.43    36.91476    77.56223   -16.60857
   284  H   1.0    0.07    1.05    1.44    36.42827    72.12272   -16.75927
   285  H   1.0    0.05    0.91    1.42    40.89763    75.64184   -18.32228
   286  H   1.0    0.06    1.04    1.43    42.03990    72.36297   -21.15452
   287  H   1.0    0.05    0.94    1.42    42.18361    71.27086   -18.03105
   288  H   1.0    0.05    0.88    1.42    39.56678    70.38047   -20.09588
   289  H   1.0    0.06    0.93    1.42    39.00330    75.61973   -22.48472
   290  H   1.0    0.06    1.05    1.44    36.33983    73.59448   -21.25426
   291  H   1.0    0.05    0.79    1.41    36.78026    76.80476   -20.21786
   292  N   5.0   -0.14    3.29    1.98    39.62864    69.80924   -14.32969
   293  C   4.0    0.02    4.10    3.80    41.12179    68.31418   -12.11240
   294  C   4.0    0.11    3.13    3.03    39.29412    68.63612    -9.90980
   295  O   6.0   -0.29    0.74    1.80    40.43763    66.36422    -7.78020
   296  H   1.0    0.12    1.21    1.47    38.42694    69.04999   -15.75920
   297  H   1.0    0.07    1.07    1.44    41.51449    66.75329   -12.91535
   298  H   1.0    0.05    1.05    1.44    42.76539    69.34003   -11.91673
   299  N   5.0   -0.11    3.48    2.07    37.37273    69.60447    -9.59719
   300  C   4.0    0.07    4.53    4.58    35.71578    69.37849    -7.61123
   301  C   4.0    0.18    3.39    3.08    34.83687    66.67180    -7.08229
   302  O   6.0   -0.31    1.59    1.81    34.23979    65.85799    -8.90860
   303  C   4.0   -0.06    3.75    3.28    33.25340    70.92644    -8.30950
   304  C   4.0    0.19    2.54    3.00    34.39213    73.83015    -6.03774
   305  O   6.0   -0.26    1.05    1.80    36.73873    74.68584    -6.64456
   306  O   6.0   -0.31    1.09    1.80    32.36663    75.17018    -5.74723
   307  H   1.0    0.12    1.19    1.46    36.78551    70.74264   -11.00461
   308  H   1.0    0.07    1.00    1.43    36.84450    69.74976    -5.74683
   309  H   1.0    0.08    1.08    1.44    33.01162    71.48578    -9.68022
   310  H   1.0    0.06    1.02    1.43    31.83596    70.54416    -6.86759
   311  N   5.0   -0.12    3.19    1.95    34.99462    65.46543    -5.20023
   312  C   4.0    0.06    3.89    3.45    33.50666    63.08686    -3.96016
   313  C   4.0    0.09    3.05    3.02    31.29103    63.69259    -3.05968
   314  O   6.0   -0.33    0.99    1.80    30.62283    66.25046    -1.17096
   315  C   4.0   -0.04    3.37    3.07    35.21055    60.52563    -3.68796
   316  O   6.0   -0.35    1.10    1.80    35.44459    62.23153     0.06828
   317  C   4.0   -0.04    3.86    3.41    37.64251    61.10330    -4.89690
   318  H   1.0    0.13    0.98    1.43    36.17424    66.20933    -3.21401
   319  H   1.0    0.07    0.63    1.41    32.81939    62.55130    -6.50038
   320  H   1.0    0.06    1.08    1.44    34.30466    59.30230    -3.37813
   321  H   1.0    0.13    0.71    1.41    36.19524    60.15074     0.28611
   322  H   1.0    0.04    0.82    1.41    38.97197    59.74391    -3.41975
   323  H   1.0    0.06    1.07    1.44    37.60859    60.77506    -6.47712
   324  H   1.0    0.08    0.94    1.42    38.68741    62.98365    -4.39496
   325  N   5.0   -0.11    3.43    2.04    29.59144    61.79534    -2.76238
   326  C   4.0    0.03    4.39    4.36    27.24224    61.72048    -1.29547
   327  C   4.0    0.07    3.26    3.04    26.78575    59.07211    -0.17930
   328  O   6.0   -0.31    1.14    1.80    27.11191    57.18687    -1.52908
   329  C   4.0   -0.02    4.37    4.32    24.99417    62.48174    -2.94942
   330  C   4.0   -0.05    4.22    4.04    25.00046    65.35248    -3.34842
   331  C   4.0   -0.08    4.18    3.96    22.54028    61.61317    -1.74590
   332  C   4.0   -0.07    4.09    3.78    24.81969    66.79309    -0.95741
   333  H   1.0    0.10    1.07    1.44    29.87564    60.13263    -3.78520
   334  H   1.0    0.05    1.07    1.44    27.49349    63.00658     0.26303
   335  H   1.0    0.05    1.06    1.44    25.18691    61.55593    -4.76355
   336  H   1.0    0.05    1.03    1.43    26.74254    65.87555    -4.33612
   337  H   1.0    0.03    1.03    1.43    23.38317    65.83283    -4.52986
   338  H   1.0    0.03    1.00    1.43    20.95180    62.16496    -2.93019
   339  H   1.0    0.05    1.01    1.43    22.54396    59.55969    -1.55792
   340  H   1.0    0.04    1.01    1.43    22.34744    62.43403     0.11088
   341  H   1.0    0.04    1.00    1.43    24.84851    68.80813    -1.32733
   342  H   1.0    0.03    1.01    1.43    23.11955    66.31935     0.08111
   343  H   1.0    0.05    1.02    1.43    26.43153    66.33827     0.24939
   344  N   5.0   -0.23    3.29    1.98    11.67313    60.62939   -12.01362
   345  C   4.0    0.04    4.32    4.24    12.50624    62.87291   -12.37514
   346  C   4.0    0.03    3.14    3.03    11.76243    64.01751   -15.15434
   347  O   6.0   -0.28    1.02    1.80    11.77450    61.97767   -17.02846
   348  C   4.0   -0.03    4.38    4.35    15.37407    63.40124   -12.03910
   349  C   4.0   -0.06    4.20    4.00    16.07703    66.16852   -11.64126
   350  C   4.0   -0.07    4.12    3.84    16.80402    62.27484   -14.27772
   351  C   4.0   -0.08    4.01    3.64    18.86804    66.27581   -11.22702
   352  H   1.0    0.11    1.09    1.44    11.58524    59.46435   -13.19354
   353  H   1.0    0.03    1.12    1.45    11.55358    64.25951   -11.38099
   354  H   1.0    0.03    1.07    1.44    15.96030    62.15473   -10.50509
   355  H   1.0    0.04    1.06    1.44    15.61948    67.20014   -13.24685
   356  H   1.0    0.04    1.03    1.43    14.93117    66.76663   -10.04154
   357  H   1.0    0.03    1.00    1.43    18.85757    62.56901   -14.12831
   358  H   1.0    0.05    0.99    1.43    16.36898    60.32934   -14.72841
   359  H   1.0    0.05    0.93    1.42    16.33418    63.51839   -16.07634
   360  H   1.0    0.03    0.95    1.42    19.24619    68.34377   -10.58601
   361  H   1.0    0.03    0.94    1.42    19.33320    65.19248    -9.34853
   362  H   1.0    0.04    1.03    1.43    19.98013    65.80450   -12.67275
   363  N   5.0   -0.19    3.06    1.93    44.18791    56.75348     8.88070
   364  C   4.0    0.03    3.96    3.56    41.63094    56.91545     8.70340
   365  C   4.0    0.13    3.25    3.04    40.61459    54.12725     9.10641
   366  O   6.0   -0.28    1.23    1.80    41.27332    52.77885     7.71866
   367  C   4.0   -0.03    4.24    4.08    40.66246    58.02341     6.35349
   368  C   4.0   -0.02    4.07    3.74    37.72991    59.01907     6.70060
   369  C   4.0    0.19    2.88    3.01    36.01588    56.53219     6.35691
   370  O   6.0   -0.26    0.82    1.80    33.13509    56.41075     7.40545
   371  O   6.0   -0.29    1.28    1.80    37.38755    54.93130     5.04421
   372  H   1.0    0.07    0.79    1.41    45.18463    56.34572     6.79830
   373  H   1.0    0.03    0.66    1.41    40.66004    57.83231    10.92428
   374  H   1.0    0.04    0.99    1.43    41.62022    60.00573     6.33759
   375  H   1.0    0.07    1.10    1.44    40.80876    57.07228     4.92882
   376  H   1.0    0.06    1.05    1.44    37.25564    59.52627     8.52924
   377  H   1.0    0.07    1.04    1.43    37.18986    60.29955     5.25680
   378  N   5.0   -0.19    3.17    1.95    48.39774    79.49261   -12.00106
   379  C   4.0    0.03    4.23    4.07    47.75827    77.17594   -13.40736
   380  C   4.0    0.15    3.46    3.10    50.10402    75.48041   -13.59707
   381  O   6.0   -0.28    1.24    1.80    52.12341    76.25753   -14.40800
   382  C   4.0   -0.06    4.10    3.79    46.72661    77.82086   -16.01966
   383  H   1.0    0.08    1.01    1.43    47.73818    81.11417   -12.94178
   384  H   1.0    0.05    1.06    1.44    46.31172    76.15154   -12.32549
   385  H   1.0    0.05    1.01    1.43    46.31452    76.10912   -17.02665
   386  H   1.0    0.05    1.00    1.43    44.98975    78.91779   -15.82040
   387  H   1.0    0.05    1.00    1.43    48.11136    78.91924   -17.07960
   388  N   5.0   -0.09    3.68    2.25    49.78232    72.99604   -12.96478
   389  C   4.0    0.03    4.50    4.54    51.90048    71.27193   -13.18673
   390  C   4.0    0.08    3.21    3.04    52.69641    70.93682   -15.96600
   391  O   6.0   -0.30    1.16    1.80    51.10758    71.18150   -17.66817
   392  C   4.0   -0.04    4.37    4.33    50.78799    68.77271   -12.14532
   393  C   4.0   -0.03    4.31    4.22    48.15865    68.96715   -12.49919
   394  C   4.0   -0.01    4.38    4.34    47.49887    71.74155   -12.08118
   395  H   1.0    0.04    1.05    1.44    53.50217    71.93664   -12.10015
   396  H   1.0    0.04    1.01    1.43    51.66408    67.13484   -13.16524
   397  H   1.0    0.04    1.02    1.43    51.33216    68.61628   -10.12659
   398  H   1.0    0.05    1.01    1.43    47.55698    68.38774   -14.43539
   399  H   1.0    0.05    1.00    1.43    47.06608    67.75309   -11.13107
   400  H   1.0    0.05    1.02    1.43    45.83616    72.33596   -13.15970
   401  H   1.0    0.05    1.03    1.43    47.19370    72.13657   -10.09781
   402  N   5.0   -0.20    3.13    1.94    47.99830    72.04474   -27.98428
   403  C   4.0    0.04    4.20    4.00    46.48724    72.74050   -25.70742
   404  C   4.0    0.07    3.16    3.03    46.18272    75.64197   -25.53655
   405  O   6.0   -0.28    1.09    1.80    43.89264    76.49806   -25.53353
   406  C   4.0   -0.03    4.26    4.12    47.54172    71.66981   -23.21814
   407  C   4.0    0.14    3.22    3.04    46.10485    69.36809   -22.28048
   408  O   6.0   -0.29    1.21    1.80    44.23065    68.50354   -23.56101
   409  N   5.0   -0.18    3.17    1.95    46.84576    68.32946   -20.18287
   410  H   1.0    0.08    1.00    1.43    49.58658    70.93523   -27.55648
   411  H   1.0    0.07    1.07    1.44    44.62389    71.92860   -26.01790
   412  H   1.0    0.05    1.04    1.43    49.49233    71.11849   -23.50372
   413  H   1.0    0.05    1.03    1.43    47.43666    73.12149   -21.75203
   414  H   1.0    0.10    1.03    1.43    45.96722    66.78418   -19.45696
   415  H   1.0    0.11    1.05    1.44    48.35181    69.06925   -19.19077
   416  H   1.0    0.10    1.06    1.44    47.02622    71.15729   -29.06134
   417  H   1.0    0.05    1.03    1.43    47.71152    76.74818   -25.43597
   418  H   1.0    0.09    1.06    1.44    26.68030    64.49690   -29.82551
   419  H   1.0    0.06    1.05    1.44    29.72922    51.57227   -17.37238
   420  H   1.0    0.11    1.07    1.44    32.67708    50.51585   -12.98061
   421  H   1.0    0.06    1.04    1.43    33.08788    45.68641    -8.48456
   422  H   1.0    0.09    1.07    1.44    25.98590    49.10781    -1.26694
   423  H   1.0    0.06    1.03    1.43    26.14816    80.39361   -19.18721
   424  H   1.0    0.09    1.08    1.44    17.34130    77.67509   -14.76061
   425  H   1.0    0.05    1.09    1.44    11.54056    74.37870   -11.49264
   426  H   1.0    0.08    1.07    1.44    26.48702    67.22798     5.71572
   427  H   1.0    0.05    1.04    1.43    37.26835    66.46239     6.92289
   428  H   1.0    0.08    1.08    1.44    24.21759    79.60294    -8.79707
   429  H   1.0    0.05    1.04    1.43    26.23183    58.88682     1.61789
   430  H   1.0    0.09    1.14    1.45    12.62332    59.85394   -10.83534
   431  H   1.0    0.04    1.01    1.43    11.38858    65.85970   -15.34827
   432  H   1.0    0.09    1.09    1.44    44.80842    58.21486     9.49052
   433  H   1.0    0.05    1.05    1.44    39.46254    53.74149    10.55383
   434  H   1.0    0.09    1.07    1.44    47.68440    79.43531   -10.45820
   435  H   1.0    0.05    1.04    1.43    54.49047    70.52315   -16.39177

  Z AO/shell   Hii/eV     exponent
  1     Wed Apr 25 08:07:45 CEST 2018   EN: 2.200 GM2: 0.406  GM3: 0.0800  RAES: 1.40
     1s    -10.707211    1.230000
  6     Wed Apr 25 08:07:45 CEST 2018   EN: 2.550 GM2: 0.538  GM3: 0.1500  RAES: 3.00
     2s    -13.970922    2.096432
     2p    -10.063292    1.800000
  7     Wed Apr 25 08:07:45 CEST 2018   EN: 3.040 GM2: 0.461  GM3:-0.0640  RAES: 1.90
     2s    -16.686243    2.339881
     2p    -12.523956    2.014332
  8     Wed Apr 25 08:07:45 CEST 2018   EN: 3.440 GM2: 0.452  GM3:-0.0517  RAES: 1.80
     2s    -20.229985    2.439742
     2p    -15.503117    2.137023
 16     Tue Apr 24 11:44:34 CEST 2018   EN: 2.580 GM2: 0.340  GM3:-0.0502  RAES: 3.10
     3s    -20.029654    1.981333
     3p    -11.377694    2.025643
     3d     -0.420282    1.702555
 no old-style atom pair restraining (fixing) potential

molecular fragmentation (1/2 indicates fragments):
111111111111111111111111111111111111111112222222222222222222222222222222
222222222222222222222222222222222222222222222222222222222222222222222222
222222222222222222222222222222222222222222222222222222222222222222222222
222222222222222222222222222222222222222222222222222222222222222222222222
222222222222222222222222222222222222222222222222222222222222222222222222
222222222222222222222222222222222222222222222222222222222112222222222222
222
# atoms in fragment 1/2:    43   392
 fragment masses (1/2) :      318.39     2621.13
CMA distance (Bohr)    :  14.312
constraining FC (au)   :  0.0500
           ------------------------------------------------- 
          |        Self-Consistent Charge Iterations        |
           ------------------------------------------------- 

 Ncao       : 1056
 Nao        : 1055
 Nshell     : 641
 Nel        : 1166
 T(el)      :   500.0
 intcut     :    35.0
 scfconv/Eh :  0.100E-06
   qconv/e  :  0.100E-04
 intneglect :  0.100E-08
 broydamp   :      0.400
 iter      E             dE          RMSdq      gap      omega  full diag
   1   -663.3116662 -0.663312E+03  0.493E+00    1.63       0.0  T
   2   -664.7218766 -0.141021E+01  0.253E+00    0.01       1.0  T
   3   -665.2250591 -0.503183E+00  0.208E+00    1.15       1.0  T
   4   -666.2141767 -0.989118E+00  0.762E-01    0.63       1.0  T
   5   -666.2826425 -0.684657E-01  0.403E-01    0.43       1.0  T
   6   -666.2940740 -0.114315E-01  0.244E-01    0.23       1.0  T
   7   -666.2987913 -0.471738E-02  0.187E-01    0.55       1.0  T
   8   -666.3103136 -0.115222E-01  0.780E-02    0.50       1.0  T
   9   -666.3114000 -0.108644E-02  0.405E-02    0.39       1.0  T
  10   -666.3115649 -0.164890E-03  0.208E-02    0.39       1.0  T
  11   -666.3115863 -0.214225E-04  0.145E-02    0.40       1.0  T
  12   -666.3116491 -0.627369E-04  0.577E-03    0.38       1.0  T
  13   -666.3116530 -0.389226E-05  0.339E-03    0.39       1.4  T
  14   -666.3116551 -0.213590E-05  0.163E-03    0.39       2.9  T
  15   -666.3116555 -0.407707E-06  0.919E-04    0.39       5.2  T
  16   -666.3116557 -0.177285E-06  0.495E-04    0.39       9.7  T
  17   -666.3116557 -0.503035E-07  0.241E-04    0.39      19.9  T
  18   -666.3116557 -0.109384E-07  0.130E-04    0.39      36.9  T
  19   -666.3116558 -0.335353E-08  0.646E-05    0.39      74.2  T
  20   -666.3116558 -0.646423E-09  0.322E-05    0.39     148.8  T
speedup  1.96
cpu  time for SCC   29.97 s
wall time for SCC   15.30 s

   *** convergence criteria satisfied after 20 iterations ***

          eigenvalues
 #    :         571        572        573        574        575        576        577        578
 occ. :        2.000      2.000      2.000      2.000      2.000      2.000      2.000      2.000
 eps  :       -10.030    -10.013     -9.965     -9.953     -9.947     -9.917     -9.896     -9.864
 #    :         579        580        581        582        583        584        585        586
 occ. :        2.000      1.999      1.998      1.995      1.981      0.026      0.001      0.000
 eps  :        -9.853     -9.723     -9.699     -9.653     -9.595     -9.208     -9.081     -8.857
 #    :         587        588        589        590        591        592        593        594
 occ. :        0.000      0.000      0.000      0.000      0.000      0.000      0.000      0.000
 eps  :        -8.831     -8.680     -8.494     -8.455     -8.401     -8.240     -8.168     -8.081


   #   Z            q   n(s)   n(p)   n(d)      C6AA      α(0)
   1   7 N     -0.397  1.345  4.052  0.000    30.298     8.175
   2   6 C      0.037  1.057  2.906  0.000    19.944     6.357
   3   6 C      0.272  1.046  2.683  0.000    22.411     7.752
   4   8 O     -0.534  1.743  4.791  0.000    24.544     6.642
   5   6 C      0.017  1.064  2.919  0.000    20.288     6.413
   6  16 S     -0.375  1.890  4.440  0.046   157.531    21.125
   7   1 H      0.170  0.830  0.000  0.000     1.273     1.768
   8   1 H      0.048  0.952  0.000  0.000     2.340     2.392
   9   1 H      0.052  0.948  0.000  0.000     2.296     2.370
  10   1 H      0.058  0.942  0.000  0.000     2.217     2.329
  11   1 H      0.239  0.761  0.000  0.000     0.920     1.500
  12   7 N     -0.124  1.231  3.893  0.000    23.693     7.229
  13   6 C      0.022  1.060  2.918  0.000    20.208     6.400
  14   6 C      0.265  1.037  2.698  0.000    22.525     7.773
  15   8 O     -0.568  1.780  4.788  0.000    25.354     6.751
  16   6 C     -0.016  1.056  2.960  0.000    20.816     6.488
  17   6 C     -0.111  1.039  3.071  0.000    22.661     6.786
  18   6 C     -0.135  1.039  3.096  0.000    23.149     6.859
  19   1 H      0.229  0.771  0.000  0.000     0.972     1.544
  20   1 H      0.077  0.923  0.000  0.000     2.012     2.218
  21   1 H      0.041  0.959  0.000  0.000     2.435     2.440
  22   1 H      0.060  0.940  0.000  0.000     2.201     2.320
  23   1 H      0.035  0.965  0.000  0.000     2.515     2.480
  24   1 H      0.046  0.954  0.000  0.000     2.374     2.409
  25   1 H      0.065  0.935  0.000  0.000     2.138     2.286
  26   1 H      0.069  0.931  0.000  0.000     2.094     2.263
  27   1 H      0.042  0.958  0.000  0.000     2.421     2.433
  28   7 N     -0.134  1.236  3.897  0.000    23.897     7.260
  29   6 C      0.038  1.050  2.912  0.000    19.928     6.355
  30   6 C      0.199  1.093  2.708  0.000    23.765     7.984
  31   8 O     -0.350  1.739  4.611  0.000    20.716     6.102
  32   6 C     -0.079  1.055  3.024  0.000    21.998     6.676
  33   6 C      0.279  1.035  2.685  0.000    22.270     7.727
  34   8 O     -0.523  1.768  4.755  0.000    24.289     6.608
  35   7 N     -0.260  1.263  3.998  0.000    26.758     7.683
  36   1 H      0.238  0.762  0.000  0.000     0.930     1.511
  37   1 H      0.103  0.897  0.000  0.000     1.762     2.076
  38   1 H      0.107  0.893  0.000  0.000     1.723     2.053
  39   1 H      0.055  0.945  0.000  0.000     2.257     2.350
  40   1 H      0.254  0.746  0.000  0.000     0.866     1.458
  41   1 H      0.222  0.778  0.000  0.000     0.999     1.566
  42   7 N     -0.401  1.349  4.052  0.000    30.400     8.189
  43   6 C      0.038  1.053  2.909  0.000    19.941     6.359
  44   6 C      0.194  1.105  2.700  0.000    23.853     7.999
  45   8 O     -0.419  1.796  4.624  0.000    22.069     6.298
  46   6 C     -0.020  1.061  2.959  0.000    20.899     6.501
  47   6 C     -0.123  1.044  3.079  0.000    22.897     6.821
  48   6 C     -0.121  1.042  3.079  0.000    22.867     6.818
  49   1 H      0.170  0.830  0.000  0.000     1.276     1.770
  50   1 H      0.071  0.929  0.000  0.000     2.069     2.249
  51   1 H      0.048  0.952  0.000  0.000     2.342     2.393
  52   1 H      0.066  0.934  0.000  0.000     2.125     2.279
  53   1 H      0.041  0.959  0.000  0.000     2.432     2.439
  54   1 H      0.059  0.941  0.000  0.000     2.208     2.324
  55   1 H      0.052  0.948  0.000  0.000     2.297     2.370
  56   1 H      0.047  0.953  0.000  0.000     2.352     2.398
  57   1 H      0.036  0.964  0.000  0.000     2.509     2.477
  58   7 N     -0.388  1.329  4.059  0.000    30.030     8.139
  59   6 C      0.022  1.060  2.917  0.000    20.206     6.401
  60   6 C      0.272  1.040  2.687  0.000    22.397     7.750
  61   8 O     -0.516  1.757  4.759  0.000    24.131     6.586
  62   6 C     -0.072  1.054  3.017  0.000    21.861     6.655
  63   6 C     -0.072  1.050  3.022  0.000    21.861     6.655
  64   6 C     -0.097  1.050  3.047  0.000    22.349     6.730
  65   6 C     -0.049  1.062  2.986  0.000    21.537     6.623
  66   7 N     -0.139  1.234  3.905  0.000    23.990     7.275
  67   1 H      0.157  0.843  0.000  0.000     1.357     1.825
  68   1 H      0.057  0.943  0.000  0.000     2.233     2.337
  69   1 H      0.048  0.952  0.000  0.000     2.341     2.393
  70   1 H      0.043  0.957  0.000  0.000     2.410     2.428
  71   1 H      0.035  0.965  0.000  0.000     2.516     2.481
  72   1 H      0.046  0.954  0.000  0.000     2.364     2.405
  73   1 H      0.081  0.919  0.000  0.000     1.964     2.191
  74   1 H      0.086  0.914  0.000  0.000     1.914     2.164
  75   1 H      0.115  0.885  0.000  0.000     1.656     2.013
  76   1 H      0.094  0.906  0.000  0.000     1.837     2.120
  77   1 H      0.270  0.730  0.000  0.000     0.810     1.410
  78   1 H      0.276  0.724  0.000  0.000     0.788     1.391
  79   1 H      0.301  0.699  0.000  0.000     0.710     1.320
  80   7 N     -0.153  1.237  3.916  0.000    24.312     7.323
  81   6 C      0.016  1.066  2.918  0.000    20.311     6.417
  82   6 C      0.286  1.031  2.683  0.000    22.150     7.707
  83   8 O     -0.488  1.719  4.769  0.000    23.515     6.502
  84   6 C     -0.079  1.061  3.018  0.000    21.992     6.675
  85   6 C     -0.011  1.054  2.957  0.000    20.738     6.477
  86   6 C     -0.120  1.042  3.078  0.000    22.854     6.815
  87   6 C     -0.120  1.043  3.078  0.000    22.852     6.815
  88   1 H      0.213  0.787  0.000  0.000     1.041     1.598
  89   1 H      0.076  0.924  0.000  0.000     2.019     2.222
  90   1 H      0.074  0.926  0.000  0.000     2.045     2.236
  91   1 H      0.056  0.944  0.000  0.000     2.250     2.346
  92   1 H      0.015  0.985  0.000  0.000     2.813     2.623
  93   1 H      0.044  0.956  0.000  0.000     2.395     2.420
  94   1 H      0.031  0.969  0.000  0.000     2.576     2.510
  95   1 H      0.056  0.944  0.000  0.000     2.250     2.346
  96   1 H      0.052  0.948  0.000  0.000     2.295     2.369
  97   1 H      0.059  0.941  0.000  0.000     2.212     2.326
  98   1 H      0.044  0.956  0.000  0.000     2.401     2.423
  99   7 N     -0.225  1.330  3.895  0.000    25.920     7.561
 100   6 C      0.053  1.067  2.881  0.000    19.879     6.383
 101   6 C      0.197  1.110  2.694  0.000    23.804     7.985
 102   8 O     -0.600  1.884  4.716  0.000    26.151     6.855
 103   6 C     -0.067  1.065  3.002  0.000    22.539     6.889
 104   6 C     -0.028  1.033  2.995  0.000    21.106     6.545
 105   6 C      0.252  1.122  2.627  0.000    22.943     7.823
 106   8 O     -0.735  1.932  4.803  0.000    29.801     7.313
 107   8 O     -0.675  1.880  4.795  0.000    28.036     7.099
 108   1 H      0.229  0.771  0.000  0.000     0.970     1.544
 109   1 H      0.088  0.912  0.000  0.000     1.914     2.166
 110   1 H      0.120  0.880  0.000  0.000     1.612     1.985
 111   1 H      0.030  0.970  0.000  0.000     2.800     2.668
 112   1 H      0.101  0.899  0.000  0.000     1.777     2.084
 113   1 H      0.109  0.891  0.000  0.000     1.715     2.050
 114   7 N     -0.130  1.279  3.851  0.000    23.820     7.249
 115   6 C      0.042  1.058  2.900  0.000    19.873     6.348
 116   6 C      0.238  1.089  2.673  0.000    23.019     7.856
 117   8 O     -0.582  1.810  4.773  0.000    25.678     6.794
 118   6 C     -0.002  1.060  2.943  0.000    20.632     6.468
 119   6 C     -0.076  1.058  3.018  0.000    21.962     6.674
 120   6 C     -0.104  1.038  3.067  0.000    22.549     6.770
 121   6 C     -0.127  1.047  3.079  0.000    22.988     6.837
 122   1 H      0.241  0.759  0.000  0.000     0.919     1.502
 123   1 H      0.095  0.905  0.000  0.000     1.828     2.114
 124   1 H     -0.003  1.003  0.000  0.000     3.132     2.774
 125   1 H      0.044  0.956  0.000  0.000     2.398     2.422
 126   1 H      0.077  0.923  0.000  0.000     2.012     2.218
 127   1 H      0.046  0.954  0.000  0.000     2.372     2.409
 128   1 H      0.019  0.981  0.000  0.000     2.752     2.594
 129   1 H      0.074  0.926  0.000  0.000     2.038     2.232
 130   1 H      0.052  0.948  0.000  0.000     2.294     2.368
 131   1 H      0.059  0.941  0.000  0.000     2.207     2.323
 132   1 H      0.035  0.965  0.000  0.000     2.519     2.482
 133   7 N     -0.132  1.255  3.878  0.000    23.874     7.257
 134   6 C      0.030  1.064  2.907  0.000    20.075     6.378
 135   6 C      0.263  1.036  2.701  0.000    22.565     7.779
 136   8 O     -0.527  1.766  4.762  0.000    24.394     6.622
 137   6 C     -0.069  1.052  3.017  0.000    21.810     6.646
 138   6 C     -0.004  1.053  2.952  0.000    20.623     6.459
 139   6 C     -0.116  1.042  3.075  0.000    22.782     6.805
 140   6 C     -0.093  1.032  3.061  0.000    22.322     6.736
 141   1 H      0.267  0.733  0.000  0.000     0.820     1.419
 142   1 H      0.075  0.925  0.000  0.000     2.030     2.228
 143   1 H      0.050  0.950  0.000  0.000     2.322     2.383
 144   1 H      0.075  0.925  0.000  0.000     2.028     2.227
 145   1 H      0.024  0.976  0.000  0.000     2.677     2.559
 146   1 H      0.043  0.957  0.000  0.000     2.407     2.426
 147   1 H      0.054  0.946  0.000  0.000     2.270     2.356
 148   1 H      0.049  0.951  0.000  0.000     2.326     2.385
 149   1 H      0.039  0.961  0.000  0.000     2.463     2.454
 150   1 H      0.035  0.965  0.000  0.000     2.513     2.479
 151   1 H      0.004  0.996  0.000  0.000     2.987     2.703
 152   7 N     -0.129  1.230  3.899  0.000    23.803     7.246
 153   6 C      0.015  1.064  2.920  0.000    20.314     6.416
 154   6 C      0.261  1.037  2.702  0.000    22.593     7.784
 155   8 O     -0.551  1.776  4.775  0.000    24.938     6.695
 156   6 C     -0.052  1.043  3.009  0.000    21.508     6.602
 157   6 C     -0.091  1.060  3.032  0.000    22.242     6.714
 158   6 C      0.274  1.040  2.686  0.000    22.370     7.744
 159   8 O     -0.578  1.793  4.784  0.000    25.575     6.780
 160   7 N     -0.231  1.254  3.977  0.000    26.063     7.582
 161   1 H      0.218  0.782  0.000  0.000     1.018     1.581
 162   1 H      0.087  0.913  0.000  0.000     1.907     2.160
 163   1 H      0.067  0.933  0.000  0.000     2.120     2.277
 164   1 H      0.077  0.923  0.000  0.000     2.008     2.216
 165   1 H      0.085  0.915  0.000  0.000     1.933     2.174
 166   1 H      0.055  0.945  0.000  0.000     2.257     2.350
 167   1 H      0.240  0.760  0.000  0.000     0.922     1.504
 168   1 H      0.255  0.745  0.000  0.000     0.865     1.457
 169   7 N     -0.111  1.234  3.877  0.000    23.435     7.190
 170   6 C      0.031  1.063  2.906  0.000    20.066     6.379
 171   6 C      0.200  1.101  2.699  0.000    23.742     7.979
 172   8 O     -0.361  1.783  4.578  0.000    20.924     6.133
 173   6 C     -0.111  1.068  3.044  0.000    22.619     6.770
 174   6 C      0.275  1.033  2.692  0.000    22.349     7.740
 175   8 O     -0.563  1.785  4.778  0.000    25.229     6.734
 176   7 N     -0.209  1.253  3.956  0.000    25.560     7.509
 177   1 H      0.224  0.776  0.000  0.000     0.991     1.559
 178   1 H      0.108  0.892  0.000  0.000     1.714     2.047
 179   1 H      0.099  0.901  0.000  0.000     1.791     2.093
 180   1 H      0.111  0.889  0.000  0.000     1.690     2.033
 181   1 H      0.259  0.741  0.000  0.000     0.851     1.445
 182   1 H      0.258  0.742  0.000  0.000     0.854     1.448
 183   7 N     -0.400  1.324  4.077  0.000    30.383     8.186
 184   6 C      0.012  1.045  2.943  0.000    20.409     6.439
 185   6 C      0.233  1.042  2.725  0.000    23.123     7.879
 186   8 O     -0.376  1.708  4.667  0.000    21.199     6.173
 187   6 C     -0.112  1.073  3.039  0.000    22.866     6.846
 188   6 C     -0.010  1.116  2.894  0.000    28.260     8.717
 189   6 C     -0.049  1.081  2.968  0.000    29.215     8.862
 190   6 C     -0.019  1.047  2.972  0.000    28.476     8.750
 191   6 C     -0.076  1.113  2.963  0.000    29.899     8.967
 192   6 C     -0.050  1.065  2.986  0.000    29.243     8.870
 193   6 C      0.111  1.094  2.795  0.000    25.542     8.280
 194   8 O     -0.453  1.688  4.765  0.000    21.912     6.319
 195   1 H      0.175  0.825  0.000  0.000     1.245     1.748
 196   1 H      0.081  0.919  0.000  0.000     1.964     2.191
 197   1 H      0.099  0.901  0.000  0.000     1.791     2.092
 198   1 H      0.055  0.945  0.000  0.000     2.259     2.350
 199   1 H      0.073  0.927  0.000  0.000     2.057     2.243
 200   1 H      0.072  0.928  0.000  0.000     2.069     2.249
 201   1 H      0.028  0.972  0.000  0.000     2.608     2.526
 202   1 H      0.057  0.943  0.000  0.000     2.234     2.337
 203   1 H      0.328  0.672  0.000  0.000     0.642     1.258
 204   7 N     -0.404  1.348  4.056  0.000    30.481     8.200
 205   6 C      0.030  1.059  2.912  0.000    20.086     6.382
 206   6 C      0.273  1.047  2.680  0.000    22.380     7.748
 207   8 O     -0.557  1.762  4.795  0.000    25.080     6.714
 208   6 C     -0.074  1.056  3.018  0.000    21.915     6.664
 209   6 C     -0.058  1.044  3.014  0.000    21.618     6.619
 210   6 C     -0.089  1.057  3.033  0.000    22.197     6.707
 211   6 C     -0.046  1.056  2.989  0.000    21.482     6.615
 212   7 N     -0.141  1.231  3.911  0.000    24.047     7.283
 213   1 H      0.153  0.847  0.000  0.000     1.381     1.841
 214   1 H      0.060  0.940  0.000  0.000     2.197     2.318
 215   1 H      0.050  0.950  0.000  0.000     2.320     2.382
 216   1 H      0.053  0.947  0.000  0.000     2.284     2.364
 217   1 H      0.024  0.976  0.000  0.000     2.672     2.556
 218   1 H      0.043  0.957  0.000  0.000     2.405     2.425
 219   1 H      0.078  0.922  0.000  0.000     1.997     2.210
 220   1 H      0.080  0.920  0.000  0.000     1.975     2.198
 221   1 H      0.101  0.899  0.000  0.000     1.780     2.086
 222   1 H      0.108  0.892  0.000  0.000     1.718     2.049
 223   1 H      0.297  0.703  0.000  0.000     0.721     1.331
 224   1 H      0.291  0.709  0.000  0.000     0.741     1.349
 225   1 H      0.309  0.691  0.000  0.000     0.688     1.300
 226   7 N     -0.180  1.272  3.908  0.000    24.907     7.412
 227   6 C      0.039  1.057  2.904  0.000    19.920     6.354
 228   6 C      0.185  1.097  2.717  0.000    24.025     8.028
 229   8 O     -0.405  1.800  4.605  0.000    21.776     6.256
 230   6 C     -0.118  1.059  3.058  0.000    22.731     6.785
 231   6 C      0.286  1.035  2.679  0.000    22.152     7.706
 232   8 O     -0.495  1.755  4.741  0.000    23.639     6.521
 233   7 N     -0.218  1.252  3.965  0.000    25.753     7.537
 234   1 H      0.251  0.749  0.000  0.000     0.880     1.469
 235   1 H      0.155  0.845  0.000  0.000     1.356     1.821
 236   1 H      0.106  0.894  0.000  0.000     1.729     2.056
 237   1 H      0.100  0.900  0.000  0.000     1.782     2.087
 238   1 H      0.217  0.783  0.000  0.000     1.025     1.586
 239   1 H      0.253  0.747  0.000  0.000     0.872     1.463
 240   7 N     -0.365  1.344  4.021  0.000    29.415     8.055
 241   6 C      0.066  1.057  2.877  0.000    19.530     6.302
 242   6 C      0.232  1.080  2.688  0.000    23.138     7.877
 243   8 O     -0.594  1.816  4.777  0.000    25.963     6.831
 244   6 C     -0.054  1.061  2.993  0.000    21.597     6.625
 245   6 C     -0.018  1.052  2.966  0.000    20.862     6.498
 246   6 C     -0.118  1.038  3.080  0.000    22.841     6.818
 247   6 C     -0.119  1.079  3.040  0.000    22.920     6.841
 248   1 H      0.142  0.858  0.000  0.000     1.457     1.891
 249   1 H      0.012  0.988  0.000  0.000     2.862     2.648
 250   1 H     -0.012  1.012  0.000  0.000     3.316     2.857
 251   1 H      0.054  0.946  0.000  0.000     2.270     2.356
 252   1 H      0.045  0.955  0.000  0.000     2.378     2.411
 253   1 H      0.071  0.929  0.000  0.000     2.069     2.249
 254   1 H      0.053  0.947  0.000  0.000     2.284     2.363
 255   1 H      0.034  0.966  0.000  0.000     2.535     2.491
 256   1 H      0.013  0.987  0.000  0.000     2.861     2.650
 257   1 H      0.046  0.954  0.000  0.000     2.376     2.410
 258   1 H      0.054  0.946  0.000  0.000     2.273     2.358
 259   7 N     -0.111  1.236  3.875  0.000    23.420     7.188
 260   6 C      0.032  1.056  2.913  0.000    20.036     6.372
 261   6 C      0.276  1.038  2.685  0.000    22.329     7.738
 262   8 O     -0.527  1.760  4.768  0.000    24.402     6.623
 263   6 C     -0.072  1.048  3.023  0.000    21.858     6.654
 264   6 C      0.009  1.052  2.938  0.000    27.330     8.528
 265   7 N     -0.036  1.228  3.807  0.000    21.925     6.954
 266   6 C      0.012  1.058  2.930  0.000    27.193     8.499
 267   6 C      0.101  1.037  2.862  0.000    25.332     8.212
 268   7 N     -0.337  1.491  3.846  0.000    29.473     8.053
 269   1 H      0.214  0.786  0.000  0.000     1.037     1.595
 270   1 H      0.089  0.911  0.000  0.000     1.891     2.151
 271   1 H      0.054  0.946  0.000  0.000     2.265     2.354
 272   1 H      0.069  0.931  0.000  0.000     2.095     2.263
 273   1 H      0.183  0.817  0.000  0.000     1.201     1.718
 274   1 H      0.027  0.973  0.000  0.000     2.635     2.538
 275   1 H      0.054  0.946  0.000  0.000     2.271     2.357
 276   7 N     -0.171  1.275  3.896  0.000    24.692     7.380
 277   6 C      0.057  1.065  2.877  0.000    19.590     6.296
 278   6 C      0.213  1.118  2.669  0.000    23.481     7.932
 279   8 O     -0.653  1.876  4.776  0.000    27.464     7.025
 280   6 C      0.048  1.000  2.953  0.000    19.840     6.354
 281   6 C     -0.067  1.034  3.033  0.000    21.744     6.631
 282   6 C     -0.096  1.058  3.037  0.000    22.317     6.724
 283   1 H      0.223  0.777  0.000  0.000     1.000     1.568
 284   1 H      0.048  0.952  0.000  0.000     2.349     2.398
 285   1 H      0.008  0.992  0.000  0.000     2.978     2.711
 286   1 H      0.087  0.913  0.000  0.000     1.908     2.160
 287   1 H     -0.002  1.002  0.000  0.000     3.094     2.752
 288   1 H     -0.021  1.021  0.000  0.000     3.479     2.924
 289   1 H      0.083  0.917  0.000  0.000     1.958     2.189
 290   1 H      0.068  0.932  0.000  0.000     2.109     2.271
 291   1 H     -0.009  1.009  0.000  0.000     3.293     2.854
 292   7 N     -0.198  1.335  3.863  0.000    25.295     7.470
 293   6 C     -0.005  1.057  2.948  0.000    20.787     6.514
 294   6 C      0.176  1.096  2.728  0.000    24.292     8.055
 295   8 O     -0.762  1.936  4.826  0.000    30.626     7.408
 296   1 H      0.282  0.718  0.000  0.000     0.768     1.372
 297   1 H      0.138  0.862  0.000  0.000     1.472     1.897
 298   1 H      0.116  0.884  0.000  0.000     1.649     2.008
 299   7 N      0.012  1.199  3.789  0.000    21.057     6.815
 300   6 C      0.035  1.064  2.901  0.000    19.950     6.352
 301   6 C      0.341  0.989  2.670  0.000    21.205     7.540
 302   8 O     -0.495  1.656  4.839  0.000    23.607     6.517
 303   6 C     -0.156  1.051  3.105  0.000    30.975     9.026
 304   6 C      0.294  1.122  2.584  0.000    24.246     7.957
 305   8 O     -0.593  1.843  4.749  0.000    25.942     6.829
 306   8 O     -0.498  1.769  4.730  0.000    23.748     6.534
 307   1 H      0.255  0.745  0.000  0.000     0.864     1.456
 308   1 H      0.046  0.954  0.000  0.000     2.369     2.408
 309   1 H      0.102  0.898  0.000  0.000     1.770     2.080
 310   1 H      0.040  0.960  0.000  0.000     2.452     2.449
 311   7 N     -0.242  1.301  3.941  0.000    26.350     7.623
 312   6 C      0.063  1.114  2.823  0.000    24.302     7.816
 313   6 C      0.184  1.114  2.702  0.000    24.136     8.029
 314   8 O     -0.640  1.927  4.713  0.000    27.227     6.989
 315   6 C      0.022  1.126  2.852  0.000    27.511     8.599
 316   8 O     -0.637  1.947  4.689  0.000    27.151     6.979
 317   6 C     -0.128  1.038  3.090  0.000    23.414     6.968
 318   1 H      0.272  0.728  0.000  0.000     0.838     1.449
 319   1 H      0.123  0.877  0.000  0.000     2.574     2.767
 320   1 H      0.152  0.848  0.000  0.000     1.377     1.835
 321   1 H      0.256  0.744  0.000  0.000     0.986     1.607
 322   1 H      0.090  0.910  0.000  0.000     1.910     2.170
 323   1 H      0.146  0.854  0.000  0.000     1.417     1.861
 324   1 H      0.123  0.877  0.000  0.000     1.595     1.976
 325   7 N     -0.094  1.245  3.849  0.000    23.077     7.135
 326   6 C      0.017  1.064  2.919  0.000    20.303     6.417
 327   6 C      0.197  1.095  2.708  0.000    23.802     7.990
 328   8 O     -0.354  1.749  4.605  0.000    20.776     6.111
 329   6 C     -0.018  1.063  2.955  0.000    20.855     6.495
 330   6 C     -0.058  1.044  3.015  0.000    21.616     6.618
 331   6 C     -0.129  1.040  3.088  0.000    23.022     6.841
 332   6 C     -0.116  1.033  3.083  0.000    22.775     6.804
 333   1 H      0.231  0.769  0.000  0.000     0.963     1.537
 334   1 H      0.103  0.897  0.000  0.000     1.757     2.073
 335   1 H      0.059  0.941  0.000  0.000     2.216     2.328
 336   1 H      0.034  0.966  0.000  0.000     2.526     2.485
 337   1 H      0.059  0.941  0.000  0.000     2.209     2.324
 338   1 H      0.077  0.923  0.000  0.000     2.013     2.219
 339   1 H      0.047  0.953  0.000  0.000     2.354     2.399
 340   1 H      0.061  0.939  0.000  0.000     2.187     2.313
 341   1 H      0.047  0.953  0.000  0.000     2.352     2.398
 342   1 H      0.047  0.953  0.000  0.000     2.357     2.401
 343   1 H      0.049  0.951  0.000  0.000     2.328     2.386
 344   7 N     -0.348  1.230  4.118  0.000    28.972     7.994
 345   6 C      0.068  1.030  2.902  0.000    19.466     6.287
 346   6 C      0.122  1.164  2.715  0.000    25.306     8.236
 347   8 O     -0.485  1.873  4.612  0.000    23.471     6.495
 348   6 C     -0.038  1.079  2.958  0.000    21.206     6.549
 349   6 C     -0.067  1.039  3.028  0.000    21.783     6.644
 350   6 C     -0.101  1.055  3.046  0.000    22.534     6.777
 351   6 C     -0.109  1.047  3.062  0.000    22.692     6.801
 352   1 H      0.199  0.801  0.000  0.000     1.110     1.650
 353   1 H      0.067  0.933  0.000  0.000     2.116     2.275
 354   1 H      0.059  0.941  0.000  0.000     2.215     2.328
 355   1 H      0.047  0.953  0.000  0.000     2.361     2.403
 356   1 H      0.048  0.952  0.000  0.000     2.342     2.393
 357   1 H      0.049  0.951  0.000  0.000     2.332     2.388
 358   1 H      0.046  0.954  0.000  0.000     2.372     2.408
 359   1 H      0.005  0.995  0.000  0.000     2.977     2.700
 360   1 H      0.034  0.966  0.000  0.000     2.532     2.489
 361   1 H      0.029  0.971  0.000  0.000     2.600     2.523
 362   1 H      0.069  0.931  0.000  0.000     2.099     2.265
 363   7 N     -0.352  1.360  3.992  0.000    29.099     8.011
 364   6 C      0.065  1.074  2.861  0.000    21.372     6.915
 365   6 C      0.234  1.061  2.705  0.000    23.102     7.872
 366   8 O     -0.274  1.662  4.612  0.000    19.323     5.894
 367   6 C     -0.079  1.053  3.027  0.000    22.044     6.690
 368   6 C     -0.090  1.075  3.015  0.000    22.255     6.723
 369   6 C      0.263  1.147  2.590  0.000    22.605     7.774
 370   8 O     -0.769  1.933  4.836  0.000    30.733     7.430
 371   8 O     -0.530  1.781  4.750  0.000    24.467     6.632
 372   1 H      0.158  0.842  0.000  0.000     1.403     1.874
 373   1 H     -0.067  1.067  0.000  0.000     5.345     3.759
 374   1 H      0.039  0.961  0.000  0.000     2.466     2.457
 375   1 H      0.110  0.890  0.000  0.000     1.692     2.034
 376   1 H      0.054  0.946  0.000  0.000     2.276     2.359
 377   1 H      0.071  0.929  0.000  0.000     2.079     2.255
 378   7 N     -0.392  1.343  4.049  0.000    30.159     8.156
 379   6 C      0.040  1.055  2.905  0.000    19.920     6.358
 380   6 C      0.261  1.057  2.683  0.000    22.610     7.787
 381   8 O     -0.479  1.746  4.733  0.000    23.315     6.474
 382   6 C     -0.106  1.039  3.067  0.000    22.585     6.776
 383   1 H      0.166  0.834  0.000  0.000     1.299     1.785
 384   1 H      0.015  0.985  0.000  0.000     2.805     2.619
 385   1 H      0.033  0.967  0.000  0.000     2.537     2.491
 386   1 H      0.050  0.950  0.000  0.000     2.326     2.385
 387   1 H      0.063  0.937  0.000  0.000     2.161     2.299
 388   7 N     -0.092  1.232  3.860  0.000    23.034     7.128
 389   6 C      0.021  1.066  2.913  0.000    20.194     6.393
 390   6 C      0.200  1.094  2.706  0.000    23.735     7.978
 391   8 O     -0.373  1.753  4.620  0.000    21.145     6.165
 392   6 C     -0.056  1.051  3.006  0.000    21.555     6.604
 393   6 C     -0.052  1.040  3.012  0.000    21.481     6.593
 394   6 C      0.000  1.048  2.951  0.000    20.594     6.465
 395   1 H      0.088  0.912  0.000  0.000     1.896     2.153
 396   1 H      0.068  0.932  0.000  0.000     2.104     2.269
 397   1 H      0.081  0.919  0.000  0.000     1.973     2.197
 398   1 H      0.045  0.955  0.000  0.000     2.382     2.414
 399   1 H      0.055  0.945  0.000  0.000     2.259     2.351
 400   1 H      0.048  0.952  0.000  0.000     2.347     2.396
 401   1 H      0.055  0.945  0.000  0.000     2.259     2.350
 402   7 N     -0.384  1.338  4.046  0.000    29.934     8.126
 403   6 C      0.038  1.058  2.904  0.000    19.952     6.364
 404   6 C      0.183  1.114  2.703  0.000    24.068     8.034
 405   8 O     -0.388  1.787  4.600  0.000    21.436     6.207
 406   6 C     -0.098  1.063  3.034  0.000    22.358     6.731
 407   6 C      0.278  1.043  2.679  0.000    22.295     7.731
 408   8 O     -0.550  1.785  4.765  0.000    24.927     6.694
 409   7 N     -0.250  1.257  3.993  0.000    26.508     7.647
 410   1 H      0.167  0.833  0.000  0.000     1.290     1.780
 411   1 H      0.075  0.925  0.000  0.000     2.033     2.230
 412   1 H      0.098  0.902  0.000  0.000     1.803     2.100
 413   1 H      0.070  0.930  0.000  0.000     2.084     2.258
 414   1 H      0.221  0.779  0.000  0.000     1.006     1.571
 415   1 H      0.237  0.763  0.000  0.000     0.937     1.517
 416   1 H      0.189  0.811  0.000  0.000     1.165     1.691
 417   1 H      0.104  0.896  0.000  0.000     1.749     2.068
 418   1 H      0.189  0.811  0.000  0.000     1.164     1.690
 419   1 H      0.106  0.894  0.000  0.000     1.729     2.056
 420   1 H      0.171  0.829  0.000  0.000     1.268     1.764
 421   1 H      0.086  0.914  0.000  0.000     1.914     2.163
 422   1 H      0.185  0.815  0.000  0.000     1.188     1.707
 423   1 H      0.111  0.889  0.000  0.000     1.691     2.033
 424   1 H      0.181  0.819  0.000  0.000     1.210     1.723
 425   1 H      0.026  0.974  0.000  0.000     2.639     2.540
 426   1 H      0.190  0.810  0.000  0.000     1.155     1.684
 427   1 H      0.088  0.912  0.000  0.000     1.894     2.152
 428   1 H      0.200  0.800  0.000  0.000     1.107     1.648
 429   1 H      0.097  0.903  0.000  0.000     1.815     2.107
 430   1 H      0.212  0.788  0.000  0.000     1.048     1.603
 431   1 H      0.094  0.906  0.000  0.000     1.836     2.119
 432   1 H      0.196  0.804  0.000  0.000     1.125     1.662
 433   1 H      0.010  0.990  0.000  0.000     2.887     2.657
 434   1 H      0.179  0.821  0.000  0.000     1.218     1.729
 435   1 H      0.093  0.907  0.000  0.000     1.846     2.124

 Mol. C6AA /au·bohr⁶  :    1719713.250721
 Mol. C8AA /au·bohr⁸  :   38235538.667613
 Mol. α(0) /au        :       1963.680464

 
molecular dipole:
                 x           y           z       tot (Debye)
 q only:      -42.260     -53.546      13.061
   full:      -40.939     -52.809      13.392     173.218
molecular quadrupole (traceless):
                xx          xy          yy          xz          yz          zz
 q only:     -211.055   -3646.131   -1715.350     744.557    1223.712    1926.406
  q+dip:     -197.904   -3476.131   -1697.249     740.166    1232.408    1895.153
   full:     -194.805   -3477.376   -1696.603     741.877    1229.784    1891.408
speedup  1.97
cpu  time for grad   38.22 s
wall time for grad   19.42 s

SCC energy    :    -666.3305365
rep           :       8.7830281
ES            :       2.4077802
AES           :      -0.0516426
AXC           :       0.2611656
disp          :      -0.5721597
XB            :       0.0000000
fix           :       0.0000000
Gborn         :       0.0000000
Gsasa         :       0.0000000
Ghb           :       0.0000000
Gshift        :       0.0000000
Gsolv         :      -0.5412971     -339.67
Etot ala COSMO:    -666.3305365
grad norm     :       2.2687542
total E       :    -657.4833274
atomizationE  :     117.4237245    73684.50
(atE without considering molecular charge,
 total energy contains solvation terms)
H-L gap (eV)  :          0.3865

------------------------------------------------------------------------
 * finished run on 2019/05/05 at 18:41:40.093     
------------------------------------------------------------------------
 total:
 * wall-time:     0 d,  0 h,  0 min, 20.497 sec
 *  cpu-time:     0 d,  0 h,  0 min, 40.234 sec
 * ratio c/w:     1.963 speedup
 SCF:
 * wall-time:     0 d,  0 h,  0 min, 20.244 sec
 *  cpu-time:     0 d,  0 h,  0 min, 39.856 sec
 * ratio c/w:     1.969 speedup

